<LesHouchesEvents version="3.0">
<header>
<!--
#*********************************************************************
#                                                                    *
#                        MadGraph5_aMC@NLO                           *
#                                                                    *
#                           Going Beyond                             *
#                                                                    *
#                   http://madgraph.hep.uiuc.edu                     *
#                   http://madgraph.phys.ucl.ac.be                   *
#                   http://amcatnlo.cern.ch                          *
#                                                                    *
#                     The MadGraph5_aMC@NLO team                     *
#                                                                    *
#....................................................................*
#                                                                    *
# This file contains all the information necessary to reproduce      *
# the events generated:                                              *
#                                                                    *
# 1. software version                                                *
# 2. proc_card          : code generation info including model       *
# 3. param_card         : model primary parameters in the LH format  *
# 4. run_card           : running parameters (collider and cuts)     *
# 5. pythia_card        : present only if pythia has been run        *
# 6. pgs_card           : present only if pgs has been run           *
# 7. delphes_cards      : present only if delphes has been run       *
#                                                                    *
#                                                                    *
#*********************************************************************
-->
<MGVersion>
#5.2.2.3
</MGVersion>
<MG5ProcCard>
#************************************************************
#*                     MadGraph5_aMC@NLO                    *
#*                                                          *
#*                *                       *                 *
#*                  *        * *        *                   *
#*                    * * * * 5 * * * *                     *
#*                  *        * *        *                   *
#*                *                       *                 *
#*                                                          *
#*                                                          *
#*         VERSION 2.2.3                 2015-02-10         *
#*                                                          *
#*    The MadGraph5_aMC@NLO Development Team - Find us at   *
#*    https://server06.fynu.ucl.ac.be/projects/madgraph     *
#*                                                          *
#************************************************************
#*                                                          *
#*               Command File for MadGraph5_aMC@NLO         *
#*                                                          *
#*     run as ./bin/mg5_aMC  filename                       *
#*                                                          *
#************************************************************
set group_subprocesses Auto
set ignore_six_quark_processes False
set loop_optimized_output True
set gauge unitary
set complex_mass_scheme False
import model sm
define p = g u c d s u~ c~ d~ s~
define j = g u c d s u~ c~ d~ s~
define l+ = e+ mu+
define l- = e- mu-
define vl = ve vm vt
define vl~ = ve~ vm~ vt~
import model Zprime_UFO
generate p p > zph, zph > j j
add process p p > zph, zph > b b~
output Dijet_signal
</MG5ProcCard>
<MGProcCard>
#*********************************************************************
#                        MadGraph/MadEvent                           *
#                   http://madgraph.hep.uiuc.edu                     *
#                                                                    *
#                          proc_card.dat                             *
#*********************************************************************
#                                                                    *
#            This Files is generated by MADGRAPH 5                   *
#                                                                    *
# WARNING: This Files is generated for MADEVENT (compatibility issue)*
#          This files is NOT a valid MG4 proc_card.dat               *
#          Running this in MG4 will NEVER reproduce the result of MG5*
#                                                                    *
#*********************************************************************
#*********************************************************************
# Process(es) requested : mg2 input                                  *
#*********************************************************************
# Begin PROCESS # This is TAG. Do not modify this line
p p > zph , zph > j j           #Process
# Be carefull the coupling are here in MG5 convention
          
end_coup           # End the couplings input

done               # this tells MG there are no more procs
# End PROCESS  # This is TAG. Do not modify this line
#*********************************************************************
# Model information                                                  *
#*********************************************************************
# Begin MODEL  # This is TAG. Do not modify this line
Zprime_UFO
# End   MODEL  # This is TAG. Do not modify this line
#*********************************************************************
# Start multiparticle definitions                                    *
#*********************************************************************
# Begin MULTIPARTICLES # This is TAG. Do not modify this line

# End  MULTIPARTICLES # This is TAG. Do not modify this line
</MGProcCard>
<MGRunCard>
#*********************************************************************
#                       MadGraph5_aMC@NLO                            *
#                                                                    *
#                     run_card.dat MadEvent                          *
#                                                                    *
#  This file is used to set the parameters of the run.               *
#                                                                    *
#  Some notation/conventions:                                        *
#                                                                    *
#   Lines starting with a '# ' are info or comments                  *
#                                                                    *
#   mind the format:   value    = variable     ! comment             *
#*********************************************************************
#
#*******************                                                 
# Running parameters
#*******************                                                 
#                                                                    
#*********************************************************************
# Tag name for the run (one word)                                    *
#*********************************************************************
  tag_1     = run_tag ! name of the run 
#*********************************************************************
# Run to generate the grid pack                                      *
#*********************************************************************
  .false.     = gridpack  !True = setting up the grid pack
#*********************************************************************
# Number of events and rnd seed                                      *
# Warning: Do not generate more than 1M events in a single run       *
# If you want to run Pythia, avoid more than 50k events in a run.    *
#*********************************************************************
  2000 = nevents ! Number of unweighted events requested 
 2694 = iseed   ! rnd seed (0=assigned automatically=default))
#*********************************************************************
# Collider type and energy                                           *
# lpp: 0=No PDF, 1=proton, -1=antiproton, 2=photon from proton,      *
#                                         3=photon from electron     *
#*********************************************************************
        1     = lpp1    ! beam 1 type 
        1     = lpp2    ! beam 2 type
     4000     = ebeam1  ! beam 1 total energy in GeV
     4000     = ebeam2  ! beam 2 total energy in GeV
#*********************************************************************
# Beam polarization from -100 (left-handed) to 100 (right-handed)    *
#*********************************************************************
        0     = polbeam1 ! beam polarization for beam 1
        0     = polbeam2 ! beam polarization for beam 2
#*********************************************************************
# PDF CHOICE: this automatically fixes also alpha_s and its evol.    *
#*********************************************************************
 'nn23lo1'    = pdlabel     ! PDF set                                     
 230000    = lhaid     ! if pdlabel=lhapdf, this is the lhapdf number
#*********************************************************************
# Renormalization and factorization scales                           *
#*********************************************************************
 F        = fixed_ren_scale  ! if .true. use fixed ren scale
 F        = fixed_fac_scale  ! if .true. use fixed fac scale
 91.1880  = scale            ! fixed ren scale
 91.1880  = dsqrt_q2fact1    ! fixed fact scale for pdf1
 91.1880  = dsqrt_q2fact2    ! fixed fact scale for pdf2
 1        = scalefact        ! scale factor for event-by-event scales
#*********************************************************************
# Matching - Warning! ickkw > 1 is still beta
#*********************************************************************
 0        = ickkw            ! 0 no matching, 1 MLM, 2 CKKW matching
 1        = highestmult      ! for ickkw=2, highest mult group
 1        = ktscheme         ! for ickkw=1, 1 Durham kT, 2 Pythia pTE
 1        = alpsfact         ! scale factor for QCD emission vx
 F        = chcluster        ! cluster only according to channel diag
 T        = pdfwgt           ! for ickkw=1, perform pdf reweighting
 5        = asrwgtflavor     ! highest quark flavor for a_s reweight
 T        = clusinfo         ! include clustering tag in output
 3.0      = lhe_version       ! Change the way clustering information pass to shower.        
#*********************************************************************
#**********************************************************
#
#**********************************************************
# Automatic ptj and mjj cuts if xqcut > 0
# (turn off for VBF and single top processes)
#**********************************************************
   T  = auto_ptj_mjj  ! Automatic setting of ptj and mjj
#**********************************************************
#                                                                    
#**********************************
# BW cutoff (M+/-bwcutoff*Gamma)
#**********************************
  15  = bwcutoff      ! (M+/-bwcutoff*Gamma)
#**********************************************************
# Apply pt/E/eta/dr/mij cuts on decay products or not
# (note that etmiss/ptll/ptheavy/ht/sorted cuts always apply)
#**********************************************************
   T  = cut_decays    ! Cut decay products 
#*************************************************************
# Number of helicities to sum per event (0 = all helicities)
# 0 gives more stable result, but longer run time (needed for
# long decay chains e.g.).
# Use >=2 if most helicities contribute, e.g. pure QCD.
#*************************************************************
   0  = nhel          ! Number of helicities used per event
#*******************                                                 
# Standard Cuts
#*******************                                                 
#                                                                    
#*********************************************************************
# Minimum and maximum pt's (for max, -1 means no cut)                *
#*********************************************************************
 20  = ptj       ! minimum pt for the jets 
  0  = ptb       ! minimum pt for the b 
 10  = pta       ! minimum pt for the photons 
 10  = ptl       ! minimum pt for the charged leptons 
  0  = misset    ! minimum missing Et (sum of neutrino's momenta)
  0  = ptheavy   ! minimum pt for one heavy final state
 1.0 = ptonium   ! minimum pt for the quarkonium states
 -1  = ptjmax    ! maximum pt for the jets
 -1  = ptbmax    ! maximum pt for the b
 -1  = ptamax    ! maximum pt for the photons
 -1  = ptlmax    ! maximum pt for the charged leptons
 -1  = missetmax ! maximum missing Et (sum of neutrino's momenta)
#*********************************************************************
# Minimum and maximum E's (in the center of mass frame)              *
#*********************************************************************
  0  = ej     ! minimum E for the jets 
  0  = eb     ! minimum E for the b 
  0  = ea     ! minimum E for the photons 
  0  = el     ! minimum E for the charged leptons 
 -1   = ejmax ! maximum E for the jets
 -1   = ebmax ! maximum E for the b
 -1   = eamax ! maximum E for the photons
 -1   = elmax ! maximum E for the charged leptons
#*********************************************************************
# Maximum and minimum absolute rapidity (for max, -1 means no cut)   *
#*********************************************************************
   5  = etaj    ! max rap for the jets 
  -1  = etab    ! max rap for the b
 2.5  = etaa    ! max rap for the photons 
 2.5  = etal    ! max rap for the charged leptons 
 0.6  = etaonium ! max rap for the quarkonium states
   0  = etajmin ! min rap for the jets
   0  = etabmin ! min rap for the b
   0  = etaamin ! min rap for the photons
   0  = etalmin ! main rap for the charged leptons
#*********************************************************************
# Minimum and maximum DeltaR distance                                *
#*********************************************************************
 0.4 = drjj    ! min distance between jets 
 0   = drbb    ! min distance between b's 
 0.4 = drll    ! min distance between leptons 
 0.4 = draa    ! min distance between gammas 
 0   = drbj    ! min distance between b and jet 
 0.4 = draj    ! min distance between gamma and jet 
 0.4 = drjl    ! min distance between jet and lepton 
 0   = drab    ! min distance between gamma and b 
 0   = drbl    ! min distance between b and lepton 
 0.4 = dral    ! min distance between gamma and lepton 
 -1  = drjjmax ! max distance between jets
 -1  = drbbmax ! max distance between b's
 -1  = drllmax ! max distance between leptons
 -1  = draamax ! max distance between gammas
 -1  = drbjmax ! max distance between b and jet
 -1  = drajmax ! max distance between gamma and jet
 -1  = drjlmax ! max distance between jet and lepton
 -1  = drabmax ! max distance between gamma and b
 -1  = drblmax ! max distance between b and lepton
 -1  = dralmax ! maxdistance between gamma and lepton
#*********************************************************************
# Minimum and maximum invariant mass for pairs                       *
# WARNING: for four lepton final state mmll cut require to have      *
#          different lepton masses for each flavor!                  *           
#*********************************************************************
 0   = mmjj    ! min invariant mass of a jet pair 
 0   = mmbb    ! min invariant mass of a b pair 
 0   = mmaa    ! min invariant mass of gamma gamma pair
 0   = mmll    ! min invariant mass of l+l- (same flavour) lepton pair
 -1  = mmjjmax ! max invariant mass of a jet pair
 -1  = mmbbmax ! max invariant mass of a b pair
 -1  = mmaamax ! max invariant mass of gamma gamma pair
 -1  = mmllmax ! max invariant mass of l+l- (same flavour) lepton pair
#*********************************************************************
# Minimum and maximum invariant mass for all letpons                 *
#*********************************************************************
 0   = mmnl    ! min invariant mass for all letpons (l+- and vl) 
 -1  = mmnlmax ! max invariant mass for all letpons (l+- and vl) 
#*********************************************************************
# Minimum and maximum pt for 4-momenta sum of leptons                *
#*********************************************************************
 0   = ptllmin  ! Minimum pt for 4-momenta sum of leptons(l and vl)
 -1  = ptllmax  ! Maximum pt for 4-momenta sum of leptons(l and vl)
#*********************************************************************
# Inclusive cuts                                                     *
#*********************************************************************
 0  = xptj ! minimum pt for at least one jet  
 0  = xptb ! minimum pt for at least one b 
 0  = xpta ! minimum pt for at least one photon 
 0  = xptl ! minimum pt for at least one charged lepton 
#*********************************************************************
# Control the pt's of the jets sorted by pt                          *
#*********************************************************************
 0   = ptj1min ! minimum pt for the leading jet in pt
 0   = ptj2min ! minimum pt for the second jet in pt
 0   = ptj3min ! minimum pt for the third jet in pt
 0   = ptj4min ! minimum pt for the fourth jet in pt
 -1  = ptj1max ! maximum pt for the leading jet in pt 
 -1  = ptj2max ! maximum pt for the second jet in pt
 -1  = ptj3max ! maximum pt for the third jet in pt
 -1  = ptj4max ! maximum pt for the fourth jet in pt
 0   = cutuse  ! reject event if fails any (0) / all (1) jet pt cuts
#*********************************************************************
# Control the pt's of leptons sorted by pt                           *
#*********************************************************************
 0   = ptl1min ! minimum pt for the leading lepton in pt
 0   = ptl2min ! minimum pt for the second lepton in pt
 0   = ptl3min ! minimum pt for the third lepton in pt
 0   = ptl4min ! minimum pt for the fourth lepton in pt
 -1  = ptl1max ! maximum pt for the leading lepton in pt 
 -1  = ptl2max ! maximum pt for the second lepton in pt
 -1  = ptl3max ! maximum pt for the third lepton in pt
 -1  = ptl4max ! maximum pt for the fourth lepton in pt
#*********************************************************************
# Control the Ht(k)=Sum of k leading jets                            *
#*********************************************************************
 0   = htjmin ! minimum jet HT=Sum(jet pt)
 -1  = htjmax ! maximum jet HT=Sum(jet pt)
 0   = ihtmin  !inclusive Ht for all partons (including b)
 -1  = ihtmax  !inclusive Ht for all partons (including b)
 0   = ht2min ! minimum Ht for the two leading jets
 0   = ht3min ! minimum Ht for the three leading jets
 0   = ht4min ! minimum Ht for the four leading jets
 -1  = ht2max ! maximum Ht for the two leading jets
 -1  = ht3max ! maximum Ht for the three leading jets
 -1  = ht4max ! maximum Ht for the four leading jets
#***********************************************************************
# Photon-isolation cuts, according to hep-ph/9801442                   *
# When ptgmin=0, all the other parameters are ignored                  *
# When ptgmin>0, pta and draj are not going to be used                 *
#***********************************************************************
   0 = ptgmin ! Min photon transverse momentum
 0.4 = R0gamma ! Radius of isolation code
 1.0 = xn ! n parameter of eq.(3.4) in hep-ph/9801442
 1.0 = epsgamma ! epsilon_gamma parameter of eq.(3.4) in hep-ph/9801442
 .true. = isoEM ! isolate photons from EM energy (photons and leptons)
#*********************************************************************
# WBF cuts                                                           *
#*********************************************************************
 0   = xetamin ! minimum rapidity for two jets in the WBF case  
 0   = deltaeta ! minimum rapidity for two jets in the WBF case 
#*********************************************************************
# KT DURHAM CUT                                                      *
#*********************************************************************
 -1    =  ktdurham        
 0.4  =  dparameter 
#*********************************************************************
# maximal pdg code for quark to be considered as a light jet         *
# (otherwise b cuts are applied)                                     *
#*********************************************************************
 4 = maxjetflavor    ! Maximum jet pdg code
#*********************************************************************
# Jet measure cuts                                                   *
#*********************************************************************
 0   = xqcut   ! minimum kt jet measure between partons
#*********************************************************************
#
#*********************************************************************
# Store info for systematics studies                                 *
# WARNING: If use_syst is T, matched Pythia output is                *
#          meaningful ONLY if plotted taking matchscale              *
#          reweighting into account!                                 *
#*********************************************************************
   F  = use_syst      ! Enable systematics studies
#
#**************************************
# Parameter of the systematics study
#  will be used by SysCalc (if installed)
#**************************************                                  
#
0.5 1 2 = sys_scalefact  # factorization/renormalization scale factor
0.5 1 2 = sys_alpsfact  # \alpha_s emission scale factors
30 50 = sys_matchscale # variation of merging scale
# PDF sets and number of members (0 or none for all members).
CT10nlo.LHgrid = sys_pdf # matching scales
# MSTW2008nlo68cl.LHgrid 1  = sys_pdf
</MGRunCard>
<slha>
######################################################################
## PARAM_CARD AUTOMATICALY GENERATED BY MG5 FOLLOWING UFO MODEL   ####
######################################################################
##                                                                  ##
##  Width set on Auto will be computed following the information    ##
##        present in the decay.py files of the model.               ##
##        See  arXiv:1402.1178 for more details.                    ##
##                                                                  ##
######################################################################

###################################
## INFORMATION FOR CKMBLOCK
###################################
Block ckmblock 
    1 2.277360e-01 # cabi 

###################################
## INFORMATION FOR FRBLOCK
###################################
Block frblock 
    1 1.400000e+00 # gz 

###################################
## INFORMATION FOR MASS
###################################
Block mass 
    1 5.040000e-03 # MD 
    2 2.550000e-03 # MU 
    3 1.010000e-01 # MS 
    4 1.270000e+00 # MC 
    5 4.700000e+00 # MB 
    6 1.720000e+02 # MT 
   11 5.110000e-04 # Me 
   13 1.056600e-01 # MM 
   15 1.777000e+00 # MTA 
   23 9.118760e+01 # MZ 
   25 1.200000e+02 # MH 
  10030 3.300000e+03 # MZph 
  10031 3.000000e+02 # MZpl 
## Dependent parameters, given by model restrictions.
## Those values should be edited following the 
## analytical expression. MG5 ignores those values 
## but they are important for interfacing the output of MG5
## to external program such as Pythia.
  12 0.000000 # ve : 0.0 
  14 0.000000 # vm : 0.0 
  16 0.000000 # vt : 0.0 
  21 0.000000 # g : 0.0 
  22 0.000000 # a : 0.0 
  24 79.824360 # w+ : cmath.sqrt(MZ__exp__2/2. + cmath.sqrt(MZ__exp__4/4. - (aEW*cmath.pi*MZ__exp__2)/(Gf*sqrt__2))) 

###################################
## INFORMATION FOR SMINPUTS
###################################
Block sminputs 
    1 1.279000e+02 # aEWM1 
    2 1.166370e-05 # Gf 
    3 1.184000e-01 # aS 

###################################
## INFORMATION FOR YUKAWA
###################################
Block yukawa 
    1 5.040000e-03 # ymdo 
    2 2.550000e-03 # ymup 
    3 1.010000e-01 # yms 
    4 1.270000e+00 # ymc 
    5 4.700000e+00 # ymb 
    6 1.720000e+02 # ymt 
   11 5.110000e-04 # yme 
   13 1.056600e-01 # ymm 
   15 1.777000e+00 # ymtau 

###################################
## INFORMATION FOR DECAY
###################################
DECAY   6 1.508336e+00 # WT 
DECAY  23 2.495200e+00 # WZ 
DECAY  24 2.085000e+00 # WW 
DECAY  25 5.753088e-03 # WH 
## Dependent parameters, given by model restrictions.
## Those values should be edited following the 
## analytical expression. MG5 ignores those values 
## but they are important for interfacing the output of MG5
## to external program such as Pythia.
DECAY  1 0.000000 # d : 0.0 
DECAY  2 0.000000 # u : 0.0 
DECAY  3 0.000000 # s : 0.0 
DECAY  4 0.000000 # c : 0.0 
DECAY  5 0.000000 # b : 0.0 
DECAY  11 0.000000 # e- : 0.0 
DECAY  12 0.000000 # ve : 0.0 
DECAY  13 0.000000 # mu- : 0.0 
DECAY  14 0.000000 # vm : 0.0 
DECAY  15 0.000000 # ta- : 0.0 
DECAY  16 0.000000 # vt : 0.0 
DECAY  21 0.000000 # g : 0.0 
DECAY  22 0.000000 # a : 0.0 
DECAY  10030 0.308725 # zph : (gz__exp__2*MZph*(5 + cmath.sqrt(1 - (4*MT__exp__2)/MZph__exp__2)))/(144.*cmath.pi) 
DECAY  10031 0.132629 # zpl : (5*gz__exp__2*MZpl)/(144.*cmath.pi) 
#===========================================================
# QUANTUM NUMBERS OF NEW STATE(S) (NON SM PDG CODE)
#===========================================================

Block QNUMBERS 10030  # zph 
        1 0  # 3 times electric charge
        2 3  # number of spin states (2S+1)
        3 1  # colour rep (1: singlet, 3: triplet, 8: octet)
        4 0  # Particle/Antiparticle distinction (0=own anti)
Block QNUMBERS 10031  # zpl 
        1 0  # 3 times electric charge
        2 3  # number of spin states (2S+1)
        3 1  # colour rep (1: singlet, 3: triplet, 8: octet)
        4 0  # Particle/Antiparticle distinction (0=own anti)
</slha>
## END BANNER##
<MGGenerationInfo>
#  Number of Events        :         3910
#  Integrated weight (pb)  :  0.10079E-02
#  Max wgt                 :  0.40172E-06
#  Average wgt             :  0.25777E-06
</MGGenerationInfo>
</header>
<init>
     2212     2212  0.40000000000E+04  0.40000000000E+04 0 0  247000  247000 2   1
  0.10083768359E-02  0.29873126246E-05  0.40172470000E-06   0
</init>
<event>
 5   0  0.4017247E-06  0.3274941E+04  0.7818609E-02  0.8169301E-01
        2   -1    0    0  501    0  0.00000000000E+00  0.00000000000E+00  0.28069626062E+04  0.28069626062E+04  0.25500000920E-02 0. -1.
       -2   -1    0    0    0  501  0.00000000000E+00  0.00000000000E+00 -0.95523546729E+03  0.95523546730E+03  0.25500000920E-02 0.  1.
    10030    2    1    2    0    0  0.00000000000E+00  0.00000000000E+00  0.18517271389E+04  0.37621980735E+04  0.32749413655E+04 0.  0.
        1    1    3    3  502    0 -0.72380459736E+03  0.10650746578E+04  0.20878016194E+04  0.24529966824E+04  0.50400001928E-02 0. -1.
       -1    1    3    3    0  502  0.72380459736E+03 -0.10650746578E+04 -0.23607448053E+03  0.13092013910E+04  0.50400001928E-02 0.  1.
</event>
<event>
 5   0  0.4017247E-06  0.3283429E+04  0.7818609E-02  0.8167125E-01
        2   -1    0    0  501    0  0.00000000000E+00  0.00000000000E+00  0.23524316505E+04  0.23524316505E+04  0.25500000920E-02 0.  1.
       -2   -1    0    0    0  501  0.00000000000E+00  0.00000000000E+00 -0.11457196057E+04  0.11457196057E+04  0.25500000920E-02 0. -1.
    10030    2    1    2    0    0  0.00000000000E+00  0.00000000000E+00  0.12067120448E+04  0.34981512562E+04  0.32834293432E+04 0.  0.
        1    1    3    3  502    0  0.78029235384E+03  0.13090988003E+04 -0.46999058879E+02  0.15247310379E+04  0.50400001928E-02 0. -1.
       -1    1    3    3    0  502 -0.78029235384E+03 -0.13090988003E+04  0.12537111037E+04  0.19734202183E+04  0.50400001928E-02 0.  1.
</event>
<event>
 5   0  0.3896210E-06  0.3280686E+04  0.7818609E-02  0.8167827E-01
       -2   -1    0    0    0  501  0.00000000000E+00  0.00000000000E+00  0.11614699660E+04  0.11614699660E+04  0.25500000920E-02 0. -1.
        2   -1    0    0  501    0  0.00000000000E+00  0.00000000000E+00 -0.23166547040E+04  0.23166547040E+04  0.25500000920E-02 0.  1.
    10030    2    1    2    0    0  0.00000000000E+00  0.00000000000E+00 -0.11551847380E+04  0.34781246699E+04  0.32806858187E+04 0.  0.
        3    1    3    3  502    0 -0.90178611390E+02 -0.10022340077E+03  0.11555859813E+04  0.11634242057E+04  0.10100000352E+00 0. -1.
       -3    1    3    3    0  502  0.90178611390E+02  0.10022340077E+03 -0.23107707193E+04  0.23147004643E+04  0.10100000352E+00 0.  1.
</event>
<event>
 5   0  0.4017247E-06  0.3384609E+04  0.7818609E-02  0.8141694E-01
        2   -1    0    0  501    0  0.00000000000E+00  0.00000000000E+00  0.19823202348E+04  0.19823202348E+04  0.25500000920E-02 0.  1.
       -2   -1    0    0    0  501  0.00000000000E+00  0.00000000000E+00 -0.14447182267E+04  0.14447182267E+04  0.25500000920E-02 0. -1.
    10030    2    1    2    0    0  0.00000000000E+00  0.00000000000E+00  0.53760200811E+03  0.34270384616E+04  0.33846087954E+04 0.  0.
        1    1    3    3  502    0  0.15315595002E+04 -0.63288144742E+03  0.61614772632E+03  0.17680077629E+04  0.50400001928E-02 0. -1.
       -1    1    3    3    0  502 -0.15315595002E+04  0.63288144742E+03 -0.78545718208E+02  0.16590306986E+04  0.50400001928E-02 0.  1.
</event>
<event>
 5   0  0.3896210E-06  0.3409568E+04  0.7818609E-02  0.8135562E-01
        2   -1    0    0  501    0  0.00000000000E+00  0.00000000000E+00  0.23865437638E+04  0.23865437638E+04  0.25500000920E-02 0. -1.
       -2   -1    0    0    0  501  0.00000000000E+00  0.00000000000E+00 -0.12177815037E+04  0.12177815037E+04  0.25500000920E-02 0.  1.
    10030    2    1    2    0    0  0.00000000000E+00  0.00000000000E+00  0.11687622601E+04  0.36043252674E+04  0.34095682150E+04 0.  0.
        3    1    3    3  502    0  0.67762049723E+03 -0.15643231700E+04  0.58066996975E+03  0.18009592284E+04  0.10100000352E+00 0. -1.
       -3    1    3    3    0  502 -0.67762049723E+03  0.15643231700E+04  0.58809229033E+03  0.18033660390E+04  0.10100000352E+00 0.  1.
</event>
<event>
 5   0  0.1405389E-06  0.3017665E+04  0.7818609E-02  0.8238705E-01
       -1   -1    0    0    0  501  0.00000000000E+00  0.00000000000E+00  0.11561209844E+04  0.11561209844E+04  0.50400001928E-02 0.  1.
        1   -1    0    0  501    0  0.00000000000E+00  0.00000000000E+00 -0.19691495752E+04  0.19691495752E+04  0.50400001928E-02 0. -1.
    10030    2    1    2    0    0  0.00000000000E+00  0.00000000000E+00 -0.81302859080E+03  0.31252705597E+04  0.30176647563E+04 0.  0.
        1    1    3    3  502    0 -0.15155623406E+03  0.98769647918E+03 -0.15773407037E+04  0.18672218193E+04  0.50400001928E-02 0. -1.
       -1    1    3    3    0  502  0.15155623406E+03 -0.98769647918E+03  0.76431211290E+03  0.12580487403E+04  0.50400001928E-02 0.  1.
</event>
<event>
 5   0  0.1339825E-06  0.3259486E+04  0.7818609E-02  0.8173281E-01
       -1   -1    0    0    0  501  0.00000000000E+00  0.00000000000E+00  0.13307085876E+04  0.13307085876E+04  0.50400001928E-02 0. -1.
        1   -1    0    0  501    0  0.00000000000E+00  0.00000000000E+00 -0.19959758866E+04  0.19959758866E+04  0.50400001928E-02 0.  1.
    10030    2    1    2    0    0  0.00000000000E+00  0.00000000000E+00 -0.66526729906E+03  0.33266844742E+04  0.32594860042E+04 0.  0.
        3    1    3    3  502    0 -0.31897944740E+02 -0.81329723859E+03  0.11084217322E+04  0.13751613083E+04  0.10100000352E+00 0. -1.
       -3    1    3    3    0  502  0.31897944740E+02  0.81329723859E+03 -0.17736890313E+04  0.19515231659E+04  0.10100000352E+00 0.  1.
</event>
<event>
 5   0  0.4017247E-06  0.3335969E+04  0.7818609E-02  0.8153803E-01
        2   -1    0    0  501    0  0.00000000000E+00  0.00000000000E+00  0.23089081207E+04  0.23089081207E+04  0.25500000920E-02 0. -1.
       -2   -1    0    0    0  501  0.00000000000E+00  0.00000000000E+00 -0.12049728664E+04  0.12049728664E+04  0.25500000920E-02 0.  1.
    10030    2    1    2    0    0  0.00000000000E+00  0.00000000000E+00  0.11039352543E+04  0.35138809872E+04  0.33359686069E+04 0.  0.
        1    1    3    3  502    0  0.54560060671E+03 -0.13013572840E+04  0.14887583529E+04  0.20512465079E+04  0.50400001928E-02 0. -1.
       -1    1    3    3    0  502 -0.54560060671E+03  0.13013572840E+04 -0.38482309862E+03  0.14626344793E+04  0.50400001928E-02 0.  1.
</event>
<event>
 5   0  0.1391878E-06  0.3300092E+04  0.7818609E-02  0.8162872E-01
       -1   -1    0    0    0  501  0.00000000000E+00  0.00000000000E+00  0.18243887085E+04  0.18243887085E+04  0.50400001928E-02 0. -1.
        1   -1    0    0  501    0  0.00000000000E+00  0.00000000000E+00 -0.14923635172E+04  0.14923635172E+04  0.50400001928E-02 0.  1.
    10030    2    1    2    0    0  0.00000000000E+00  0.00000000000E+00  0.33202519131E+03  0.33167522258E+04  0.33000916047E+04 0.  0.
        2    1    3    3  502    0 -0.82987987779E+03  0.12344542711E+04 -0.55178712150E+03  0.15865204022E+04  0.25500000920E-02 0.  1.
       -2    1    3    3    0  502  0.82987987779E+03 -0.12344542711E+04  0.88381231281E+03  0.17302318236E+04  0.25500000920E-02 0. -1.
</event>
<event>
 5   0  0.4017247E-06  0.3247937E+04  0.7818609E-02  0.8176271E-01
       -2   -1    0    0    0  501  0.00000000000E+00  0.00000000000E+00  0.11508306767E+04  0.11508306767E+04  0.25500000920E-02 0.  1.
        2   -1    0    0  501    0  0.00000000000E+00  0.00000000000E+00 -0.22916257831E+04  0.22916257831E+04  0.25500000920E-02 0. -1.
    10030    2    1    2    0    0  0.00000000000E+00  0.00000000000E+00 -0.11407951063E+04  0.34424564598E+04  0.32479367301E+04 0.  0.
        1    1    3    3  502    0 -0.74234055748E+03 -0.58125858598E+03  0.83104117876E+03  0.12568056683E+04  0.50400001928E-02 0.  1.
       -1    1    3    3    0  502  0.74234055748E+03  0.58125858598E+03 -0.19718362851E+04  0.21856507915E+04  0.50400001928E-02 0. -1.
</event>
<event>
 5   0  0.1259875E-06  0.3267244E+04  0.7818609E-02  0.8171280E-01
       -4   -1    0    0    0  501  0.00000000000E+00  0.00000000000E+00  0.15923602036E+04  0.15923607101E+04  0.12699999809E+01 0.  1.
        4   -1    0    0  501    0  0.00000000000E+00  0.00000000000E+00 -0.16759522974E+04  0.16759527786E+04  0.12699999809E+01 0. -1.
    10030    2    1    2    0    0  0.00000000000E+00  0.00000000000E+00 -0.83592093798E+02  0.32683134887E+04  0.32672443163E+04 0.  0.
        5    1    3    3  502    0  0.59174014521E+03 -0.49057690230E+03 -0.14837521210E+04  0.16710369665E+04  0.46999998093E+01 0. -1.
       -5    1    3    3    0  502 -0.59174014521E+03  0.49057690230E+03  0.14001600273E+04  0.15972765222E+04  0.46999998093E+01 0.  1.
</event>
<event>
 5   0  0.3812379E-06  0.3123146E+04  0.7818609E-02  0.8209414E-01
        2   -1    0    0  501    0  0.00000000000E+00  0.00000000000E+00  0.35430826726E+04  0.35430826726E+04  0.25500000920E-02 0.  1.
       -2   -1    0    0    0  501  0.00000000000E+00  0.00000000000E+00 -0.68824534964E+03  0.68824534964E+03  0.25500000920E-02 0. -1.
    10030    2    1    2    0    0  0.00000000000E+00  0.00000000000E+00  0.28548373229E+04  0.42313280222E+04  0.31231459606E+04 0.  0.
        5    1    3    3  502    0 -0.97546005009E+03 -0.11846026848E+04  0.18193419711E+04  0.23800909915E+04  0.46999998093E+01 0. -1.
       -5    1    3    3    0  502  0.97546005009E+03  0.11846026848E+04  0.10354953518E+04  0.18512370307E+04  0.46999998093E+01 0.  1.
</event>
<event>
 5   0  0.1352708E-06  0.3306440E+04  0.7818609E-02  0.8161259E-01
       -1   -1    0    0    0  501  0.00000000000E+00  0.00000000000E+00  0.18786912451E+04  0.18786912451E+04  0.50400001928E-02 0.  1.
        1   -1    0    0  501    0  0.00000000000E+00  0.00000000000E+00 -0.14548083110E+04  0.14548083110E+04  0.50400001928E-02 0. -1.
    10030    2    1    2    0    0  0.00000000000E+00  0.00000000000E+00  0.42388293413E+03  0.33334995561E+04  0.33064395576E+04 0.  0.
        5    1    3    3  502    0 -0.86857251641E+03 -0.98668813944E+02  0.16266215451E+04  0.18466384303E+04  0.46999998093E+01 0.  1.
       -5    1    3    3    0  502  0.86857251641E+03  0.98668813944E+02 -0.12027386110E+04  0.14868611258E+04  0.46999998093E+01 0. -1.
</event>
<event>
 5   0  0.1405389E-06  0.2080838E+04  0.7818609E-02  0.8569732E-01
       -1   -1    0    0    0  501  0.00000000000E+00  0.00000000000E+00  0.10711015506E+04  0.10711015506E+04  0.50400001928E-02 0. -1.
        1   -1    0    0  501    0  0.00000000000E+00  0.00000000000E+00 -0.10106149104E+04  0.10106149104E+04  0.50400001928E-02 0.  1.
    10030    2    1    2    0    0  0.00000000000E+00  0.00000000000E+00  0.60486640163E+02  0.20817164611E+04  0.20808375214E+04 0.  0.
        1    1    3    3  502    0  0.96676419657E+02  0.66230645088E+03  0.82711918657E+03  0.10640123654E+04  0.50400001928E-02 0. -1.
       -1    1    3    3    0  502 -0.96676419657E+02 -0.66230645088E+03 -0.76663254641E+03  0.10177040956E+04  0.50400001928E-02 0.  1.
</event>
<event>
 5   0  0.1339825E-06  0.3310915E+04  0.7818609E-02  0.8160124E-01
       -1   -1    0    0    0  501  0.00000000000E+00  0.00000000000E+00  0.20863120052E+04  0.20863120052E+04  0.50400001928E-02 0.  1.
        1   -1    0    0  501    0  0.00000000000E+00  0.00000000000E+00 -0.13135809873E+04  0.13135809874E+04  0.50400001928E-02 0. -1.
    10030    2    1    2    0    0  0.00000000000E+00  0.00000000000E+00  0.77273101785E+03  0.33998929925E+04  0.33109151507E+04 0.  0.
        3    1    3    3  502    0 -0.28066691939E+03  0.12579057706E+04 -0.68051611495E+03  0.14574645932E+04  0.10100000352E+00 0. -1.
       -3    1    3    3    0  502  0.28066691939E+03 -0.12579057706E+04  0.14532471328E+04  0.19424283994E+04  0.10100000352E+00 0.  1.
</event>
<event>
 5   0  0.1339825E-06  0.3287054E+04  0.7818609E-02  0.8166197E-01
       -1   -1    0    0    0  501  0.00000000000E+00  0.00000000000E+00  0.15027240640E+04  0.15027240640E+04  0.50400001928E-02 0. -1.
        1   -1    0    0  501    0  0.00000000000E+00  0.00000000000E+00 -0.17975224187E+04  0.17975224187E+04  0.50400001928E-02 0.  1.
    10030    2    1    2    0    0  0.00000000000E+00  0.00000000000E+00 -0.29479835465E+03  0.33002464827E+04  0.32870535099E+04 0.  0.
        3    1    3    3  502    0  0.14605917800E+04  0.10851551297E+03 -0.89609733496E+03  0.17170015749E+04  0.10100000352E+00 0. -1.
       -3    1    3    3    0  502 -0.14605917800E+04 -0.10851551297E+03  0.60129898031E+03  0.15832449078E+04  0.10100000352E+00 0.  1.
</event>
<event>
 5   0  0.4017247E-06  0.2340702E+04  0.7818609E-02  0.8462044E-01
        2   -1    0    0  501    0  0.00000000000E+00  0.00000000000E+00  0.18584598393E+04  0.18584598393E+04  0.25500000920E-02 0. -1.
       -2   -1    0    0    0  501  0.00000000000E+00  0.00000000000E+00 -0.73701949853E+03  0.73701949853E+03  0.25500000920E-02 0.  1.
    10030    2    1    2    0    0  0.00000000000E+00  0.00000000000E+00  0.11214403407E+04  0.25954793378E+04  0.23407017228E+04 0.  0.
        1    1    3    3  502    0 -0.26776028450E+03 -0.32616210462E+03  0.17711642738E+04  0.18207416547E+04  0.50400001928E-02 0. -1.
       -1    1    3    3    0  502  0.26776028450E+03  0.32616210462E+03 -0.64972393303E+03  0.77473768311E+03  0.50400001928E-02 0.  1.
</event>
<event>
 5   0  0.1282578E-06  0.3316975E+04  0.7818609E-02  0.8158589E-01
        1   -1    0    0  501    0  0.00000000000E+00  0.00000000000E+00  0.25307512447E+04  0.25307512447E+04  0.50400001928E-02 0.  1.
       -1   -1    0    0    0  501  0.00000000000E+00  0.00000000000E+00 -0.10868634224E+04  0.10868634224E+04  0.50400001928E-02 0. -1.
    10030    2    1    2    0    0  0.00000000000E+00  0.00000000000E+00  0.14438878223E+04  0.36176146671E+04  0.33169751033E+04 0.  0.
        4    1    3    3  502    0 -0.45116237287E+03 -0.71063880898E+03  0.22804573499E+04  0.24308521842E+04  0.12699999809E+01 0.  1.
       -4    1    3    3    0  502  0.45116237287E+03  0.71063880898E+03 -0.83656952760E+03  0.11867624829E+04  0.12699999809E+01 0. -1.
</event>
<event>
 5   0  0.1405389E-06  0.3290765E+04  0.7818609E-02  0.8165249E-01
        1   -1    0    0  501    0  0.00000000000E+00  0.00000000000E+00  0.12511054075E+04  0.12511054075E+04  0.50400001928E-02 0.  1.
       -1   -1    0    0    0  501  0.00000000000E+00  0.00000000000E+00 -0.21639134425E+04  0.21639134425E+04  0.50400001928E-02 0. -1.
    10030    2    1    2    0    0  0.00000000000E+00  0.00000000000E+00 -0.91280803501E+03  0.34150188500E+04  0.32907651446E+04 0.  0.
        1    1    3    3  502    0 -0.98354720274E+03  0.90142886724E+03 -0.14557521729E+04  0.19746274311E+04  0.50400001928E-02 0. -1.
       -1    1    3    3    0  502  0.98354720274E+03 -0.90142886724E+03  0.54294413790E+03  0.14403914189E+04  0.50400001928E-02 0.  1.
</event>
<event>
 5   0  0.3671997E-06  0.3278335E+04  0.7818609E-02  0.8168430E-01
        2   -1    0    0  501    0  0.00000000000E+00  0.00000000000E+00  0.16382238530E+04  0.16382238531E+04  0.25500000920E-02 0.  1.
       -2   -1    0    0    0  501  0.00000000000E+00  0.00000000000E+00 -0.16401121855E+04  0.16401121855E+04  0.25500000920E-02 0. -1.
    10030    2    1    2    0    0  0.00000000000E+00  0.00000000000E+00 -0.18883324286E+01  0.32783360385E+04  0.32783354947E+04 0.  0.
        2    1    3    3  502    0  0.87298835368E+03 -0.90431173164E+03  0.10511883813E+04  0.16385619874E+04  0.25500000920E-02 0.  1.
       -2    1    3    3    0  502 -0.87298835368E+03  0.90431173164E+03 -0.10530767137E+04  0.16397740511E+04  0.25500000920E-02 0. -1.
</event>
<event>
 5   0  0.1339825E-06  0.3167152E+04  0.7818609E-02  0.8197547E-01
       -1   -1    0    0    0  501  0.00000000000E+00  0.00000000000E+00  0.13418284777E+04  0.13418284777E+04  0.50400001928E-02 0. -1.
        1   -1    0    0  501    0  0.00000000000E+00  0.00000000000E+00 -0.18688768401E+04  0.18688768401E+04  0.50400001928E-02 0.  1.
    10030    2    1    2    0    0  0.00000000000E+00  0.00000000000E+00 -0.52704836237E+03  0.32107053178E+04  0.31671515059E+04 0.  0.
        3    1    3    3  502    0 -0.17307605442E+03  0.32100938832E+03  0.12986767099E+04  0.13489119894E+04  0.10100000352E+00 0. -1.
       -3    1    3    3    0  502  0.17307605442E+03 -0.32100938832E+03 -0.18257250723E+04  0.18617933284E+04  0.10100000352E+00 0.  1.
</event>
<event>
 5   0  0.3896210E-06  0.2957172E+04  0.7818609E-02  0.8256068E-01
        2   -1    0    0  501    0  0.00000000000E+00  0.00000000000E+00  0.72247404829E+03  0.72247404830E+03  0.25500000920E-02 0.  1.
       -2   -1    0    0    0  501  0.00000000000E+00  0.00000000000E+00 -0.30260132436E+04  0.30260132436E+04  0.25500000920E-02 0. -1.
    10030    2    1    2    0    0  0.00000000000E+00  0.00000000000E+00 -0.23035391953E+04  0.37484872919E+04  0.29571716476E+04 0.  0.
        3    1    3    3  502    0  0.62318678890E+03  0.28078461460E+03 -0.28137245507E+04  0.28955565322E+04  0.10100000352E+00 0. -1.
       -3    1    3    3    0  502 -0.62318678890E+03 -0.28078461460E+03  0.51018535545E+03  0.85293075966E+03  0.10100000352E+00 0.  1.
</event>
<event>
 5   0  0.1405389E-06  0.2167461E+04  0.7818609E-02  0.8532095E-01
        1   -1    0    0  501    0  0.00000000000E+00  0.00000000000E+00  0.74632046438E+03  0.74632046440E+03  0.50400001928E-02 0. -1.
       -1   -1    0    0    0  501  0.00000000000E+00  0.00000000000E+00 -0.15736826532E+04  0.15736826532E+04  0.50400001928E-02 0.  1.
    10030    2    1    2    0    0  0.00000000000E+00  0.00000000000E+00 -0.82736218878E+03  0.23200031176E+04  0.21674607895E+04 0.  0.
        1    1    3    3  502    0 -0.71385401889E+03  0.21634867590E+03  0.42782778165E+03  0.85990169241E+03  0.50400001928E-02 0. -1.
       -1    1    3    3    0  502  0.71385401889E+03 -0.21634867590E+03 -0.12551899704E+04  0.14601014251E+04  0.50400001928E-02 0.  1.
</event>
<event>
 5   0  0.3671997E-06  0.3289864E+04  0.7818609E-02  0.8165479E-01
       -2   -1    0    0    0  501  0.00000000000E+00  0.00000000000E+00  0.15758661524E+04  0.15758661524E+04  0.25500000920E-02 0. -1.
        2   -1    0    0  501    0  0.00000000000E+00  0.00000000000E+00 -0.17170251581E+04  0.17170251581E+04  0.25500000920E-02 0.  1.
    10030    2    1    2    0    0  0.00000000000E+00  0.00000000000E+00 -0.14115900562E+03  0.32928913105E+04  0.32898643312E+04 0.  0.
        2    1    3    3  502    0 -0.28378534185E+03  0.26457020820E+03 -0.16705715800E+04  0.17150337954E+04  0.25500000920E-02 0.  1.
       -2    1    3    3    0  502  0.28378534185E+03 -0.26457020820E+03  0.15294125744E+04  0.15778575151E+04  0.25500000920E-02 0. -1.
</event>
<event>
 5   0  0.1391878E-06  0.3766448E+04  0.7818609E-02  0.8053394E-01
        1   -1    0    0  501    0  0.00000000000E+00  0.00000000000E+00  0.11443011336E+04  0.11443011336E+04  0.50400001928E-02 0. -1.
       -1   -1    0    0    0  501  0.00000000000E+00  0.00000000000E+00 -0.30993000257E+04  0.30993000257E+04  0.50400001928E-02 0.  1.
    10030    2    1    2    0    0  0.00000000000E+00  0.00000000000E+00 -0.19549988921E+04  0.42436011592E+04  0.37664479461E+04 0.  0.
        2    1    3    3  502    0  0.14843718337E+04 -0.38695593898E+03  0.25334310383E+03  0.15547595852E+04  0.25500000920E-02 0. -1.
       -2    1    3    3    0  502 -0.14843718337E+04  0.38695593898E+03 -0.22083419959E+04  0.26888415741E+04  0.25500000920E-02 0.  1.
</event>
<event>
 5   0  0.3896210E-06  0.2138364E+04  0.7818609E-02  0.8544530E-01
        2   -1    0    0  501    0  0.00000000000E+00  0.00000000000E+00  0.16611816177E+04  0.16611816177E+04  0.25500000920E-02 0.  1.
       -2   -1    0    0    0  501  0.00000000000E+00  0.00000000000E+00 -0.68815453891E+03  0.68815453892E+03  0.25500000920E-02 0. -1.
    10030    2    1    2    0    0  0.00000000000E+00  0.00000000000E+00  0.97302707874E+03  0.23493361566E+04  0.21383635520E+04 0.  0.
        3    1    3    3  502    0 -0.32696186500E+02 -0.64700318506E+03 -0.44797317576E+03  0.78763071200E+03  0.10100000352E+00 0. -1.
       -3    1    3    3    0  502  0.32696186500E+02  0.64700318506E+03  0.14210002545E+04  0.15617054446E+04  0.10100000352E+00 0.  1.
</event>
<event>
 5   0  0.3812379E-06  0.3315671E+04  0.7818609E-02  0.8158919E-01
        2   -1    0    0  501    0  0.00000000000E+00  0.00000000000E+00  0.99626685777E+03  0.99626685777E+03  0.25500000920E-02 0.  1.
       -2   -1    0    0    0  501  0.00000000000E+00  0.00000000000E+00 -0.27587175172E+04  0.27587175172E+04  0.25500000920E-02 0. -1.
    10030    2    1    2    0    0  0.00000000000E+00  0.00000000000E+00 -0.17624506595E+04  0.37549843750E+04  0.33156711733E+04 0.  0.
        5    1    3    3  502    0 -0.13854338983E+04 -0.67528347970E+03 -0.18960316614E+03  0.15528703471E+04  0.46999998093E+01 0.  1.
       -5    1    3    3    0  502  0.13854338983E+04  0.67528347970E+03 -0.15728474933E+04  0.22021140279E+04  0.46999998093E+01 0. -1.
</event>
<event>
 5   0  0.1391878E-06  0.3299475E+04  0.7818609E-02  0.8163029E-01
        1   -1    0    0  501    0  0.00000000000E+00  0.00000000000E+00  0.17269452559E+04  0.17269452559E+04  0.50400001928E-02 0.  1.
       -1   -1    0    0    0  501  0.00000000000E+00  0.00000000000E+00 -0.15759813102E+04  0.15759813102E+04  0.50400001928E-02 0. -1.
    10030    2    1    2    0    0  0.00000000000E+00  0.00000000000E+00  0.15096394571E+03  0.33029265661E+04  0.32994747746E+04 0.  0.
        2    1    3    3  502    0 -0.61553949731E+03 -0.15197943617E+04  0.25724745905E+03  0.16597710775E+04  0.25500000920E-02 0.  1.
       -2    1    3    3    0  502  0.61553949731E+03  0.15197943617E+04 -0.10628351335E+03  0.16431554886E+04  0.25500000920E-02 0. -1.
</event>
<event>
 5   0  0.3896210E-06  0.3312083E+04  0.7818609E-02  0.8159828E-01
        2   -1    0    0  501    0  0.00000000000E+00  0.00000000000E+00  0.23214446659E+04  0.23214446659E+04  0.25500000920E-02 0.  1.
       -2   -1    0    0    0  501  0.00000000000E+00  0.00000000000E+00 -0.11813647632E+04  0.11813647632E+04  0.25500000920E-02 0. -1.
    10030    2    1    2    0    0  0.00000000000E+00  0.00000000000E+00  0.11400799027E+04  0.35028094290E+04  0.33120826849E+04 0.  0.
        3    1    3    3  502    0 -0.83090155574E+03 -0.13037586331E+04 -0.57678435199E+02  0.15470975344E+04  0.10100000352E+00 0. -1.
       -3    1    3    3    0  502  0.83090155574E+03  0.13037586331E+04  0.11977583379E+04  0.19557118947E+04  0.10100000352E+00 0.  1.
</event>
<event>
 5   0  0.4017247E-06  0.3292192E+04  0.7818609E-02  0.8164885E-01
        2   -1    0    0  501    0  0.00000000000E+00  0.00000000000E+00  0.29319220959E+04  0.29319220959E+04  0.25500000920E-02 0. -1.
       -2   -1    0    0    0  501  0.00000000000E+00  0.00000000000E+00 -0.92418272702E+03  0.92418272702E+03  0.25500000920E-02 0.  1.
    10030    2    1    2    0    0  0.00000000000E+00  0.00000000000E+00  0.20077393689E+04  0.38561048230E+04  0.32921918280E+04 0.  0.
        1    1    3    3  502    0 -0.73495263100E+03 -0.82895329294E+03  0.24299160030E+04  0.26705450218E+04  0.50400001928E-02 0. -1.
       -1    1    3    3    0  502  0.73495263100E+03  0.82895329294E+03 -0.42217663411E+03  0.11855598012E+04  0.50400001928E-02 0.  1.
</event>
<event>
 5   0  0.1352708E-06  0.3341996E+04  0.7818609E-02  0.8152291E-01
       -1   -1    0    0    0  501  0.00000000000E+00  0.00000000000E+00  0.25062825961E+04  0.25062825961E+04  0.50400001928E-02 0.  1.
        1   -1    0    0  501    0  0.00000000000E+00  0.00000000000E+00 -0.11140941934E+04  0.11140941934E+04  0.50400001928E-02 0. -1.
    10030    2    1    2    0    0  0.00000000000E+00  0.00000000000E+00  0.13921884028E+04  0.36203767896E+04  0.33419963419E+04 0.  0.
        5    1    3    3  502    0 -0.13467166870E+03 -0.12636847624E+04 -0.47925986824E+03  0.13582149125E+04  0.46999998093E+01 0. -1.
       -5    1    3    3    0  502  0.13467166870E+03  0.12636847624E+04  0.18714482710E+04  0.22621618771E+04  0.46999998093E+01 0.  1.
</event>
<event>
 5   0  0.3896210E-06  0.3294812E+04  0.7818609E-02  0.8164217E-01
        2   -1    0    0  501    0  0.00000000000E+00  0.00000000000E+00  0.18277007667E+04  0.18277007667E+04  0.25500000920E-02 0. -1.
       -2   -1    0    0    0  501  0.00000000000E+00  0.00000000000E+00 -0.14848961773E+04  0.14848961773E+04  0.25500000920E-02 0.  1.
    10030    2    1    2    0    0  0.00000000000E+00  0.00000000000E+00  0.34280458944E+03  0.33125969440E+04  0.32948116071E+04 0.  0.
        3    1    3    3  502    0  0.50053875186E+03 -0.15355044467E+04  0.49816889458E+03  0.16901139624E+04  0.10100000352E+00 0. -1.
       -3    1    3    3    0  502 -0.50053875186E+03  0.15355044467E+04 -0.15536430514E+03  0.16224829816E+04  0.10100000352E+00 0.  1.
</event>
<event>
 5   0  0.1282578E-06  0.3257695E+04  0.7818609E-02  0.8173744E-01
        1   -1    0    0  501    0  0.00000000000E+00  0.00000000000E+00  0.22694338907E+04  0.22694338907E+04  0.50400001928E-02 0.  1.
       -1   -1    0    0    0  501  0.00000000000E+00  0.00000000000E+00 -0.11690775200E+04  0.11690775200E+04  0.50400001928E-02 0. -1.
    10030    2    1    2    0    0  0.00000000000E+00  0.00000000000E+00  0.11003563708E+04  0.34385114107E+04  0.32576949794E+04 0.  0.
        4    1    3    3  502    0 -0.71261333904E+03 -0.59772896117E+03  0.19615753980E+04  0.21709162436E+04  0.12699999809E+01 0.  1.
       -4    1    3    3    0  502  0.71261333904E+03  0.59772896117E+03 -0.86121902719E+03  0.12675951671E+04  0.12699999809E+01 0. -1.
</event>
<event>
 5   0  0.1405389E-06  0.3262556E+04  0.7818609E-02  0.8172489E-01
       -1   -1    0    0    0  501  0.00000000000E+00  0.00000000000E+00  0.10036752562E+04  0.10036752562E+04  0.50400001928E-02 0. -1.
        1   -1    0    0  501    0  0.00000000000E+00  0.00000000000E+00 -0.26513242490E+04  0.26513242490E+04  0.50400001928E-02 0.  1.
    10030    2    1    2    0    0  0.00000000000E+00  0.00000000000E+00 -0.16476489928E+04  0.36549995052E+04  0.32625563872E+04 0.  0.
        1    1    3    3  502    0 -0.64741823266E+03  0.13997070078E+04 -0.14195164685E+04  0.20960336543E+04  0.50400001928E-02 0.  1.
       -1    1    3    3    0  502  0.64741823266E+03 -0.13997070078E+04 -0.22813252433E+03  0.15589658509E+04  0.50400001928E-02 0. -1.
</event>
<event>
 5   0  0.1339825E-06  0.2249706E+04  0.7818609E-02  0.8498019E-01
       -1   -1    0    0    0  501  0.00000000000E+00  0.00000000000E+00  0.10109970452E+04  0.10109970452E+04  0.50400001928E-02 0. -1.
        1   -1    0    0  501    0  0.00000000000E+00  0.00000000000E+00 -0.12515315927E+04  0.12515315927E+04  0.50400001928E-02 0.  1.
    10030    2    1    2    0    0  0.00000000000E+00  0.00000000000E+00 -0.24053454752E+03  0.22625286379E+04  0.22497064184E+04 0.  0.
        3    1    3    3  502    0  0.12343092051E+03  0.13360020888E+03 -0.12366437958E+04  0.12499488373E+04  0.10100000352E+00 0.  1.
       -3    1    3    3    0  502 -0.12343092051E+03 -0.13360020888E+03  0.99610924828E+03  0.10125798006E+04  0.10100000352E+00 0. -1.
</event>
<event>
 5   0  0.3920487E-06  0.3379818E+04  0.7818609E-02  0.8142878E-01
       -2   -1    0    0    0  501  0.00000000000E+00  0.00000000000E+00  0.15827839372E+04  0.15827839372E+04  0.25500000920E-02 0. -1.
        2   -1    0    0  501    0  0.00000000000E+00  0.00000000000E+00 -0.18042839731E+04  0.18042839731E+04  0.25500000920E-02 0.  1.
    10030    2    1    2    0    0  0.00000000000E+00  0.00000000000E+00 -0.22150003588E+03  0.33870679104E+04  0.33798175636E+04 0.  0.
        4    1    3    3  502    0  0.15152155987E+04 -0.70313410372E+03  0.14575647678E+03  0.16767595062E+04  0.12699999809E+01 0. -1.
       -4    1    3    3    0  502 -0.15152155987E+04  0.70313410372E+03 -0.36725651266E+03  0.17103084041E+04  0.12699999809E+01 0.  1.
</event>
<event>
 5   0  0.3920487E-06  0.3242785E+04  0.7818609E-02  0.8177608E-01
        2   -1    0    0  501    0  0.00000000000E+00  0.00000000000E+00  0.13876318517E+04  0.13876318517E+04  0.25500000920E-02 0.  1.
       -2   -1    0    0    0  501  0.00000000000E+00  0.00000000000E+00 -0.18945325293E+04  0.18945325293E+04  0.25500000920E-02 0. -1.
    10030    2    1    2    0    0  0.00000000000E+00  0.00000000000E+00 -0.50690067759E+03  0.32821643810E+04  0.32427850263E+04 0.  0.
        4    1    3    3  502    0  0.12633749399E+04 -0.95643049469E+03 -0.60118693794E+03  0.16947869710E+04  0.12699999809E+01 0. -1.
       -4    1    3    3    0  502 -0.12633749399E+04  0.95643049469E+03  0.94286260352E+02  0.15873774100E+04  0.12699999809E+01 0.  1.
</event>
<event>
 5   0  0.1391878E-06  0.3365099E+04  0.7818609E-02  0.8146526E-01
       -1   -1    0    0    0  501  0.00000000000E+00  0.00000000000E+00  0.22772146713E+04  0.22772146713E+04  0.50400001928E-02 0.  1.
        1   -1    0    0  501    0  0.00000000000E+00  0.00000000000E+00 -0.12431736116E+04  0.12431736116E+04  0.50400001928E-02 0. -1.
    10030    2    1    2    0    0  0.00000000000E+00  0.00000000000E+00  0.10340410598E+04  0.35203882829E+04  0.33650992183E+04 0.  0.
        2    1    3    3  502    0  0.54584028100E+03 -0.35802721708E+03 -0.11052994500E+04  0.12836712876E+04  0.25500000920E-02 0. -1.
       -2    1    3    3    0  502 -0.54584028100E+03  0.35802721708E+03  0.21393405097E+04  0.22367169953E+04  0.25500000920E-02 0.  1.
</event>
<event>
 5   0  0.1352708E-06  0.3281838E+04  0.7818609E-02  0.8167532E-01
       -1   -1    0    0    0  501  0.00000000000E+00  0.00000000000E+00  0.10450037961E+04  0.10450037962E+04  0.50400001928E-02 0. -1.
        1   -1    0    0  501    0  0.00000000000E+00  0.00000000000E+00 -0.25766565868E+04  0.25766565868E+04  0.50400001928E-02 0.  1.
    10030    2    1    2    0    0  0.00000000000E+00  0.00000000000E+00 -0.15316527907E+04  0.36216603830E+04  0.32818384571E+04 0.  0.
        5    1    3    3  502    0 -0.22274734776E+03 -0.42337687535E+03  0.96632971965E+03  0.10782762061E+04  0.46999998093E+01 0. -1.
       -5    1    3    3    0  502  0.22274734776E+03  0.42337687535E+03 -0.24979825103E+04  0.25433841769E+04  0.46999998093E+01 0.  1.
</event>
<event>
 5   0  0.1352708E-06  0.3362427E+04  0.7818609E-02  0.8147190E-01
        1   -1    0    0  501    0  0.00000000000E+00  0.00000000000E+00  0.25867696827E+04  0.25867696827E+04  0.50400001928E-02 0. -1.
       -1   -1    0    0    0  501  0.00000000000E+00  0.00000000000E+00 -0.10926670487E+04  0.10926670487E+04  0.50400001928E-02 0.  1.
    10030    2    1    2    0    0  0.00000000000E+00  0.00000000000E+00  0.14941026340E+04  0.36794367314E+04  0.33624265017E+04 0.  0.
        5    1    3    3  502    0  0.11638109933E+04 -0.69062648202E+03  0.18386115487E+04  0.22829663779E+04  0.46999998093E+01 0. -1.
       -5    1    3    3    0  502 -0.11638109933E+04  0.69062648202E+03 -0.34450891470E+03  0.13964703534E+04  0.46999998093E+01 0.  1.
</event>
<event>
 5   0  0.3671997E-06  0.3307849E+04  0.7818609E-02  0.8160901E-01
        2   -1    0    0  501    0  0.00000000000E+00  0.00000000000E+00  0.16550480122E+04  0.16550480122E+04  0.25500000920E-02 0. -1.
       -2   -1    0    0    0  501  0.00000000000E+00  0.00000000000E+00 -0.16528017328E+04  0.16528017328E+04  0.25500000920E-02 0.  1.
    10030    2    1    2    0    0  0.00000000000E+00  0.00000000000E+00  0.22462793547E+01  0.33078497450E+04  0.33078489823E+04 0.  0.
        2    1    3    3  502    0  0.99023346809E+03 -0.10529052114E+04 -0.80280149298E+03  0.16533789471E+04  0.25500000920E-02 0.  1.
       -2    1    3    3    0  502 -0.99023346809E+03  0.10529052114E+04  0.80504777234E+03  0.16544707979E+04  0.25500000920E-02 0. -1.
</event>
<event>
 5   0  0.3896210E-06  0.2175096E+04  0.7818609E-02  0.8528866E-01
        2   -1    0    0  501    0  0.00000000000E+00  0.00000000000E+00  0.20973265366E+04  0.20973265366E+04  0.25500000920E-02 0. -1.
       -2   -1    0    0    0  501  0.00000000000E+00  0.00000000000E+00 -0.56393710127E+03  0.56393710128E+03  0.25500000920E-02 0.  1.
    10030    2    1    2    0    0  0.00000000000E+00  0.00000000000E+00  0.15333894353E+04  0.26612636379E+04  0.21750956278E+04 0.  0.
        3    1    3    3  502    0  0.68251004570E+02 -0.28834502537E+03 -0.51359574393E+03  0.59294321116E+03  0.10100000352E+00 0.  1.
       -3    1    3    3    0  502 -0.68251004570E+02  0.28834502537E+03  0.20469851793E+04  0.20683204267E+04  0.10100000352E+00 0. -1.
</event>
<event>
 5   0  0.4017247E-06  0.3273961E+04  0.7818609E-02  0.8169553E-01
        2   -1    0    0  501    0  0.00000000000E+00  0.00000000000E+00  0.17058557201E+04  0.17058557201E+04  0.25500000920E-02 0.  1.
       -2   -1    0    0    0  501  0.00000000000E+00  0.00000000000E+00 -0.15708866450E+04  0.15708866450E+04  0.25500000920E-02 0. -1.
    10030    2    1    2    0    0  0.00000000000E+00  0.00000000000E+00  0.13496907517E+03  0.32767423651E+04  0.32739614958E+04 0.  0.
        1    1    3    3  502    0  0.11534812703E+04 -0.11584237716E+04  0.15265260632E+03  0.16418792568E+04  0.50400001928E-02 0.  1.
       -1    1    3    3    0  502 -0.11534812703E+04  0.11584237716E+04 -0.17683531147E+02  0.16348631083E+04  0.50400001928E-02 0. -1.
</event>
<event>
 5   0  0.3671997E-06  0.2154816E+04  0.7818609E-02  0.8537473E-01
        2   -1    0    0  501    0  0.00000000000E+00  0.00000000000E+00  0.12651658796E+04  0.12651658796E+04  0.25500000920E-02 0.  1.
       -2   -1    0    0    0  501  0.00000000000E+00  0.00000000000E+00 -0.91751484335E+03  0.91751484336E+03  0.25500000920E-02 0. -1.
    10030    2    1    2    0    0  0.00000000000E+00  0.00000000000E+00  0.34765103622E+03  0.21826807229E+04  0.21548164412E+04 0.  0.
        2    1    3    3  502    0 -0.29620272691E+03  0.10353082000E+04  0.13860012679E+03  0.10857297636E+04  0.25500000920E-02 0.  1.
       -2    1    3    3    0  502  0.29620272691E+03 -0.10353082000E+04  0.20905090943E+03  0.10969509593E+04  0.25500000920E-02 0. -1.
</event>
<event>
 5   0  0.3896210E-06  0.3273686E+04  0.7818609E-02  0.8169623E-01
       -2   -1    0    0    0  501  0.00000000000E+00  0.00000000000E+00  0.18196614773E+04  0.18196614773E+04  0.25500000920E-02 0. -1.
        2   -1    0    0  501    0  0.00000000000E+00  0.00000000000E+00 -0.14723918964E+04  0.14723918964E+04  0.25500000920E-02 0.  1.
    10030    2    1    2    0    0  0.00000000000E+00  0.00000000000E+00  0.34726958088E+03  0.32920533738E+04  0.32736858820E+04 0.  0.
        3    1    3    3  502    0  0.13145879363E+04  0.82933528513E+03  0.68965744925E+03  0.17004604861E+04  0.10100000352E+00 0. -1.
       -3    1    3    3    0  502 -0.13145879363E+04 -0.82933528513E+03 -0.34238786837E+03  0.15915928876E+04  0.10100000352E+00 0.  1.
</event>
<event>
 5   0  0.1339825E-06  0.3430822E+04  0.7818609E-02  0.8130383E-01
       -1   -1    0    0    0  501  0.00000000000E+00  0.00000000000E+00  0.21757816269E+04  0.21757816269E+04  0.50400001928E-02 0. -1.
        1   -1    0    0  501    0  0.00000000000E+00  0.00000000000E+00 -0.13524495305E+04  0.13524495305E+04  0.50400001928E-02 0.  1.
    10030    2    1    2    0    0  0.00000000000E+00  0.00000000000E+00  0.82333209649E+03  0.35282311574E+04  0.34308219655E+04 0.  0.
        3    1    3    3  502    0  0.73753730108E+03  0.12841958776E+04 -0.47865957115E+03  0.15563532111E+04  0.10100000352E+00 0.  1.
       -3    1    3    3    0  502 -0.73753730108E+03 -0.12841958776E+04  0.13019916676E+04  0.19718779463E+04  0.10100000352E+00 0. -1.
</event>
<event>
 5   0  0.3812379E-06  0.3222347E+04  0.7818609E-02  0.8182940E-01
       -2   -1    0    0    0  501  0.00000000000E+00  0.00000000000E+00  0.16266324684E+04  0.16266324684E+04  0.25500000920E-02 0.  1.
        2   -1    0    0  501    0  0.00000000000E+00  0.00000000000E+00 -0.15958610722E+04  0.15958610722E+04  0.25500000920E-02 0. -1.
    10030    2    1    2    0    0  0.00000000000E+00  0.00000000000E+00  0.30771396186E+02  0.32224935407E+04  0.32223466202E+04 0.  0.
        5    1    3    3  502    0  0.66175590431E+03 -0.35748730508E+02 -0.14532378628E+04  0.15972229727E+04  0.46999998093E+01 0. -1.
       -5    1    3    3    0  502 -0.66175590431E+03  0.35748730508E+02  0.14840092590E+04  0.16252705680E+04  0.46999998093E+01 0.  1.
</event>
<event>
 5   0  0.1352708E-06  0.3284143E+04  0.7818609E-02  0.8166942E-01
       -1   -1    0    0    0  501  0.00000000000E+00  0.00000000000E+00  0.13932896716E+04  0.13932896716E+04  0.50400001928E-02 0. -1.
        1   -1    0    0  501    0  0.00000000000E+00  0.00000000000E+00 -0.19352745477E+04  0.19352745477E+04  0.50400001928E-02 0.  1.
    10030    2    1    2    0    0  0.00000000000E+00  0.00000000000E+00 -0.54198487608E+03  0.33285642193E+04  0.32841425298E+04 0.  0.
        5    1    3    3  502    0 -0.45574927414E+03  0.14298486882E+04 -0.94649164700E+03  0.17742725833E+04  0.46999998093E+01 0.  1.
       -5    1    3    3    0  502  0.45574927414E+03 -0.14298486882E+04  0.40450677092E+03  0.15542916360E+04  0.46999998093E+01 0. -1.
</event>
<event>
 5   0  0.1339825E-06  0.3036673E+04  0.7818609E-02  0.8233336E-01
        1   -1    0    0  501    0  0.00000000000E+00  0.00000000000E+00  0.17633996175E+04  0.17633996175E+04  0.50400001928E-02 0. -1.
       -1   -1    0    0    0  501  0.00000000000E+00  0.00000000000E+00 -0.13073301187E+04  0.13073301187E+04  0.50400001928E-02 0.  1.
    10030    2    1    2    0    0  0.00000000000E+00  0.00000000000E+00  0.45606949885E+03  0.30707297362E+04  0.30366728051E+04 0.  0.
        3    1    3    3  502    0 -0.35659326245E+03 -0.13549405953E+04  0.81968003984E+03  0.16232369358E+04  0.10100000352E+00 0.  1.
       -3    1    3    3    0  502  0.35659326245E+03  0.13549405953E+04 -0.36361054099E+03  0.14474928005E+04  0.10100000352E+00 0. -1.
</event>
<event>
 5   0  0.3896210E-06  0.3229139E+04  0.7818609E-02  0.8181164E-01
       -2   -1    0    0    0  501  0.00000000000E+00  0.00000000000E+00  0.14983501829E+04  0.14983501829E+04  0.25500000920E-02 0. -1.
        2   -1    0    0  501    0  0.00000000000E+00  0.00000000000E+00 -0.17398030410E+04  0.17398030410E+04  0.25500000920E-02 0.  1.
    10030    2    1    2    0    0  0.00000000000E+00  0.00000000000E+00 -0.24145285813E+03  0.32381532239E+04  0.32291387116E+04 0.  0.
        3    1    3    3  502    0 -0.12929044554E+04 -0.29879024825E+03 -0.10430530603E+04  0.16878498867E+04  0.10100000352E+00 0.  1.
       -3    1    3    3    0  502  0.12929044554E+04  0.29879024825E+03  0.80160020217E+03  0.15503033373E+04  0.10100000352E+00 0. -1.
</event>
<event>
 5   0  0.1405389E-06  0.2993632E+04  0.7818609E-02  0.8245552E-01
        1   -1    0    0  501    0  0.00000000000E+00  0.00000000000E+00  0.21601447520E+04  0.21601447520E+04  0.50400001928E-02 0.  1.
       -1   -1    0    0    0  501  0.00000000000E+00  0.00000000000E+00 -0.10371799451E+04  0.10371799451E+04  0.50400001928E-02 0. -1.
    10030    2    1    2    0    0  0.00000000000E+00  0.00000000000E+00  0.11229648069E+04  0.31973246972E+04  0.29936324526E+04 0.  0.
        1    1    3    3  502    0 -0.79401375304E+03 -0.10711807695E+04  0.12878864910E+04  0.18537900892E+04  0.50400001928E-02 0.  1.
       -1    1    3    3    0  502  0.79401375304E+03  0.10711807695E+04 -0.16492168407E+03  0.13435346080E+04  0.50400001928E-02 0. -1.
</event>
<event>
 5   0  0.1339825E-06  0.3374476E+04  0.7818609E-02  0.8144199E-01
        1   -1    0    0  501    0  0.00000000000E+00  0.00000000000E+00  0.20310744271E+04  0.20310744271E+04  0.50400001928E-02 0. -1.
       -1   -1    0    0    0  501  0.00000000000E+00  0.00000000000E+00 -0.14016088768E+04  0.14016088768E+04  0.50400001928E-02 0.  1.
    10030    2    1    2    0    0  0.00000000000E+00  0.00000000000E+00  0.62946555027E+03  0.34326833039E+04  0.33744759276E+04 0.  0.
        3    1    3    3  502    0 -0.14803473021E+04  0.23979207103E+03 -0.47180789252E+03  0.15721103873E+04  0.10100000352E+00 0. -1.
       -3    1    3    3    0  502  0.14803473021E+04 -0.23979207103E+03  0.11012734428E+04  0.18605729166E+04  0.10100000352E+00 0.  1.
</event>
<event>
 5   0  0.1282578E-06  0.3327915E+04  0.7818609E-02  0.8155829E-01
        1   -1    0    0  501    0  0.00000000000E+00  0.00000000000E+00  0.13841423844E+04  0.13841423844E+04  0.50400001928E-02 0. -1.
       -1   -1    0    0    0  501  0.00000000000E+00  0.00000000000E+00 -0.20003391869E+04  0.20003391869E+04  0.50400001928E-02 0.  1.
    10030    2    1    2    0    0  0.00000000000E+00  0.00000000000E+00 -0.61619680252E+03  0.33844815713E+04  0.33279148136E+04 0.  0.
        4    1    3    3  502    0 -0.75574254416E+03  0.12543700126E+04  0.49536947306E+03  0.15459571305E+04  0.12699999809E+01 0. -1.
       -4    1    3    3    0  502  0.75574254416E+03 -0.12543700126E+04 -0.11115662756E+04  0.18385244408E+04  0.12699999809E+01 0.  1.
</event>
<event>
 5   0  0.1352708E-06  0.3299809E+04  0.7818609E-02  0.8162944E-01
       -1   -1    0    0    0  501  0.00000000000E+00  0.00000000000E+00  0.33650096949E+04  0.33650096949E+04  0.50400001928E-02 0.  1.
        1   -1    0    0  501    0  0.00000000000E+00  0.00000000000E+00 -0.80896784448E+03  0.80896784450E+03  0.50400001928E-02 0. -1.
    10030    2    1    2    0    0  0.00000000000E+00  0.00000000000E+00  0.25560418504E+04  0.41739775394E+04  0.32998088669E+04 0.  0.
        5    1    3    3  502    0  0.29751388452E+03  0.13092675116E+04  0.24909329636E+04  0.28297464634E+04  0.46999998093E+01 0.  1.
       -5    1    3    3    0  502 -0.29751388452E+03 -0.13092675116E+04  0.65108886801E+02  0.13442310759E+04  0.46999998093E+01 0. -1.
</event>
<event>
 5   0  0.3920487E-06  0.2933413E+04  0.7818609E-02  0.8263005E-01
        2   -1    0    0  501    0  0.00000000000E+00  0.00000000000E+00  0.13859589780E+04  0.13859589780E+04  0.25500000920E-02 0. -1.
       -2   -1    0    0    0  501  0.00000000000E+00  0.00000000000E+00 -0.15521589072E+04  0.15521589072E+04  0.25500000920E-02 0.  1.
    10030    2    1    2    0    0  0.00000000000E+00  0.00000000000E+00 -0.16619992925E+03  0.29381178852E+04  0.29334134197E+04 0.  0.
        4    1    3    3  502    0 -0.12934927131E+04  0.72455482544E+02 -0.77184640561E+03  0.15080191254E+04  0.12699999809E+01 0.  1.
       -4    1    3    3    0  502  0.12934927131E+04 -0.72455482544E+02  0.60564647636E+03  0.14300987598E+04  0.12699999809E+01 0. -1.
</event>
<event>
 5   0  0.4017247E-06  0.2805596E+04  0.7818609E-02  0.8301533E-01
       -2   -1    0    0    0  501  0.00000000000E+00  0.00000000000E+00  0.97216170271E+03  0.97216170271E+03  0.25500000920E-02 0. -1.
        2   -1    0    0  501    0  0.00000000000E+00  0.00000000000E+00 -0.20241916402E+04  0.20241916402E+04  0.25500000920E-02 0.  1.
    10030    2    1    2    0    0  0.00000000000E+00  0.00000000000E+00 -0.10520299375E+04  0.29963533430E+04  0.28055955458E+04 0.  0.
        1    1    3    3  502    0 -0.41836711263E+03 -0.18042717526E+03  0.89093968329E+03  0.10006790324E+04  0.50400001928E-02 0. -1.
       -1    1    3    3    0  502  0.41836711263E+03  0.18042717526E+03 -0.19429696208E+04  0.19956743106E+04  0.50400001928E-02 0.  1.
</event>
<event>
 5   0  0.1282578E-06  0.3177027E+04  0.7818609E-02  0.8194911E-01
        1   -1    0    0  501    0  0.00000000000E+00  0.00000000000E+00  0.16965325481E+04  0.16965325481E+04  0.50400001928E-02 0. -1.
       -1   -1    0    0    0  501  0.00000000000E+00  0.00000000000E+00 -0.14873723921E+04  0.14873723922E+04  0.50400001928E-02 0.  1.
    10030    2    1    2    0    0  0.00000000000E+00  0.00000000000E+00  0.20916015594E+03  0.31839049402E+04  0.31770273366E+04 0.  0.
        4    1    3    3  502    0 -0.77219198130E+03  0.13455036420E+04 -0.23779314403E+03  0.15694609580E+04  0.12699999809E+01 0.  1.
       -4    1    3    3    0  502  0.77219198130E+03 -0.13455036420E+04  0.44695329996E+03  0.16144439822E+04  0.12699999809E+01 0. -1.
</event>
<event>
 5   0  0.3671997E-06  0.3328654E+04  0.7818609E-02  0.8155642E-01
        2   -1    0    0  501    0  0.00000000000E+00  0.00000000000E+00  0.13351153222E+04  0.13351153222E+04  0.25500000920E-02 0.  1.
       -2   -1    0    0    0  501  0.00000000000E+00  0.00000000000E+00 -0.20747150374E+04  0.20747150374E+04  0.25500000920E-02 0. -1.
    10030    2    1    2    0    0  0.00000000000E+00  0.00000000000E+00 -0.73959971520E+03  0.34098303596E+04  0.33286536832E+04 0.  0.
        2    1    3    3  502    0 -0.53734758549E+03 -0.57791622640E+03  0.11312872502E+04  0.13793260800E+04  0.25500000920E-02 0.  1.
       -2    1    3    3    0  502  0.53734758549E+03  0.57791622640E+03 -0.18708869654E+04  0.20305042797E+04  0.25500000920E-02 0. -1.
</event>
<event>
 5   0  0.1352708E-06  0.3292753E+04  0.7818609E-02  0.8164742E-01
       -1   -1    0    0    0  501  0.00000000000E+00  0.00000000000E+00  0.14483596760E+04  0.14483596760E+04  0.50400001928E-02 0. -1.
        1   -1    0    0  501    0  0.00000000000E+00  0.00000000000E+00 -0.18714657492E+04  0.18714657492E+04  0.50400001928E-02 0.  1.
    10030    2    1    2    0    0  0.00000000000E+00  0.00000000000E+00 -0.42310607323E+03  0.33198254252E+04  0.32927529674E+04 0.  0.
        5    1    3    3  502    0 -0.12713630235E+04  0.97768993220E+03 -0.58648672194E+03  0.17076973696E+04  0.46999998093E+01 0.  1.
       -5    1    3    3    0  502  0.12713630235E+04 -0.97768993220E+03  0.16338064870E+03  0.16121280556E+04  0.46999998093E+01 0. -1.
</event>
<event>
 5   0  0.3671997E-06  0.3320312E+04  0.7818609E-02  0.8157746E-01
        2   -1    0    0  501    0  0.00000000000E+00  0.00000000000E+00  0.31144197124E+04  0.31144197124E+04  0.25500000920E-02 0. -1.
       -2   -1    0    0    0  501  0.00000000000E+00  0.00000000000E+00 -0.88495392714E+03  0.88495392715E+03  0.25500000920E-02 0.  1.
    10030    2    1    2    0    0  0.00000000000E+00  0.00000000000E+00  0.22294657853E+04  0.39993736396E+04  0.33203120066E+04 0.  0.
        2    1    3    3  502    0  0.44500658640E+03 -0.15130605184E+04  0.49031524517E+03  0.16516028681E+04  0.25500000920E-02 0.  1.
       -2    1    3    3    0  502 -0.44500658640E+03  0.15130605184E+04  0.17391505401E+04  0.23477707715E+04  0.25500000920E-02 0. -1.
</event>
<event>
 5   0  0.1282578E-06  0.2219226E+04  0.7818609E-02  0.8510468E-01
        1   -1    0    0  501    0  0.00000000000E+00  0.00000000000E+00  0.19188313374E+04  0.19188313374E+04  0.50400001928E-02 0.  1.
       -1   -1    0    0    0  501  0.00000000000E+00  0.00000000000E+00 -0.64166167331E+03  0.64166167333E+03  0.50400001928E-02 0. -1.
    10030    2    1    2    0    0  0.00000000000E+00  0.00000000000E+00  0.12771696641E+04  0.25604930108E+04  0.22192255648E+04 0.  0.
        4    1    3    3  502    0  0.29865148473E+03 -0.69539010710E+03  0.15748374559E+04  0.17472477602E+04  0.12699999809E+01 0.  1.
       -4    1    3    3    0  502 -0.29865148473E+03  0.69539010710E+03 -0.29766779173E+03  0.81324525054E+03  0.12699999809E+01 0. -1.
</event>
<event>
 5   0  0.1282578E-06  0.3287548E+04  0.7818609E-02  0.8166071E-01
        1   -1    0    0  501    0  0.00000000000E+00  0.00000000000E+00  0.25185460505E+04  0.25185460506E+04  0.50400001928E-02 0.  1.
       -1   -1    0    0    0  501  0.00000000000E+00  0.00000000000E+00 -0.10728385623E+04  0.10728385624E+04  0.50400001928E-02 0. -1.
    10030    2    1    2    0    0  0.00000000000E+00  0.00000000000E+00  0.14457074882E+04  0.35913846129E+04  0.32875482196E+04 0.  0.
        4    1    3    3  502    0 -0.80867720931E+03  0.14126632044E+04  0.97295730372E+03  0.18963711888E+04  0.12699999809E+01 0.  1.
       -4    1    3    3    0  502  0.80867720931E+03 -0.14126632044E+04  0.47275018449E+03  0.16950134241E+04  0.12699999809E+01 0. -1.
</event>
<event>
 5   0  0.1282578E-06  0.2686515E+04  0.7818609E-02  0.8339394E-01
       -1   -1    0    0    0  501  0.00000000000E+00  0.00000000000E+00  0.12193480491E+04  0.12193480492E+04  0.50400001928E-02 0.  1.
        1   -1    0    0  501    0  0.00000000000E+00  0.00000000000E+00 -0.14797587548E+04  0.14797587548E+04  0.50400001928E-02 0. -1.
    10030    2    1    2    0    0  0.00000000000E+00  0.00000000000E+00 -0.26041070566E+03  0.26991068040E+04  0.26865151784E+04 0.  0.
        4    1    3    3  502    0 -0.58625235648E+03 -0.95621931197E+03  0.61237464580E+03  0.12779090413E+04  0.12699999809E+01 0. -1.
       -4    1    3    3    0  502  0.58625235648E+03  0.95621931197E+03 -0.87278535146E+03  0.14211977627E+04  0.12699999809E+01 0.  1.
</event>
<event>
 5   0  0.3671997E-06  0.3364244E+04  0.7818609E-02  0.8146738E-01
       -2   -1    0    0    0  501  0.00000000000E+00  0.00000000000E+00  0.10416201147E+04  0.10416201147E+04  0.25500000920E-02 0.  1.
        2   -1    0    0  501    0  0.00000000000E+00  0.00000000000E+00 -0.27164744521E+04  0.27164744521E+04  0.25500000920E-02 0. -1.
    10030    2    1    2    0    0  0.00000000000E+00  0.00000000000E+00 -0.16748543374E+04  0.37580945667E+04  0.33642440044E+04 0.  0.
        2    1    3    3  502    0 -0.16024797307E+04 -0.21435695196E+03 -0.13561664649E+04  0.21102316628E+04  0.25500000920E-02 0. -1.
       -2    1    3    3    0  502  0.16024797307E+04  0.21435695196E+03 -0.31868787249E+03  0.16478629039E+04  0.25500000920E-02 0.  1.
</event>
<event>
 5   0  0.1259875E-06  0.3325281E+04  0.7818609E-02  0.8156492E-01
       -3   -1    0    0    0  501  0.00000000000E+00  0.00000000000E+00  0.25303407409E+04  0.25303407429E+04  0.10100000352E+00 0.  1.
        3   -1    0    0  501    0  0.00000000000E+00  0.00000000000E+00 -0.10924905589E+04  0.10924905636E+04  0.10100000352E+00 0. -1.
    10030    2    1    2    0    0  0.00000000000E+00  0.00000000000E+00  0.14378501820E+04  0.36228313065E+04  0.33252809700E+04 0.  0.
        4    1    3    3  502    0  0.71055153639E+03 -0.64703355421E+03  0.21971050110E+04  0.23980842246E+04  0.12699999809E+01 0.  1.
       -4    1    3    3    0  502 -0.71055153639E+03  0.64703355421E+03 -0.75925482904E+03  0.12247470818E+04  0.12699999809E+01 0. -1.
</event>
<event>
 5   0  0.3812379E-06  0.3373862E+04  0.7818609E-02  0.8144351E-01
       -2   -1    0    0    0  501  0.00000000000E+00  0.00000000000E+00  0.29068648575E+04  0.29068648575E+04  0.25500000920E-02 0.  1.
        2   -1    0    0  501    0  0.00000000000E+00  0.00000000000E+00 -0.97897074755E+03  0.97897074755E+03  0.25500000920E-02 0. -1.
    10030    2    1    2    0    0  0.00000000000E+00  0.00000000000E+00  0.19278941099E+04  0.38858356050E+04  0.33738616821E+04 0.  0.
        5    1    3    3  502    0  0.83152666123E+03  0.12694358370E+04  0.18125038692E+04  0.23639154592E+04  0.46999998093E+01 0.  1.
       -5    1    3    3    0  502 -0.83152666123E+03 -0.12694358370E+04  0.11539024070E+03  0.15219201458E+04  0.46999998093E+01 0. -1.
</event>
<event>
 5   0  0.3812379E-06  0.3310187E+04  0.7818609E-02  0.8160308E-01
       -2   -1    0    0    0  501  0.00000000000E+00  0.00000000000E+00  0.14312266243E+04  0.14312266243E+04  0.25500000920E-02 0. -1.
        2   -1    0    0  501    0  0.00000000000E+00  0.00000000000E+00 -0.19139767873E+04  0.19139767873E+04  0.25500000920E-02 0.  1.
    10030    2    1    2    0    0  0.00000000000E+00  0.00000000000E+00 -0.48275016304E+03  0.33452034116E+04  0.33101870257E+04 0.  0.
        5    1    3    3  502    0 -0.55620168832E+03 -0.46627358636E+03  0.12618211194E+04  0.14556737281E+04  0.46999998093E+01 0. -1.
       -5    1    3    3    0  502  0.55620168832E+03  0.46627358636E+03 -0.17445712824E+04  0.18895296835E+04  0.46999998093E+01 0.  1.
</event>
<event>
 5   0  0.3920487E-06  0.3335877E+04  0.7818609E-02  0.8153826E-01
        2   -1    0    0  501    0  0.00000000000E+00  0.00000000000E+00  0.18574953950E+04  0.18574953950E+04  0.25500000920E-02 0.  1.
       -2   -1    0    0    0  501  0.00000000000E+00  0.00000000000E+00 -0.14977255299E+04  0.14977255299E+04  0.25500000920E-02 0. -1.
    10030    2    1    2    0    0  0.00000000000E+00  0.00000000000E+00  0.35976986507E+03  0.33552209249E+04  0.33358766613E+04 0.  0.
        4    1    3    3  502    0  0.58851324265E+03  0.11297545232E+04 -0.90307768179E+03  0.15614877623E+04  0.12699999809E+01 0. -1.
       -4    1    3    3    0  502 -0.58851324265E+03 -0.11297545232E+04  0.12628475469E+04  0.17937331627E+04  0.12699999809E+01 0.  1.
</event>
<event>
 5   0  0.1282578E-06  0.3289111E+04  0.7818609E-02  0.8165672E-01
        1   -1    0    0  501    0  0.00000000000E+00  0.00000000000E+00  0.17877876044E+04  0.17877876044E+04  0.50400001928E-02 0.  1.
       -1   -1    0    0    0  501  0.00000000000E+00  0.00000000000E+00 -0.15127985804E+04  0.15127985804E+04  0.50400001928E-02 0. -1.
    10030    2    1    2    0    0  0.00000000000E+00  0.00000000000E+00  0.27498902404E+03  0.33005861848E+04  0.32891108525E+04 0.  0.
        4    1    3    3  502    0 -0.44557601272E+03  0.43888225438E+03 -0.13888003135E+04  0.15231295218E+04  0.12699999809E+01 0. -1.
       -4    1    3    3    0  502  0.44557601272E+03 -0.43888225438E+03  0.16637893376E+04  0.17774566630E+04  0.12699999809E+01 0.  1.
</event>
<event>
 5   0  0.1391878E-06  0.3169802E+04  0.7818609E-02  0.8196838E-01
        1   -1    0    0  501    0  0.00000000000E+00  0.00000000000E+00  0.18499664523E+04  0.18499664523E+04  0.50400001928E-02 0. -1.
       -1   -1    0    0    0  501  0.00000000000E+00  0.00000000000E+00 -0.13578146769E+04  0.13578146770E+04  0.50400001928E-02 0.  1.
    10030    2    1    2    0    0  0.00000000000E+00  0.00000000000E+00  0.49215177533E+03  0.32077811292E+04  0.31698022656E+04 0.  0.
        2    1    3    3  502    0 -0.36262918016E+03 -0.95044701057E+03 -0.98383017600E+03  0.14151930107E+04  0.25500000920E-02 0.  1.
       -2    1    3    3    0  502  0.36262918016E+03  0.95044701057E+03  0.14759819513E+04  0.17925881186E+04  0.25500000920E-02 0. -1.
</event>
<event>
 5   0  0.3671997E-06  0.3323744E+04  0.7818609E-02  0.8156880E-01
        2   -1    0    0  501    0  0.00000000000E+00  0.00000000000E+00  0.16308763305E+04  0.16308763305E+04  0.25500000920E-02 0. -1.
       -2   -1    0    0    0  501  0.00000000000E+00  0.00000000000E+00 -0.16934567123E+04  0.16934567123E+04  0.25500000920E-02 0.  1.
    10030    2    1    2    0    0  0.00000000000E+00  0.00000000000E+00 -0.62580381792E+02  0.33243330429E+04  0.33237439546E+04 0.  0.
        2    1    3    3  502    0  0.15136508454E+04  0.29050122067E+02 -0.71685728191E+03  0.16750722832E+04  0.25500000920E-02 0.  1.
       -2    1    3    3    0  502 -0.15136508454E+04 -0.29050122067E+02  0.65427690012E+03  0.16492607597E+04  0.25500000920E-02 0. -1.
</event>
<event>
 5   0  0.1391878E-06  0.3310291E+04  0.7818609E-02  0.8160282E-01
        1   -1    0    0  501    0  0.00000000000E+00  0.00000000000E+00  0.11422327214E+04  0.11422327214E+04  0.50400001928E-02 0. -1.
       -1   -1    0    0    0  501  0.00000000000E+00  0.00000000000E+00 -0.23983793798E+04  0.23983793798E+04  0.50400001928E-02 0.  1.
    10030    2    1    2    0    0  0.00000000000E+00  0.00000000000E+00 -0.12561466585E+04  0.35406121012E+04  0.33102914711E+04 0.  0.
        2    1    3    3  502    0 -0.10492914955E+04  0.82890078988E+03  0.41519939164E+03  0.14001713098E+04  0.25500000920E-02 0. -1.
       -2    1    3    3    0  502  0.10492914955E+04 -0.82890078988E+03 -0.16713460501E+04  0.21404407913E+04  0.25500000920E-02 0.  1.
</event>
<event>
 5   0  0.3896210E-06  0.3535784E+04  0.7818609E-02  0.8105362E-01
        2   -1    0    0  501    0  0.00000000000E+00  0.00000000000E+00  0.26313484741E+04  0.26313484741E+04  0.25500000920E-02 0. -1.
       -2   -1    0    0    0  501  0.00000000000E+00  0.00000000000E+00 -0.11877720944E+04  0.11877720944E+04  0.25500000920E-02 0.  1.
    10030    2    1    2    0    0  0.00000000000E+00  0.00000000000E+00  0.14435763797E+04  0.38191205685E+04  0.35357840930E+04 0.  0.
        3    1    3    3  502    0 -0.98361969130E+03  0.14337892957E+04  0.37651201786E+03  0.17790505196E+04  0.10100000352E+00 0.  1.
       -3    1    3    3    0  502  0.98361969130E+03 -0.14337892957E+04  0.10670643618E+04  0.20400700488E+04  0.10100000352E+00 0. -1.
</event>
<event>
 5   0  0.3812379E-06  0.3264235E+04  0.7818609E-02  0.8172056E-01
        2   -1    0    0  501    0  0.00000000000E+00  0.00000000000E+00  0.16247061976E+04  0.16247061976E+04  0.25500000920E-02 0. -1.
       -2   -1    0    0    0  501  0.00000000000E+00  0.00000000000E+00 -0.16395624741E+04  0.16395624741E+04  0.25500000920E-02 0.  1.
    10030    2    1    2    0    0  0.00000000000E+00  0.00000000000E+00 -0.14856276443E+02  0.32642686717E+04  0.32642348647E+04 0.  0.
        5    1    3    3  502    0  0.88280975328E+03  0.51640315927E+03  0.12644969576E+04  0.16263455750E+04  0.46999998093E+01 0. -1.
       -5    1    3    3    0  502 -0.88280975328E+03 -0.51640315927E+03 -0.12793532340E+04  0.16379230967E+04  0.46999998093E+01 0.  1.
</event>
<event>
 5   0  0.1352708E-06  0.3313706E+04  0.7818609E-02  0.8159417E-01
        1   -1    0    0  501    0  0.00000000000E+00  0.00000000000E+00  0.19274436775E+04  0.19274436775E+04  0.50400001928E-02 0.  1.
       -1   -1    0    0    0  501  0.00000000000E+00  0.00000000000E+00 -0.14242497286E+04  0.14242497286E+04  0.50400001928E-02 0. -1.
    10030    2    1    2    0    0  0.00000000000E+00  0.00000000000E+00  0.50319394894E+03  0.33516934062E+04  0.33137055600E+04 0.  0.
        5    1    3    3  502    0  0.16483102234E+04 -0.16789356940E+03  0.24662108033E+03  0.16750996658E+04  0.46999998093E+01 0.  1.
       -5    1    3    3    0  502 -0.16483102234E+04  0.16789356940E+03  0.25657286861E+03  0.16765937403E+04  0.46999998093E+01 0. -1.
</event>
<event>
 5   0  0.1339825E-06  0.3135023E+04  0.7818609E-02  0.8206191E-01
       -1   -1    0    0    0  501  0.00000000000E+00  0.00000000000E+00  0.10936241155E+04  0.10936241155E+04  0.50400001928E-02 0. -1.
        1   -1    0    0  501    0  0.00000000000E+00  0.00000000000E+00 -0.22467436453E+04  0.22467436453E+04  0.50400001928E-02 0.  1.
    10030    2    1    2    0    0  0.00000000000E+00  0.00000000000E+00 -0.11531195298E+04  0.33403677608E+04  0.31350234652E+04 0.  0.
        3    1    3    3  502    0  0.10281534355E+04  0.45506492581E+03  0.58718362400E+03  0.12684510996E+04  0.10100000352E+00 0. -1.
       -3    1    3    3    0  502 -0.10281534355E+04 -0.45506492581E+03 -0.17403031538E+04  0.20719166612E+04  0.10100000352E+00 0.  1.
</event>
<event>
 5   0  0.3896210E-06  0.3285769E+04  0.7818609E-02  0.8166526E-01
        2   -1    0    0  501    0  0.00000000000E+00  0.00000000000E+00  0.22508338442E+04  0.22508338442E+04  0.25500000920E-02 0. -1.
       -2   -1    0    0    0  501  0.00000000000E+00  0.00000000000E+00 -0.11991417522E+04  0.11991417522E+04  0.25500000920E-02 0.  1.
    10030    2    1    2    0    0  0.00000000000E+00  0.00000000000E+00  0.10516920920E+04  0.34499755963E+04  0.32857686101E+04 0.  0.
        3    1    3    3  502    0  0.81992705606E+03  0.10388809749E+04 -0.49620371611E+03  0.14134256951E+04  0.10100000352E+00 0.  1.
       -3    1    3    3    0  502 -0.81992705606E+03 -0.10388809749E+04  0.15478958081E+04  0.20365499013E+04  0.10100000352E+00 0. -1.
</event>
<event>
 5   0  0.4017247E-06  0.3238978E+04  0.7818609E-02  0.8178598E-01
        2   -1    0    0  501    0  0.00000000000E+00  0.00000000000E+00  0.11742557807E+04  0.11742557807E+04  0.25500000920E-02 0.  1.
       -2   -1    0    0    0  501  0.00000000000E+00  0.00000000000E+00 -0.22335374061E+04  0.22335374061E+04  0.25500000920E-02 0. -1.
    10030    2    1    2    0    0  0.00000000000E+00  0.00000000000E+00 -0.10592816254E+04  0.34077931868E+04  0.32389777464E+04 0.  0.
        1    1    3    3  502    0 -0.13604714873E+04 -0.40148926472E+03 -0.13518225325E+04  0.19594643291E+04  0.50400001928E-02 0.  1.
       -1    1    3    3    0  502  0.13604714873E+04  0.40148926472E+03  0.29254090710E+03  0.14483288576E+04  0.50400001928E-02 0. -1.
</event>
<event>
 5   0  0.4017247E-06  0.3214408E+04  0.7818609E-02  0.8185022E-01
        2   -1    0    0  501    0  0.00000000000E+00  0.00000000000E+00  0.27377573872E+04  0.27377573872E+04  0.25500000920E-02 0.  1.
       -2   -1    0    0    0  501  0.00000000000E+00  0.00000000000E+00 -0.94351103236E+03  0.94351103237E+03  0.25500000920E-02 0. -1.
    10030    2    1    2    0    0  0.00000000000E+00  0.00000000000E+00  0.17942463548E+04  0.36812684196E+04  0.32144077518E+04 0.  0.
        1    1    3    3  502    0 -0.39849984051E+03  0.15049641185E+04  0.43990816248E+03  0.16177880925E+04  0.50400001928E-02 0. -1.
       -1    1    3    3    0  502  0.39849984051E+03 -0.15049641185E+04  0.13543381923E+04  0.20634803270E+04  0.50400001928E-02 0.  1.
</event>
<event>
 5   0  0.3671997E-06  0.3343319E+04  0.7818609E-02  0.8151960E-01
       -2   -1    0    0    0  501  0.00000000000E+00  0.00000000000E+00  0.11032415210E+04  0.11032415210E+04  0.25500000920E-02 0.  1.
        2   -1    0    0  501    0  0.00000000000E+00  0.00000000000E+00 -0.25329408306E+04  0.25329408306E+04  0.25500000920E-02 0. -1.
    10030    2    1    2    0    0  0.00000000000E+00  0.00000000000E+00 -0.14296993096E+04  0.36361823516E+04  0.33433190064E+04 0.  0.
        2    1    3    3  502    0  0.14975009274E+04  0.67987084409E+03 -0.38909295676E+03  0.16900079057E+04  0.25500000920E-02 0.  1.
       -2    1    3    3    0  502 -0.14975009274E+04 -0.67987084409E+03 -0.10406063529E+04  0.19461744459E+04  0.25500000920E-02 0. -1.
</event>
<event>
 5   0  0.1405389E-06  0.2171707E+04  0.7818609E-02  0.8530297E-01
       -1   -1    0    0    0  501  0.00000000000E+00  0.00000000000E+00  0.18679920319E+04  0.18679920319E+04  0.50400001928E-02 0.  1.
        1   -1    0    0  501    0  0.00000000000E+00  0.00000000000E+00 -0.63120057496E+03  0.63120057498E+03  0.50400001928E-02 0. -1.
    10030    2    1    2    0    0  0.00000000000E+00  0.00000000000E+00  0.12367914569E+04  0.24991926069E+04  0.21717068353E+04 0.  0.
        1    1    3    3  502    0 -0.69246459107E+02 -0.40527217323E+03 -0.53816163782E+03  0.67724334987E+03  0.50400001928E-02 0. -1.
       -1    1    3    3    0  502  0.69246459107E+02  0.40527217323E+03  0.17749530948E+04  0.18219492570E+04  0.50400001928E-02 0.  1.
</event>
<event>
 5   0  0.4017247E-06  0.3268154E+04  0.7818609E-02  0.8171046E-01
       -2   -1    0    0    0  501  0.00000000000E+00  0.00000000000E+00  0.18594140609E+04  0.18594140609E+04  0.25500000920E-02 0.  1.
        2   -1    0    0  501    0  0.00000000000E+00  0.00000000000E+00 -0.14360482478E+04  0.14360482478E+04  0.25500000920E-02 0. -1.
    10030    2    1    2    0    0  0.00000000000E+00  0.00000000000E+00  0.42336581308E+03  0.32954623087E+04  0.32681544052E+04 0.  0.
        1    1    3    3  502    0 -0.99788930417E+03 -0.68809986494E+03  0.13167156001E+04  0.17896939568E+04  0.50400001928E-02 0.  1.
       -1    1    3    3    0  502  0.99788930417E+03  0.68809986494E+03 -0.89334978704E+03  0.15057683519E+04  0.50400001928E-02 0. -1.
</event>
<event>
 5   0  0.3920487E-06  0.3229856E+04  0.7818609E-02  0.8180976E-01
       -2   -1    0    0    0  501  0.00000000000E+00  0.00000000000E+00  0.98119116229E+03  0.98119116229E+03  0.25500000920E-02 0.  1.
        2   -1    0    0  501    0  0.00000000000E+00  0.00000000000E+00 -0.26579863525E+04  0.26579863525E+04  0.25500000920E-02 0. -1.
    10030    2    1    2    0    0  0.00000000000E+00  0.00000000000E+00 -0.16767951902E+04  0.36391775148E+04  0.32298561693E+04 0.  0.
        4    1    3    3  502    0 -0.72422204438E+03  0.29362410587E+03  0.75395544881E+03  0.10858927741E+04  0.12699999809E+01 0.  1.
       -4    1    3    3    0  502  0.72422204438E+03 -0.29362410587E+03 -0.24307506390E+04  0.25532847407E+04  0.12699999809E+01 0. -1.
</event>
<event>
 5   0  0.3896210E-06  0.3272563E+04  0.7818609E-02  0.8169912E-01
       -2   -1    0    0    0  501  0.00000000000E+00  0.00000000000E+00  0.15250803403E+04  0.15250803403E+04  0.25500000920E-02 0. -1.
        2   -1    0    0  501    0  0.00000000000E+00  0.00000000000E+00 -0.17555906232E+04  0.17555906232E+04  0.25500000920E-02 0.  1.
    10030    2    1    2    0    0  0.00000000000E+00  0.00000000000E+00 -0.23051028290E+03  0.32806709636E+04  0.32725627543E+04 0.  0.
        3    1    3    3  502    0 -0.68485478090E+03  0.96514423211E+03  0.10175389394E+04  0.15607417990E+04  0.10100000352E+00 0. -1.
       -3    1    3    3    0  502  0.68485478090E+03 -0.96514423211E+03 -0.12480492223E+04  0.17199291646E+04  0.10100000352E+00 0.  1.
</event>
<event>
 5   0  0.1352708E-06  0.3295367E+04  0.7818609E-02  0.8164075E-01
        1   -1    0    0  501    0  0.00000000000E+00  0.00000000000E+00  0.20455642788E+04  0.20455642788E+04  0.50400001928E-02 0.  1.
       -1   -1    0    0    0  501  0.00000000000E+00  0.00000000000E+00 -0.13271938666E+04  0.13271938667E+04  0.50400001928E-02 0. -1.
    10030    2    1    2    0    0  0.00000000000E+00  0.00000000000E+00  0.71837041218E+03  0.33727581455E+04  0.32953666653E+04 0.  0.
        5    1    3    3  502    0 -0.91191025354E+03 -0.38181834730E+03  0.17082737427E+04  0.19737241020E+04  0.46999998093E+01 0.  1.
       -5    1    3    3    0  502  0.91191025354E+03  0.38181834730E+03 -0.98990333057E+03  0.13990340434E+04  0.46999998093E+01 0. -1.
</event>
<event>
 5   0  0.1391878E-06  0.2956183E+04  0.7818609E-02  0.8256355E-01
       -1   -1    0    0    0  501  0.00000000000E+00  0.00000000000E+00  0.14144705600E+04  0.14144705601E+04  0.50400001928E-02 0.  1.
        1   -1    0    0  501    0  0.00000000000E+00  0.00000000000E+00 -0.15445736334E+04  0.15445736334E+04  0.50400001928E-02 0. -1.
    10030    2    1    2    0    0  0.00000000000E+00  0.00000000000E+00 -0.13010307339E+03  0.29590441935E+04  0.29561826279E+04 0.  0.
        2    1    3    3  502    0  0.57313729256E+03  0.92980091469E+03 -0.10618758723E+04  0.15233504079E+04  0.25500000920E-02 0. -1.
       -2    1    3    3    0  502 -0.57313729256E+03 -0.92980091469E+03  0.93177279894E+03  0.14356937856E+04  0.25500000920E-02 0.  1.
</event>
<event>
 5   0  0.4017247E-06  0.2954958E+04  0.7818609E-02  0.8256711E-01
       -2   -1    0    0    0  501  0.00000000000E+00  0.00000000000E+00  0.87847054156E+03  0.87847054157E+03  0.25500000920E-02 0.  1.
        2   -1    0    0  501    0  0.00000000000E+00  0.00000000000E+00 -0.24849373453E+04  0.24849373453E+04  0.25500000920E-02 0. -1.
    10030    2    1    2    0    0  0.00000000000E+00  0.00000000000E+00 -0.16064668037E+04  0.33634078868E+04  0.29549580406E+04 0.  0.
        1    1    3    3  502    0 -0.83285404372E+02  0.14464694345E+04 -0.47386717396E+03  0.15243885273E+04  0.50400001928E-02 0.  1.
       -1    1    3    3    0  502  0.83285404372E+02 -0.14464694345E+04 -0.11325996298E+04  0.18390193596E+04  0.50400001928E-02 0. -1.
</event>
<event>
 5   0  0.3920487E-06  0.3354123E+04  0.7818609E-02  0.8149259E-01
        2   -1    0    0  501    0  0.00000000000E+00  0.00000000000E+00  0.16221859891E+04  0.16221859891E+04  0.25500000920E-02 0. -1.
       -2   -1    0    0    0  501  0.00000000000E+00  0.00000000000E+00 -0.17337931386E+04  0.17337931386E+04  0.25500000920E-02 0.  1.
    10030    2    1    2    0    0  0.00000000000E+00  0.00000000000E+00 -0.11160714951E+03  0.33559791276E+04  0.33541227988E+04 0.  0.
        4    1    3    3  502    0 -0.18304397228E+03 -0.33603065667E+03 -0.16895304630E+04  0.17323211297E+04  0.12699999809E+01 0.  1.
       -4    1    3    3    0  502  0.18304397228E+03  0.33603065667E+03  0.15779233135E+04  0.16236579979E+04  0.12699999809E+01 0. -1.
</event>
<event>
 5   0  0.3896210E-06  0.3302682E+04  0.7818609E-02  0.8162213E-01
       -2   -1    0    0    0  501  0.00000000000E+00  0.00000000000E+00  0.19496054485E+04  0.19496054485E+04  0.25500000920E-02 0. -1.
        2   -1    0    0  501    0  0.00000000000E+00  0.00000000000E+00 -0.13987072909E+04  0.13987072909E+04  0.25500000920E-02 0.  1.
    10030    2    1    2    0    0  0.00000000000E+00  0.00000000000E+00  0.55089815766E+03  0.33483127394E+04  0.33026821556E+04 0.  0.
        3    1    3    3  502    0 -0.81637422224E+03  0.35256699961E+03  0.16861323588E+04  0.19062562004E+04  0.10100000352E+00 0. -1.
       -3    1    3    3    0  502  0.81637422224E+03 -0.35256699961E+03 -0.11352342012E+04  0.14420565390E+04  0.10100000352E+00 0.  1.
</event>
<event>
 5   0  0.1405389E-06  0.2347277E+04  0.7818609E-02  0.8459510E-01
       -1   -1    0    0    0  501  0.00000000000E+00  0.00000000000E+00  0.11903143657E+04  0.11903143658E+04  0.50400001928E-02 0. -1.
        1   -1    0    0  501    0  0.00000000000E+00  0.00000000000E+00 -0.11571959261E+04  0.11571959261E+04  0.50400001928E-02 0.  1.
    10030    2    1    2    0    0  0.00000000000E+00  0.00000000000E+00  0.33118439651E+02  0.23475102918E+04  0.23472766644E+04 0.  0.
        1    1    3    3  502    0  0.45393566548E+03 -0.39434633734E+03 -0.99144005717E+03  0.11595343933E+04  0.50400001928E-02 0.  1.
       -1    1    3    3    0  502 -0.45393566548E+03  0.39434633734E+03  0.10245584968E+04  0.11879758986E+04  0.50400001928E-02 0. -1.
</event>
<event>
 5   0  0.3671997E-06  0.3342112E+04  0.7818609E-02  0.8152262E-01
       -2   -1    0    0    0  501  0.00000000000E+00  0.00000000000E+00  0.15258143118E+04  0.15258143118E+04  0.25500000920E-02 0.  1.
        2   -1    0    0  501    0  0.00000000000E+00  0.00000000000E+00 -0.18301226484E+04  0.18301226484E+04  0.25500000920E-02 0. -1.
    10030    2    1    2    0    0  0.00000000000E+00  0.00000000000E+00 -0.30430833658E+03  0.33559369602E+04  0.33421115058E+04 0.  0.
        2    1    3    3  502    0  0.31326046792E+03  0.14305192736E+04 -0.96041240417E+03  0.17512594037E+04  0.25500000920E-02 0. -1.
       -2    1    3    3    0  502 -0.31326046792E+03 -0.14305192736E+04  0.65610406759E+03  0.16046775565E+04  0.25500000920E-02 0.  1.
</event>
<event>
 5   0  0.1405389E-06  0.2485769E+04  0.7818609E-02  0.8408073E-01
       -1   -1    0    0    0  501  0.00000000000E+00  0.00000000000E+00  0.89747291716E+03  0.89747291718E+03  0.50400001928E-02 0.  1.
        1   -1    0    0  501    0  0.00000000000E+00  0.00000000000E+00 -0.17212355136E+04  0.17212355136E+04  0.50400001928E-02 0. -1.
    10030    2    1    2    0    0  0.00000000000E+00  0.00000000000E+00 -0.82376259639E+03  0.26187084307E+04  0.24857693035E+04 0.  0.
        1    1    3    3  502    0 -0.40794705420E+03  0.11733413647E+04 -0.36959092369E+03  0.12960510052E+04  0.50400001928E-02 0. -1.
       -1    1    3    3    0  502  0.40794705420E+03 -0.11733413647E+04 -0.45417167270E+03  0.13226574256E+04  0.50400001928E-02 0.  1.
</event>
<event>
 5   0  0.1391878E-06  0.3151294E+04  0.7818609E-02  0.8201800E-01
        1   -1    0    0  501    0  0.00000000000E+00  0.00000000000E+00  0.23500453072E+04  0.23500453072E+04  0.50400001928E-02 0. -1.
       -1   -1    0    0    0  501  0.00000000000E+00  0.00000000000E+00 -0.10564318709E+04  0.10564318709E+04  0.50400001928E-02 0.  1.
    10030    2    1    2    0    0  0.00000000000E+00  0.00000000000E+00  0.12936134363E+04  0.34064771781E+04  0.31512935507E+04 0.  0.
        2    1    3    3  502    0  0.24908892349E+03 -0.10351921643E+04  0.19023212304E+04  0.21800215991E+04  0.25500000920E-02 0. -1.
       -2    1    3    3    0  502 -0.24908892349E+03  0.10351921643E+04 -0.60870779407E+03  0.12264555790E+04  0.25500000920E-02 0.  1.
</event>
<event>
 5   0  0.3812379E-06  0.3313821E+04  0.7818609E-02  0.8159387E-01
       -2   -1    0    0    0  501  0.00000000000E+00  0.00000000000E+00  0.19950500939E+04  0.19950500939E+04  0.25500000920E-02 0.  1.
        2   -1    0    0  501    0  0.00000000000E+00  0.00000000000E+00 -0.13760823309E+04  0.13760823309E+04  0.25500000920E-02 0. -1.
    10030    2    1    2    0    0  0.00000000000E+00  0.00000000000E+00  0.61896776297E+03  0.33711324248E+04  0.33138214698E+04 0.  0.
        5    1    3    3  502    0  0.12362115425E+04 -0.84672161996E+03  0.10289453308E+04  0.18176652781E+04  0.46999998093E+01 0.  1.
       -5    1    3    3    0  502 -0.12362115425E+04  0.84672161996E+03 -0.40997756787E+03  0.15534671466E+04  0.46999998093E+01 0. -1.
</event>
<event>
 5   0  0.1405389E-06  0.3180617E+04  0.7818609E-02  0.8193955E-01
       -1   -1    0    0    0  501  0.00000000000E+00  0.00000000000E+00  0.96551945021E+03  0.96551945022E+03  0.50400001928E-02 0. -1.
        1   -1    0    0  501    0  0.00000000000E+00  0.00000000000E+00 -0.26193993269E+04  0.26193993269E+04  0.50400001928E-02 0.  1.
    10030    2    1    2    0    0  0.00000000000E+00  0.00000000000E+00 -0.16538798767E+04  0.35849187771E+04  0.31806169200E+04 0.  0.
        1    1    3    3  502    0 -0.79118715841E+03 -0.81458958147E+03  0.42793248639E+03  0.12135318368E+04  0.50400001928E-02 0. -1.
       -1    1    3    3    0  502  0.79118715841E+03  0.81458958147E+03 -0.20818123631E+04  0.23713869404E+04  0.50400001928E-02 0.  1.
</event>
<event>
 5   0  0.3920487E-06  0.3378875E+04  0.7818609E-02  0.8143111E-01
        2   -1    0    0  501    0  0.00000000000E+00  0.00000000000E+00  0.93907862644E+03  0.93907862645E+03  0.25500000920E-02 0. -1.
       -2   -1    0    0    0  501  0.00000000000E+00  0.00000000000E+00 -0.30393609814E+04  0.30393609814E+04  0.25500000920E-02 0.  1.
    10030    2    1    2    0    0  0.00000000000E+00  0.00000000000E+00 -0.21002823550E+04  0.39784396079E+04  0.33788749226E+04 0.  0.
        4    1    3    3  502    0 -0.65141966698E+03 -0.15586067517E+04 -0.10788557218E+04  0.20043786744E+04  0.12699999809E+01 0. -1.
       -4    1    3    3    0  502  0.65141966698E+03  0.15586067517E+04 -0.10214266332E+04  0.19740609334E+04  0.12699999809E+01 0.  1.
</event>
<event>
 5   0  0.1259875E-06  0.3188570E+04  0.7818609E-02  0.8191842E-01
        3   -1    0    0  501    0  0.00000000000E+00  0.00000000000E+00  0.13472663320E+04  0.13472663358E+04  0.10100000352E+00 0.  1.
       -3   -1    0    0    0  501  0.00000000000E+00  0.00000000000E+00 -0.18865940123E+04  0.18865940150E+04  0.10100000352E+00 0. -1.
    10030    2    1    2    0    0  0.00000000000E+00  0.00000000000E+00 -0.53932768034E+03  0.32338603508E+04  0.31885699650E+04 0.  0.
        1    1    3    3  502    0  0.62635368004E+03 -0.14633349631E+04 -0.17851822209E+03  0.16017293474E+04  0.50400001928E-02 0. -1.
       -1    1    3    3    0  502 -0.62635368004E+03  0.14633349631E+04 -0.36080945824E+03  0.16321310033E+04  0.50400001928E-02 0.  1.
</event>
<event>
 5   0  0.3896210E-06  0.3287002E+04  0.7818609E-02  0.8166211E-01
       -2   -1    0    0    0  501  0.00000000000E+00  0.00000000000E+00  0.27931010689E+04  0.27931010689E+04  0.25500000920E-02 0.  1.
        2   -1    0    0  501    0  0.00000000000E+00  0.00000000000E+00 -0.96705969276E+03  0.96705969277E+03  0.25500000920E-02 0. -1.
    10030    2    1    2    0    0  0.00000000000E+00  0.00000000000E+00  0.18260413761E+04  0.37601607616E+04  0.32870019541E+04 0.  0.
        3    1    3    3  502    0 -0.79418658895E+02  0.29275785169E+03 -0.93475917243E+03  0.98274574726E+03  0.10100000352E+00 0. -1.
       -3    1    3    3    0  502  0.79418658895E+02 -0.29275785169E+03  0.27608005485E+04  0.27774150144E+04  0.10100000352E+00 0.  1.
</event>
<event>
 5   0  0.3896210E-06  0.3319028E+04  0.7818609E-02  0.8158071E-01
       -2   -1    0    0    0  501  0.00000000000E+00  0.00000000000E+00  0.13958678354E+04  0.13958678354E+04  0.25500000920E-02 0. -1.
        2   -1    0    0  501    0  0.00000000000E+00  0.00000000000E+00 -0.19729565167E+04  0.19729565167E+04  0.25500000920E-02 0.  1.
    10030    2    1    2    0    0  0.00000000000E+00  0.00000000000E+00 -0.57708868131E+03  0.33688243521E+04  0.33190278952E+04 0.  0.
        3    1    3    3  502    0  0.90874862730E+03  0.73473326099E+03  0.90740763665E+03  0.14795423825E+04  0.10100000352E+00 0. -1.
       -3    1    3    3    0  502 -0.90874862730E+03 -0.73473326099E+03 -0.14844963180E+04  0.18892819696E+04  0.10100000352E+00 0.  1.
</event>
<event>
 5   0  0.1339825E-06  0.2444226E+04  0.7818609E-02  0.8423129E-01
        1   -1    0    0  501    0  0.00000000000E+00  0.00000000000E+00  0.14856156999E+04  0.14856156999E+04  0.50400001928E-02 0.  1.
       -1   -1    0    0    0  501  0.00000000000E+00  0.00000000000E+00 -0.10053475059E+04  0.10053475059E+04  0.50400001928E-02 0. -1.
    10030    2    1    2    0    0  0.00000000000E+00  0.00000000000E+00  0.48026819397E+03  0.24909632058E+04  0.24442258804E+04 0.  0.
        3    1    3    3  502    0 -0.11999837632E+04 -0.82031126197E+01  0.43407680303E+01  0.12000196563E+04  0.10100000352E+00 0. -1.
       -3    1    3    3    0  502  0.11999837632E+04  0.82031126197E+01  0.47592742594E+03  0.12909435495E+04  0.10100000352E+00 0.  1.
</event>
<event>
 5   0  0.3671997E-06  0.3319460E+04  0.7818609E-02  0.8157961E-01
        2   -1    0    0  501    0  0.00000000000E+00  0.00000000000E+00  0.18097147550E+04  0.18097147550E+04  0.25500000920E-02 0. -1.
       -2   -1    0    0    0  501  0.00000000000E+00  0.00000000000E+00 -0.15221755104E+04  0.15221755104E+04  0.25500000920E-02 0.  1.
    10030    2    1    2    0    0  0.00000000000E+00  0.00000000000E+00  0.28753924458E+03  0.33318902654E+04  0.33194598843E+04 0.  0.
        2    1    3    3  502    0 -0.28634245178E+03  0.15551594369E+04 -0.36229154635E+03  0.16222724921E+04  0.25500000920E-02 0.  1.
       -2    1    3    3    0  502  0.28634245178E+03 -0.15551594369E+04  0.64983079093E+03  0.17096177733E+04  0.25500000920E-02 0. -1.
</event>
<event>
 5   0  0.3920487E-06  0.3290458E+04  0.7818609E-02  0.8165328E-01
       -2   -1    0    0    0  501  0.00000000000E+00  0.00000000000E+00  0.11236887653E+04  0.11236887653E+04  0.25500000920E-02 0. -1.
        2   -1    0    0  501    0  0.00000000000E+00  0.00000000000E+00 -0.24088326099E+04  0.24088326099E+04  0.25500000920E-02 0.  1.
    10030    2    1    2    0    0  0.00000000000E+00  0.00000000000E+00 -0.12851438446E+04  0.35325213752E+04  0.32904578048E+04 0.  0.
        4    1    3    3  502    0  0.87895392529E+03 -0.10028118279E+04 -0.16770928864E+04  0.21426230950E+04  0.12699999809E+01 0.  1.
       -4    1    3    3    0  502 -0.87895392529E+03  0.10028118279E+04  0.39194904181E+03  0.13898982802E+04  0.12699999809E+01 0. -1.
</event>
<event>
 5   0  0.3920487E-06  0.3309484E+04  0.7818609E-02  0.8160486E-01
        2   -1    0    0  501    0  0.00000000000E+00  0.00000000000E+00  0.13660103582E+04  0.13660103582E+04  0.25500000920E-02 0. -1.
       -2   -1    0    0    0  501  0.00000000000E+00  0.00000000000E+00 -0.20045024576E+04  0.20045024576E+04  0.25500000920E-02 0.  1.
    10030    2    1    2    0    0  0.00000000000E+00  0.00000000000E+00 -0.63849209936E+03  0.33705128158E+04  0.33094840203E+04 0.  0.
        4    1    3    3  502    0 -0.81272620718E+03 -0.11074564651E+04  0.62036448780E+03  0.15072615634E+04  0.12699999809E+01 0. -1.
       -4    1    3    3    0  502  0.81272620718E+03  0.11074564651E+04 -0.12588565872E+04  0.18632512525E+04  0.12699999809E+01 0.  1.
</event>
<event>
 5   0  0.1282578E-06  0.2510040E+04  0.7818609E-02  0.8399417E-01
       -1   -1    0    0    0  501  0.00000000000E+00  0.00000000000E+00  0.62825078405E+03  0.62825078407E+03  0.50400001928E-02 0. -1.
        1   -1    0    0  501    0  0.00000000000E+00  0.00000000000E+00 -0.25070804187E+04  0.25070804187E+04  0.50400001928E-02 0.  1.
    10030    2    1    2    0    0  0.00000000000E+00  0.00000000000E+00 -0.18788296347E+04  0.31353312028E+04  0.25100400306E+04 0.  0.
        4    1    3    3  502    0  0.11633557406E+03  0.75055899159E+03  0.30857702557E+03  0.81981349053E+03  0.12699999809E+01 0. -1.
       -4    1    3    3    0  502 -0.11633557406E+03 -0.75055899159E+03 -0.21874066602E+04  0.23155177123E+04  0.12699999809E+01 0.  1.
</event>
<event>
 5   0  0.1339825E-06  0.3279289E+04  0.7818609E-02  0.8168185E-01
        1   -1    0    0  501    0  0.00000000000E+00  0.00000000000E+00  0.10550718340E+04  0.10550718340E+04  0.50400001928E-02 0. -1.
       -1   -1    0    0    0  501  0.00000000000E+00  0.00000000000E+00 -0.25481055471E+04  0.25481055471E+04  0.50400001928E-02 0.  1.
    10030    2    1    2    0    0  0.00000000000E+00  0.00000000000E+00 -0.14930337131E+04  0.36031773811E+04  0.32792891869E+04 0.  0.
        3    1    3    3  502    0 -0.15494433939E+04 -0.36927938072E+03 -0.11738969845E+04  0.19786804271E+04  0.10100000352E+00 0.  1.
       -3    1    3    3    0  502  0.15494433939E+04  0.36927938072E+03 -0.31913672859E+03  0.16244969540E+04  0.10100000352E+00 0. -1.
</event>
<event>
 5   0  0.1405389E-06  0.2025850E+04  0.7818609E-02  0.8594629E-01
        1   -1    0    0  501    0  0.00000000000E+00  0.00000000000E+00  0.68794577981E+03  0.68794577983E+03  0.50400001928E-02 0. -1.
       -1   -1    0    0    0  501  0.00000000000E+00  0.00000000000E+00 -0.14914213802E+04  0.14914213802E+04  0.50400001928E-02 0.  1.
    10030    2    1    2    0    0  0.00000000000E+00  0.00000000000E+00 -0.80347560037E+03  0.21793671600E+04  0.20258499890E+04 0.  0.
        1    1    3    3  502    0  0.73656552694E+03  0.60575770896E+03 -0.34479552716E+02  0.95428508163E+03  0.50400001928E-02 0. -1.
       -1    1    3    3    0  502 -0.73656552694E+03 -0.60575770896E+03 -0.76899604765E+03  0.12250820784E+04  0.50400001928E-02 0.  1.
</event>
<event>
 5   0  0.1282578E-06  0.3363054E+04  0.7818609E-02  0.8147034E-01
        1   -1    0    0  501    0  0.00000000000E+00  0.00000000000E+00  0.18647953990E+04  0.18647953990E+04  0.50400001928E-02 0.  1.
       -1   -1    0    0    0  501  0.00000000000E+00  0.00000000000E+00 -0.15162698689E+04  0.15162698689E+04  0.50400001928E-02 0. -1.
    10030    2    1    2    0    0  0.00000000000E+00  0.00000000000E+00  0.34852553006E+03  0.33810652679E+04  0.33630540140E+04 0.  0.
        4    1    3    3  502    0 -0.30346436972E+03 -0.42197175462E+03 -0.14334831011E+04  0.15248036593E+04  0.12699999809E+01 0. -1.
       -4    1    3    3    0  502  0.30346436972E+03  0.42197175462E+03  0.17820086311E+04  0.18562616086E+04  0.12699999809E+01 0.  1.
</event>
<event>
 5   0  0.1405389E-06  0.3208608E+04  0.7818609E-02  0.8186547E-01
        1   -1    0    0  501    0  0.00000000000E+00  0.00000000000E+00  0.17048860778E+04  0.17048860778E+04  0.50400001928E-02 0. -1.
       -1   -1    0    0    0  501  0.00000000000E+00  0.00000000000E+00 -0.15096560079E+04  0.15096560079E+04  0.50400001928E-02 0.  1.
    10030    2    1    2    0    0  0.00000000000E+00  0.00000000000E+00  0.19523006996E+03  0.32145420857E+04  0.32086081158E+04 0.  0.
        1    1    3    3  502    0 -0.71854289797E+03 -0.94905846598E+02  0.15315133515E+04  0.16943565627E+04  0.50400001928E-02 0. -1.
       -1    1    3    3    0  502  0.71854289797E+03  0.94905846598E+02 -0.13362832815E+04  0.15201855230E+04  0.50400001928E-02 0.  1.
</event>
<event>
 5   0  0.3671997E-06  0.3267606E+04  0.7818609E-02  0.8171187E-01
       -2   -1    0    0    0  501  0.00000000000E+00  0.00000000000E+00  0.11491317264E+04  0.11491317264E+04  0.25500000920E-02 0.  1.
        2   -1    0    0  501    0  0.00000000000E+00  0.00000000000E+00 -0.23228949201E+04  0.23228949201E+04  0.25500000920E-02 0. -1.
    10030    2    1    2    0    0  0.00000000000E+00  0.00000000000E+00 -0.11737631937E+04  0.34720266465E+04  0.32676060042E+04 0.  0.
        2    1    3    3  502    0 -0.14358105090E+04  0.16793690039E+03 -0.13957943413E+04  0.20094766641E+04  0.25500000920E-02 0. -1.
       -2    1    3    3    0  502  0.14358105090E+04 -0.16793690039E+03  0.22203114759E+03  0.14625499824E+04  0.25500000920E-02 0.  1.
</event>
<event>
 5   0  0.1282578E-06  0.2147553E+04  0.7818609E-02  0.8540580E-01
       -1   -1    0    0    0  501  0.00000000000E+00  0.00000000000E+00  0.72740338267E+03  0.72740338269E+03  0.50400001928E-02 0.  1.
        1   -1    0    0  501    0  0.00000000000E+00  0.00000000000E+00 -0.15850850061E+04  0.15850850061E+04  0.50400001928E-02 0. -1.
    10030    2    1    2    0    0  0.00000000000E+00  0.00000000000E+00 -0.85768162340E+03  0.23124883888E+04  0.21475532080E+04 0.  0.
        4    1    3    3  502    0 -0.47319971349E+03 -0.21311861125E+03  0.58338523063E+03  0.78081844979E+03  0.12699999809E+01 0.  1.
       -4    1    3    3    0  502  0.47319971349E+03  0.21311861125E+03 -0.14410668540E+04  0.15316699390E+04  0.12699999809E+01 0. -1.
</event>
<event>
 5   0  0.3671997E-06  0.2702252E+04  0.7818609E-02  0.8334275E-01
       -2   -1    0    0    0  501  0.00000000000E+00  0.00000000000E+00  0.12932063573E+04  0.12932063573E+04  0.25500000920E-02 0.  1.
        2   -1    0    0  501    0  0.00000000000E+00  0.00000000000E+00 -0.14116400690E+04  0.14116400690E+04  0.25500000920E-02 0. -1.
    10030    2    1    2    0    0  0.00000000000E+00  0.00000000000E+00 -0.11843371177E+03  0.27048464263E+04  0.27022523283E+04 0.  0.
        2    1    3    3  502    0  0.35458759337E+03  0.81318267158E+02  0.12432612850E+04  0.12953932394E+04  0.25500000920E-02 0.  1.
       -2    1    3    3    0  502 -0.35458759337E+03 -0.81318267158E+02 -0.13616949967E+04  0.14094531869E+04  0.25500000920E-02 0. -1.
</event>
<event>
 5   0  0.1405389E-06  0.3307675E+04  0.7818609E-02  0.8160945E-01
       -1   -1    0    0    0  501  0.00000000000E+00  0.00000000000E+00  0.11780380078E+04  0.11780380078E+04  0.50400001928E-02 0. -1.
        1   -1    0    0  501    0  0.00000000000E+00  0.00000000000E+00 -0.23218077252E+04  0.23218077252E+04  0.50400001928E-02 0.  1.
    10030    2    1    2    0    0  0.00000000000E+00  0.00000000000E+00 -0.11437697173E+04  0.34998457330E+04  0.33076745590E+04 0.  0.
        1    1    3    3  502    0 -0.24563261718E+03  0.16127413844E+04 -0.85953901501E+03  0.18439298994E+04  0.50400001928E-02 0. -1.
       -1    1    3    3    0  502  0.24563261718E+03 -0.16127413844E+04 -0.28423070231E+03  0.16559158336E+04  0.50400001928E-02 0.  1.
</event>
<event>
 5   0  0.1339825E-06  0.3270059E+04  0.7818609E-02  0.8170556E-01
       -1   -1    0    0    0  501  0.00000000000E+00  0.00000000000E+00  0.12372376858E+04  0.12372376858E+04  0.50400001928E-02 0. -1.
        1   -1    0    0  501    0  0.00000000000E+00  0.00000000000E+00 -0.21607182457E+04  0.21607182457E+04  0.50400001928E-02 0.  1.
    10030    2    1    2    0    0  0.00000000000E+00  0.00000000000E+00 -0.92348055993E+03  0.33979559315E+04  0.32700593523E+04 0.  0.
        3    1    3    3  502    0  0.81882082978E+03  0.14151124819E+04 -0.44341110516E+03  0.16939965484E+04  0.10100000352E+00 0. -1.
       -3    1    3    3    0  502 -0.81882082978E+03 -0.14151124819E+04 -0.48006945477E+03  0.17039593831E+04  0.10100000352E+00 0.  1.
</event>
<event>
 5   0  0.3671997E-06  0.3297820E+04  0.7818609E-02  0.8163450E-01
       -2   -1    0    0    0  501  0.00000000000E+00  0.00000000000E+00  0.14209285765E+04  0.14209285765E+04  0.25500000920E-02 0. -1.
        2   -1    0    0  501    0  0.00000000000E+00  0.00000000000E+00 -0.19134701680E+04  0.19134701680E+04  0.25500000920E-02 0.  1.
    10030    2    1    2    0    0  0.00000000000E+00  0.00000000000E+00 -0.49254159149E+03  0.33343987446E+04  0.32978201541E+04 0.  0.
        2    1    3    3  502    0 -0.73935687219E+03  0.13035960725E+04  0.44902895194E+03  0.15644929864E+04  0.25500000920E-02 0.  1.
       -2    1    3    3    0  502  0.73935687219E+03 -0.13035960725E+04 -0.94157054343E+03  0.17699057582E+04  0.25500000920E-02 0. -1.
</event>
<event>
 5   0  0.4017247E-06  0.3359576E+04  0.7818609E-02  0.8147900E-01
       -2   -1    0    0    0  501  0.00000000000E+00  0.00000000000E+00  0.14074990624E+04  0.14074990624E+04  0.25500000920E-02 0.  1.
        2   -1    0    0  501    0  0.00000000000E+00  0.00000000000E+00 -0.20047527414E+04  0.20047527414E+04  0.25500000920E-02 0. -1.
    10030    2    1    2    0    0  0.00000000000E+00  0.00000000000E+00 -0.59725367904E+03  0.34122518038E+04  0.33595759279E+04 0.  0.
        1    1    3    3  502    0 -0.38273584475E+03 -0.11305023176E+03 -0.19559032066E+04  0.19962025036E+04  0.50400001928E-02 0. -1.
       -1    1    3    3    0  502  0.38273584475E+03  0.11305023176E+03  0.13586495276E+04  0.14160493002E+04  0.50400001928E-02 0.  1.
</event>
<event>
 5   0  0.3812379E-06  0.3211060E+04  0.7818609E-02  0.8185902E-01
        2   -1    0    0  501    0  0.00000000000E+00  0.00000000000E+00  0.11378477527E+04  0.11378477527E+04  0.25500000920E-02 0. -1.
       -2   -1    0    0    0  501  0.00000000000E+00  0.00000000000E+00 -0.22654403567E+04  0.22654403567E+04  0.25500000920E-02 0.  1.
    10030    2    1    2    0    0  0.00000000000E+00  0.00000000000E+00 -0.11275926040E+04  0.34032881094E+04  0.32110597745E+04 0.  0.
        5    1    3    3  502    0  0.14067763693E+04  0.53745602804E+03 -0.11537376432E+04  0.18971060526E+04  0.46999998093E+01 0. -1.
       -5    1    3    3    0  502 -0.14067763693E+04 -0.53745602804E+03  0.26145039162E+02  0.15061820569E+04  0.46999998093E+01 0.  1.
</event>
<event>
 5   0  0.1282578E-06  0.3385494E+04  0.7818609E-02  0.8141476E-01
       -1   -1    0    0    0  501  0.00000000000E+00  0.00000000000E+00  0.12228709226E+04  0.12228709226E+04  0.50400001928E-02 0.  1.
        1   -1    0    0  501    0  0.00000000000E+00  0.00000000000E+00 -0.23431688154E+04  0.23431688154E+04  0.50400001928E-02 0. -1.
    10030    2    1    2    0    0  0.00000000000E+00  0.00000000000E+00 -0.11202978928E+04  0.35660397380E+04  0.33854943575E+04 0.  0.
        4    1    3    3  502    0  0.16513604420E+04 -0.36880208633E+03 -0.61159099767E+03  0.17991807718E+04  0.12699999809E+01 0. -1.
       -4    1    3    3    0  502 -0.16513604420E+04  0.36880208633E+03 -0.50870689513E+03  0.17668589662E+04  0.12699999809E+01 0.  1.
</event>
<event>
 5   0  0.1405389E-06  0.3300836E+04  0.7818609E-02  0.8162683E-01
        1   -1    0    0  501    0  0.00000000000E+00  0.00000000000E+00  0.21134802067E+04  0.21134802067E+04  0.50400001928E-02 0.  1.
       -1   -1    0    0    0  501  0.00000000000E+00  0.00000000000E+00 -0.12888128057E+04  0.12888128057E+04  0.50400001928E-02 0. -1.
    10030    2    1    2    0    0  0.00000000000E+00  0.00000000000E+00  0.82466740103E+03  0.34022930124E+04  0.33008364727E+04 0.  0.
        1    1    3    3  502    0  0.82835978494E+03  0.78620315953E+03  0.16404186436E+04  0.19988168169E+04  0.50400001928E-02 0.  1.
       -1    1    3    3    0  502 -0.82835978494E+03 -0.78620315953E+03 -0.81575124257E+03  0.14034761954E+04  0.50400001928E-02 0. -1.
</event>
<event>
 5   0  0.1339825E-06  0.3292620E+04  0.7818609E-02  0.8164776E-01
        1   -1    0    0  501    0  0.00000000000E+00  0.00000000000E+00  0.21006921750E+04  0.21006921750E+04  0.50400001928E-02 0.  1.
       -1   -1    0    0    0  501  0.00000000000E+00  0.00000000000E+00 -0.12902111817E+04  0.12902111817E+04  0.50400001928E-02 0. -1.
    10030    2    1    2    0    0  0.00000000000E+00  0.00000000000E+00  0.81048099328E+03  0.33909033567E+04  0.32926199499E+04 0.  0.
        3    1    3    3  502    0 -0.13415172382E+04 -0.95004954321E+03  0.49777744668E+03  0.17175695129E+04  0.10100000352E+00 0. -1.
       -3    1    3    3    0  502  0.13415172382E+04  0.95004954321E+03  0.31270354660E+03  0.16733338439E+04  0.10100000352E+00 0.  1.
</event>
<event>
 5   0  0.3896210E-06  0.3237053E+04  0.7818609E-02  0.8179099E-01
        2   -1    0    0  501    0  0.00000000000E+00  0.00000000000E+00  0.18786294634E+04  0.18786294634E+04  0.25500000920E-02 0.  1.
       -2   -1    0    0    0  501  0.00000000000E+00  0.00000000000E+00 -0.13944360890E+04  0.13944360890E+04  0.25500000920E-02 0. -1.
    10030    2    1    2    0    0  0.00000000000E+00  0.00000000000E+00  0.48419337448E+03  0.32730655524E+04  0.32370534266E+04 0.  0.
        3    1    3    3  502    0 -0.76560464353E+03  0.10860022759E+04 -0.69234762530E+03  0.14982979203E+04  0.10100000352E+00 0. -1.
       -3    1    3    3    0  502  0.76560464353E+03 -0.10860022759E+04  0.11765409998E+04  0.17747676321E+04  0.10100000352E+00 0.  1.
</event>
<event>
 5   0  0.3671997E-06  0.3363611E+04  0.7818609E-02  0.8146896E-01
       -2   -1    0    0    0  501  0.00000000000E+00  0.00000000000E+00  0.15808550910E+04  0.15808550910E+04  0.25500000920E-02 0.  1.
        2   -1    0    0  501    0  0.00000000000E+00  0.00000000000E+00 -0.17892023328E+04  0.17892023328E+04  0.25500000920E-02 0. -1.
    10030    2    1    2    0    0  0.00000000000E+00  0.00000000000E+00 -0.20834724180E+03  0.33700574237E+04  0.33636109267E+04 0.  0.
        2    1    3    3  502    0  0.44807541179E+03  0.16160959126E+04  0.22290486064E+02  0.16772103146E+04  0.25500000920E-02 0.  1.
       -2    1    3    3    0  502 -0.44807541179E+03 -0.16160959126E+04 -0.23063772787E+03  0.16928471092E+04  0.25500000920E-02 0. -1.
</event>
<event>
 5   0  0.1391878E-06  0.3254989E+04  0.7818609E-02  0.8174444E-01
       -1   -1    0    0    0  501  0.00000000000E+00  0.00000000000E+00  0.26465876886E+04  0.26465876886E+04  0.50400001928E-02 0.  1.
        1   -1    0    0  501    0  0.00000000000E+00  0.00000000000E+00 -0.10008125408E+04  0.10008125408E+04  0.50400001928E-02 0. -1.
    10030    2    1    2    0    0  0.00000000000E+00  0.00000000000E+00  0.16457751478E+04  0.36474002294E+04  0.32549888781E+04 0.  0.
        2    1    3    3  502    0 -0.13349986054E+04  0.77675762523E+03  0.24804684071E+03  0.15643212330E+04  0.25500000920E-02 0. -1.
       -2    1    3    3    0  502  0.13349986054E+04 -0.77675762523E+03  0.13977283071E+04  0.20830789964E+04  0.25500000920E-02 0.  1.
</event>
<event>
 5   0  0.1391878E-06  0.2775090E+04  0.7818609E-02  0.8311044E-01
       -1   -1    0    0    0  501  0.00000000000E+00  0.00000000000E+00  0.92655403753E+03  0.92655403754E+03  0.50400001928E-02 0. -1.
        1   -1    0    0  501    0  0.00000000000E+00  0.00000000000E+00 -0.20778941232E+04  0.20778941232E+04  0.50400001928E-02 0.  1.
    10030    2    1    2    0    0  0.00000000000E+00  0.00000000000E+00 -0.11513400856E+04  0.30044481607E+04  0.27750900450E+04 0.  0.
        2    1    3    3  502    0  0.97981615934E+03 -0.96526494382E+03 -0.37749776091E+03  0.14262821170E+04  0.25500000920E-02 0.  1.
       -2    1    3    3    0  502 -0.97981615934E+03  0.96526494382E+03 -0.77384232473E+03  0.15781660437E+04  0.25500000920E-02 0. -1.
</event>
<event>
 5   0  0.3920487E-06  0.3394240E+04  0.7818609E-02  0.8139322E-01
       -2   -1    0    0    0  501  0.00000000000E+00  0.00000000000E+00  0.16345373466E+04  0.16345373467E+04  0.25500000920E-02 0.  1.
        2   -1    0    0  501    0  0.00000000000E+00  0.00000000000E+00 -0.17620982871E+04  0.17620982871E+04  0.25500000920E-02 0. -1.
    10030    2    1    2    0    0  0.00000000000E+00  0.00000000000E+00 -0.12756094042E+03  0.33966356337E+04  0.33942395076E+04 0.  0.
        4    1    3    3  502    0 -0.10033794653E+04 -0.46370827055E+03  0.12249244785E+04  0.16499203928E+04  0.12699999809E+01 0.  1.
       -4    1    3    3    0  502  0.10033794653E+04  0.46370827055E+03 -0.13524854189E+04  0.17467152409E+04  0.12699999809E+01 0. -1.
</event>
<event>
 5   0  0.1339825E-06  0.3343057E+04  0.7818609E-02  0.8152025E-01
       -1   -1    0    0    0  501  0.00000000000E+00  0.00000000000E+00  0.16659927384E+04  0.16659927384E+04  0.50400001928E-02 0. -1.
        1   -1    0    0  501    0  0.00000000000E+00  0.00000000000E+00 -0.16770828646E+04  0.16770828646E+04  0.50400001928E-02 0.  1.
    10030    2    1    2    0    0  0.00000000000E+00  0.00000000000E+00 -0.11090126185E+02  0.33430756030E+04  0.33430572080E+04 0.  0.
        3    1    3    3  502    0  0.89857747496E+03  0.13084847273E+04 -0.52941253105E+03  0.16732756492E+04  0.10100000352E+00 0.  1.
       -3    1    3    3    0  502 -0.89857747496E+03 -0.13084847273E+04  0.51832240487E+03  0.16697999538E+04  0.10100000352E+00 0. -1.
</event>
<event>
 5   0  0.4017247E-06  0.3323052E+04  0.7818609E-02  0.8157054E-01
        2   -1    0    0  501    0  0.00000000000E+00  0.00000000000E+00  0.23897427092E+04  0.23897427092E+04  0.25500000920E-02 0. -1.
       -2   -1    0    0    0  501  0.00000000000E+00  0.00000000000E+00 -0.11552161813E+04  0.11552161813E+04  0.25500000920E-02 0.  1.
    10030    2    1    2    0    0  0.00000000000E+00  0.00000000000E+00  0.12345265279E+04  0.35449588904E+04  0.33230524803E+04 0.  0.
        1    1    3    3  502    0  0.14413815323E+04  0.24652591210E+03  0.14588108605E+04  0.20655471124E+04  0.50400001928E-02 0. -1.
       -1    1    3    3    0  502 -0.14413815323E+04 -0.24652591210E+03 -0.22428433261E+03  0.14794117780E+04  0.50400001928E-02 0.  1.
</event>
<event>
 5   0  0.1391878E-06  0.3306331E+04  0.7818609E-02  0.8161286E-01
       -1   -1    0    0    0  501  0.00000000000E+00  0.00000000000E+00  0.28094566179E+04  0.28094566179E+04  0.50400001928E-02 0.  1.
        1   -1    0    0  501    0  0.00000000000E+00  0.00000000000E+00 -0.97277010850E+03  0.97277010852E+03  0.50400001928E-02 0. -1.
    10030    2    1    2    0    0  0.00000000000E+00  0.00000000000E+00  0.18366865094E+04  0.37822267264E+04  0.33063305455E+04 0.  0.
        2    1    3    3  502    0  0.37828829642E+03 -0.48685728724E+03  0.26730152794E+04  0.27431993615E+04  0.25500000920E-02 0.  1.
       -2    1    3    3    0  502 -0.37828829642E+03  0.48685728724E+03 -0.83632877001E+03  0.10390273648E+04  0.25500000920E-02 0. -1.
</event>
<event>
 5   0  0.1282578E-06  0.3242200E+04  0.7818609E-02  0.8177760E-01
        1   -1    0    0  501    0  0.00000000000E+00  0.00000000000E+00  0.86534118863E+03  0.86534118865E+03  0.50400001928E-02 0.  1.
       -1   -1    0    0    0  501  0.00000000000E+00  0.00000000000E+00 -0.30369131254E+04  0.30369131254E+04  0.50400001928E-02 0. -1.
    10030    2    1    2    0    0  0.00000000000E+00  0.00000000000E+00 -0.21715719368E+04  0.39022543141E+04  0.32422004958E+04 0.  0.
        4    1    3    3  502    0 -0.50815750733E+03 -0.48827561267E+03 -0.28429033420E+04  0.29289483012E+04  0.12699999809E+01 0. -1.
       -4    1    3    3    0  502  0.50815750733E+03  0.48827561267E+03  0.67133140522E+03  0.97330601288E+03  0.12699999809E+01 0.  1.
</event>
<event>
 5   0  0.3920487E-06  0.3330800E+04  0.7818609E-02  0.8155102E-01
        2   -1    0    0  501    0  0.00000000000E+00  0.00000000000E+00  0.16783927157E+04  0.16783927157E+04  0.25500000920E-02 0.  1.
       -2   -1    0    0    0  501  0.00000000000E+00  0.00000000000E+00 -0.16525074128E+04  0.16525074128E+04  0.25500000920E-02 0. -1.
    10030    2    1    2    0    0  0.00000000000E+00  0.00000000000E+00  0.25885302849E+02  0.33309001285E+04  0.33307995462E+04 0.  0.
        4    1    3    3  502    0 -0.11012383047E+04  0.11200984393E+04 -0.54043512881E+03  0.16611496196E+04  0.12699999809E+01 0. -1.
       -4    1    3    3    0  502  0.11012383047E+04 -0.11200984393E+04  0.56632043166E+03  0.16697505088E+04  0.12699999809E+01 0.  1.
</event>
<event>
 5   0  0.3671997E-06  0.3011693E+04  0.7818609E-02  0.8240400E-01
        2   -1    0    0  501    0  0.00000000000E+00  0.00000000000E+00  0.24299626046E+04  0.24299626046E+04  0.25500000920E-02 0.  1.
       -2   -1    0    0    0  501  0.00000000000E+00  0.00000000000E+00 -0.93317203937E+03  0.93317203938E+03  0.25500000920E-02 0. -1.
    10030    2    1    2    0    0  0.00000000000E+00  0.00000000000E+00  0.14967905652E+04  0.33631346440E+04  0.30116926532E+04 0.  0.
        2    1    3    3  502    0 -0.42723173801E+03  0.91656700922E+03 -0.49758094161E+03  0.11270354182E+04  0.25500000920E-02 0. -1.
       -2    1    3    3    0  502  0.42723173801E+03 -0.91656700922E+03  0.19943715068E+04  0.22360992258E+04  0.25500000920E-02 0.  1.
</event>
<event>
 5   0  0.1352708E-06  0.3160779E+04  0.7818609E-02  0.8199253E-01
       -1   -1    0    0    0  501  0.00000000000E+00  0.00000000000E+00  0.12014848688E+04  0.12014848688E+04  0.50400001928E-02 0. -1.
        1   -1    0    0  501    0  0.00000000000E+00  0.00000000000E+00 -0.20787870353E+04  0.20787870353E+04  0.50400001928E-02 0.  1.
    10030    2    1    2    0    0  0.00000000000E+00  0.00000000000E+00 -0.87730216644E+03  0.32802719041E+04  0.31607791244E+04 0.  0.
        5    1    3    3  502    0  0.22444826666E+03 -0.63546593577E+03 -0.19221730959E+04  0.20369009501E+04  0.46999998093E+01 0.  1.
       -5    1    3    3    0  502 -0.22444826666E+03  0.63546593577E+03  0.10448709295E+04  0.12433709540E+04  0.46999998093E+01 0. -1.
</event>
<event>
 5   0  0.3812379E-06  0.2801798E+04  0.7818609E-02  0.8302710E-01
        2   -1    0    0  501    0  0.00000000000E+00  0.00000000000E+00  0.12915992547E+04  0.12915992547E+04  0.25500000920E-02 0.  1.
       -2   -1    0    0    0  501  0.00000000000E+00  0.00000000000E+00 -0.15194484450E+04  0.15194484450E+04  0.25500000920E-02 0. -1.
    10030    2    1    2    0    0  0.00000000000E+00  0.00000000000E+00 -0.22784919032E+03  0.28110476997E+04  0.28017983362E+04 0.  0.
        5    1    3    3  502    0  0.27796333403E+03 -0.12690176172E+04 -0.63989473483E+03  0.14481563070E+04  0.46999998093E+01 0. -1.
       -5    1    3    3    0  502 -0.27796333403E+03  0.12690176172E+04  0.41204554450E+03  0.13628913928E+04  0.46999998093E+01 0.  1.
</event>
<event>
 5   0  0.3671997E-06  0.3230464E+04  0.7818609E-02  0.8180818E-01
       -2   -1    0    0    0  501  0.00000000000E+00  0.00000000000E+00  0.16680817018E+04  0.16680817018E+04  0.25500000920E-02 0.  1.
        2   -1    0    0  501    0  0.00000000000E+00  0.00000000000E+00 -0.15640568182E+04  0.15640568182E+04  0.25500000920E-02 0. -1.
    10030    2    1    2    0    0  0.00000000000E+00  0.00000000000E+00  0.10402488364E+03  0.32321385200E+04  0.32304640899E+04 0.  0.
        2    1    3    3  502    0 -0.20668202296E+03  0.15156617019E+04 -0.46693424574E+03  0.15993672008E+04  0.25500000920E-02 0.  1.
       -2    1    3    3    0  502  0.20668202296E+03 -0.15156617019E+04  0.57095912938E+03  0.16327713192E+04  0.25500000920E-02 0. -1.
</event>
<event>
 5   0  0.3812379E-06  0.3347166E+04  0.7818609E-02  0.8150997E-01
       -2   -1    0    0    0  501  0.00000000000E+00  0.00000000000E+00  0.14637510494E+04  0.14637510494E+04  0.25500000920E-02 0.  1.
        2   -1    0    0  501    0  0.00000000000E+00  0.00000000000E+00 -0.19134944590E+04  0.19134944590E+04  0.25500000920E-02 0. -1.
    10030    2    1    2    0    0  0.00000000000E+00  0.00000000000E+00 -0.44974340954E+03  0.33772455084E+04  0.33471656801E+04 0.  0.
        5    1    3    3  502    0  0.86467220602E+03  0.11949835644E+04 -0.10226820476E+04  0.17948661241E+04  0.46999998093E+01 0. -1.
       -5    1    3    3    0  502 -0.86467220602E+03 -0.11949835644E+04  0.57293863805E+03  0.15823793843E+04  0.46999998093E+01 0.  1.
</event>
<event>
 5   0  0.1339825E-06  0.3226713E+04  0.7818609E-02  0.8181798E-01
       -1   -1    0    0    0  501  0.00000000000E+00  0.00000000000E+00  0.18277012821E+04  0.18277012821E+04  0.50400001928E-02 0. -1.
        1   -1    0    0  501    0  0.00000000000E+00  0.00000000000E+00 -0.14241494591E+04  0.14241494592E+04  0.50400001928E-02 0.  1.
    10030    2    1    2    0    0  0.00000000000E+00  0.00000000000E+00  0.40355182293E+03  0.32518507412E+04  0.32267133696E+04 0.  0.
        3    1    3    3  502    0 -0.51436303633E+03  0.12682739555E+04  0.10627330938E+04  0.17327694013E+04  0.10100000352E+00 0. -1.
       -3    1    3    3    0  502  0.51436303633E+03 -0.12682739555E+04 -0.65918127085E+03  0.15190813399E+04  0.10100000352E+00 0.  1.
</event>
<event>
 5   0  0.4017247E-06  0.3111855E+04  0.7818609E-02  0.8212492E-01
        2   -1    0    0  501    0  0.00000000000E+00  0.00000000000E+00  0.18271165959E+04  0.18271165959E+04  0.25500000920E-02 0. -1.
       -2   -1    0    0    0  501  0.00000000000E+00  0.00000000000E+00 -0.13249895757E+04  0.13249895757E+04  0.25500000920E-02 0.  1.
    10030    2    1    2    0    0  0.00000000000E+00  0.00000000000E+00  0.50212702025E+03  0.31521061716E+04  0.31118550372E+04 0.  0.
        1    1    3    3  502    0 -0.16939485134E+03 -0.71472254053E+03  0.16404421213E+04  0.17973795590E+04  0.50400001928E-02 0. -1.
       -1    1    3    3    0  502  0.16939485134E+03  0.71472254053E+03 -0.11383151011E+04  0.13547266126E+04  0.50400001928E-02 0.  1.
</event>
<event>
 5   0  0.1339825E-06  0.3279401E+04  0.7818609E-02  0.8168157E-01
       -1   -1    0    0    0  501  0.00000000000E+00  0.00000000000E+00  0.35363356706E+04  0.35363356706E+04  0.50400001928E-02 0. -1.
        1   -1    0    0  501    0  0.00000000000E+00  0.00000000000E+00 -0.76028341455E+03  0.76028341456E+03  0.50400001928E-02 0.  1.
    10030    2    1    2    0    0  0.00000000000E+00  0.00000000000E+00  0.27760522561E+04  0.42966190852E+04  0.32794007737E+04 0.  0.
        3    1    3    3  502    0 -0.11212804006E+04 -0.11030812624E+04  0.78114159261E+03  0.17562005028E+04  0.10100000352E+00 0.  1.
       -3    1    3    3    0  502  0.11212804006E+04  0.11030812624E+04  0.19949106635E+04  0.25404185824E+04  0.10100000352E+00 0. -1.
</event>
<event>
 5   0  0.3671997E-06  0.3310679E+04  0.7818609E-02  0.8160183E-01
        2   -1    0    0  501    0  0.00000000000E+00  0.00000000000E+00  0.26275606198E+04  0.26275606198E+04  0.25500000920E-02 0.  1.
       -2   -1    0    0    0  501  0.00000000000E+00  0.00000000000E+00 -0.10428492426E+04  0.10428492426E+04  0.25500000920E-02 0. -1.
    10030    2    1    2    0    0  0.00000000000E+00  0.00000000000E+00  0.15847113772E+04  0.36704098625E+04  0.33106794483E+04 0.  0.
        2    1    3    3  502    0  0.16298553441E+04  0.13830033898E+03  0.10741252728E+04  0.19568598642E+04  0.25500000920E-02 0.  1.
       -2    1    3    3    0  502 -0.16298553441E+04 -0.13830033898E+03  0.51058610437E+03  0.17135499982E+04  0.25500000920E-02 0. -1.
</event>
<event>
 5   0  0.3896210E-06  0.2346671E+04  0.7818609E-02  0.8459744E-01
       -2   -1    0    0    0  501  0.00000000000E+00  0.00000000000E+00  0.46930265666E+03  0.46930265667E+03  0.25500000920E-02 0. -1.
        2   -1    0    0  501    0  0.00000000000E+00  0.00000000000E+00 -0.29335349364E+04  0.29335349364E+04  0.25500000920E-02 0.  1.
    10030    2    1    2    0    0  0.00000000000E+00  0.00000000000E+00 -0.24642322797E+04  0.34028375930E+04  0.23466706109E+04 0.  0.
        3    1    3    3  502    0 -0.47348701399E+03 -0.20929006952E+03  0.29474908145E+03  0.59570908742E+03  0.10100000352E+00 0. -1.
       -3    1    3    3    0  502  0.47348701399E+03  0.20929006952E+03 -0.27589813612E+04  0.28071285056E+04  0.10100000352E+00 0.  1.
</event>
<event>
 5   0  0.4017247E-06  0.3320402E+04  0.7818609E-02  0.8157723E-01
        2   -1    0    0  501    0  0.00000000000E+00  0.00000000000E+00  0.20818357395E+04  0.20818357395E+04  0.25500000920E-02 0. -1.
       -2   -1    0    0    0  501  0.00000000000E+00  0.00000000000E+00 -0.13239600051E+04  0.13239600051E+04  0.25500000920E-02 0.  1.
    10030    2    1    2    0    0  0.00000000000E+00  0.00000000000E+00  0.75787573444E+03  0.34057957446E+04  0.33204019373E+04 0.  0.
        1    1    3    3  502    0  0.39426889180E+03  0.53028980831E+03 -0.11832584688E+04  0.13552696573E+04  0.50400001928E-02 0.  1.
       -1    1    3    3    0  502 -0.39426889180E+03 -0.53028980831E+03  0.19411342033E+04  0.20505260874E+04  0.50400001928E-02 0. -1.
</event>
<event>
 5   0  0.3812379E-06  0.3316435E+04  0.7818609E-02  0.8158726E-01
        2   -1    0    0  501    0  0.00000000000E+00  0.00000000000E+00  0.25556394505E+04  0.25556394505E+04  0.25500000920E-02 0. -1.
       -2   -1    0    0    0  501  0.00000000000E+00  0.00000000000E+00 -0.10759287011E+04  0.10759287011E+04  0.25500000920E-02 0.  1.
    10030    2    1    2    0    0  0.00000000000E+00  0.00000000000E+00  0.14797107494E+04  0.36315681516E+04  0.33164353360E+04 0.  0.
        5    1    3    3  502    0 -0.30103724438E+03  0.65575700039E+03  0.23747130382E+04  0.24819195736E+04  0.46999998093E+01 0. -1.
       -5    1    3    3    0  502  0.30103724438E+03 -0.65575700039E+03 -0.89500228880E+03  0.11496485781E+04  0.46999998093E+01 0.  1.
</event>
<event>
 5   0  0.1282578E-06  0.2237112E+04  0.7818609E-02  0.8503138E-01
        1   -1    0    0  501    0  0.00000000000E+00  0.00000000000E+00  0.11712955425E+04  0.11712955425E+04  0.50400001928E-02 0.  1.
       -1   -1    0    0    0  501  0.00000000000E+00  0.00000000000E+00 -0.10681915681E+04  0.10681915681E+04  0.50400001928E-02 0. -1.
    10030    2    1    2    0    0  0.00000000000E+00  0.00000000000E+00  0.10310397439E+03  0.22394871106E+04  0.22371124444E+04 0.  0.
        4    1    3    3  502    0 -0.92858067567E+03 -0.55172108109E+03  0.34256348305E+03  0.11331414631E+04  0.12699999809E+01 0.  1.
       -4    1    3    3    0  502  0.92858067567E+03  0.55172108109E+03 -0.23945950865E+03  0.11063456475E+04  0.12699999809E+01 0. -1.
</event>
<event>
 5   0  0.1352708E-06  0.3294846E+04  0.7818609E-02  0.8164208E-01
       -1   -1    0    0    0  501  0.00000000000E+00  0.00000000000E+00  0.12122699366E+04  0.12122699366E+04  0.50400001928E-02 0. -1.
        1   -1    0    0  501    0  0.00000000000E+00  0.00000000000E+00 -0.22387779593E+04  0.22387779593E+04  0.50400001928E-02 0.  1.
    10030    2    1    2    0    0  0.00000000000E+00  0.00000000000E+00 -0.10265080226E+04  0.34510478959E+04  0.32948464091E+04 0.  0.
        5    1    3    3  502    0 -0.81036491776E+03 -0.14274379724E+04 -0.36620354865E+03  0.16817840509E+04  0.46999998093E+01 0.  1.
       -5    1    3    3    0  502  0.81036491776E+03  0.14274379724E+04 -0.66030447399E+03  0.17692638450E+04  0.46999998093E+01 0. -1.
</event>
<event>
 5   0  0.3920487E-06  0.3352192E+04  0.7818609E-02  0.8149741E-01
       -2   -1    0    0    0  501  0.00000000000E+00  0.00000000000E+00  0.17918738623E+04  0.17918738623E+04  0.25500000920E-02 0. -1.
        2   -1    0    0  501    0  0.00000000000E+00  0.00000000000E+00 -0.15677992248E+04  0.15677992248E+04  0.25500000920E-02 0.  1.
    10030    2    1    2    0    0  0.00000000000E+00  0.00000000000E+00  0.22407463751E+03  0.33596730872E+04  0.33521923885E+04 0.  0.
        4    1    3    3  502    0 -0.84911095399E+03  0.13190194270E+04 -0.47961486490E+03  0.16403760827E+04  0.12699999809E+01 0.  1.
       -4    1    3    3    0  502  0.84911095399E+03 -0.13190194270E+04  0.70368950241E+03  0.17192970045E+04  0.12699999809E+01 0. -1.
</event>
<event>
 5   0  0.1282578E-06  0.3309731E+04  0.7818609E-02  0.8160424E-01
       -1   -1    0    0    0  501  0.00000000000E+00  0.00000000000E+00  0.14544782652E+04  0.14544782652E+04  0.50400001928E-02 0.  1.
        1   -1    0    0  501    0  0.00000000000E+00  0.00000000000E+00 -0.18828601176E+04  0.18828601176E+04  0.50400001928E-02 0. -1.
    10030    2    1    2    0    0  0.00000000000E+00  0.00000000000E+00 -0.42838185245E+03  0.33373383828E+04  0.33097305736E+04 0.  0.
        4    1    3    3  502    0 -0.97171792249E+03  0.10171462998E+04 -0.10931009932E+04  0.17814863767E+04  0.12699999809E+01 0. -1.
       -4    1    3    3    0  502  0.97171792249E+03 -0.10171462998E+04  0.66471914077E+03  0.15558520062E+04  0.12699999809E+01 0.  1.
</event>
<event>
 5   0  0.1405389E-06  0.3312116E+04  0.7818609E-02  0.8159819E-01
        1   -1    0    0  501    0  0.00000000000E+00  0.00000000000E+00  0.11337516965E+04  0.11337516965E+04  0.50400001928E-02 0. -1.
       -1   -1    0    0    0  501  0.00000000000E+00  0.00000000000E+00 -0.24189852226E+04  0.24189852226E+04  0.50400001928E-02 0.  1.
    10030    2    1    2    0    0  0.00000000000E+00  0.00000000000E+00 -0.12852335261E+04  0.35527369192E+04  0.33121163023E+04 0.  0.
        1    1    3    3  502    0  0.67753363600E+03 -0.14806655318E+04 -0.96638318592E+03  0.18934937832E+04  0.50400001928E-02 0.  1.
       -1    1    3    3    0  502 -0.67753363600E+03  0.14806655318E+04 -0.31885034023E+03  0.16592431360E+04  0.50400001928E-02 0. -1.
</event>
<event>
 5   0  0.4017247E-06  0.2214462E+04  0.7818609E-02  0.8512433E-01
        2   -1    0    0  501    0  0.00000000000E+00  0.00000000000E+00  0.19737407072E+04  0.19737407072E+04  0.25500000920E-02 0. -1.
       -2   -1    0    0    0  501  0.00000000000E+00  0.00000000000E+00 -0.62113547975E+03  0.62113547975E+03  0.25500000920E-02 0.  1.
    10030    2    1    2    0    0  0.00000000000E+00  0.00000000000E+00  0.13526052274E+04  0.25948761869E+04  0.22144619040E+04 0.  0.
        1    1    3    3  502    0 -0.54438340216E+03 -0.64557318438E+03  0.15154541047E+04  0.17348542211E+04  0.50400001928E-02 0. -1.
       -1    1    3    3    0  502  0.54438340216E+03  0.64557318438E+03 -0.16284887724E+03  0.86002196587E+03  0.50400001928E-02 0.  1.
</event>
<event>
 5   0  0.1352708E-06  0.3221991E+04  0.7818609E-02  0.8183033E-01
       -1   -1    0    0    0  501  0.00000000000E+00  0.00000000000E+00  0.19097657900E+04  0.19097657900E+04  0.50400001928E-02 0.  1.
        1   -1    0    0  501    0  0.00000000000E+00  0.00000000000E+00 -0.13589656923E+04  0.13589656923E+04  0.50400001928E-02 0. -1.
    10030    2    1    2    0    0  0.00000000000E+00  0.00000000000E+00  0.55080009773E+03  0.32687314823E+04  0.32219908062E+04 0.  0.
        5    1    3    3  502    0  0.13585687648E+04 -0.38245363061E+03  0.10633944549E+04  0.17671473410E+04  0.46999998093E+01 0.  1.
       -5    1    3    3    0  502 -0.13585687648E+04  0.38245363061E+03 -0.51259435717E+03  0.15015841412E+04  0.46999998093E+01 0. -1.
</event>
<event>
 5   0  0.3920487E-06  0.3294192E+04  0.7818609E-02  0.8164375E-01
        2   -1    0    0  501    0  0.00000000000E+00  0.00000000000E+00  0.11634690573E+04  0.11634690573E+04  0.25500000920E-02 0. -1.
       -2   -1    0    0    0  501  0.00000000000E+00  0.00000000000E+00 -0.23317550450E+04  0.23317550450E+04  0.25500000920E-02 0.  1.
    10030    2    1    2    0    0  0.00000000000E+00  0.00000000000E+00 -0.11682859877E+04  0.34952241023E+04  0.32941917637E+04 0.  0.
        4    1    3    3  502    0 -0.68966796382E+03  0.14548118831E+04 -0.95292209015E+03  0.18708772376E+04  0.12699999809E+01 0. -1.
       -4    1    3    3    0  502  0.68966796382E+03 -0.14548118831E+04 -0.21536389760E+03  0.16243468647E+04  0.12699999809E+01 0.  1.
</event>
<event>
 5   0  0.4017247E-06  0.3276815E+04  0.7818609E-02  0.8168820E-01
       -2   -1    0    0    0  501  0.00000000000E+00  0.00000000000E+00  0.24709304383E+04  0.24709304383E+04  0.25500000920E-02 0.  1.
        2   -1    0    0  501    0  0.00000000000E+00  0.00000000000E+00 -0.10863837050E+04  0.10863837050E+04  0.25500000920E-02 0. -1.
    10030    2    1    2    0    0  0.00000000000E+00  0.00000000000E+00  0.13845467333E+04  0.35573141434E+04  0.32768146511E+04 0.  0.
        1    1    3    3  502    0  0.14740054839E+04 -0.40555497610E+03  0.13319602267E+04  0.20276304029E+04  0.50400001928E-02 0. -1.
       -1    1    3    3    0  502 -0.14740054839E+04  0.40555497610E+03  0.52586506632E+02  0.15296837405E+04  0.50400001928E-02 0.  1.
</event>
<event>
 5   0  0.3896210E-06  0.2504521E+04  0.7818609E-02  0.8401377E-01
        2   -1    0    0  501    0  0.00000000000E+00  0.00000000000E+00  0.92065757033E+03  0.92065757033E+03  0.25500000920E-02 0. -1.
       -2   -1    0    0    0  501  0.00000000000E+00  0.00000000000E+00 -0.17033004221E+04  0.17033004221E+04  0.25500000920E-02 0.  1.
    10030    2    1    2    0    0  0.00000000000E+00  0.00000000000E+00 -0.78264285174E+03  0.26239579924E+04  0.25045210545E+04 0.  0.
        3    1    3    3  502    0  0.45144492939E+03  0.62106190862E+03  0.64511527854E+03  0.10028430343E+04  0.10100000352E+00 0. -1.
       -3    1    3    3    0  502 -0.45144492939E+03 -0.62106190862E+03 -0.14277581303E+04  0.16211149581E+04  0.10100000352E+00 0.  1.
</event>
<event>
 5   0  0.3671997E-06  0.3236424E+04  0.7818609E-02  0.8179263E-01
        2   -1    0    0  501    0  0.00000000000E+00  0.00000000000E+00  0.17872139557E+04  0.17872139557E+04  0.25500000920E-02 0. -1.
       -2   -1    0    0    0  501  0.00000000000E+00  0.00000000000E+00 -0.14651910363E+04  0.14651910363E+04  0.25500000920E-02 0.  1.
    10030    2    1    2    0    0  0.00000000000E+00  0.00000000000E+00  0.32202291940E+03  0.32524049921E+04  0.32364238708E+04 0.  0.
        2    1    3    3  502    0 -0.11065590771E+03  0.11830622253E+04 -0.94292501217E+03  0.15169009649E+04  0.25500000920E-02 0.  1.
       -2    1    3    3    0  502  0.11065590771E+03 -0.11830622253E+04  0.12649479316E+04  0.17355040272E+04  0.25500000920E-02 0. -1.
</event>
<event>
 5   0  0.4017247E-06  0.3269814E+04  0.7818609E-02  0.8170619E-01
        2   -1    0    0  501    0  0.00000000000E+00  0.00000000000E+00  0.10684219162E+04  0.10684219162E+04  0.25500000920E-02 0. -1.
       -2   -1    0    0    0  501  0.00000000000E+00  0.00000000000E+00 -0.25017473068E+04  0.25017473068E+04  0.25500000920E-02 0.  1.
    10030    2    1    2    0    0  0.00000000000E+00  0.00000000000E+00 -0.14333253906E+04  0.35701692229E+04  0.32698144603E+04 0.  0.
        1    1    3    3  502    0  0.27101595647E+03  0.16019448016E+04 -0.51758256623E+03  0.17051593794E+04  0.50400001928E-02 0.  1.
       -1    1    3    3    0  502 -0.27101595647E+03 -0.16019448016E+04 -0.91574282440E+03  0.18650098436E+04  0.50400001928E-02 0. -1.
</event>
<event>
 5   0  0.3812379E-06  0.3250689E+04  0.7818609E-02  0.8175557E-01
        2   -1    0    0  501    0  0.00000000000E+00  0.00000000000E+00  0.17967487637E+04  0.17967487637E+04  0.25500000920E-02 0.  1.
       -2   -1    0    0    0  501  0.00000000000E+00  0.00000000000E+00 -0.14702916245E+04  0.14702916245E+04  0.25500000920E-02 0. -1.
    10030    2    1    2    0    0  0.00000000000E+00  0.00000000000E+00  0.32645713926E+03  0.32670403882E+04  0.32506889476E+04 0.  0.
        5    1    3    3  502    0 -0.12384490099E+04  0.10449714841E+03  0.12158972428E+04  0.17387075082E+04  0.46999998093E+01 0.  1.
       -5    1    3    3    0  502  0.12384490099E+04 -0.10449714841E+03 -0.88944010352E+03  0.15283328800E+04  0.46999998093E+01 0. -1.
</event>
<event>
 5   0  0.3671997E-06  0.2836016E+04  0.7818609E-02  0.8292173E-01
        2   -1    0    0  501    0  0.00000000000E+00  0.00000000000E+00  0.14765501953E+04  0.14765501953E+04  0.25500000920E-02 0.  1.
       -2   -1    0    0    0  501  0.00000000000E+00  0.00000000000E+00 -0.13617865493E+04  0.13617865493E+04  0.25500000920E-02 0. -1.
    10030    2    1    2    0    0  0.00000000000E+00  0.00000000000E+00  0.11476364606E+03  0.28383367446E+04  0.28360156525E+04 0.  0.
        2    1    3    3  502    0  0.90863765271E+03 -0.88467352734E+03 -0.57754780471E+03  0.13934959995E+04  0.25500000920E-02 0. -1.
       -2    1    3    3    0  502 -0.90863765271E+03  0.88467352734E+03  0.69231145078E+03  0.14448407451E+04  0.25500000920E-02 0.  1.
</event>
<event>
 5   0  0.1339825E-06  0.3241889E+04  0.7818609E-02  0.8177841E-01
        1   -1    0    0  501    0  0.00000000000E+00  0.00000000000E+00  0.18154386986E+04  0.18154386986E+04  0.50400001928E-02 0.  1.
       -1   -1    0    0    0  501  0.00000000000E+00  0.00000000000E+00 -0.14472867983E+04  0.14472867983E+04  0.50400001928E-02 0. -1.
    10030    2    1    2    0    0  0.00000000000E+00  0.00000000000E+00  0.36815190027E+03  0.32627254970E+04  0.32418886234E+04 0.  0.
        3    1    3    3  502    0  0.14722545925E+04 -0.54419300929E+03  0.59137555323E+03  0.16773206824E+04  0.10100000352E+00 0.  1.
       -3    1    3    3    0  502 -0.14722545925E+04  0.54419300929E+03 -0.22322365296E+03  0.15854048145E+04  0.10100000352E+00 0. -1.
</event>
<event>
 5   0  0.1405389E-06  0.2847167E+04  0.7818609E-02  0.8288773E-01
       -1   -1    0    0    0  501  0.00000000000E+00  0.00000000000E+00  0.14819148720E+04  0.14819148720E+04  0.50400001928E-02 0. -1.
        1   -1    0    0  501    0  0.00000000000E+00  0.00000000000E+00 -0.13675479654E+04  0.13675479654E+04  0.50400001928E-02 0.  1.
    10030    2    1    2    0    0  0.00000000000E+00  0.00000000000E+00  0.11436690666E+03  0.28494628374E+04  0.28471667799E+04 0.  0.
        1    1    3    3  502    0 -0.94839633627E+03  0.97763718729E+03 -0.35710639681E+03  0.14081033553E+04  0.50400001928E-02 0.  1.
       -1    1    3    3    0  502  0.94839633627E+03 -0.97763718729E+03  0.47147330347E+03  0.14413594821E+04  0.50400001928E-02 0. -1.
</event>
<event>
 5   0  0.3671997E-06  0.3049512E+04  0.7818609E-02  0.8229732E-01
       -2   -1    0    0    0  501  0.00000000000E+00  0.00000000000E+00  0.15063950380E+04  0.15063950380E+04  0.25500000920E-02 0.  1.
        2   -1    0    0  501    0  0.00000000000E+00  0.00000000000E+00 -0.15433403901E+04  0.15433403901E+04  0.25500000920E-02 0. -1.
    10030    2    1    2    0    0  0.00000000000E+00  0.00000000000E+00 -0.36945352049E+02  0.30497354281E+04  0.30495116367E+04 0.  0.
        2    1    3    3  502    0  0.20781206501E+03  0.10997424236E+04  0.10171037029E+04  0.15123224508E+04  0.25500000920E-02 0.  1.
       -2    1    3    3    0  502 -0.20781206501E+03 -0.10997424236E+04 -0.10540490550E+04  0.15374129773E+04  0.25500000920E-02 0. -1.
</event>
<event>
 5   0  0.3812379E-06  0.3232321E+04  0.7818609E-02  0.8180333E-01
       -2   -1    0    0    0  501  0.00000000000E+00  0.00000000000E+00  0.14334410082E+04  0.14334410082E+04  0.25500000920E-02 0. -1.
        2   -1    0    0  501    0  0.00000000000E+00  0.00000000000E+00 -0.18221713976E+04  0.18221713976E+04  0.25500000920E-02 0.  1.
    10030    2    1    2    0    0  0.00000000000E+00  0.00000000000E+00 -0.38873038938E+03  0.32556124058E+04  0.32323212744E+04 0.  0.
        5    1    3    3  502    0 -0.94309875983E+03  0.99544272922E+02  0.11237314589E+04  0.14704213052E+04  0.46999998093E+01 0. -1.
       -5    1    3    3    0  502  0.94309875983E+03 -0.99544272922E+02 -0.15124618483E+04  0.17851911006E+04  0.46999998093E+01 0.  1.
</event>
<event>
 5   0  0.3812379E-06  0.3225832E+04  0.7818609E-02  0.8182028E-01
        2   -1    0    0  501    0  0.00000000000E+00  0.00000000000E+00  0.19442728166E+04  0.19442728166E+04  0.25500000920E-02 0. -1.
       -2   -1    0    0    0  501  0.00000000000E+00  0.00000000000E+00 -0.13380311107E+04  0.13380311107E+04  0.25500000920E-02 0.  1.
    10030    2    1    2    0    0  0.00000000000E+00  0.00000000000E+00  0.60624170593E+03  0.32823039273E+04  0.32258316858E+04 0.  0.
        5    1    3    3  502    0  0.90924987119E+03 -0.83153616973E+03 -0.75591093042E+03  0.14455487382E+04  0.46999998093E+01 0.  1.
       -5    1    3    3    0  502 -0.90924987119E+03  0.83153616973E+03  0.13621526363E+04  0.18367551891E+04  0.46999998093E+01 0. -1.
</event>
<event>
 5   0  0.1282578E-06  0.3273881E+04  0.7818609E-02  0.8169573E-01
       -1   -1    0    0    0  501  0.00000000000E+00  0.00000000000E+00  0.23997715986E+04  0.23997715986E+04  0.50400001928E-02 0. -1.
        1   -1    0    0  501    0  0.00000000000E+00  0.00000000000E+00 -0.11165955622E+04  0.11165955622E+04  0.50400001928E-02 0.  1.
    10030    2    1    2    0    0  0.00000000000E+00  0.00000000000E+00  0.12831760364E+04  0.35163671607E+04  0.32738810713E+04 0.  0.
        4    1    3    3  502    0  0.12238927548E+04 -0.10278063129E+04  0.10217430735E+04  0.18969079612E+04  0.12699999809E+01 0.  1.
       -4    1    3    3    0  502 -0.12238927548E+04  0.10278063129E+04  0.26143296294E+03  0.16194591996E+04  0.12699999809E+01 0. -1.
</event>
<event>
 5   0  0.1352708E-06  0.3303033E+04  0.7818609E-02  0.8162124E-01
        1   -1    0    0  501    0  0.00000000000E+00  0.00000000000E+00  0.11562853737E+04  0.11562853737E+04  0.50400001928E-02 0.  1.
       -1   -1    0    0    0  501  0.00000000000E+00  0.00000000000E+00 -0.23588525637E+04  0.23588525637E+04  0.50400001928E-02 0. -1.
    10030    2    1    2    0    0  0.00000000000E+00  0.00000000000E+00 -0.12025671900E+04  0.35151379375E+04  0.33030329809E+04 0.  0.
        5    1    3    3  502    0  0.11514563774E+04 -0.56120300618E+03 -0.17106655642E+04  0.21371006916E+04  0.46999998093E+01 0. -1.
       -5    1    3    3    0  502 -0.11514563774E+04  0.56120300618E+03  0.50809837423E+03  0.13780372459E+04  0.46999998093E+01 0.  1.
</event>
<event>
 5   0  0.4017247E-06  0.3307398E+04  0.7818609E-02  0.8161016E-01
        2   -1    0    0  501    0  0.00000000000E+00  0.00000000000E+00  0.16921076782E+04  0.16921076782E+04  0.25500000920E-02 0.  1.
       -2   -1    0    0    0  501  0.00000000000E+00  0.00000000000E+00 -0.16161619882E+04  0.16161619882E+04  0.25500000920E-02 0. -1.
    10030    2    1    2    0    0  0.00000000000E+00  0.00000000000E+00  0.75945689958E+02  0.33082696664E+04  0.33073978349E+04 0.  0.
        1    1    3    3  502    0  0.97358714562E+03  0.10938277885E+04 -0.73059741412E+03  0.16364912901E+04  0.50400001928E-02 0. -1.
       -1    1    3    3    0  502 -0.97358714562E+03 -0.10938277885E+04  0.80654310408E+03  0.16717783764E+04  0.50400001928E-02 0.  1.
</event>
<event>
 5   0  0.3920487E-06  0.3264345E+04  0.7818609E-02  0.8172028E-01
        2   -1    0    0  501    0  0.00000000000E+00  0.00000000000E+00  0.16811781969E+04  0.16811781969E+04  0.25500000920E-02 0.  1.
       -2   -1    0    0    0  501  0.00000000000E+00  0.00000000000E+00 -0.15845953074E+04  0.15845953074E+04  0.25500000920E-02 0. -1.
    10030    2    1    2    0    0  0.00000000000E+00  0.00000000000E+00  0.96582889563E+02  0.32657735043E+04  0.32643450073E+04 0.  0.
        4    1    3    3  502    0  0.41616946827E+03 -0.88964075729E+03 -0.12558616762E+04  0.15943173668E+04  0.12699999809E+01 0. -1.
       -4    1    3    3    0  502 -0.41616946827E+03  0.88964075729E+03  0.13524445658E+04  0.16714561375E+04  0.12699999809E+01 0.  1.
</event>
<event>
 5   0  0.3671997E-06  0.3307503E+04  0.7818609E-02  0.8160989E-01
        2   -1    0    0  501    0  0.00000000000E+00  0.00000000000E+00  0.21538570404E+04  0.21538570404E+04  0.25500000920E-02 0.  1.
       -2   -1    0    0    0  501  0.00000000000E+00  0.00000000000E+00 -0.12697657328E+04  0.12697657328E+04  0.25500000920E-02 0. -1.
    10030    2    1    2    0    0  0.00000000000E+00  0.00000000000E+00  0.88409130766E+03  0.34236227732E+04  0.33075029030E+04 0.  0.
        2    1    3    3  502    0 -0.15314304777E+04 -0.55773322273E+03  0.73214971698E+03  0.17867257383E+04  0.25500000920E-02 0.  1.
       -2    1    3    3    0  502  0.15314304777E+04  0.55773322273E+03  0.15194159068E+03  0.16368970349E+04  0.25500000920E-02 0. -1.
</event>
<event>
 5   0  0.3671997E-06  0.3431290E+04  0.7818609E-02  0.8130269E-01
        2   -1    0    0  501    0  0.00000000000E+00  0.00000000000E+00  0.75371722228E+03  0.75371722228E+03  0.25500000920E-02 0. -1.
       -2   -1    0    0    0  501  0.00000000000E+00  0.00000000000E+00 -0.39052272138E+04  0.39052272138E+04  0.25500000920E-02 0.  1.
    10030    2    1    2    0    0  0.00000000000E+00  0.00000000000E+00 -0.31515099915E+04  0.46589444361E+04  0.34312895581E+04 0.  0.
        2    1    3    3  502    0  0.11448619362E+04 -0.39671317820E+03  0.73459803121E+02  0.12138725392E+04  0.25500000920E-02 0. -1.
       -2    1    3    3    0  502 -0.11448619362E+04  0.39671317820E+03 -0.32249697946E+04  0.34450718969E+04  0.25500000920E-02 0.  1.
</event>
<event>
 5   0  0.1391878E-06  0.3130681E+04  0.7818609E-02  0.8207368E-01
        1   -1    0    0  501    0  0.00000000000E+00  0.00000000000E+00  0.11008256179E+04  0.11008256179E+04  0.50400001928E-02 0.  1.
       -1   -1    0    0    0  501  0.00000000000E+00  0.00000000000E+00 -0.22258665777E+04  0.22258665777E+04  0.50400001928E-02 0. -1.
    10030    2    1    2    0    0  0.00000000000E+00  0.00000000000E+00 -0.11250409598E+04  0.33266921956E+04  0.31306810446E+04 0.  0.
        2    1    3    3  502    0 -0.12181066440E+03 -0.99088840131E+03 -0.18436565246E+04  0.20966084619E+04  0.25500000920E-02 0. -1.
       -2    1    3    3    0  502  0.12181066440E+03  0.99088840131E+03  0.71861556479E+03  0.12300837336E+04  0.25500000920E-02 0.  1.
</event>
<event>
 5   0  0.1339825E-06  0.3289412E+04  0.7818609E-02  0.8165595E-01
        1   -1    0    0  501    0  0.00000000000E+00  0.00000000000E+00  0.31615582292E+04  0.31615582292E+04  0.50400001928E-02 0. -1.
       -1   -1    0    0    0  501  0.00000000000E+00  0.00000000000E+00 -0.85560912219E+03  0.85560912220E+03  0.50400001928E-02 0.  1.
    10030    2    1    2    0    0  0.00000000000E+00  0.00000000000E+00  0.23059491070E+04  0.40171673514E+04  0.32894121428E+04 0.  0.
        3    1    3    3  502    0 -0.28812967268E+03  0.19187529127E+03  0.31165638529E+04  0.31357303926E+04  0.10100000352E+00 0. -1.
       -3    1    3    3    0  502  0.28812967268E+03 -0.19187529127E+03 -0.81061474595E+03  0.88143695874E+03  0.10100000352E+00 0.  1.
</event>
<event>
 5   0  0.3812379E-06  0.3247333E+04  0.7818609E-02  0.8176427E-01
       -2   -1    0    0    0  501  0.00000000000E+00  0.00000000000E+00  0.11557106822E+04  0.11557106823E+04  0.25500000920E-02 0. -1.
        2   -1    0    0  501    0  0.00000000000E+00  0.00000000000E+00 -0.22811017651E+04  0.22811017651E+04  0.25500000920E-02 0.  1.
    10030    2    1    2    0    0  0.00000000000E+00  0.00000000000E+00 -0.11253910828E+04  0.34368124473E+04  0.32473334767E+04 0.  0.
        5    1    3    3  502    0 -0.42823851710E+02 -0.82289983906E+03 -0.20433533714E+04  0.22032505799E+04  0.46999998093E+01 0.  1.
       -5    1    3    3    0  502  0.42823851710E+02  0.82289983906E+03  0.91796228861E+03  0.12335618674E+04  0.46999998093E+01 0. -1.
</event>
<event>
 5   0  0.4017247E-06  0.3104625E+04  0.7818609E-02  0.8214470E-01
        2   -1    0    0  501    0  0.00000000000E+00  0.00000000000E+00  0.14652769781E+04  0.14652769781E+04  0.25500000920E-02 0.  1.
       -2   -1    0    0    0  501  0.00000000000E+00  0.00000000000E+00 -0.16445182235E+04  0.16445182235E+04  0.25500000920E-02 0. -1.
    10030    2    1    2    0    0  0.00000000000E+00  0.00000000000E+00 -0.17924124537E+03  0.31097952016E+04  0.31046253835E+04 0.  0.
        1    1    3    3  502    0  0.14663521035E+04 -0.42016502203E+03 -0.37810638310E+03  0.15715252382E+04  0.50400001928E-02 0. -1.
       -1    1    3    3    0  502 -0.14663521035E+04  0.42016502203E+03  0.19886513772E+03  0.15382699634E+04  0.50400001928E-02 0.  1.
</event>
<event>
 5   0  0.1282578E-06  0.3355374E+04  0.7818609E-02  0.8148947E-01
       -1   -1    0    0    0  501  0.00000000000E+00  0.00000000000E+00  0.13139567883E+04  0.13139567883E+04  0.50400001928E-02 0. -1.
        1   -1    0    0  501    0  0.00000000000E+00  0.00000000000E+00 -0.21421048480E+04  0.21421048481E+04  0.50400001928E-02 0.  1.
    10030    2    1    2    0    0  0.00000000000E+00  0.00000000000E+00 -0.82814805974E+03  0.34560616364E+04  0.33553737237E+04 0.  0.
        4    1    3    3  502    0  0.15767462801E+04  0.26933454364E+03 -0.93518239362E+03  0.18528997950E+04  0.12699999809E+01 0.  1.
       -4    1    3    3    0  502 -0.15767462801E+04 -0.26933454364E+03  0.10703433387E+03  0.16031618414E+04  0.12699999809E+01 0. -1.
</event>
<event>
 5   0  0.1339825E-06  0.3204173E+04  0.7818609E-02  0.8187716E-01
        1   -1    0    0  501    0  0.00000000000E+00  0.00000000000E+00  0.16040784270E+04  0.16040784270E+04  0.50400001928E-02 0.  1.
       -1   -1    0    0    0  501  0.00000000000E+00  0.00000000000E+00 -0.16000971158E+04  0.16000971158E+04  0.50400001928E-02 0. -1.
    10030    2    1    2    0    0  0.00000000000E+00  0.00000000000E+00  0.39813111840E+01  0.32041755429E+04  0.32041730694E+04 0.  0.
        3    1    3    3  502    0  0.62362936251E+03 -0.31645397768E+03  0.14433885050E+04  0.16038787636E+04  0.10100000352E+00 0.  1.
       -3    1    3    3    0  502 -0.62362936251E+03  0.31645397768E+03 -0.14394071938E+04  0.16002967792E+04  0.10100000352E+00 0. -1.
</event>
<event>
 5   0  0.3812379E-06  0.3272074E+04  0.7818609E-02  0.8170038E-01
       -2   -1    0    0    0  501  0.00000000000E+00  0.00000000000E+00  0.13183240788E+04  0.13183240788E+04  0.25500000920E-02 0.  1.
        2   -1    0    0  501    0  0.00000000000E+00  0.00000000000E+00 -0.20303177558E+04  0.20303177558E+04  0.25500000920E-02 0. -1.
    10030    2    1    2    0    0  0.00000000000E+00  0.00000000000E+00 -0.71199367700E+03  0.33486418346E+04  0.32720738287E+04 0.  0.
        5    1    3    3  502    0 -0.21821850834E+03  0.21699994768E+03  0.12884285351E+04  0.13246805180E+04  0.46999998093E+01 0.  1.
       -5    1    3    3    0  502  0.21821850834E+03 -0.21699994768E+03 -0.20004222121E+04  0.20239613166E+04  0.46999998093E+01 0. -1.
</event>
<event>
 5   0  0.3812379E-06  0.2759252E+04  0.7818609E-02  0.8316032E-01
       -2   -1    0    0    0  501  0.00000000000E+00  0.00000000000E+00  0.65431626872E+03  0.65431626872E+03  0.25500000920E-02 0.  1.
        2   -1    0    0  501    0  0.00000000000E+00  0.00000000000E+00 -0.29089412989E+04  0.29089412989E+04  0.25500000920E-02 0. -1.
    10030    2    1    2    0    0  0.00000000000E+00  0.00000000000E+00 -0.22546250302E+04  0.35632575676E+04  0.27592517947E+04 0.  0.
        5    1    3    3  502    0 -0.32663906376E+03 -0.64974388247E+03 -0.26413127337E+04  0.27396012917E+04  0.46999998093E+01 0.  1.
       -5    1    3    3    0  502  0.32663906376E+03  0.64974388247E+03  0.38668770347E+03  0.82365627588E+03  0.46999998093E+01 0. -1.
</event>
<event>
 5   0  0.3671997E-06  0.3092636E+04  0.7818609E-02  0.8217762E-01
        2   -1    0    0  501    0  0.00000000000E+00  0.00000000000E+00  0.21432001887E+04  0.21432001887E+04  0.25500000920E-02 0. -1.
       -2   -1    0    0    0  501  0.00000000000E+00  0.00000000000E+00 -0.11156679799E+04  0.11156679799E+04  0.25500000920E-02 0.  1.
    10030    2    1    2    0    0  0.00000000000E+00  0.00000000000E+00  0.10275322089E+04  0.32588681686E+04  0.30926363026E+04 0.  0.
        2    1    3    3  502    0 -0.91486374504E+03  0.11975486853E+04  0.14873412209E+03  0.15143382597E+04  0.25500000920E-02 0.  1.
       -2    1    3    3    0  502  0.91486374504E+03 -0.11975486853E+04  0.87879808678E+03  0.17445299089E+04  0.25500000920E-02 0. -1.
</event>
<event>
 5   0  0.3920487E-06  0.3315158E+04  0.7818609E-02  0.8159049E-01
       -2   -1    0    0    0  501  0.00000000000E+00  0.00000000000E+00  0.19028386507E+04  0.19028386508E+04  0.25500000920E-02 0. -1.
        2   -1    0    0  501    0  0.00000000000E+00  0.00000000000E+00 -0.14439312192E+04  0.14439312192E+04  0.25500000920E-02 0.  1.
    10030    2    1    2    0    0  0.00000000000E+00  0.00000000000E+00  0.45890743158E+03  0.33467698699E+04  0.33151579949E+04 0.  0.
        4    1    3    3  502    0  0.73790329825E+03 -0.90498984736E+03 -0.95822469346E+03  0.15105310581E+04  0.12699999809E+01 0.  1.
       -4    1    3    3    0  502 -0.73790329825E+03  0.90498984736E+03  0.14171321250E+04  0.18362388118E+04  0.12699999809E+01 0. -1.
</event>
<event>
 5   0  0.1405389E-06  0.3387929E+04  0.7818609E-02  0.8140875E-01
        1   -1    0    0  501    0  0.00000000000E+00  0.00000000000E+00  0.17825420239E+04  0.17825420239E+04  0.50400001928E-02 0.  1.
       -1   -1    0    0    0  501  0.00000000000E+00  0.00000000000E+00 -0.16097882852E+04  0.16097882853E+04  0.50400001928E-02 0. -1.
    10030    2    1    2    0    0  0.00000000000E+00  0.00000000000E+00  0.17275373864E+03  0.33923303091E+04  0.33879287289E+04 0.  0.
        1    1    3    3  502    0 -0.15246761150E+04  0.73190392984E+03  0.18239018442E+03  0.17010546133E+04  0.50400001928E-02 0.  1.
       -1    1    3    3    0  502  0.15246761150E+04 -0.73190392984E+03 -0.96364457797E+01  0.16912756958E+04  0.50400001928E-02 0. -1.
</event>
<event>
 5   0  0.1405389E-06  0.2553647E+04  0.7818609E-02  0.8384119E-01
        1   -1    0    0  501    0  0.00000000000E+00  0.00000000000E+00  0.25657204246E+04  0.25657204246E+04  0.50400001928E-02 0.  1.
       -1   -1    0    0    0  501  0.00000000000E+00  0.00000000000E+00 -0.63540770038E+03  0.63540770040E+03  0.50400001928E-02 0. -1.
    10030    2    1    2    0    0  0.00000000000E+00  0.00000000000E+00  0.19303127242E+04  0.32011281250E+04  0.25536472073E+04 0.  0.
        1    1    3    3  502    0 -0.69178786120E+03 -0.60946608772E+03  0.20724469190E+04  0.22682714981E+04  0.50400001928E-02 0.  1.
       -1    1    3    3    0  502  0.69178786120E+03  0.60946608772E+03 -0.14213419480E+03  0.93285662689E+03  0.50400001928E-02 0. -1.
</event>
<event>
 5   0  0.1352708E-06  0.2038758E+04  0.7818609E-02  0.8588712E-01
        1   -1    0    0  501    0  0.00000000000E+00  0.00000000000E+00  0.74269006425E+03  0.74269006426E+03  0.50400001928E-02 0. -1.
       -1   -1    0    0    0  501  0.00000000000E+00  0.00000000000E+00 -0.13991478973E+04  0.13991478973E+04  0.50400001928E-02 0.  1.
    10030    2    1    2    0    0  0.00000000000E+00  0.00000000000E+00 -0.65645783304E+03  0.21418379616E+04  0.20387577019E+04 0.  0.
        5    1    3    3  502    0  0.86861542328E+03 -0.53104983604E+03 -0.27461461374E+03  0.10544865850E+04  0.46999998093E+01 0. -1.
       -5    1    3    3    0  502 -0.86861542328E+03  0.53104983604E+03 -0.38184321929E+03  0.10873513765E+04  0.46999998093E+01 0.  1.
</event>
<event>
 5   0  0.4017247E-06  0.3259306E+04  0.7818609E-02  0.8173328E-01
        2   -1    0    0  501    0  0.00000000000E+00  0.00000000000E+00  0.11245142876E+04  0.11245142877E+04  0.25500000920E-02 0.  1.
       -2   -1    0    0    0  501  0.00000000000E+00  0.00000000000E+00 -0.23617034748E+04  0.23617034748E+04  0.25500000920E-02 0. -1.
    10030    2    1    2    0    0  0.00000000000E+00  0.00000000000E+00 -0.12371891872E+04  0.34862177625E+04  0.32593062456E+04 0.  0.
        1    1    3    3  502    0  0.72545600905E+03 -0.99322030160E+02 -0.21758438901E+04  0.22957456132E+04  0.50400001928E-02 0. -1.
       -1    1    3    3    0  502 -0.72545600905E+03  0.99322030160E+02  0.93865470291E+03  0.11904721492E+04  0.50400001928E-02 0.  1.
</event>
<event>
 5   0  0.3671997E-06  0.3269684E+04  0.7818609E-02  0.8170653E-01
        2   -1    0    0  501    0  0.00000000000E+00  0.00000000000E+00  0.19866831205E+04  0.19866831205E+04  0.25500000920E-02 0. -1.
       -2   -1    0    0    0  501  0.00000000000E+00  0.00000000000E+00 -0.13453115111E+04  0.13453115111E+04  0.25500000920E-02 0.  1.
    10030    2    1    2    0    0  0.00000000000E+00  0.00000000000E+00  0.64137160944E+03  0.33319946316E+04  0.32696835754E+04 0.  0.
        2    1    3    3  502    0 -0.10314145172E+04 -0.80369907646E+03  0.13206917721E+04  0.18584872528E+04  0.25500000920E-02 0.  1.
       -2    1    3    3    0  502  0.10314145172E+04  0.80369907646E+03 -0.67932016267E+03  0.14735073788E+04  0.25500000920E-02 0. -1.
</event>
<event>
 5   0  0.1282578E-06  0.3089048E+04  0.7818609E-02  0.8218750E-01
       -1   -1    0    0    0  501  0.00000000000E+00  0.00000000000E+00  0.12554156323E+04  0.12554156323E+04  0.50400001928E-02 0. -1.
        1   -1    0    0  501    0  0.00000000000E+00  0.00000000000E+00 -0.19002108443E+04  0.19002108443E+04  0.50400001928E-02 0.  1.
    10030    2    1    2    0    0  0.00000000000E+00  0.00000000000E+00 -0.64479521193E+03  0.31556264766E+04  0.30890480078E+04 0.  0.
        4    1    3    3  502    0  0.34771900513E+02  0.13770138090E+04 -0.10361530667E+04  0.17236562609E+04  0.12699999809E+01 0.  1.
       -4    1    3    3    0  502 -0.34771900513E+02 -0.13770138090E+04  0.39135785480E+03  0.14319702157E+04  0.12699999809E+01 0. -1.
</event>
<event>
 5   0  0.1352708E-06  0.2037633E+04  0.7818609E-02  0.8589225E-01
        1   -1    0    0  501    0  0.00000000000E+00  0.00000000000E+00  0.13526150385E+04  0.13526150385E+04  0.50400001928E-02 0.  1.
       -1   -1    0    0    0  501  0.00000000000E+00  0.00000000000E+00 -0.76739305578E+03  0.76739305580E+03  0.50400001928E-02 0. -1.
    10030    2    1    2    0    0  0.00000000000E+00  0.00000000000E+00  0.58522198273E+03  0.21200080943E+04  0.20376333210E+04 0.  0.
        5    1    3    3  502    0 -0.63742695923E+03 -0.40807354574E+03  0.10021851609E+04  0.12558799042E+04  0.46999998093E+01 0.  1.
       -5    1    3    3    0  502  0.63742695923E+03  0.40807354574E+03 -0.41696317812E+03  0.86412819014E+03  0.46999998093E+01 0. -1.
</event>
<event>
 5   0  0.4017247E-06  0.2040969E+04  0.7818609E-02  0.8587702E-01
       -2   -1    0    0    0  501  0.00000000000E+00  0.00000000000E+00  0.11181279050E+04  0.11181279050E+04  0.25500000920E-02 0.  1.
        2   -1    0    0  501    0  0.00000000000E+00  0.00000000000E+00 -0.93136790176E+03  0.93136790177E+03  0.25500000920E-02 0. -1.
    10030    2    1    2    0    0  0.00000000000E+00  0.00000000000E+00  0.18676000328E+03  0.20494958068E+04  0.20409688296E+04 0.  0.
        1    1    3    3  502    0  0.24066642864E+03 -0.13805995354E+03 -0.89276542542E+03  0.93488554673E+03  0.50400001928E-02 0. -1.
       -1    1    3    3    0  502 -0.24066642864E+03  0.13805995354E+03  0.10795254287E+04  0.11146102601E+04  0.50400001928E-02 0.  1.
</event>
<event>
 5   0  0.1339825E-06  0.3167154E+04  0.7818609E-02  0.8197546E-01
       -1   -1    0    0    0  501  0.00000000000E+00  0.00000000000E+00  0.10014818769E+04  0.10014818770E+04  0.50400001928E-02 0.  1.
        1   -1    0    0  501    0  0.00000000000E+00  0.00000000000E+00 -0.25040049031E+04  0.25040049031E+04  0.50400001928E-02 0. -1.
    10030    2    1    2    0    0  0.00000000000E+00  0.00000000000E+00 -0.15025230262E+04  0.35054867801E+04  0.31671536308E+04 0.  0.
        3    1    3    3  502    0  0.87053775405E+02  0.96701140431E+03 -0.21359114688E+04  0.23462325606E+04  0.10100000352E+00 0. -1.
       -3    1    3    3    0  502 -0.87053775405E+02 -0.96701140431E+03  0.63338844261E+03  0.11592542194E+04  0.10100000352E+00 0.  1.
</event>
<event>
 5   0  0.3671997E-06  0.3287220E+04  0.7818609E-02  0.8166155E-01
       -2   -1    0    0    0  501  0.00000000000E+00  0.00000000000E+00  0.12614699678E+04  0.12614699678E+04  0.25500000920E-02 0. -1.
        2   -1    0    0  501    0  0.00000000000E+00  0.00000000000E+00 -0.21415124134E+04  0.21415124134E+04  0.25500000920E-02 0.  1.
    10030    2    1    2    0    0  0.00000000000E+00  0.00000000000E+00 -0.88004244565E+03  0.34029823812E+04  0.32872198558E+04 0.  0.
        2    1    3    3  502    0 -0.35363503179E+03 -0.11785428934E+04 -0.15680895771E+04  0.19932200102E+04  0.25500000920E-02 0.  1.
       -2    1    3    3    0  502  0.35363503179E+03  0.11785428934E+04  0.68804713148E+03  0.14097623709E+04  0.25500000920E-02 0. -1.
</event>
<event>
 5   0  0.3671997E-06  0.3233349E+04  0.7818609E-02  0.8180065E-01
       -2   -1    0    0    0  501  0.00000000000E+00  0.00000000000E+00  0.10380362510E+04  0.10380362510E+04  0.25500000920E-02 0. -1.
        2   -1    0    0  501    0  0.00000000000E+00  0.00000000000E+00 -0.25178657280E+04  0.25178657280E+04  0.25500000920E-02 0.  1.
    10030    2    1    2    0    0  0.00000000000E+00  0.00000000000E+00 -0.14798294769E+04  0.35559019790E+04  0.32333486672E+04 0.  0.
        2    1    3    3  502    0 -0.11805044119E+04 -0.28303339795E+03  0.43427351026E+03  0.12892990547E+04  0.25500000920E-02 0. -1.
       -2    1    3    3    0  502  0.11805044119E+04  0.28303339795E+03 -0.19141029872E+04  0.22666029243E+04  0.25500000920E-02 0.  1.
</event>
<event>
 5   0  0.3671997E-06  0.3178168E+04  0.7818609E-02  0.8194607E-01
       -2   -1    0    0    0  501  0.00000000000E+00  0.00000000000E+00  0.92641379620E+03  0.92641379620E+03  0.25500000920E-02 0. -1.
        2   -1    0    0  501    0  0.00000000000E+00  0.00000000000E+00 -0.27257664351E+04  0.27257664352E+04  0.25500000920E-02 0.  1.
    10030    2    1    2    0    0  0.00000000000E+00  0.00000000000E+00 -0.17993526389E+04  0.36521802314E+04  0.31781677934E+04 0.  0.
        2    1    3    3  502    0  0.15729073234E+04 -0.13691010362E+03 -0.69281142596E+03  0.17241721192E+04  0.25500000920E-02 0. -1.
       -2    1    3    3    0  502 -0.15729073234E+04  0.13691010362E+03 -0.11065412130E+04  0.19280081122E+04  0.25500000920E-02 0.  1.
</event>
<event>
 5   0  0.3896210E-06  0.3329545E+04  0.7818609E-02  0.8155418E-01
       -2   -1    0    0    0  501  0.00000000000E+00  0.00000000000E+00  0.14220500338E+04  0.14220500338E+04  0.25500000920E-02 0.  1.
        2   -1    0    0  501    0  0.00000000000E+00  0.00000000000E+00 -0.19489243129E+04  0.19489243129E+04  0.25500000920E-02 0. -1.
    10030    2    1    2    0    0  0.00000000000E+00  0.00000000000E+00 -0.52687427910E+03  0.33709743467E+04  0.33295452453E+04 0.  0.
        3    1    3    3  502    0 -0.53032449077E+03 -0.13847258773E+04 -0.10296618066E+04  0.18052460406E+04  0.10100000352E+00 0. -1.
       -3    1    3    3    0  502  0.53032449077E+03  0.13847258773E+04  0.50278752753E+03  0.15657283062E+04  0.10100000352E+00 0.  1.
</event>
<event>
 5   0  0.4017247E-06  0.3289337E+04  0.7818609E-02  0.8165614E-01
       -2   -1    0    0    0  501  0.00000000000E+00  0.00000000000E+00  0.11305172369E+04  0.11305172369E+04  0.25500000920E-02 0. -1.
        2   -1    0    0  501    0  0.00000000000E+00  0.00000000000E+00 -0.23926514068E+04  0.23926514068E+04  0.25500000920E-02 0.  1.
    10030    2    1    2    0    0  0.00000000000E+00  0.00000000000E+00 -0.12621341699E+04  0.35231686437E+04  0.32893365028E+04 0.  0.
        1    1    3    3  502    0  0.10316347340E+04  0.12378884865E+04 -0.27859040532E+03  0.16353136529E+04  0.50400001928E-02 0. -1.
       -1    1    3    3    0  502 -0.10316347340E+04 -0.12378884865E+04 -0.98354376461E+03  0.18878549908E+04  0.50400001928E-02 0.  1.
</event>
<event>
 5   0  0.3812379E-06  0.2892016E+04  0.7818609E-02  0.8275257E-01
        2   -1    0    0  501    0  0.00000000000E+00  0.00000000000E+00  0.14940252147E+04  0.14940252147E+04  0.25500000920E-02 0. -1.
       -2   -1    0    0    0  501  0.00000000000E+00  0.00000000000E+00 -0.13995340085E+04  0.13995340085E+04  0.25500000920E-02 0.  1.
    10030    2    1    2    0    0  0.00000000000E+00  0.00000000000E+00  0.94491206113E+02  0.28935592232E+04  0.28920159734E+04 0.  0.
        5    1    3    3  502    0  0.29706279934E+03  0.43788482018E+03  0.13936707998E+04  0.14907480708E+04  0.46999998093E+01 0. -1.
       -5    1    3    3    0  502 -0.29706279934E+03 -0.43788482018E+03 -0.12991795937E+04  0.14028111524E+04  0.46999998093E+01 0.  1.
</event>
<event>
 5   0  0.1282578E-06  0.2041437E+04  0.7818609E-02  0.8587489E-01
        1   -1    0    0  501    0  0.00000000000E+00  0.00000000000E+00  0.18667019941E+04  0.18667019941E+04  0.50400001928E-02 0.  1.
       -1   -1    0    0    0  501  0.00000000000E+00  0.00000000000E+00 -0.55813234555E+03  0.55813234557E+03  0.50400001928E-02 0. -1.
    10030    2    1    2    0    0  0.00000000000E+00  0.00000000000E+00  0.13085696486E+04  0.24248343397E+04  0.20414374959E+04 0.  0.
        4    1    3    3  502    0  0.63024110387E+03  0.68549662608E+03  0.15773637290E+03  0.94445320139E+03  0.12699999809E+01 0. -1.
       -4    1    3    3    0  502 -0.63024110387E+03 -0.68549662608E+03  0.11508332757E+04  0.14803811383E+04  0.12699999809E+01 0.  1.
</event>
<event>
 5   0  0.1352708E-06  0.2183451E+04  0.7818609E-02  0.8525348E-01
        1   -1    0    0  501    0  0.00000000000E+00  0.00000000000E+00  0.15259281897E+04  0.15259281897E+04  0.50400001928E-02 0. -1.
       -1   -1    0    0    0  501  0.00000000000E+00  0.00000000000E+00 -0.78107532266E+03  0.78107532268E+03  0.50400001928E-02 0.  1.
    10030    2    1    2    0    0  0.00000000000E+00  0.00000000000E+00  0.74485286700E+03  0.23070035124E+04  0.21834512618E+04 0.  0.
        5    1    3    3  502    0  0.70323453660E+03  0.36238105838E+03  0.11673160048E+04  0.14101445280E+04  0.46999998093E+01 0. -1.
       -5    1    3    3    0  502 -0.70323453660E+03 -0.36238105838E+03 -0.42246313779E+03  0.89685898430E+03  0.46999998093E+01 0.  1.
</event>
<event>
 5   0  0.3920487E-06  0.3161805E+04  0.7818609E-02  0.8198978E-01
       -2   -1    0    0    0  501  0.00000000000E+00  0.00000000000E+00  0.11578124310E+04  0.11578124310E+04  0.25500000920E-02 0.  1.
        2   -1    0    0  501    0  0.00000000000E+00  0.00000000000E+00 -0.21585993266E+04  0.21585993266E+04  0.25500000920E-02 0. -1.
    10030    2    1    2    0    0  0.00000000000E+00  0.00000000000E+00 -0.10007868956E+04  0.33164117576E+04  0.31618052653E+04 0.  0.
        4    1    3    3  502    0 -0.12003020977E+04 -0.10272900913E+04 -0.55974165641E+03  0.16761152682E+04  0.12699999809E+01 0. -1.
       -4    1    3    3    0  502  0.12003020977E+04  0.10272900913E+04 -0.44104523921E+03  0.16402964894E+04  0.12699999809E+01 0.  1.
</event>
<event>
 5   0  0.3671997E-06  0.3304721E+04  0.7818609E-02  0.8161695E-01
       -2   -1    0    0    0  501  0.00000000000E+00  0.00000000000E+00  0.15662112702E+04  0.15662112702E+04  0.25500000920E-02 0. -1.
        2   -1    0    0  501    0  0.00000000000E+00  0.00000000000E+00 -0.17432481454E+04  0.17432481454E+04  0.25500000920E-02 0.  1.
    10030    2    1    2    0    0  0.00000000000E+00  0.00000000000E+00 -0.17703687518E+03  0.33094594156E+04  0.33047208003E+04 0.  0.
        2    1    3    3  502    0  0.10425971614E+04  0.91725018085E+03  0.80827562591E+03  0.16067564291E+04  0.25500000920E-02 0.  1.
       -2    1    3    3    0  502 -0.10425971614E+04 -0.91725018085E+03 -0.98531250109E+03  0.17027029864E+04  0.25500000920E-02 0. -1.
</event>
<event>
 5   0  0.1352708E-06  0.2230505E+04  0.7818609E-02  0.8505838E-01
        1   -1    0    0  501    0  0.00000000000E+00  0.00000000000E+00  0.12719135116E+04  0.12719135116E+04  0.50400001928E-02 0.  1.
       -1   -1    0    0    0  501  0.00000000000E+00  0.00000000000E+00 -0.97788733326E+03  0.97788733327E+03  0.50400001928E-02 0. -1.
    10030    2    1    2    0    0  0.00000000000E+00  0.00000000000E+00  0.29402617833E+03  0.22498008449E+04  0.22305049760E+04 0.  0.
        5    1    3    3  502    0 -0.54010415327E+03 -0.15693278095E+03  0.11183735587E+04  0.12518473952E+04  0.46999998093E+01 0.  1.
       -5    1    3    3    0  502  0.54010415327E+03  0.15693278095E+03 -0.82434738038E+03  0.99795344964E+03  0.46999998093E+01 0. -1.
</event>
<event>
 5   0  0.1282578E-06  0.3317803E+04  0.7818609E-02  0.8158380E-01
       -1   -1    0    0    0  501  0.00000000000E+00  0.00000000000E+00  0.12405681827E+04  0.12405681827E+04  0.50400001928E-02 0. -1.
        1   -1    0    0  501    0  0.00000000000E+00  0.00000000000E+00 -0.22183010141E+04  0.22183010141E+04  0.50400001928E-02 0.  1.
    10030    2    1    2    0    0  0.00000000000E+00  0.00000000000E+00 -0.97773283139E+03  0.34588691968E+04  0.33178026812E+04 0.  0.
        4    1    3    3  502    0  0.91037050053E+03  0.13561196979E+04 -0.79122713740E+03  0.18149041515E+04  0.12699999809E+01 0.  1.
       -4    1    3    3    0  502 -0.91037050053E+03 -0.13561196979E+04 -0.18650569399E+03  0.16439650453E+04  0.12699999809E+01 0. -1.
</event>
<event>
 5   0  0.3812379E-06  0.3020717E+04  0.7818609E-02  0.8237840E-01
       -2   -1    0    0    0  501  0.00000000000E+00  0.00000000000E+00  0.85545754685E+03  0.85545754685E+03  0.25500000920E-02 0.  1.
        2   -1    0    0  501    0  0.00000000000E+00  0.00000000000E+00 -0.26666230664E+04  0.26666230664E+04  0.25500000920E-02 0. -1.
    10030    2    1    2    0    0  0.00000000000E+00  0.00000000000E+00 -0.18111655195E+04  0.35220806132E+04  0.30207170187E+04 0.  0.
        5    1    3    3  502    0  0.12078927028E+04 -0.65115220458E+03 -0.16985643229E+03  0.13827065027E+04  0.46999998093E+01 0. -1.
       -5    1    3    3    0  502 -0.12078927028E+04  0.65115220458E+03 -0.16413090873E+04  0.21393741106E+04  0.46999998093E+01 0.  1.
</event>
<event>
 5   0  0.1391878E-06  0.3390599E+04  0.7818609E-02  0.8140218E-01
        1   -1    0    0  501    0  0.00000000000E+00  0.00000000000E+00  0.14333735341E+04  0.14333735341E+04  0.50400001928E-02 0. -1.
       -1   -1    0    0    0  501  0.00000000000E+00  0.00000000000E+00 -0.20050881453E+04  0.20050881453E+04  0.50400001928E-02 0.  1.
    10030    2    1    2    0    0  0.00000000000E+00  0.00000000000E+00 -0.57171461116E+03  0.34384616794E+04  0.33905989329E+04 0.  0.
        2    1    3    3  502    0 -0.66555695745E+03 -0.14960510397E+04 -0.73126742241E+03  0.17932893855E+04  0.25500000920E-02 0.  1.
       -2    1    3    3    0  502  0.66555695745E+03  0.14960510397E+04  0.15955281125E+03  0.16451722939E+04  0.25500000920E-02 0. -1.
</event>
<event>
 5   0  0.1339825E-06  0.2987154E+04  0.7818609E-02  0.8247409E-01
        1   -1    0    0  501    0  0.00000000000E+00  0.00000000000E+00  0.21944628327E+04  0.21944628327E+04  0.50400001928E-02 0. -1.
       -1   -1    0    0    0  501  0.00000000000E+00  0.00000000000E+00 -0.10165459396E+04  0.10165459396E+04  0.50400001928E-02 0.  1.
    10030    2    1    2    0    0  0.00000000000E+00  0.00000000000E+00  0.11779168931E+04  0.32110087723E+04  0.29871540183E+04 0.  0.
        3    1    3    3  502    0  0.14703756635E+04  0.70288009710E+02  0.86053172257E+03  0.17051275178E+04  0.10100000352E+00 0.  1.
       -3    1    3    3    0  502 -0.14703756635E+04 -0.70288009710E+02  0.31738517054E+03  0.15058812546E+04  0.10100000352E+00 0. -1.
</event>
<event>
 5   0  0.1405389E-06  0.3256242E+04  0.7818609E-02  0.8174120E-01
       -1   -1    0    0    0  501  0.00000000000E+00  0.00000000000E+00  0.10849519416E+04  0.10849519416E+04  0.50400001928E-02 0.  1.
        1   -1    0    0  501    0  0.00000000000E+00  0.00000000000E+00 -0.24432221994E+04  0.24432221994E+04  0.50400001928E-02 0. -1.
    10030    2    1    2    0    0  0.00000000000E+00  0.00000000000E+00 -0.13582702579E+04  0.35281741410E+04  0.32562424166E+04 0.  0.
        1    1    3    3  502    0  0.12481609336E+04 -0.10118550048E+04 -0.39447390138E+03  0.16544986932E+04  0.50400001928E-02 0. -1.
       -1    1    3    3    0  502 -0.12481609336E+04  0.10118550048E+04 -0.96379635650E+03  0.18736754478E+04  0.50400001928E-02 0.  1.
</event>
<event>
 5   0  0.4017247E-06  0.3293378E+04  0.7818609E-02  0.8164582E-01
       -2   -1    0    0    0  501  0.00000000000E+00  0.00000000000E+00  0.32544037367E+04  0.32544037367E+04  0.25500000920E-02 0.  1.
        2   -1    0    0  501    0  0.00000000000E+00  0.00000000000E+00 -0.83320480148E+03  0.83320480148E+03  0.25500000920E-02 0. -1.
    10030    2    1    2    0    0  0.00000000000E+00  0.00000000000E+00  0.24211989353E+04  0.40876085382E+04  0.32933780951E+04 0.  0.
        1    1    3    3  502    0  0.36703230612E+03 -0.37434207717E+03  0.31480575337E+04  0.31914120605E+04  0.50400001928E-02 0.  1.
       -1    1    3    3    0  502 -0.36703230612E+03  0.37434207717E+03 -0.72685859845E+03  0.89619647770E+03  0.50400001928E-02 0. -1.
</event>
<event>
 5   0  0.3896210E-06  0.3336821E+04  0.7818609E-02  0.8153589E-01
        2   -1    0    0  501    0  0.00000000000E+00  0.00000000000E+00  0.21822493684E+04  0.21822493684E+04  0.25500000920E-02 0.  1.
       -2   -1    0    0    0  501  0.00000000000E+00  0.00000000000E+00 -0.12755618543E+04  0.12755618543E+04  0.25500000920E-02 0. -1.
    10030    2    1    2    0    0  0.00000000000E+00  0.00000000000E+00  0.90668751413E+03  0.34578112226E+04  0.33368212723E+04 0.  0.
        3    1    3    3  502    0 -0.14881092011E+04 -0.67007140655E+03  0.81250784751E+03  0.18230835682E+04  0.10100000352E+00 0.  1.
       -3    1    3    3    0  502  0.14881092011E+04  0.67007140655E+03  0.94179666626E+02  0.16347276544E+04  0.10100000352E+00 0. -1.
</event>
<event>
 5   0  0.3812379E-06  0.3299928E+04  0.7818609E-02  0.8162914E-01
        2   -1    0    0  501    0  0.00000000000E+00  0.00000000000E+00  0.20250781083E+04  0.20250781083E+04  0.25500000920E-02 0.  1.
       -2   -1    0    0    0  501  0.00000000000E+00  0.00000000000E+00 -0.13443335263E+04  0.13443335263E+04  0.25500000920E-02 0. -1.
    10030    2    1    2    0    0  0.00000000000E+00  0.00000000000E+00  0.68074458194E+03  0.33694116346E+04  0.32999275110E+04 0.  0.
        5    1    3    3  502    0  0.99921971325E+02  0.39533070522E+03 -0.12920688550E+04  0.13548929046E+04  0.46999998093E+01 0. -1.
       -5    1    3    3    0  502 -0.99921971325E+02 -0.39533070522E+03  0.19728134369E+04  0.20145187300E+04  0.46999998093E+01 0.  1.
</event>
<event>
 5   0  0.3920487E-06  0.3335652E+04  0.7818609E-02  0.8153882E-01
        2   -1    0    0  501    0  0.00000000000E+00  0.00000000000E+00  0.21602866207E+04  0.21602866207E+04  0.25500000920E-02 0. -1.
       -2   -1    0    0    0  501  0.00000000000E+00  0.00000000000E+00 -0.12876273331E+04  0.12876273331E+04  0.25500000920E-02 0.  1.
    10030    2    1    2    0    0  0.00000000000E+00  0.00000000000E+00  0.87265928763E+03  0.34479139539E+04  0.33356523202E+04 0.  0.
        4    1    3    3  502    0 -0.41283194587E+03  0.11888664587E+04  0.15676077814E+04  0.20102809360E+04  0.12699999809E+01 0. -1.
       -4    1    3    3    0  502  0.41283194587E+03 -0.11888664587E+04 -0.69494849378E+03  0.14376330179E+04  0.12699999809E+01 0.  1.
</event>
<event>
 5   0  0.4017247E-06  0.3295224E+04  0.7818609E-02  0.8164112E-01
        2   -1    0    0  501    0  0.00000000000E+00  0.00000000000E+00  0.20752531099E+04  0.20752531099E+04  0.25500000920E-02 0.  1.
       -2   -1    0    0    0  501  0.00000000000E+00  0.00000000000E+00 -0.13080933554E+04  0.13080933554E+04  0.25500000920E-02 0. -1.
    10030    2    1    2    0    0  0.00000000000E+00  0.00000000000E+00  0.76715975448E+03  0.33833464652E+04  0.32952236972E+04 0.  0.
        1    1    3    3  502    0 -0.75031526234E+03  0.18790137916E+03 -0.11100905830E+04  0.13529896614E+04  0.50400001928E-02 0. -1.
       -1    1    3    3    0  502  0.75031526234E+03 -0.18790137916E+03  0.18772503375E+04  0.20303568039E+04  0.50400001928E-02 0.  1.
</event>
<event>
 5   0  0.1391878E-06  0.3124842E+04  0.7818609E-02  0.8208953E-01
       -1   -1    0    0    0  501  0.00000000000E+00  0.00000000000E+00  0.33043522183E+04  0.33043522183E+04  0.50400001928E-02 0.  1.
        1   -1    0    0  501    0  0.00000000000E+00  0.00000000000E+00 -0.73877073358E+03  0.73877073360E+03  0.50400001928E-02 0. -1.
    10030    2    1    2    0    0  0.00000000000E+00  0.00000000000E+00  0.25655814848E+04  0.40431229520E+04  0.31248415719E+04 0.  0.
        2    1    3    3  502    0  0.75493990866E+03 -0.12092225600E+04  0.45531859475E+03  0.14964853785E+04  0.25500000920E-02 0.  1.
       -2    1    3    3    0  502 -0.75493990866E+03  0.12092225600E+04  0.21102628900E+04  0.25466375734E+04  0.25500000920E-02 0. -1.
</event>
<event>
 5   0  0.1339825E-06  0.3212962E+04  0.7818609E-02  0.8185402E-01
       -1   -1    0    0    0  501  0.00000000000E+00  0.00000000000E+00  0.10528932345E+04  0.10528932345E+04  0.50400001928E-02 0.  1.
        1   -1    0    0  501    0  0.00000000000E+00  0.00000000000E+00 -0.24511321053E+04  0.24511321053E+04  0.50400001928E-02 0. -1.
    10030    2    1    2    0    0  0.00000000000E+00  0.00000000000E+00 -0.13982388707E+04  0.35040253398E+04  0.32129615065E+04 0.  0.
        3    1    3    3  502    0  0.66604018449E+03 -0.11839287657E+03  0.88998508786E+03  0.11178997573E+04  0.10100000352E+00 0.  1.
       -3    1    3    3    0  502 -0.66604018449E+03  0.11839287657E+03 -0.22882239586E+04  0.23861255825E+04  0.10100000352E+00 0. -1.
</event>
<event>
 5   0  0.3896210E-06  0.3380481E+04  0.7818609E-02  0.8142714E-01
       -2   -1    0    0    0  501  0.00000000000E+00  0.00000000000E+00  0.91665164342E+03  0.91665164342E+03  0.25500000920E-02 0.  1.
        2   -1    0    0  501    0  0.00000000000E+00  0.00000000000E+00 -0.31166840081E+04  0.31166840081E+04  0.25500000920E-02 0. -1.
    10030    2    1    2    0    0  0.00000000000E+00  0.00000000000E+00 -0.22000323647E+04  0.40333356515E+04  0.33804813374E+04 0.  0.
        3    1    3    3  502    0 -0.94372505237E+03  0.32593077280E+03 -0.27272499973E+04  0.29042624539E+04  0.10100000352E+00 0. -1.
       -3    1    3    3    0  502  0.94372505237E+03 -0.32593077280E+03  0.52721763265E+03  0.11290731976E+04  0.10100000352E+00 0.  1.
</event>
<event>
 5   0  0.3896210E-06  0.3289779E+04  0.7818609E-02  0.8165501E-01
       -2   -1    0    0    0  501  0.00000000000E+00  0.00000000000E+00  0.11081208944E+04  0.11081208944E+04  0.25500000920E-02 0.  1.
        2   -1    0    0  501    0  0.00000000000E+00  0.00000000000E+00 -0.24416669237E+04  0.24416669237E+04  0.25500000920E-02 0. -1.
    10030    2    1    2    0    0  0.00000000000E+00  0.00000000000E+00 -0.13335460294E+04  0.35497878181E+04  0.32897794061E+04 0.  0.
        3    1    3    3  502    0  0.54268120243E+03  0.10057696430E+03 -0.23387705476E+04  0.24030119221E+04  0.10100000352E+00 0. -1.
       -3    1    3    3    0  502 -0.54268120243E+03 -0.10057696430E+03  0.10052245183E+04  0.11467758960E+04  0.10100000352E+00 0.  1.
</event>
<event>
 5   0  0.1282578E-06  0.3266967E+04  0.7818609E-02  0.8171352E-01
        1   -1    0    0  501    0  0.00000000000E+00  0.00000000000E+00  0.19517745323E+04  0.19517745323E+04  0.50400001928E-02 0. -1.
       -1   -1    0    0    0  501  0.00000000000E+00  0.00000000000E+00 -0.13670982533E+04  0.13670982533E+04  0.50400001928E-02 0.  1.
    10030    2    1    2    0    0  0.00000000000E+00  0.00000000000E+00  0.58467627901E+03  0.33188727857E+04  0.32669665159E+04 0.  0.
        4    1    3    3  502    0 -0.29609989626E+03  0.11173796196E+04  0.14648217197E+04  0.18659894550E+04  0.12699999809E+01 0. -1.
       -4    1    3    3    0  502  0.29609989626E+03 -0.11173796196E+04 -0.88014544066E+03  0.14528833307E+04  0.12699999809E+01 0.  1.
</event>
<event>
 5   0  0.1405389E-06  0.2074919E+04  0.7818609E-02  0.8572373E-01
       -1   -1    0    0    0  501  0.00000000000E+00  0.00000000000E+00  0.10820514361E+04  0.10820514361E+04  0.50400001928E-02 0.  1.
        1   -1    0    0  501    0  0.00000000000E+00  0.00000000000E+00 -0.99470486882E+03  0.99470486884E+03  0.50400001928E-02 0. -1.
    10030    2    1    2    0    0  0.00000000000E+00  0.00000000000E+00  0.87346567304E+02  0.20767563050E+04  0.20749186315E+04 0.  0.
        1    1    3    3  502    0  0.43235025903E+03 -0.52291912916E+03  0.82919362024E+03  0.10714164559E+04  0.50400001928E-02 0.  1.
       -1    1    3    3    0  502 -0.43235025903E+03  0.52291912916E+03 -0.74184705294E+03  0.10053398491E+04  0.50400001928E-02 0. -1.
</event>
<event>
 5   0  0.3812379E-06  0.3166452E+04  0.7818609E-02  0.8197734E-01
        2   -1    0    0  501    0  0.00000000000E+00  0.00000000000E+00  0.20000441039E+04  0.20000441039E+04  0.25500000920E-02 0. -1.
       -2   -1    0    0    0  501  0.00000000000E+00  0.00000000000E+00 -0.12532748193E+04  0.12532748193E+04  0.25500000920E-02 0.  1.
    10030    2    1    2    0    0  0.00000000000E+00  0.00000000000E+00  0.74676928454E+03  0.32533189232E+04  0.31664522185E+04 0.  0.
        5    1    3    3  502    0 -0.43748871619E+03  0.81313740329E+03  0.16947431537E+04  0.19299650930E+04  0.46999998093E+01 0. -1.
       -5    1    3    3    0  502  0.43748871619E+03 -0.81313740329E+03 -0.94797386911E+03  0.13233538302E+04  0.46999998093E+01 0.  1.
</event>
<event>
 5   0  0.1282578E-06  0.3361008E+04  0.7818609E-02  0.8147543E-01
       -1   -1    0    0    0  501  0.00000000000E+00  0.00000000000E+00  0.20792119939E+04  0.20792119939E+04  0.50400001928E-02 0. -1.
        1   -1    0    0  501    0  0.00000000000E+00  0.00000000000E+00 -0.13582519434E+04  0.13582519434E+04  0.50400001928E-02 0.  1.
    10030    2    1    2    0    0  0.00000000000E+00  0.00000000000E+00  0.72096005051E+03  0.34374639373E+04  0.33610080223E+04 0.  0.
        4    1    3    3  502    0  0.47707454863E+03 -0.89017690571E+03 -0.10132334072E+04  0.14306147626E+04  0.12699999809E+01 0.  1.
       -4    1    3    3    0  502 -0.47707454863E+03  0.89017690571E+03  0.17341934578E+04  0.20068491748E+04  0.12699999809E+01 0. -1.
</event>
<event>
 5   0  0.1405389E-06  0.3330245E+04  0.7818609E-02  0.8155242E-01
        1   -1    0    0  501    0  0.00000000000E+00  0.00000000000E+00  0.19473684018E+04  0.19473684018E+04  0.50400001928E-02 0. -1.
       -1   -1    0    0    0  501  0.00000000000E+00  0.00000000000E+00 -0.14237846960E+04  0.14237846960E+04  0.50400001928E-02 0.  1.
    10030    2    1    2    0    0  0.00000000000E+00  0.00000000000E+00  0.52358370580E+03  0.33711530978E+04  0.33302452330E+04 0.  0.
        1    1    3    3  502    0 -0.37107310328E+03  0.75089447903E+03  0.17185998931E+04  0.19118376917E+04  0.50400001928E-02 0. -1.
       -1    1    3    3    0  502  0.37107310328E+03 -0.75089447903E+03 -0.11950161873E+04  0.14593154062E+04  0.50400001928E-02 0.  1.
</event>
<event>
 5   0  0.3920487E-06  0.3309717E+04  0.7818609E-02  0.8160427E-01
        2   -1    0    0  501    0  0.00000000000E+00  0.00000000000E+00  0.26343212783E+04  0.26343212783E+04  0.25500000920E-02 0.  1.
       -2   -1    0    0    0  501  0.00000000000E+00  0.00000000000E+00 -0.10395679709E+04  0.10395679709E+04  0.25500000920E-02 0. -1.
    10030    2    1    2    0    0  0.00000000000E+00  0.00000000000E+00  0.15947533073E+04  0.36738892492E+04  0.33097166199E+04 0.  0.
        4    1    3    3  502    0 -0.81018512034E+03  0.13890713127E+04  0.12310501131E+04  0.20251925920E+04  0.12699999809E+01 0.  1.
       -4    1    3    3    0  502  0.81018512034E+03 -0.13890713127E+04  0.36370319421E+03  0.16486966571E+04  0.12699999809E+01 0. -1.
</event>
<event>
 5   0  0.1339825E-06  0.3267968E+04  0.7818609E-02  0.8171094E-01
       -1   -1    0    0    0  501  0.00000000000E+00  0.00000000000E+00  0.14546361374E+04  0.14546361375E+04  0.50400001928E-02 0. -1.
        1   -1    0    0  501    0  0.00000000000E+00  0.00000000000E+00 -0.18354441237E+04  0.18354441237E+04  0.50400001928E-02 0.  1.
    10030    2    1    2    0    0  0.00000000000E+00  0.00000000000E+00 -0.38080798627E+03  0.32900802612E+04  0.32679677787E+04 0.  0.
        3    1    3    3  502    0 -0.99604102942E+03 -0.11947566725E+04 -0.69415162928E+03  0.17033460404E+04  0.10100000352E+00 0.  1.
       -3    1    3    3    0  502  0.99604102942E+03  0.11947566725E+04  0.31334364301E+03  0.15867342208E+04  0.10100000352E+00 0. -1.
</event>
<event>
 5   0  0.1405389E-06  0.3320980E+04  0.7818609E-02  0.8157577E-01
       -1   -1    0    0    0  501  0.00000000000E+00  0.00000000000E+00  0.11085589042E+04  0.11085589042E+04  0.50400001928E-02 0.  1.
        1   -1    0    0  501    0  0.00000000000E+00  0.00000000000E+00 -0.24872180714E+04  0.24872180714E+04  0.50400001928E-02 0. -1.
    10030    2    1    2    0    0  0.00000000000E+00  0.00000000000E+00 -0.13786591671E+04  0.35957769756E+04  0.33209804214E+04 0.  0.
        1    1    3    3  502    0 -0.90325890093E+03  0.12981333645E+04 -0.12373752252E+04  0.20080150204E+04  0.50400001928E-02 0. -1.
       -1    1    3    3    0  502  0.90325890093E+03 -0.12981333645E+04 -0.14128394188E+03  0.15877619552E+04  0.50400001928E-02 0.  1.
</event>
<event>
 5   0  0.1405389E-06  0.3289924E+04  0.7818609E-02  0.8165464E-01
       -1   -1    0    0    0  501  0.00000000000E+00  0.00000000000E+00  0.16471792737E+04  0.16471792737E+04  0.50400001928E-02 0.  1.
        1   -1    0    0  501    0  0.00000000000E+00  0.00000000000E+00 -0.16427479623E+04  0.16427479623E+04  0.50400001928E-02 0. -1.
    10030    2    1    2    0    0  0.00000000000E+00  0.00000000000E+00  0.44313114112E+01  0.32899272360E+04  0.32899242516E+04 0.  0.
        1    1    3    3  502    0 -0.74882718793E+03  0.91026994463E+03  0.11496341733E+04  0.16465091138E+04  0.50400001928E-02 0.  1.
       -1    1    3    3    0  502  0.74882718793E+03 -0.91026994463E+03 -0.11452028619E+04  0.16434181222E+04  0.50400001928E-02 0. -1.
</event>
<event>
 5   0  0.1352708E-06  0.2762773E+04  0.7818609E-02  0.8314920E-01
       -1   -1    0    0    0  501  0.00000000000E+00  0.00000000000E+00  0.99913255198E+03  0.99913255200E+03  0.50400001928E-02 0. -1.
        1   -1    0    0  501    0  0.00000000000E+00  0.00000000000E+00 -0.19098853169E+04  0.19098853169E+04  0.50400001928E-02 0.  1.
    10030    2    1    2    0    0  0.00000000000E+00  0.00000000000E+00 -0.91075276495E+03  0.29090178689E+04  0.27627729481E+04 0.  0.
        5    1    3    3  502    0 -0.36273104744E+03 -0.81568041783E+03 -0.15653597943E+04  0.18020215683E+04  0.46999998093E+01 0.  1.
       -5    1    3    3    0  502  0.36273104744E+03  0.81568041783E+03  0.65460702937E+03  0.11069963007E+04  0.46999998093E+01 0. -1.
</event>
<event>
 5   0  0.1352708E-06  0.2671997E+04  0.7818609E-02  0.8344148E-01
        1   -1    0    0  501    0  0.00000000000E+00  0.00000000000E+00  0.20903435113E+04  0.20903435113E+04  0.50400001928E-02 0. -1.
       -1   -1    0    0    0  501  0.00000000000E+00  0.00000000000E+00 -0.85387524379E+03  0.85387524381E+03  0.50400001928E-02 0.  1.
    10030    2    1    2    0    0  0.00000000000E+00  0.00000000000E+00  0.12364682675E+04  0.29442187551E+04  0.26719974366E+04 0.  0.
        5    1    3    3  502    0  0.47182208314E+03 -0.66739017149E+03  0.17827098718E+04  0.19611482086E+04  0.46999998093E+01 0. -1.
       -5    1    3    3    0  502 -0.47182208314E+03  0.66739017149E+03 -0.54624160429E+03  0.98307054650E+03  0.46999998093E+01 0.  1.
</event>
<event>
 5   0  0.1391878E-06  0.3313848E+04  0.7818609E-02  0.8159381E-01
        1   -1    0    0  501    0  0.00000000000E+00  0.00000000000E+00  0.25038409477E+04  0.25038409477E+04  0.50400001928E-02 0. -1.
       -1   -1    0    0    0  501  0.00000000000E+00  0.00000000000E+00 -0.10964743355E+04  0.10964743355E+04  0.50400001928E-02 0.  1.
    10030    2    1    2    0    0  0.00000000000E+00  0.00000000000E+00  0.14073666122E+04  0.36003152833E+04  0.33138481193E+04 0.  0.
        2    1    3    3  502    0 -0.14115441755E+04 -0.14712084337E+03 -0.22539963238E+03  0.14369782519E+04  0.25500000920E-02 0.  1.
       -2    1    3    3    0  502  0.14115441755E+04  0.14712084337E+03  0.16327662446E+04  0.21633370314E+04  0.25500000920E-02 0. -1.
</event>
<event>
 5   0  0.1391878E-06  0.3235813E+04  0.7818609E-02  0.8179423E-01
       -1   -1    0    0    0  501  0.00000000000E+00  0.00000000000E+00  0.21242770307E+04  0.21242770307E+04  0.50400001928E-02 0. -1.
        1   -1    0    0  501    0  0.00000000000E+00  0.00000000000E+00 -0.12322411909E+04  0.12322411909E+04  0.50400001928E-02 0.  1.
    10030    2    1    2    0    0  0.00000000000E+00  0.00000000000E+00  0.89203583975E+03  0.33565182216E+04  0.32358131331E+04 0.  0.
        2    1    3    3  502    0  0.10221136902E+04  0.37213765702E+03  0.16883667752E+04  0.20084285397E+04  0.25500000920E-02 0. -1.
       -2    1    3    3    0  502 -0.10221136902E+04 -0.37213765702E+03 -0.79633093546E+03  0.13480896819E+04  0.25500000920E-02 0.  1.
</event>
<event>
 5   0  0.1391878E-06  0.3350574E+04  0.7818609E-02  0.8150145E-01
       -1   -1    0    0    0  501  0.00000000000E+00  0.00000000000E+00  0.11595555708E+04  0.11595555709E+04  0.50400001928E-02 0. -1.
        1   -1    0    0  501    0  0.00000000000E+00  0.00000000000E+00 -0.24203982673E+04  0.24203982673E+04  0.50400001928E-02 0.  1.
    10030    2    1    2    0    0  0.00000000000E+00  0.00000000000E+00 -0.12608426964E+04  0.35799538381E+04  0.33505738580E+04 0.  0.
        2    1    3    3  502    0 -0.83109841416E+03  0.12025226409E+04  0.24402090125E+03  0.14820025223E+04  0.25500000920E-02 0. -1.
       -2    1    3    3    0  502  0.83109841416E+03 -0.12025226409E+04 -0.15048635977E+04  0.20979513158E+04  0.25500000920E-02 0.  1.
</event>
<event>
 5   0  0.3812379E-06  0.3299564E+04  0.7818609E-02  0.8163006E-01
       -2   -1    0    0    0  501  0.00000000000E+00  0.00000000000E+00  0.27547895719E+04  0.27547895719E+04  0.25500000920E-02 0. -1.
        2   -1    0    0  501    0  0.00000000000E+00  0.00000000000E+00 -0.98801766950E+03  0.98801766951E+03  0.25500000920E-02 0.  1.
    10030    2    1    2    0    0  0.00000000000E+00  0.00000000000E+00  0.17667719024E+04  0.37428072414E+04  0.32995640759E+04 0.  0.
        5    1    3    3  502    0  0.19838663677E+03 -0.15476618061E+04  0.14912284184E+04  0.21583323677E+04  0.46999998093E+01 0.  1.
       -5    1    3    3    0  502 -0.19838663677E+03  0.15476618061E+04  0.27554348391E+03  0.15844748736E+04  0.46999998093E+01 0. -1.
</event>
<event>
 5   0  0.1405389E-06  0.3336001E+04  0.7818609E-02  0.8153795E-01
        1   -1    0    0  501    0  0.00000000000E+00  0.00000000000E+00  0.98535270152E+03  0.98535270153E+03  0.50400001928E-02 0.  1.
       -1   -1    0    0    0  501  0.00000000000E+00  0.00000000000E+00 -0.28235836838E+04  0.28235836838E+04  0.50400001928E-02 0. -1.
    10030    2    1    2    0    0  0.00000000000E+00  0.00000000000E+00 -0.18382309823E+04  0.38089363853E+04  0.33360010856E+04 0.  0.
        1    1    3    3  502    0  0.12794189378E+04 -0.10240600554E+04 -0.12740085926E+04  0.20757431704E+04  0.50400001928E-02 0. -1.
       -1    1    3    3    0  502 -0.12794189378E+04  0.10240600554E+04 -0.56422238966E+03  0.17331932149E+04  0.50400001928E-02 0.  1.
</event>
<event>
 5   0  0.1259875E-06  0.3179027E+04  0.7818609E-02  0.8194378E-01
        3   -1    0    0  501    0  0.00000000000E+00  0.00000000000E+00  0.23098782692E+04  0.23098782714E+04  0.10100000352E+00 0. -1.
       -3   -1    0    0    0  501  0.00000000000E+00  0.00000000000E+00 -0.10938033614E+04  0.10938033660E+04  0.10100000352E+00 0.  1.
    10030    2    1    2    0    0  0.00000000000E+00  0.00000000000E+00  0.12160749078E+04  0.34036816374E+04  0.31790266604E+04 0.  0.
        3    1    3    3  502    0 -0.31223653719E+03  0.31872395083E+03  0.22414555691E+04  0.22854320577E+04  0.10100000352E+00 0. -1.
       -3    1    3    3    0  502  0.31223653719E+03 -0.31872395083E+03 -0.10253806612E+04  0.11182495797E+04  0.10100000352E+00 0.  1.
</event>
<event>
 5   0  0.3896210E-06  0.3309080E+04  0.7818609E-02  0.8160589E-01
        2   -1    0    0  501    0  0.00000000000E+00  0.00000000000E+00  0.16409815075E+04  0.16409815075E+04  0.25500000920E-02 0. -1.
       -2   -1    0    0    0  501  0.00000000000E+00  0.00000000000E+00 -0.16682102918E+04  0.16682102918E+04  0.25500000920E-02 0.  1.
    10030    2    1    2    0    0  0.00000000000E+00  0.00000000000E+00 -0.27228784277E+02  0.33091917992E+04  0.33090797750E+04 0.  0.
        3    1    3    3  502    0 -0.30469250649E+03 -0.10850555184E+04 -0.12249849289E+04  0.16645633325E+04  0.10100000352E+00 0.  1.
       -3    1    3    3    0  502  0.30469250649E+03  0.10850555184E+04  0.11977561447E+04  0.16446284668E+04  0.10100000352E+00 0. -1.
</event>
<event>
 5   0  0.1282578E-06  0.3315354E+04  0.7818609E-02  0.8159000E-01
        1   -1    0    0  501    0  0.00000000000E+00  0.00000000000E+00  0.17547705980E+04  0.17547705980E+04  0.50400001928E-02 0.  1.
       -1   -1    0    0    0  501  0.00000000000E+00  0.00000000000E+00 -0.15659555785E+04  0.15659555785E+04  0.50400001928E-02 0. -1.
    10030    2    1    2    0    0  0.00000000000E+00  0.00000000000E+00  0.18881501943E+03  0.33207261765E+04  0.33153538616E+04 0.  0.
        4    1    3    3  502    0  0.96535476754E+02 -0.25672100689E+03  0.17318858155E+04  0.17534693794E+04  0.12699999809E+01 0.  1.
       -4    1    3    3    0  502 -0.96535476754E+02  0.25672100689E+03 -0.15430707960E+04  0.15672567971E+04  0.12699999809E+01 0. -1.
</event>
<event>
 5   0  0.3920487E-06  0.2138236E+04  0.7818609E-02  0.8544585E-01
        2   -1    0    0  501    0  0.00000000000E+00  0.00000000000E+00  0.28624906025E+04  0.28624906025E+04  0.25500000920E-02 0.  1.
       -2   -1    0    0    0  501  0.00000000000E+00  0.00000000000E+00 -0.39930714771E+03  0.39930714772E+03  0.25500000920E-02 0. -1.
    10030    2    1    2    0    0  0.00000000000E+00  0.00000000000E+00  0.24631834548E+04  0.32617977503E+04  0.21382356819E+04 0.  0.
        4    1    3    3  502    0  0.54000218881E+03 -0.75622875214E+03  0.42507499651E+03  0.10218486459E+04  0.12699999809E+01 0. -1.
       -4    1    3    3    0  502 -0.54000218881E+03  0.75622875214E+03  0.20381084583E+04  0.22399491044E+04  0.12699999809E+01 0.  1.
</event>
<event>
 5   0  0.4017247E-06  0.2386557E+04  0.7818609E-02  0.8444553E-01
        2   -1    0    0  501    0  0.00000000000E+00  0.00000000000E+00  0.16550777701E+04  0.16550777701E+04  0.25500000920E-02 0.  1.
       -2   -1    0    0    0  501  0.00000000000E+00  0.00000000000E+00 -0.86033053960E+03  0.86033053960E+03  0.25500000920E-02 0. -1.
    10030    2    1    2    0    0  0.00000000000E+00  0.00000000000E+00  0.79474723052E+03  0.25154083097E+04  0.23865573121E+04 0.  0.
        1    1    3    3  502    0 -0.27091153327E+03  0.10813178250E+03  0.16169221333E+04  0.16430224364E+04  0.50400001928E-02 0.  1.
       -1    1    3    3    0  502  0.27091153327E+03 -0.10813178250E+03 -0.82217490277E+03  0.87238587335E+03  0.50400001928E-02 0. -1.
</event>
<event>
 5   0  0.1339825E-06  0.3277493E+04  0.7818609E-02  0.8168646E-01
        1   -1    0    0  501    0  0.00000000000E+00  0.00000000000E+00  0.15066947764E+04  0.15066947764E+04  0.50400001928E-02 0. -1.
       -1   -1    0    0    0  501  0.00000000000E+00  0.00000000000E+00 -0.17823715476E+04  0.17823715477E+04  0.50400001928E-02 0.  1.
    10030    2    1    2    0    0  0.00000000000E+00  0.00000000000E+00 -0.27567677129E+03  0.32890663240E+04  0.32774928835E+04 0.  0.
        3    1    3    3  502    0  0.10320990854E+03  0.40596702219E+03 -0.17277397787E+04  0.17777925249E+04  0.10100000352E+00 0.  1.
       -3    1    3    3    0  502 -0.10320990854E+03 -0.40596702219E+03  0.14520630074E+04  0.15112737992E+04  0.10100000352E+00 0. -1.
</event>
<event>
 5   0  0.3896210E-06  0.3325218E+04  0.7818609E-02  0.8156508E-01
       -2   -1    0    0    0  501  0.00000000000E+00  0.00000000000E+00  0.11452064381E+04  0.11452064381E+04  0.25500000920E-02 0. -1.
        2   -1    0    0  501    0  0.00000000000E+00  0.00000000000E+00 -0.24137736087E+04  0.24137736087E+04  0.25500000920E-02 0.  1.
    10030    2    1    2    0    0  0.00000000000E+00  0.00000000000E+00 -0.12685671706E+04  0.35589800468E+04  0.33252182345E+04 0.  0.
        3    1    3    3  502    0  0.15711226350E+04 -0.33086063700E+02 -0.53210357600E+02  0.15723715763E+04  0.10100000352E+00 0. -1.
       -3    1    3    3    0  502 -0.15711226350E+04  0.33086063700E+02 -0.12153568130E+04  0.19866084705E+04  0.10100000352E+00 0.  1.
</event>
<event>
 5   0  0.1282578E-06  0.2586480E+04  0.7818609E-02  0.8372808E-01
       -1   -1    0    0    0  501  0.00000000000E+00  0.00000000000E+00  0.16548454249E+04  0.16548454250E+04  0.50400001928E-02 0. -1.
        1   -1    0    0  501    0  0.00000000000E+00  0.00000000000E+00 -0.10106498529E+04  0.10106498529E+04  0.50400001928E-02 0.  1.
    10030    2    1    2    0    0  0.00000000000E+00  0.00000000000E+00  0.64419557203E+03  0.26654952779E+04  0.25864796812E+04 0.  0.
        4    1    3    3  502    0 -0.10765781058E+04 -0.95550172951E+02  0.10539456858E+04  0.15096202751E+04  0.12699999809E+01 0. -1.
       -4    1    3    3    0  502  0.10765781058E+04  0.95550172951E+02 -0.40975011377E+03  0.11558750028E+04  0.12699999809E+01 0.  1.
</event>
<event>
 5   0  0.3671997E-06  0.3273292E+04  0.7818609E-02  0.8169725E-01
        2   -1    0    0  501    0  0.00000000000E+00  0.00000000000E+00  0.25369539727E+04  0.25369539727E+04  0.25500000920E-02 0.  1.
       -2   -1    0    0    0  501  0.00000000000E+00  0.00000000000E+00 -0.10558370377E+04  0.10558370377E+04  0.25500000920E-02 0. -1.
    10030    2    1    2    0    0  0.00000000000E+00  0.00000000000E+00  0.14811169350E+04  0.35927910104E+04  0.32732919011E+04 0.  0.
        2    1    3    3  502    0  0.11287451400E+04 -0.38002997525E+03 -0.49156277872E+03  0.12884573484E+04  0.25500000920E-02 0. -1.
       -2    1    3    3    0  502 -0.11287451400E+04  0.38002997525E+03  0.19726797137E+04  0.23043336621E+04  0.25500000920E-02 0.  1.
</event>
<event>
 5   0  0.1282578E-06  0.3252521E+04  0.7818609E-02  0.8175083E-01
        1   -1    0    0  501    0  0.00000000000E+00  0.00000000000E+00  0.17502023199E+04  0.17502023199E+04  0.50400001928E-02 0.  1.
       -1   -1    0    0    0  501  0.00000000000E+00  0.00000000000E+00 -0.15110955860E+04  0.15110955860E+04  0.50400001928E-02 0. -1.
    10030    2    1    2    0    0  0.00000000000E+00  0.00000000000E+00  0.23910673390E+03  0.32612979060E+04  0.32525208687E+04 0.  0.
        4    1    3    3  502    0 -0.11923709053E+04  0.10268924820E+04  0.53110565381E+03  0.16608224992E+04  0.12699999809E+01 0.  1.
       -4    1    3    3    0  502  0.11923709053E+04 -0.10268924820E+04 -0.29199891990E+03  0.16004754067E+04  0.12699999809E+01 0. -1.
</event>
<event>
 5   0  0.1282578E-06  0.3297744E+04  0.7818609E-02  0.8163470E-01
       -1   -1    0    0    0  501  0.00000000000E+00  0.00000000000E+00  0.91011340923E+03  0.91011340924E+03  0.50400001928E-02 0.  1.
        1   -1    0    0  501    0  0.00000000000E+00  0.00000000000E+00 -0.29872964203E+04  0.29872964203E+04  0.50400001928E-02 0. -1.
    10030    2    1    2    0    0  0.00000000000E+00  0.00000000000E+00 -0.20771830111E+04  0.38974098296E+04  0.32977437921E+04 0.  0.
        4    1    3    3  502    0  0.17507228854E+03 -0.16394718719E+04 -0.10195865758E+04  0.19385759525E+04  0.12699999809E+01 0.  1.
       -4    1    3    3    0  502 -0.17507228854E+03  0.16394718719E+04 -0.10575964353E+04  0.19588338771E+04  0.12699999809E+01 0. -1.
</event>
<event>
 5   0  0.1391878E-06  0.3323182E+04  0.7818609E-02  0.8157022E-01
       -1   -1    0    0    0  501  0.00000000000E+00  0.00000000000E+00  0.15839999266E+04  0.15839999266E+04  0.50400001928E-02 0.  1.
        1   -1    0    0  501    0  0.00000000000E+00  0.00000000000E+00 -0.17429826101E+04  0.17429826101E+04  0.50400001928E-02 0. -1.
    10030    2    1    2    0    0  0.00000000000E+00  0.00000000000E+00 -0.15898268348E+03  0.33269825367E+04  0.33231818045E+04 0.  0.
        2    1    3    3  502    0 -0.23628064418E+03 -0.60843271955E+03  0.14502829055E+04  0.15903897079E+04  0.25500000920E-02 0.  1.
       -2    1    3    3    0  502  0.23628064418E+03  0.60843271955E+03 -0.16092655890E+04  0.17365928288E+04  0.25500000920E-02 0. -1.
</event>
<event>
 5   0  0.3671997E-06  0.3327678E+04  0.7818609E-02  0.8155888E-01
        2   -1    0    0  501    0  0.00000000000E+00  0.00000000000E+00  0.21343371645E+04  0.21343371645E+04  0.25500000920E-02 0. -1.
       -2   -1    0    0    0  501  0.00000000000E+00  0.00000000000E+00 -0.12970585080E+04  0.12970585080E+04  0.25500000920E-02 0.  1.
    10030    2    1    2    0    0  0.00000000000E+00  0.00000000000E+00  0.83727865655E+03  0.34313956725E+04  0.33276779761E+04 0.  0.
        2    1    3    3  502    0 -0.99333490800E+03 -0.88636142089E+03  0.14477479553E+04  0.19668057733E+04  0.25500000920E-02 0. -1.
       -2    1    3    3    0  502  0.99333490800E+03  0.88636142089E+03 -0.61046929879E+03  0.14645898991E+04  0.25500000920E-02 0.  1.
</event>
<event>
 5   0  0.4017247E-06  0.3299807E+04  0.7818609E-02  0.8162945E-01
       -2   -1    0    0    0  501  0.00000000000E+00  0.00000000000E+00  0.10603960419E+04  0.10603960419E+04  0.25500000920E-02 0. -1.
        2   -1    0    0  501    0  0.00000000000E+00  0.00000000000E+00 -0.25671361125E+04  0.25671361125E+04  0.25500000920E-02 0.  1.
    10030    2    1    2    0    0  0.00000000000E+00  0.00000000000E+00 -0.15067400707E+04  0.36275321544E+04  0.32998066444E+04 0.  0.
        1    1    3    3  502    0  0.13810800473E+04 -0.82130984667E+03 -0.11650622763E+04  0.19847675101E+04  0.50400001928E-02 0. -1.
       -1    1    3    3    0  502 -0.13810800473E+04  0.82130984667E+03 -0.34167779434E+03  0.16427646443E+04  0.50400001928E-02 0.  1.
</event>
<event>
 5   0  0.3812379E-06  0.3196384E+04  0.7818609E-02  0.8189773E-01
        2   -1    0    0  501    0  0.00000000000E+00  0.00000000000E+00  0.16268623349E+04  0.16268623349E+04  0.25500000920E-02 0.  1.
       -2   -1    0    0    0  501  0.00000000000E+00  0.00000000000E+00 -0.15700265128E+04  0.15700265128E+04  0.25500000920E-02 0. -1.
    10030    2    1    2    0    0  0.00000000000E+00  0.00000000000E+00  0.56835822096E+02  0.31968888478E+04  0.31963835806E+04 0.  0.
        5    1    3    3  502    0 -0.13215018218E+04 -0.86740707057E+03  0.26389687816E+03  0.16026308818E+04  0.46999998093E+01 0. -1.
       -5    1    3    3    0  502  0.13215018218E+04  0.86740707057E+03 -0.20706105606E+03  0.15942579659E+04  0.46999998093E+01 0.  1.
</event>
<event>
 5   0  0.4017247E-06  0.3375043E+04  0.7818609E-02  0.8144059E-01
       -2   -1    0    0    0  501  0.00000000000E+00  0.00000000000E+00  0.20009511487E+04  0.20009511487E+04  0.25500000920E-02 0. -1.
        2   -1    0    0  501    0  0.00000000000E+00  0.00000000000E+00 -0.14231879756E+04  0.14231879757E+04  0.25500000920E-02 0.  1.
    10030    2    1    2    0    0  0.00000000000E+00  0.00000000000E+00  0.57776317308E+03  0.34241391244E+04  0.33750434751E+04 0.  0.
        1    1    3    3  502    0  0.59841468510E+03  0.60097599377E+02  0.18885285418E+04  0.19819818137E+04  0.50400001928E-02 0. -1.
       -1    1    3    3    0  502 -0.59841468510E+03 -0.60097599377E+02 -0.13107653687E+04  0.14421573106E+04  0.50400001928E-02 0.  1.
</event>
<event>
 5   0  0.1405389E-06  0.2201983E+04  0.7818609E-02  0.8517603E-01
       -1   -1    0    0    0  501  0.00000000000E+00  0.00000000000E+00  0.13176498645E+04  0.13176498645E+04  0.50400001928E-02 0. -1.
        1   -1    0    0  501    0  0.00000000000E+00  0.00000000000E+00 -0.91995806201E+03  0.91995806203E+03  0.50400001928E-02 0.  1.
    10030    2    1    2    0    0  0.00000000000E+00  0.00000000000E+00  0.39769180249E+03  0.22376079265E+04  0.22019833022E+04 0.  0.
        1    1    3    3  502    0  0.32367062373E+03 -0.57910097237E+03 -0.69404019672E+03  0.96011062048E+03  0.50400001928E-02 0.  1.
       -1    1    3    3    0  502 -0.32367062373E+03  0.57910097237E+03  0.10917319992E+04  0.12774973061E+04  0.50400001928E-02 0. -1.
</event>
<event>
 5   0  0.3812379E-06  0.2092872E+04  0.7818609E-02  0.8564390E-01
       -2   -1    0    0    0  501  0.00000000000E+00  0.00000000000E+00  0.13191899553E+04  0.13191899553E+04  0.25500000920E-02 0. -1.
        2   -1    0    0  501    0  0.00000000000E+00  0.00000000000E+00 -0.83007612728E+03  0.83007612728E+03  0.25500000920E-02 0.  1.
    10030    2    1    2    0    0  0.00000000000E+00  0.00000000000E+00  0.48911382805E+03  0.21492660826E+04  0.20928717966E+04 0.  0.
        5    1    3    3  502    0  0.45971708596E+03 -0.31310033825E+02 -0.72027275513E+03  0.85506435379E+03  0.46999998093E+01 0.  1.
       -5    1    3    3    0  502 -0.45971708596E+03  0.31310033825E+02  0.12093865832E+04  0.12942017288E+04  0.46999998093E+01 0. -1.
</event>
<event>
 5   0  0.3920487E-06  0.3460647E+04  0.7818609E-02  0.8123180E-01
        2   -1    0    0  501    0  0.00000000000E+00  0.00000000000E+00  0.19696641295E+04  0.19696641295E+04  0.25500000920E-02 0.  1.
       -2   -1    0    0    0  501  0.00000000000E+00  0.00000000000E+00 -0.15200662615E+04  0.15200662615E+04  0.25500000920E-02 0. -1.
    10030    2    1    2    0    0  0.00000000000E+00  0.00000000000E+00  0.44959786804E+03  0.34897303910E+04  0.34606473323E+04 0.  0.
        4    1    3    3  502    0 -0.12858471757E+04 -0.11476405559E+04  0.70093298016E+02  0.17249337635E+04  0.12699999809E+01 0. -1.
       -4    1    3    3    0  502  0.12858471757E+04  0.11476405559E+04  0.37950457003E+03  0.17647966275E+04  0.12699999809E+01 0.  1.
</event>
<event>
 5   0  0.3920487E-06  0.3318573E+04  0.7818609E-02  0.8158186E-01
        2   -1    0    0  501    0  0.00000000000E+00  0.00000000000E+00  0.16983531544E+04  0.16983531544E+04  0.25500000920E-02 0.  1.
       -2   -1    0    0    0  501  0.00000000000E+00  0.00000000000E+00 -0.16211184824E+04  0.16211184824E+04  0.25500000920E-02 0. -1.
    10030    2    1    2    0    0  0.00000000000E+00  0.00000000000E+00  0.77234671996E+02  0.33194716368E+04  0.33185729995E+04 0.  0.
        4    1    3    3  502    0  0.67603668706E+03 -0.15133982155E+04  0.11499450886E+03  0.16615128982E+04  0.12699999809E+01 0.  1.
       -4    1    3    3    0  502 -0.67603668706E+03  0.15133982155E+04 -0.37759836866E+02  0.16579587386E+04  0.12699999809E+01 0. -1.
</event>
<event>
 5   0  0.1391878E-06  0.3320079E+04  0.7818609E-02  0.8157805E-01
       -1   -1    0    0    0  501  0.00000000000E+00  0.00000000000E+00  0.11520235189E+04  0.11520235189E+04  0.50400001928E-02 0.  1.
        1   -1    0    0  501    0  0.00000000000E+00  0.00000000000E+00 -0.23920794952E+04  0.23920794952E+04  0.50400001928E-02 0. -1.
    10030    2    1    2    0    0  0.00000000000E+00  0.00000000000E+00 -0.12400559763E+04  0.35441030141E+04  0.33200794192E+04 0.  0.
        2    1    3    3  502    0  0.98746343278E+03  0.97412057061E+03 -0.15935613844E+04  0.21126837915E+04  0.25500000920E-02 0. -1.
       -2    1    3    3    0  502 -0.98746343278E+03 -0.97412057061E+03  0.35350540805E+03  0.14314192226E+04  0.25500000920E-02 0.  1.
</event>
<event>
 5   0  0.1339825E-06  0.3392766E+04  0.7818609E-02  0.8139684E-01
        1   -1    0    0  501    0  0.00000000000E+00  0.00000000000E+00  0.23056225122E+04  0.23056225122E+04  0.50400001928E-02 0.  1.
       -1   -1    0    0    0  501  0.00000000000E+00  0.00000000000E+00 -0.12481296991E+04  0.12481296991E+04  0.50400001928E-02 0. -1.
    10030    2    1    2    0    0  0.00000000000E+00  0.00000000000E+00  0.10574928132E+04  0.35537522113E+04  0.33927663830E+04 0.  0.
        3    1    3    3  502    0  0.23852957247E+03  0.87545974887E+03 -0.97257822870E+03  0.13301257647E+04  0.10100000352E+00 0. -1.
       -3    1    3    3    0  502 -0.23852957247E+03 -0.87545974887E+03  0.20300710419E+04  0.22236264466E+04  0.10100000352E+00 0.  1.
</event>
<event>
 5   0  0.1352708E-06  0.2915049E+04  0.7818609E-02  0.8268414E-01
       -1   -1    0    0    0  501  0.00000000000E+00  0.00000000000E+00  0.24187225895E+04  0.24187225895E+04  0.50400001928E-02 0. -1.
        1   -1    0    0  501    0  0.00000000000E+00  0.00000000000E+00 -0.87830549435E+03  0.87830549437E+03  0.50400001928E-02 0.  1.
    10030    2    1    2    0    0  0.00000000000E+00  0.00000000000E+00  0.15404170952E+04  0.32970280839E+04  0.29150487747E+04 0.  0.
        5    1    3    3  502    0  0.11729194217E+04  0.37662180032E+03  0.16512357865E+04  0.20601421463E+04  0.46999998093E+01 0. -1.
       -5    1    3    3    0  502 -0.11729194217E+04 -0.37662180032E+03 -0.11081869130E+03  0.12368859376E+04  0.46999998093E+01 0.  1.
</event>
<event>
 5   0  0.3920487E-06  0.3351888E+04  0.7818609E-02  0.8149817E-01
        2   -1    0    0  501    0  0.00000000000E+00  0.00000000000E+00  0.17933760870E+04  0.17933760870E+04  0.25500000920E-02 0. -1.
       -2   -1    0    0    0  501  0.00000000000E+00  0.00000000000E+00 -0.15662014697E+04  0.15662014697E+04  0.25500000920E-02 0.  1.
    10030    2    1    2    0    0  0.00000000000E+00  0.00000000000E+00  0.22717461730E+03  0.33595775567E+04  0.33518879833E+04 0.  0.
        4    1    3    3  502    0 -0.45664047477E+03 -0.13983327696E+04 -0.69133136093E+03  0.16253601820E+04  0.12699999809E+01 0. -1.
       -4    1    3    3    0  502  0.45664047477E+03  0.13983327696E+04  0.91850597822E+03  0.17342173747E+04  0.12699999809E+01 0.  1.
</event>
<event>
 5   0  0.3812379E-06  0.2986907E+04  0.7818609E-02  0.8247479E-01
        2   -1    0    0  501    0  0.00000000000E+00  0.00000000000E+00  0.18390162690E+04  0.18390162690E+04  0.25500000920E-02 0.  1.
       -2   -1    0    0    0  501  0.00000000000E+00  0.00000000000E+00 -0.12128245578E+04  0.12128245578E+04  0.25500000920E-02 0. -1.
    10030    2    1    2    0    0  0.00000000000E+00  0.00000000000E+00  0.62619171125E+03  0.30518408268E+04  0.29869074932E+04 0.  0.
        5    1    3    3  502    0 -0.12104174033E+04  0.38763971350E+03  0.11143682751E+04  0.16903294295E+04  0.46999998093E+01 0.  1.
       -5    1    3    3    0  502  0.12104174033E+04 -0.38763971350E+03 -0.48817656383E+03  0.13615113973E+04  0.46999998093E+01 0. -1.
</event>
<event>
 5   0  0.4017247E-06  0.3279141E+04  0.7818609E-02  0.8168223E-01
       -2   -1    0    0    0  501  0.00000000000E+00  0.00000000000E+00  0.14693637364E+04  0.14693637364E+04  0.25500000920E-02 0.  1.
        2   -1    0    0  501    0  0.00000000000E+00  0.00000000000E+00 -0.18294933058E+04  0.18294933058E+04  0.25500000920E-02 0. -1.
    10030    2    1    2    0    0  0.00000000000E+00  0.00000000000E+00 -0.36012956934E+03  0.32988570422E+04  0.32791408141E+04 0.  0.
        1    1    3    3  502    0 -0.14636304987E+04  0.53688233380E+03 -0.69079257536E+03  0.17051836439E+04  0.50400001928E-02 0.  1.
       -1    1    3    3    0  502  0.14636304987E+04 -0.53688233380E+03  0.33066300603E+03  0.15936733984E+04  0.50400001928E-02 0. -1.
</event>
<event>
 5   0  0.4017247E-06  0.3283413E+04  0.7818609E-02  0.8167129E-01
        2   -1    0    0  501    0  0.00000000000E+00  0.00000000000E+00  0.15652590034E+04  0.15652590034E+04  0.25500000920E-02 0.  1.
       -2   -1    0    0    0  501  0.00000000000E+00  0.00000000000E+00 -0.17218875178E+04  0.17218875178E+04  0.25500000920E-02 0. -1.
    10030    2    1    2    0    0  0.00000000000E+00  0.00000000000E+00 -0.15662851436E+03  0.32871465212E+04  0.32834128221E+04 0.  0.
        1    1    3    3  502    0 -0.41095365962E+03 -0.11602580592E+04 -0.11658820530E+04  0.16953945369E+04  0.50400001928E-02 0. -1.
       -1    1    3    3    0  502  0.41095365962E+03  0.11602580592E+04  0.10092535386E+04  0.15917519843E+04  0.50400001928E-02 0.  1.
</event>
<event>
 5   0  0.1259875E-06  0.2113243E+04  0.7818609E-02  0.8555432E-01
       -3   -1    0    0    0  501  0.00000000000E+00  0.00000000000E+00  0.15968838155E+04  0.15968838187E+04  0.10100000352E+00 0.  1.
        3   -1    0    0  501    0  0.00000000000E+00  0.00000000000E+00 -0.69914212631E+03  0.69914213360E+03  0.10100000352E+00 0. -1.
    10030    2    1    2    0    0  0.00000000000E+00  0.00000000000E+00  0.89774168919E+03  0.22960259523E+04  0.21132427767E+04 0.  0.
        2    1    3    3  502    0 -0.72091150026E+03 -0.16559535152E+03 -0.37092017850E+03  0.82747627789E+03  0.25500000920E-02 0. -1.
       -2    1    3    3    0  502  0.72091150026E+03  0.16559535152E+03  0.12686618677E+04  0.14685496744E+04  0.25500000920E-02 0.  1.
</event>
<event>
 5   0  0.1259875E-06  0.2952325E+04  0.7818609E-02  0.8257477E-01
        3   -1    0    0  501    0  0.00000000000E+00  0.00000000000E+00  0.22911563637E+04  0.22911563659E+04  0.10100000352E+00 0. -1.
       -3   -1    0    0    0  501  0.00000000000E+00  0.00000000000E+00 -0.95107226297E+03  0.95107226833E+03  0.10100000352E+00 0.  1.
    10030    2    1    2    0    0  0.00000000000E+00  0.00000000000E+00  0.13400841007E+04  0.32422286342E+04  0.29523246975E+04 0.  0.
        4    1    3    3  502    0  0.13175119532E+04 -0.33818005900E+01  0.14011501412E+04  0.19232973026E+04  0.12699999809E+01 0. -1.
       -4    1    3    3    0  502 -0.13175119532E+04  0.33818005900E+01 -0.61066040470E+02  0.13189313316E+04  0.12699999809E+01 0.  1.
</event>
<event>
 5   0  0.3920487E-06  0.3326785E+04  0.7818609E-02  0.8156113E-01
        2   -1    0    0  501    0  0.00000000000E+00  0.00000000000E+00  0.30168024402E+04  0.30168024402E+04  0.25500000920E-02 0.  1.
       -2   -1    0    0    0  501  0.00000000000E+00  0.00000000000E+00 -0.91715486460E+03  0.91715486460E+03  0.25500000920E-02 0. -1.
    10030    2    1    2    0    0  0.00000000000E+00  0.00000000000E+00  0.20996475756E+04  0.39339573048E+04  0.33267852552E+04 0.  0.
        4    1    3    3  502    0  0.23811245154E+03  0.57813134008E+03 -0.77290734699E+03  0.99414323208E+03  0.12699999809E+01 0. -1.
       -4    1    3    3    0  502 -0.23811245154E+03 -0.57813134008E+03  0.28725549226E+04  0.29398140727E+04  0.12699999809E+01 0.  1.
</event>
<event>
 5   0  0.1282578E-06  0.3333047E+04  0.7818609E-02  0.8154537E-01
        1   -1    0    0  501    0  0.00000000000E+00  0.00000000000E+00  0.18510580973E+04  0.18510580973E+04  0.50400001928E-02 0. -1.
       -1   -1    0    0    0  501  0.00000000000E+00  0.00000000000E+00 -0.15003849966E+04  0.15003849966E+04  0.50400001928E-02 0.  1.
    10030    2    1    2    0    0  0.00000000000E+00  0.00000000000E+00  0.35067310073E+03  0.33514430939E+04  0.33330465325E+04 0.  0.
        4    1    3    3  502    0  0.65488440731E+03  0.15279230941E+04  0.29378151489E+03  0.16881148539E+04  0.12699999809E+01 0. -1.
       -4    1    3    3    0  502 -0.65488440731E+03 -0.15279230941E+04  0.56891585834E+02  0.16633282400E+04  0.12699999809E+01 0.  1.
</event>
<event>
 5   0  0.3920487E-06  0.3337454E+04  0.7818609E-02  0.8153430E-01
       -2   -1    0    0    0  501  0.00000000000E+00  0.00000000000E+00  0.14364589280E+04  0.14364589280E+04  0.25500000920E-02 0. -1.
        2   -1    0    0  501    0  0.00000000000E+00  0.00000000000E+00 -0.19385521720E+04  0.19385521720E+04  0.25500000920E-02 0.  1.
    10030    2    1    2    0    0  0.00000000000E+00  0.00000000000E+00 -0.50209324394E+03  0.33750111000E+04  0.33374544640E+04 0.  0.
        4    1    3    3  502    0 -0.14888427479E+04 -0.40986719948E+03  0.38853006907E+03  0.15923570820E+04  0.12699999809E+01 0. -1.
       -4    1    3    3    0  502  0.14888427479E+04  0.40986719948E+03 -0.89062331302E+03  0.17826540180E+04  0.12699999809E+01 0.  1.
</event>
<event>
 5   0  0.1339825E-06  0.2460854E+04  0.7818609E-02  0.8417066E-01
        1   -1    0    0  501    0  0.00000000000E+00  0.00000000000E+00  0.17655293998E+04  0.17655293999E+04  0.50400001928E-02 0.  1.
       -1   -1    0    0    0  501  0.00000000000E+00  0.00000000000E+00 -0.85750491863E+03  0.85750491865E+03  0.50400001928E-02 0. -1.
    10030    2    1    2    0    0  0.00000000000E+00  0.00000000000E+00  0.90802448122E+03  0.26230343185E+04  0.24608536278E+04 0.  0.
        3    1    3    3  502    0  0.60337026346E+03 -0.69668261812E+03  0.13229221770E+04  0.16123105910E+04  0.10100000352E+00 0.  1.
       -3    1    3    3    0  502 -0.60337026346E+03  0.69668261812E+03 -0.41489769577E+03  0.10107237275E+04  0.10100000352E+00 0. -1.
</event>
<event>
 5   0  0.1282578E-06  0.3344628E+04  0.7818609E-02  0.8151632E-01
        1   -1    0    0  501    0  0.00000000000E+00  0.00000000000E+00  0.18243516252E+04  0.18243516252E+04  0.50400001928E-02 0. -1.
       -1   -1    0    0    0  501  0.00000000000E+00  0.00000000000E+00 -0.15329464748E+04  0.15329464748E+04  0.50400001928E-02 0.  1.
    10030    2    1    2    0    0  0.00000000000E+00  0.00000000000E+00  0.29140515042E+03  0.33572980999E+04  0.33446275682E+04 0.  0.
        4    1    3    3  502    0 -0.88266180109E+02 -0.31279162502E+03  0.17923445081E+04  0.18215734868E+04  0.12699999809E+01 0. -1.
       -4    1    3    3    0  502  0.88266180109E+02  0.31279162502E+03 -0.15009393576E+04  0.15357246132E+04  0.12699999809E+01 0.  1.
</event>
<event>
 5   0  0.1391878E-06  0.3288041E+04  0.7818609E-02  0.8165945E-01
        1   -1    0    0  501    0  0.00000000000E+00  0.00000000000E+00  0.12681600484E+04  0.12681600484E+04  0.50400001928E-02 0. -1.
       -1   -1    0    0    0  501  0.00000000000E+00  0.00000000000E+00 -0.21312794742E+04  0.21312794742E+04  0.50400001928E-02 0.  1.
    10030    2    1    2    0    0  0.00000000000E+00  0.00000000000E+00 -0.86311942579E+03  0.33994395226E+04  0.32880410466E+04 0.  0.
        2    1    3    3  502    0  0.33541308727E+03 -0.32103608682E+03  0.11989699584E+04  0.12857274475E+04  0.25500000920E-02 0. -1.
       -2    1    3    3    0  502 -0.33541308727E+03  0.32103608682E+03 -0.20620893841E+04  0.21137120751E+04  0.25500000920E-02 0.  1.
</event>
<event>
 5   0  0.4017247E-06  0.3272055E+04  0.7818609E-02  0.8170043E-01
        2   -1    0    0  501    0  0.00000000000E+00  0.00000000000E+00  0.15126666821E+04  0.15126666821E+04  0.25500000920E-02 0.  1.
       -2   -1    0    0    0  501  0.00000000000E+00  0.00000000000E+00 -0.17694490321E+04  0.17694490321E+04  0.25500000920E-02 0. -1.
    10030    2    1    2    0    0  0.00000000000E+00  0.00000000000E+00 -0.25678234996E+03  0.32821157142E+04  0.32720553764E+04 0.  0.
        1    1    3    3  502    0 -0.55419520822E+03  0.30362060427E+03  0.13853108471E+04  0.15226305998E+04  0.50400001928E-02 0.  1.
       -1    1    3    3    0  502  0.55419520822E+03 -0.30362060427E+03 -0.16420931971E+04  0.17594851145E+04  0.50400001928E-02 0. -1.
</event>
<event>
 5   0  0.1405389E-06  0.3308320E+04  0.7818609E-02  0.8160782E-01
       -1   -1    0    0    0  501  0.00000000000E+00  0.00000000000E+00  0.17301946985E+04  0.17301946985E+04  0.50400001928E-02 0. -1.
        1   -1    0    0  501    0  0.00000000000E+00  0.00000000000E+00 -0.15814664197E+04  0.15814664197E+04  0.50400001928E-02 0.  1.
    10030    2    1    2    0    0  0.00000000000E+00  0.00000000000E+00  0.14872827877E+03  0.33116611183E+04  0.33083197036E+04 0.  0.
        1    1    3    3  502    0  0.25704235789E+03  0.95463637307E+03  0.14019175685E+04  0.17154516162E+04  0.50400001928E-02 0. -1.
       -1    1    3    3    0  502 -0.25704235789E+03 -0.95463637307E+03 -0.12531892897E+04  0.15962095021E+04  0.50400001928E-02 0.  1.
</event>
<event>
 5   0  0.4017247E-06  0.3228472E+04  0.7818609E-02  0.8181338E-01
        2   -1    0    0  501    0  0.00000000000E+00  0.00000000000E+00  0.97741686636E+03  0.97741686637E+03  0.25500000920E-02 0. -1.
       -2   -1    0    0    0  501  0.00000000000E+00  0.00000000000E+00 -0.26659642198E+04  0.26659642198E+04  0.25500000920E-02 0.  1.
    10030    2    1    2    0    0  0.00000000000E+00  0.00000000000E+00 -0.16885473535E+04  0.36433810862E+04  0.32284723283E+04 0.  0.
        1    1    3    3  502    0  0.14236625586E+04  0.57326418426E+03 -0.27966451373E+03  0.15600189569E+04  0.50400001928E-02 0. -1.
       -1    1    3    3    0  502 -0.14236625586E+04 -0.57326418426E+03 -0.14088828397E+04  0.20833621293E+04  0.50400001928E-02 0.  1.
</event>
<event>
 5   0  0.3671997E-06  0.3315163E+04  0.7818609E-02  0.8159048E-01
       -2   -1    0    0    0  501  0.00000000000E+00  0.00000000000E+00  0.10625306988E+04  0.10625306988E+04  0.25500000920E-02 0.  1.
        2   -1    0    0  501    0  0.00000000000E+00  0.00000000000E+00 -0.25858803471E+04  0.25858803471E+04  0.25500000920E-02 0. -1.
    10030    2    1    2    0    0  0.00000000000E+00  0.00000000000E+00 -0.15233496483E+04  0.36484110458E+04  0.33151634965E+04 0.  0.
        2    1    3    3  502    0  0.80847361929E+03  0.10367339424E+03  0.82674112862E+03  0.11609817654E+04  0.25500000920E-02 0.  1.
       -2    1    3    3    0  502 -0.80847361929E+03 -0.10367339424E+03 -0.23500907769E+04  0.24874292805E+04  0.25500000920E-02 0. -1.
</event>
<event>
 5   0  0.3920487E-06  0.3309035E+04  0.7818609E-02  0.8160600E-01
        2   -1    0    0  501    0  0.00000000000E+00  0.00000000000E+00  0.15817371936E+04  0.15817371936E+04  0.25500000920E-02 0. -1.
       -2   -1    0    0    0  501  0.00000000000E+00  0.00000000000E+00 -0.17306461211E+04  0.17306461211E+04  0.25500000920E-02 0.  1.
    10030    2    1    2    0    0  0.00000000000E+00  0.00000000000E+00 -0.14890892749E+03  0.33123833147E+04  0.33090345050E+04 0.  0.
        4    1    3    3  502    0  0.10900425843E+03 -0.16419275501E+04  0.97817691837E+02  0.16484471244E+04  0.12699999809E+01 0.  1.
       -4    1    3    3    0  502 -0.10900425843E+03  0.16419275501E+04 -0.24672661932E+03  0.16639361904E+04  0.12699999809E+01 0. -1.
</event>
<event>
 5   0  0.1282578E-06  0.3315855E+04  0.7818609E-02  0.8158873E-01
        1   -1    0    0  501    0  0.00000000000E+00  0.00000000000E+00  0.17507257763E+04  0.17507257763E+04  0.50400001928E-02 0. -1.
       -1   -1    0    0    0  501  0.00000000000E+00  0.00000000000E+00 -0.15700477123E+04  0.15700477123E+04  0.50400001928E-02 0.  1.
    10030    2    1    2    0    0  0.00000000000E+00  0.00000000000E+00  0.18067806404E+03  0.33207734886E+04  0.33158546409E+04 0.  0.
        4    1    3    3  502    0  0.85614629482E+03 -0.59282240097E+03  0.13823289377E+04  0.17306818836E+04  0.12699999809E+01 0. -1.
       -4    1    3    3    0  502 -0.85614629482E+03  0.59282240097E+03 -0.12016508737E+04  0.15900916050E+04  0.12699999809E+01 0.  1.
</event>
<event>
 5   0  0.1405389E-06  0.3441731E+04  0.7818609E-02  0.8127739E-01
       -1   -1    0    0    0  501  0.00000000000E+00  0.00000000000E+00  0.27614895477E+04  0.27614895477E+04  0.50400001928E-02 0. -1.
        1   -1    0    0  501    0  0.00000000000E+00  0.00000000000E+00 -0.10723845451E+04  0.10723845451E+04  0.50400001928E-02 0.  1.
    10030    2    1    2    0    0  0.00000000000E+00  0.00000000000E+00  0.16891050025E+04  0.38338740928E+04  0.34417313739E+04 0.  0.
        1    1    3    3  502    0 -0.58204724223E+03  0.30687538862E+03 -0.92672295027E+03  0.11365592474E+04  0.50400001928E-02 0.  1.
       -1    1    3    3    0  502  0.58204724223E+03 -0.30687538862E+03  0.26158279528E+04  0.26973148454E+04  0.50400001928E-02 0. -1.
</event>
<event>
 5   0  0.3920487E-06  0.3126762E+04  0.7818609E-02  0.8208432E-01
        2   -1    0    0  501    0  0.00000000000E+00  0.00000000000E+00  0.15137597251E+04  0.15137597251E+04  0.25500000920E-02 0.  1.
       -2   -1    0    0    0  501  0.00000000000E+00  0.00000000000E+00 -0.16146287302E+04  0.16146287302E+04  0.25500000920E-02 0. -1.
    10030    2    1    2    0    0  0.00000000000E+00  0.00000000000E+00 -0.10086900501E+03  0.31283884553E+04  0.31267618667E+04 0.  0.
        4    1    3    3  502    0  0.18491466650E+03 -0.15308527697E+04  0.20748768152E+03  0.15558780117E+04  0.12699999809E+01 0.  1.
       -4    1    3    3    0  502 -0.18491466650E+03  0.15308527697E+04 -0.30835668653E+03  0.15725104436E+04  0.12699999809E+01 0. -1.
</event>
<event>
 5   0  0.3812379E-06  0.3274445E+04  0.7818609E-02  0.8169428E-01
        2   -1    0    0  501    0  0.00000000000E+00  0.00000000000E+00  0.19276512039E+04  0.19276512039E+04  0.25500000920E-02 0. -1.
       -2   -1    0    0    0  501  0.00000000000E+00  0.00000000000E+00 -0.13905514172E+04  0.13905514172E+04  0.25500000920E-02 0.  1.
    10030    2    1    2    0    0  0.00000000000E+00  0.00000000000E+00  0.53709978665E+03  0.33182026211E+04  0.32744453658E+04 0.  0.
        5    1    3    3  502    0  0.84793264478E+03  0.47167078970E+03  0.16048886303E+04  0.18754073450E+04  0.46999998093E+01 0. -1.
       -5    1    3    3    0  502 -0.84793264478E+03 -0.47167078970E+03 -0.10677888437E+04  0.14427952761E+04  0.46999998093E+01 0.  1.
</event>
<event>
 5   0  0.1391878E-06  0.3263030E+04  0.7818609E-02  0.8172367E-01
        1   -1    0    0  501    0  0.00000000000E+00  0.00000000000E+00  0.18758022878E+04  0.18758022878E+04  0.50400001928E-02 0.  1.
       -1   -1    0    0    0  501  0.00000000000E+00  0.00000000000E+00 -0.14190418380E+04  0.14190418380E+04  0.50400001928E-02 0. -1.
    10030    2    1    2    0    0  0.00000000000E+00  0.00000000000E+00  0.45676044974E+03  0.32948441258E+04  0.32630304481E+04 0.  0.
        2    1    3    3  502    0 -0.10169835415E+04 -0.10926943411E+04  0.89328756651E+03  0.17395974026E+04  0.25500000920E-02 0.  1.
       -2    1    3    3    0  502  0.10169835415E+04  0.10926943411E+04 -0.43652711676E+03  0.15552467233E+04  0.25500000920E-02 0. -1.
</event>
<event>
 5   0  0.1339825E-06  0.3370527E+04  0.7818609E-02  0.8145178E-01
        1   -1    0    0  501    0  0.00000000000E+00  0.00000000000E+00  0.14381478998E+04  0.14381478998E+04  0.50400001928E-02 0.  1.
       -1   -1    0    0    0  501  0.00000000000E+00  0.00000000000E+00 -0.19748402025E+04  0.19748402025E+04  0.50400001928E-02 0. -1.
    10030    2    1    2    0    0  0.00000000000E+00  0.00000000000E+00 -0.53669230269E+03  0.34129881023E+04  0.33705265403E+04 0.  0.
        3    1    3    3  502    0 -0.78819734928E+03  0.10530524698E+04 -0.13351543072E+04  0.18742496098E+04  0.10100000352E+00 0. -1.
       -3    1    3    3    0  502  0.78819734928E+03 -0.10530524698E+04  0.79846200450E+03  0.15387384926E+04  0.10100000352E+00 0.  1.
</event>
<event>
 5   0  0.3671997E-06  0.3310236E+04  0.7818609E-02  0.8160296E-01
       -2   -1    0    0    0  501  0.00000000000E+00  0.00000000000E+00  0.13083420337E+04  0.13083420337E+04  0.25500000920E-02 0.  1.
        2   -1    0    0  501    0  0.00000000000E+00  0.00000000000E+00 -0.20938071832E+04  0.20938071832E+04  0.25500000920E-02 0. -1.
    10030    2    1    2    0    0  0.00000000000E+00  0.00000000000E+00 -0.78546514954E+03  0.34021492169E+04  0.33102362141E+04 0.  0.
        2    1    3    3  502    0 -0.32645001569E+03 -0.12675845153E+04 -0.14338125698E+04  0.19414321007E+04  0.25500000920E-02 0. -1.
       -2    1    3    3    0  502  0.32645001569E+03  0.12675845153E+04  0.64834742028E+03  0.14607171162E+04  0.25500000920E-02 0.  1.
</event>
<event>
 5   0  0.3920487E-06  0.2837733E+04  0.7818609E-02  0.8291648E-01
       -2   -1    0    0    0  501  0.00000000000E+00  0.00000000000E+00  0.81902570953E+03  0.81902570954E+03  0.25500000920E-02 0.  1.
        2   -1    0    0  501    0  0.00000000000E+00  0.00000000000E+00 -0.24580212677E+04  0.24580212677E+04  0.25500000920E-02 0. -1.
    10030    2    1    2    0    0  0.00000000000E+00  0.00000000000E+00 -0.16389955582E+04  0.32770469772E+04  0.28377333298E+04 0.  0.
        4    1    3    3  502    0 -0.97244835754E+03  0.79531114205E+03 -0.15811529585E+04  0.20194607973E+04  0.12699999809E+01 0. -1.
       -4    1    3    3    0  502  0.97244835754E+03 -0.79531114205E+03 -0.57842599676E+02  0.12575861799E+04  0.12699999809E+01 0.  1.
</event>
<event>
 5   0  0.1405389E-06  0.3296422E+04  0.7818609E-02  0.8163806E-01
       -1   -1    0    0    0  501  0.00000000000E+00  0.00000000000E+00  0.15125792664E+04  0.15125792664E+04  0.50400001928E-02 0.  1.
        1   -1    0    0  501    0  0.00000000000E+00  0.00000000000E+00 -0.17960048847E+04  0.17960048847E+04  0.50400001928E-02 0. -1.
    10030    2    1    2    0    0  0.00000000000E+00  0.00000000000E+00 -0.28342561831E+03  0.33085841512E+04  0.32964221520E+04 0.  0.
        1    1    3    3  502    0 -0.14946968999E+04  0.17839088540E+03  0.53207433540E+03  0.15965729639E+04  0.50400001928E-02 0.  1.
       -1    1    3    3    0  502  0.14946968999E+04 -0.17839088540E+03 -0.81549995371E+03  0.17120111872E+04  0.50400001928E-02 0. -1.
</event>
<event>
 5   0  0.1405389E-06  0.3327793E+04  0.7818609E-02  0.8155859E-01
       -1   -1    0    0    0  501  0.00000000000E+00  0.00000000000E+00  0.14538076268E+04  0.14538076269E+04  0.50400001928E-02 0. -1.
        1   -1    0    0  501    0  0.00000000000E+00  0.00000000000E+00 -0.19043449854E+04  0.19043449854E+04  0.50400001928E-02 0.  1.
    10030    2    1    2    0    0  0.00000000000E+00  0.00000000000E+00 -0.45053735851E+03  0.33581526122E+04  0.33277928204E+04 0.  0.
        1    1    3    3  502    0 -0.81949638886E+02 -0.37790932602E+03 -0.18583716207E+04  0.18981770947E+04  0.50400001928E-02 0.  1.
       -1    1    3    3    0  502  0.81949638886E+02  0.37790932602E+03  0.14078342622E+04  0.14599755176E+04  0.50400001928E-02 0. -1.
</event>
<event>
 5   0  0.3896210E-06  0.3307029E+04  0.7818609E-02  0.8161109E-01
       -2   -1    0    0    0  501  0.00000000000E+00  0.00000000000E+00  0.22720968205E+04  0.22720968205E+04  0.25500000920E-02 0.  1.
        2   -1    0    0  501    0  0.00000000000E+00  0.00000000000E+00 -0.12033421178E+04  0.12033421178E+04  0.25500000920E-02 0. -1.
    10030    2    1    2    0    0  0.00000000000E+00  0.00000000000E+00  0.10687547027E+04  0.34754389383E+04  0.33070287570E+04 0.  0.
        3    1    3    3  502    0  0.96371513542E+03  0.62314236879E+03 -0.71664559840E+03  0.13530093118E+04  0.10100000352E+00 0. -1.
       -3    1    3    3    0  502 -0.96371513542E+03 -0.62314236879E+03  0.17854003011E+04  0.21224296265E+04  0.10100000352E+00 0.  1.
</event>
<event>
 5   0  0.1282578E-06  0.2021218E+04  0.7818609E-02  0.8596764E-01
       -1   -1    0    0    0  501  0.00000000000E+00  0.00000000000E+00  0.10282798302E+04  0.10282798302E+04  0.50400001928E-02 0.  1.
        1   -1    0    0  501    0  0.00000000000E+00  0.00000000000E+00 -0.99324191823E+03  0.99324191825E+03  0.50400001928E-02 0. -1.
    10030    2    1    2    0    0  0.00000000000E+00  0.00000000000E+00  0.35037911979E+02  0.20215217485E+04  0.20212180793E+04 0.  0.
        4    1    3    3  502    0  0.28878033969E+03 -0.33788809646E+03 -0.89023327502E+03  0.99502730976E+03  0.12699999809E+01 0. -1.
       -4    1    3    3    0  502 -0.28878033969E+03  0.33788809646E+03  0.92527118699E+03  0.10264944387E+04  0.12699999809E+01 0.  1.
</event>
<event>
 5   0  0.1405389E-06  0.3104787E+04  0.7818609E-02  0.8214425E-01
       -1   -1    0    0    0  501  0.00000000000E+00  0.00000000000E+00  0.82696775985E+03  0.82696775986E+03  0.50400001928E-02 0. -1.
        1   -1    0    0  501    0  0.00000000000E+00  0.00000000000E+00 -0.29141716630E+04  0.29141716630E+04  0.50400001928E-02 0.  1.
    10030    2    1    2    0    0  0.00000000000E+00  0.00000000000E+00 -0.20872039031E+04  0.37411394228E+04  0.31047872790E+04 0.  0.
        1    1    3    3  502    0 -0.16099161370E+03  0.11362949176E+01  0.81688125226E+03  0.83259508236E+03  0.50400001928E-02 0. -1.
       -1    1    3    3    0  502  0.16099161370E+03 -0.11362949176E+01 -0.29040851554E+04  0.29085443405E+04  0.50400001928E-02 0.  1.
</event>
<event>
 5   0  0.1405389E-06  0.3270102E+04  0.7818609E-02  0.8170545E-01
       -1   -1    0    0    0  501  0.00000000000E+00  0.00000000000E+00  0.15217152459E+04  0.15217152459E+04  0.50400001928E-02 0. -1.
        1   -1    0    0  501    0  0.00000000000E+00  0.00000000000E+00 -0.17568275814E+04  0.17568275814E+04  0.50400001928E-02 0.  1.
    10030    2    1    2    0    0  0.00000000000E+00  0.00000000000E+00 -0.23511233549E+03  0.32785428273E+04  0.32701017202E+04 0.  0.
        1    1    3    3  502    0  0.57426390864E+02 -0.11129010202E+04  0.10820041143E+04  0.15532480080E+04  0.50400001928E-02 0. -1.
       -1    1    3    3    0  502 -0.57426390864E+02  0.11129010202E+04 -0.13171164498E+04  0.17252948193E+04  0.50400001928E-02 0.  1.
</event>
<event>
 5   0  0.1339825E-06  0.3230547E+04  0.7818609E-02  0.8180796E-01
        1   -1    0    0  501    0  0.00000000000E+00  0.00000000000E+00  0.15718484543E+04  0.15718484543E+04  0.50400001928E-02 0. -1.
       -1   -1    0    0    0  501  0.00000000000E+00  0.00000000000E+00 -0.16598977978E+04  0.16598977978E+04  0.50400001928E-02 0.  1.
    10030    2    1    2    0    0  0.00000000000E+00  0.00000000000E+00 -0.88049343554E+02  0.32317462521E+04  0.32305465716E+04 0.  0.
        3    1    3    3  502    0  0.51986563124E+03  0.13570407612E+04 -0.74947295835E+03  0.16350931556E+04  0.10100000352E+00 0.  1.
       -3    1    3    3    0  502 -0.51986563124E+03 -0.13570407612E+04  0.66142361479E+03  0.15966530965E+04  0.10100000352E+00 0. -1.
</event>
<event>
 5   0  0.3812379E-06  0.3268990E+04  0.7818609E-02  0.8170831E-01
        2   -1    0    0  501    0  0.00000000000E+00  0.00000000000E+00  0.76840467005E+03  0.76840467006E+03  0.25500000920E-02 0. -1.
       -2   -1    0    0    0  501  0.00000000000E+00  0.00000000000E+00 -0.34767798872E+04  0.34767798872E+04  0.25500000920E-02 0.  1.
    10030    2    1    2    0    0  0.00000000000E+00  0.00000000000E+00 -0.27083752172E+04  0.42451845573E+04  0.32689899982E+04 0.  0.
        5    1    3    3  502    0  0.10943989405E+03 -0.15584771392E+04 -0.73041095774E+03  0.17246304941E+04  0.46999998093E+01 0. -1.
       -5    1    3    3    0  502 -0.10943989405E+03  0.15584771392E+04 -0.19779642594E+04  0.25205540632E+04  0.46999998093E+01 0.  1.
</event>
<event>
 5   0  0.1282578E-06  0.2072326E+04  0.7818609E-02  0.8573533E-01
       -1   -1    0    0    0  501  0.00000000000E+00  0.00000000000E+00  0.91095405744E+03  0.91095405745E+03  0.50400001928E-02 0. -1.
        1   -1    0    0  501    0  0.00000000000E+00  0.00000000000E+00 -0.11785811911E+04  0.11785811911E+04  0.50400001928E-02 0.  1.
    10030    2    1    2    0    0  0.00000000000E+00  0.00000000000E+00 -0.26762713369E+03  0.20895352486E+04  0.20723255710E+04 0.  0.
        4    1    3    3  502    0  0.83685913369E+03  0.99966131457E+01  0.48215946330E+03  0.96587395806E+03  0.12699999809E+01 0. -1.
       -4    1    3    3    0  502 -0.83685913369E+03 -0.99966131457E+01 -0.74978659698E+03  0.11236612905E+04  0.12699999809E+01 0.  1.
</event>
<event>
 5   0  0.1405389E-06  0.3240188E+04  0.7818609E-02  0.8178284E-01
       -1   -1    0    0    0  501  0.00000000000E+00  0.00000000000E+00  0.14174922863E+04  0.14174922863E+04  0.50400001928E-02 0.  1.
        1   -1    0    0  501    0  0.00000000000E+00  0.00000000000E+00 -0.18516536415E+04  0.18516536415E+04  0.50400001928E-02 0. -1.
    10030    2    1    2    0    0  0.00000000000E+00  0.00000000000E+00 -0.43416135519E+03  0.32691459278E+04  0.32401881141E+04 0.  0.
        1    1    3    3  502    0 -0.47986041879E+03 -0.72548443423E+03  0.11619230152E+04  0.14514333533E+04  0.50400001928E-02 0.  1.
       -1    1    3    3    0  502  0.47986041879E+03  0.72548443423E+03 -0.15960843704E+04  0.18177125744E+04  0.50400001928E-02 0. -1.
</event>
<event>
 5   0  0.1339825E-06  0.3275108E+04  0.7818609E-02  0.8169258E-01
       -1   -1    0    0    0  501  0.00000000000E+00  0.00000000000E+00  0.14752721707E+04  0.14752721707E+04  0.50400001928E-02 0.  1.
        1   -1    0    0  501    0  0.00000000000E+00  0.00000000000E+00 -0.18176872383E+04  0.18176872383E+04  0.50400001928E-02 0. -1.
    10030    2    1    2    0    0  0.00000000000E+00  0.00000000000E+00 -0.34241506764E+03  0.32929594090E+04  0.32751081800E+04 0.  0.
        3    1    3    3  502    0 -0.68325308553E+02  0.33197400949E+03  0.14396197792E+04  0.14789794487E+04  0.10100000352E+00 0.  1.
       -3    1    3    3    0  502  0.68325308553E+02 -0.33197400949E+03 -0.17820348469E+04  0.18139799603E+04  0.10100000352E+00 0. -1.
</event>
<event>
 5   0  0.3812379E-06  0.3147621E+04  0.7818609E-02  0.8202789E-01
       -2   -1    0    0    0  501  0.00000000000E+00  0.00000000000E+00  0.13487083432E+04  0.13487083432E+04  0.25500000920E-02 0. -1.
        2   -1    0    0  501    0  0.00000000000E+00  0.00000000000E+00 -0.18364823530E+04  0.18364823530E+04  0.25500000920E-02 0.  1.
    10030    2    1    2    0    0  0.00000000000E+00  0.00000000000E+00 -0.48777400983E+03  0.31851906962E+04  0.31476207343E+04 0.  0.
        5    1    3    3  502    0 -0.83222097617E+01 -0.15690628447E+04 -0.36711701130E+03  0.16114665556E+04  0.46999998093E+01 0. -1.
       -5    1    3    3    0  502  0.83222097617E+01  0.15690628447E+04 -0.12065699853E+03  0.15737241407E+04  0.46999998093E+01 0.  1.
</event>
<event>
 5   0  0.3920487E-06  0.3298354E+04  0.7818609E-02  0.8163314E-01
        2   -1    0    0  501    0  0.00000000000E+00  0.00000000000E+00  0.24404182366E+04  0.24404182366E+04  0.25500000920E-02 0.  1.
       -2   -1    0    0    0  501  0.00000000000E+00  0.00000000000E+00 -0.11144750994E+04  0.11144750994E+04  0.25500000920E-02 0. -1.
    10030    2    1    2    0    0  0.00000000000E+00  0.00000000000E+00  0.13259431372E+04  0.35548933360E+04  0.32983543514E+04 0.  0.
        4    1    3    3  502    0  0.68219437601E+03 -0.77668271990E+03 -0.72194512194E+03  0.12608852390E+04  0.12699999809E+01 0. -1.
       -4    1    3    3    0  502 -0.68219437601E+03  0.77668271990E+03  0.20478882591E+04  0.22940080969E+04  0.12699999809E+01 0.  1.
</event>
<event>
 5   0  0.1352708E-06  0.2387394E+04  0.7818609E-02  0.8444238E-01
        1   -1    0    0  501    0  0.00000000000E+00  0.00000000000E+00  0.15701973639E+04  0.15701973639E+04  0.50400001928E-02 0.  1.
       -1   -1    0    0    0  501  0.00000000000E+00  0.00000000000E+00 -0.90747341278E+03  0.90747341279E+03  0.50400001928E-02 0. -1.
    10030    2    1    2    0    0  0.00000000000E+00  0.00000000000E+00  0.66272395115E+03  0.24776707767E+04  0.23873938599E+04 0.  0.
        5    1    3    3  502    0  0.24162956682E+03  0.92914195950E+03  0.10675523236E+04  0.14357505640E+04  0.46999998093E+01 0.  1.
       -5    1    3    3    0  502 -0.24162956682E+03 -0.92914195950E+03 -0.40482837246E+03  0.10419202127E+04  0.46999998093E+01 0. -1.
</event>
<event>
 5   0  0.3920487E-06  0.3220680E+04  0.7818609E-02  0.8183377E-01
        2   -1    0    0  501    0  0.00000000000E+00  0.00000000000E+00  0.16723950983E+04  0.16723950983E+04  0.25500000920E-02 0. -1.
       -2   -1    0    0    0  501  0.00000000000E+00  0.00000000000E+00 -0.15505876966E+04  0.15505876966E+04  0.25500000920E-02 0.  1.
    10030    2    1    2    0    0  0.00000000000E+00  0.00000000000E+00  0.12180740170E+03  0.32229827950E+04  0.32206802160E+04 0.  0.
        4    1    3    3  502    0 -0.84735723391E+03  0.10905185595E+04  0.88971598894E+03  0.16428150122E+04  0.12699999809E+01 0. -1.
       -4    1    3    3    0  502  0.84735723391E+03 -0.10905185595E+04 -0.76790858723E+03  0.15801677828E+04  0.12699999809E+01 0.  1.
</event>
<event>
 5   0  0.1339825E-06  0.3235130E+04  0.7818609E-02  0.8179601E-01
       -1   -1    0    0    0  501  0.00000000000E+00  0.00000000000E+00  0.99609342029E+03  0.99609342030E+03  0.50400001928E-02 0. -1.
        1   -1    0    0  501    0  0.00000000000E+00  0.00000000000E+00 -0.26267778271E+04  0.26267778271E+04  0.50400001928E-02 0.  1.
    10030    2    1    2    0    0  0.00000000000E+00  0.00000000000E+00 -0.16306844068E+04  0.36228712474E+04  0.32351297409E+04 0.  0.
        3    1    3    3  502    0  0.10262618773E+04 -0.76914413625E+03  0.28856294517E+03  0.13145587574E+04  0.10100000352E+00 0. -1.
       -3    1    3    3    0  502 -0.10262618773E+04  0.76914413625E+03 -0.19192473520E+04  0.23083124900E+04  0.10100000352E+00 0.  1.
</event>
<event>
 5   0  0.3671997E-06  0.3401356E+04  0.7818609E-02  0.8137574E-01
       -2   -1    0    0    0  501  0.00000000000E+00  0.00000000000E+00  0.18288285866E+04  0.18288285866E+04  0.25500000920E-02 0. -1.
        2   -1    0    0  501    0  0.00000000000E+00  0.00000000000E+00 -0.15815068439E+04  0.15815068439E+04  0.25500000920E-02 0.  1.
    10030    2    1    2    0    0  0.00000000000E+00  0.00000000000E+00  0.24732174275E+03  0.34103354305E+04  0.34013555686E+04 0.  0.
        2    1    3    3  502    0 -0.10869074640E+04 -0.59573605191E+03  0.12912246567E+04  0.17898408848E+04  0.25500000920E-02 0. -1.
       -2    1    3    3    0  502  0.10869074640E+04  0.59573605191E+03 -0.10439029139E+04  0.16204945457E+04  0.25500000920E-02 0.  1.
</event>
<event>
 5   0  0.4017247E-06  0.3215925E+04  0.7818609E-02  0.8184624E-01
       -2   -1    0    0    0  501  0.00000000000E+00  0.00000000000E+00  0.11404804958E+04  0.11404804958E+04  0.25500000920E-02 0.  1.
        2   -1    0    0  501    0  0.00000000000E+00  0.00000000000E+00 -0.22670644560E+04  0.22670644560E+04  0.25500000920E-02 0. -1.
    10030    2    1    2    0    0  0.00000000000E+00  0.00000000000E+00 -0.11265839601E+04  0.34075449518E+04  0.32159246228E+04 0.  0.
        1    1    3    3  502    0 -0.44665429944E+03 -0.11046291742E+03 -0.21958232792E+04  0.22435110860E+04  0.50400001928E-02 0. -1.
       -1    1    3    3    0  502  0.44665429944E+03  0.11046291742E+03  0.10692393191E+04  0.11640338658E+04  0.50400001928E-02 0.  1.
</event>
<event>
 5   0  0.1282578E-06  0.2819529E+04  0.7818609E-02  0.8297231E-01
        1   -1    0    0  501    0  0.00000000000E+00  0.00000000000E+00  0.87367655191E+03  0.87367655192E+03  0.50400001928E-02 0.  1.
       -1   -1    0    0    0  501  0.00000000000E+00  0.00000000000E+00 -0.22747966245E+04  0.22747966245E+04  0.50400001928E-02 0. -1.
    10030    2    1    2    0    0  0.00000000000E+00  0.00000000000E+00 -0.14011200726E+04  0.31484731764E+04  0.28195293729E+04 0.  0.
        4    1    3    3  502    0  0.11896839755E+04  0.68205025756E+03 -0.33546936549E+03  0.14117654987E+04  0.12699999809E+01 0.  1.
       -4    1    3    3    0  502 -0.11896839755E+04 -0.68205025756E+03 -0.10656507071E+04  0.17367076777E+04  0.12699999809E+01 0. -1.
</event>
<event>
 5   0  0.4017247E-06  0.3466135E+04  0.7818609E-02  0.8121863E-01
       -2   -1    0    0    0  501  0.00000000000E+00  0.00000000000E+00  0.19650492637E+04  0.19650492637E+04  0.25500000920E-02 0.  1.
        2   -1    0    0  501    0  0.00000000000E+00  0.00000000000E+00 -0.15284720972E+04  0.15284720972E+04  0.25500000920E-02 0. -1.
    10030    2    1    2    0    0  0.00000000000E+00  0.00000000000E+00  0.43657716651E+03  0.34935213609E+04  0.34661350055E+04 0.  0.
        1    1    3    3  502    0  0.53779665863E+03 -0.15866150836E+04  0.66558585738E+03  0.18026583712E+04  0.50400001928E-02 0. -1.
       -1    1    3    3    0  502 -0.53779665863E+03  0.15866150836E+04 -0.22900869087E+03  0.16908629897E+04  0.50400001928E-02 0.  1.
</event>
<event>
 5   0  0.1391878E-06  0.3313858E+04  0.7818609E-02  0.8159378E-01
        1   -1    0    0  501    0  0.00000000000E+00  0.00000000000E+00  0.18247966212E+04  0.18247966212E+04  0.50400001928E-02 0. -1.
       -1   -1    0    0    0  501  0.00000000000E+00  0.00000000000E+00 -0.15045035194E+04  0.15045035194E+04  0.50400001928E-02 0.  1.
    10030    2    1    2    0    0  0.00000000000E+00  0.00000000000E+00  0.32029310174E+03  0.33293001406E+04  0.33138575339E+04 0.  0.
        2    1    3    3  502    0 -0.85533278219E+03 -0.11905180267E+04  0.93607039281E+03  0.17392973065E+04  0.25500000920E-02 0. -1.
       -2    1    3    3    0  502  0.85533278219E+03  0.11905180267E+04 -0.61577729107E+03  0.15900028341E+04  0.25500000920E-02 0.  1.
</event>
<event>
 5   0  0.3920487E-06  0.3264927E+04  0.7818609E-02  0.8171877E-01
        2   -1    0    0  501    0  0.00000000000E+00  0.00000000000E+00  0.13082079857E+04  0.13082079857E+04  0.25500000920E-02 0. -1.
       -2   -1    0    0    0  501  0.00000000000E+00  0.00000000000E+00 -0.20370896623E+04  0.20370896623E+04  0.25500000920E-02 0.  1.
    10030    2    1    2    0    0  0.00000000000E+00  0.00000000000E+00 -0.72888167659E+03  0.33452976480E+04  0.32649269296E+04 0.  0.
        4    1    3    3  502    0  0.78840315897E+02  0.37018781570E+03  0.12626295167E+04  0.13181387346E+04  0.12699999809E+01 0. -1.
       -4    1    3    3    0  502 -0.78840315897E+02 -0.37018781570E+03 -0.19915111933E+04  0.20271589134E+04  0.12699999809E+01 0.  1.
</event>
<event>
 5   0  0.3896210E-06  0.3350298E+04  0.7818609E-02  0.8150214E-01
       -2   -1    0    0    0  501  0.00000000000E+00  0.00000000000E+00  0.17977865188E+04  0.17977865188E+04  0.25500000920E-02 0. -1.
        2   -1    0    0  501    0  0.00000000000E+00  0.00000000000E+00 -0.15608770690E+04  0.15608770690E+04  0.25500000920E-02 0.  1.
    10030    2    1    2    0    0  0.00000000000E+00  0.00000000000E+00  0.23690944983E+03  0.33586635878E+04  0.33502977493E+04 0.  0.
        3    1    3    3  502    0 -0.18342047313E+03  0.10080130381E+04 -0.12101433724E+04  0.15856167087E+04  0.10100000352E+00 0.  1.
       -3    1    3    3    0  502  0.18342047313E+03 -0.10080130381E+04  0.14470528222E+04  0.17730468791E+04  0.10100000352E+00 0. -1.
</event>
<event>
 5   0  0.1391878E-06  0.3246253E+04  0.7818609E-02  0.8176708E-01
        1   -1    0    0  501    0  0.00000000000E+00  0.00000000000E+00  0.12331284653E+04  0.12331284653E+04  0.50400001928E-02 0.  1.
       -1   -1    0    0    0  501  0.00000000000E+00  0.00000000000E+00 -0.21364681165E+04  0.21364681165E+04  0.50400001928E-02 0. -1.
    10030    2    1    2    0    0  0.00000000000E+00  0.00000000000E+00 -0.90333965122E+03  0.33695965818E+04  0.32462530091E+04 0.  0.
        2    1    3    3  502    0 -0.11835167615E+04 -0.10607473479E+04 -0.79380363782E+03  0.17765193712E+04  0.25500000920E-02 0.  1.
       -2    1    3    3    0  502  0.11835167615E+04  0.10607473479E+04 -0.10953601341E+03  0.15930772106E+04  0.25500000920E-02 0. -1.
</event>
<event>
 5   0  0.1282578E-06  0.3293609E+04  0.7818609E-02  0.8164523E-01
        1   -1    0    0  501    0  0.00000000000E+00  0.00000000000E+00  0.20305061254E+04  0.20305061254E+04  0.50400001928E-02 0. -1.
       -1   -1    0    0    0  501  0.00000000000E+00  0.00000000000E+00 -0.13356104830E+04  0.13356104830E+04  0.50400001928E-02 0.  1.
    10030    2    1    2    0    0  0.00000000000E+00  0.00000000000E+00  0.69489564249E+03  0.33661166084E+04  0.32936091249E+04 0.  0.
        4    1    3    3  502    0  0.54160317633E+03 -0.10557692609E+04  0.15145065684E+04  0.19239840154E+04  0.12699999809E+01 0. -1.
       -4    1    3    3    0  502 -0.54160317633E+03  0.10557692609E+04 -0.81961092596E+03  0.14421325930E+04  0.12699999809E+01 0.  1.
</event>
<event>
 5   0  0.1339825E-06  0.2853619E+04  0.7818609E-02  0.8286812E-01
        1   -1    0    0  501    0  0.00000000000E+00  0.00000000000E+00  0.23122448579E+04  0.23122448579E+04  0.50400001928E-02 0.  1.
       -1   -1    0    0    0  501  0.00000000000E+00  0.00000000000E+00 -0.88043684851E+03  0.88043684852E+03  0.50400001928E-02 0. -1.
    10030    2    1    2    0    0  0.00000000000E+00  0.00000000000E+00  0.14318080094E+04  0.31926817064E+04  0.28536191587E+04 0.  0.
        3    1    3    3  502    0 -0.76980138387E+03 -0.11491067354E+04  0.11078820146E+04  0.17721295179E+04  0.10100000352E+00 0.  1.
       -3    1    3    3    0  502  0.76980138387E+03  0.11491067354E+04  0.32392599478E+03  0.14205521885E+04  0.10100000352E+00 0. -1.
</event>
<event>
 5   0  0.1339825E-06  0.3362400E+04  0.7818609E-02  0.8147197E-01
       -1   -1    0    0    0  501  0.00000000000E+00  0.00000000000E+00  0.16205315390E+04  0.16205315390E+04  0.50400001928E-02 0. -1.
        1   -1    0    0  501    0  0.00000000000E+00  0.00000000000E+00 -0.17441396160E+04  0.17441396160E+04  0.50400001928E-02 0.  1.
    10030    2    1    2    0    0  0.00000000000E+00  0.00000000000E+00 -0.12360807707E+03  0.33646711550E+04  0.33623998906E+04 0.  0.
        3    1    3    3  502    0  0.10177788654E+04  0.54189553892E+03  0.11625045932E+04  0.16373580957E+04  0.10100000352E+00 0. -1.
       -3    1    3    3    0  502 -0.10177788654E+04 -0.54189553892E+03 -0.12861126703E+04  0.17273130593E+04  0.10100000352E+00 0.  1.
</event>
<event>
 5   0  0.4017247E-06  0.3283970E+04  0.7818609E-02  0.8166986E-01
       -2   -1    0    0    0  501  0.00000000000E+00  0.00000000000E+00  0.14806599493E+04  0.14806599493E+04  0.25500000920E-02 0. -1.
        2   -1    0    0  501    0  0.00000000000E+00  0.00000000000E+00 -0.18208868822E+04  0.18208868822E+04  0.25500000920E-02 0.  1.
    10030    2    1    2    0    0  0.00000000000E+00  0.00000000000E+00 -0.34022693288E+03  0.33015468315E+04  0.32839697189E+04 0.  0.
        1    1    3    3  502    0 -0.49548553324E+03 -0.10490507903E+04 -0.13382710053E+04  0.17711529460E+04  0.50400001928E-02 0.  1.
       -1    1    3    3    0  502  0.49548553324E+03  0.10490507903E+04  0.99804407243E+03  0.15303938855E+04  0.50400001928E-02 0. -1.
</event>
<event>
 5   0  0.3812379E-06  0.3090544E+04  0.7818609E-02  0.8218338E-01
       -2   -1    0    0    0  501  0.00000000000E+00  0.00000000000E+00  0.13970632268E+04  0.13970632269E+04  0.25500000920E-02 0.  1.
        2   -1    0    0  501    0  0.00000000000E+00  0.00000000000E+00 -0.17092041803E+04  0.17092041803E+04  0.25500000920E-02 0. -1.
    10030    2    1    2    0    0  0.00000000000E+00  0.00000000000E+00 -0.31214095341E+03  0.31062674071E+04  0.30905444876E+04 0.  0.
        5    1    3    3  502    0 -0.11304521418E+04  0.28575558954E+03  0.86312282424E+03  0.14507175471E+04  0.46999998093E+01 0.  1.
       -5    1    3    3    0  502  0.11304521418E+04 -0.28575558954E+03 -0.11752637777E+04  0.16555498600E+04  0.46999998093E+01 0. -1.
</event>
<event>
 5   0  0.3671997E-06  0.2326914E+04  0.7818609E-02  0.8467384E-01
        2   -1    0    0  501    0  0.00000000000E+00  0.00000000000E+00  0.20541177419E+04  0.20541177419E+04  0.25500000920E-02 0. -1.
       -2   -1    0    0    0  501  0.00000000000E+00  0.00000000000E+00 -0.65898492495E+03  0.65898492496E+03  0.25500000920E-02 0.  1.
    10030    2    1    2    0    0  0.00000000000E+00  0.00000000000E+00  0.13951328170E+04  0.27131026669E+04  0.23269143740E+04 0.  0.
        2    1    3    3  502    0  0.37634078296E+03 -0.90572649547E+03  0.14272596112E+04  0.17317744851E+04  0.25500000920E-02 0. -1.
       -2    1    3    3    0  502 -0.37634078296E+03  0.90572649547E+03 -0.32126794187E+02  0.98132818181E+03  0.25500000920E-02 0.  1.
</event>
<event>
 5   0  0.1405389E-06  0.3392792E+04  0.7818609E-02  0.8139678E-01
       -1   -1    0    0    0  501  0.00000000000E+00  0.00000000000E+00  0.11589416432E+04  0.11589416432E+04  0.50400001928E-02 0.  1.
        1   -1    0    0  501    0  0.00000000000E+00  0.00000000000E+00 -0.24830924681E+04  0.24830924681E+04  0.50400001928E-02 0. -1.
    10030    2    1    2    0    0  0.00000000000E+00  0.00000000000E+00 -0.13241508249E+04  0.36420341113E+04  0.33927919271E+04 0.  0.
        1    1    3    3  502    0  0.65812307579E+02 -0.27036191036E+03  0.11342771546E+04  0.11679090229E+04  0.50400001928E-02 0.  1.
       -1    1    3    3    0  502 -0.65812307579E+02  0.27036191036E+03 -0.24584279795E+04  0.24741250883E+04  0.50400001928E-02 0. -1.
</event>
<event>
 5   0  0.3671997E-06  0.2190589E+04  0.7818609E-02  0.8522355E-01
        2   -1    0    0  501    0  0.00000000000E+00  0.00000000000E+00  0.15737525821E+04  0.15737525821E+04  0.25500000920E-02 0.  1.
       -2   -1    0    0    0  501  0.00000000000E+00  0.00000000000E+00 -0.76229935038E+03  0.76229935039E+03  0.25500000920E-02 0. -1.
    10030    2    1    2    0    0  0.00000000000E+00  0.00000000000E+00  0.81145323167E+03  0.23360519324E+04  0.21905894832E+04 0.  0.
        2    1    3    3  502    0 -0.18866766524E+03 -0.59243375973E+03 -0.55586963339E+03  0.83400497415E+03  0.25500000920E-02 0. -1.
       -2    1    3    3    0  502  0.18866766524E+03  0.59243375973E+03  0.13673228651E+04  0.15020469583E+04  0.25500000920E-02 0.  1.
</event>
<event>
 5   0  0.1405389E-06  0.3271087E+04  0.7818609E-02  0.8170292E-01
       -1   -1    0    0    0  501  0.00000000000E+00  0.00000000000E+00  0.16635479986E+04  0.16635479986E+04  0.50400001928E-02 0.  1.
        1   -1    0    0  501    0  0.00000000000E+00  0.00000000000E+00 -0.16080102780E+04  0.16080102780E+04  0.50400001928E-02 0. -1.
    10030    2    1    2    0    0  0.00000000000E+00  0.00000000000E+00  0.55537720629E+02  0.32715582766E+04  0.32710868406E+04 0.  0.
        1    1    3    3  502    0 -0.22734240553E+03 -0.10755179796E+04  0.12389672542E+04  0.16563403487E+04  0.50400001928E-02 0.  1.
       -1    1    3    3    0  502  0.22734240553E+03  0.10755179796E+04 -0.11834295336E+04  0.16152179279E+04  0.50400001928E-02 0. -1.
</event>
<event>
 5   0  0.1352708E-06  0.2463283E+04  0.7818609E-02  0.8416184E-01
        1   -1    0    0  501    0  0.00000000000E+00  0.00000000000E+00  0.23537105168E+04  0.23537105168E+04  0.50400001928E-02 0. -1.
       -1   -1    0    0    0  501  0.00000000000E+00  0.00000000000E+00 -0.64448906317E+03  0.64448906319E+03  0.50400001928E-02 0.  1.
    10030    2    1    2    0    0  0.00000000000E+00  0.00000000000E+00  0.17092214536E+04  0.29981995800E+04  0.24632829200E+04 0.  0.
        5    1    3    3  502    0  0.53701470048E+03 -0.46618013028E+03 -0.36934835312E+03  0.80134199837E+03  0.46999998093E+01 0.  1.
       -5    1    3    3    0  502 -0.53701470048E+03  0.46618013028E+03  0.20785698067E+04  0.21968575816E+04  0.46999998093E+01 0. -1.
</event>
<event>
 5   0  0.3920487E-06  0.3256730E+04  0.7818609E-02  0.8173993E-01
       -2   -1    0    0    0  501  0.00000000000E+00  0.00000000000E+00  0.12885461213E+04  0.12885461213E+04  0.25500000920E-02 0. -1.
        2   -1    0    0  501    0  0.00000000000E+00  0.00000000000E+00 -0.20578021323E+04  0.20578021323E+04  0.25500000920E-02 0.  1.
    10030    2    1    2    0    0  0.00000000000E+00  0.00000000000E+00 -0.76925601100E+03  0.33463482535E+04  0.32567302350E+04 0.  0.
        4    1    3    3  502    0  0.12580553242E+04 -0.94103875285E+03 -0.82456189212E+03  0.17743057966E+04  0.12699999809E+01 0.  1.
       -4    1    3    3    0  502 -0.12580553242E+04  0.94103875285E+03  0.55305881121E+02  0.15720424569E+04  0.12699999809E+01 0. -1.
</event>
<event>
 5   0  0.1339825E-06  0.3219225E+04  0.7818609E-02  0.8183758E-01
       -1   -1    0    0    0  501  0.00000000000E+00  0.00000000000E+00  0.11781905578E+04  0.11781905578E+04  0.50400001928E-02 0.  1.
        1   -1    0    0  501    0  0.00000000000E+00  0.00000000000E+00 -0.21990099742E+04  0.21990099742E+04  0.50400001928E-02 0. -1.
    10030    2    1    2    0    0  0.00000000000E+00  0.00000000000E+00 -0.10208194165E+04  0.33772005320E+04  0.32192252411E+04 0.  0.
        3    1    3    3  502    0  0.11808907909E+04  0.57575194076E+03 -0.14860242052E+04  0.19834972412E+04  0.10100000352E+00 0. -1.
       -3    1    3    3    0  502 -0.11808907909E+04 -0.57575194076E+03  0.46520478872E+03  0.13937032909E+04  0.10100000352E+00 0.  1.
</event>
<event>
 5   0  0.1259875E-06  0.3137258E+04  0.7818609E-02  0.8205586E-01
       -3   -1    0    0    0  501  0.00000000000E+00  0.00000000000E+00  0.13641906063E+04  0.13641906100E+04  0.10100000352E+00 0. -1.
        3   -1    0    0  501    0  0.00000000000E+00  0.00000000000E+00 -0.18037052014E+04  0.18037052042E+04  0.10100000352E+00 0.  1.
    10030    2    1    2    0    0  0.00000000000E+00  0.00000000000E+00 -0.43951459511E+03  0.31678958143E+04  0.31372584864E+04 0.  0.
        5    1    3    3  502    0  0.30979324764E+03  0.15006141666E+04  0.11932085998E+03  0.15369041254E+04  0.46999998093E+01 0. -1.
       -5    1    3    3    0  502 -0.30979324764E+03 -0.15006141666E+04 -0.55883545509E+03  0.16309916888E+04  0.46999998093E+01 0.  1.
</event>
<event>
 5   0  0.1405389E-06  0.3258343E+04  0.7818609E-02  0.8173577E-01
        1   -1    0    0  501    0  0.00000000000E+00  0.00000000000E+00  0.23422178904E+04  0.23422178904E+04  0.50400001928E-02 0.  1.
       -1   -1    0    0    0  501  0.00000000000E+00  0.00000000000E+00 -0.11331994336E+04  0.11331994337E+04  0.50400001928E-02 0. -1.
    10030    2    1    2    0    0  0.00000000000E+00  0.00000000000E+00  0.12090184567E+04  0.34754173240E+04  0.32583431292E+04 0.  0.
        1    1    3    3  502    0  0.61692373266E+03 -0.10363411795E+04  0.17727402785E+04  0.21441096118E+04  0.50400001928E-02 0.  1.
       -1    1    3    3    0  502 -0.61692373266E+03  0.10363411795E+04 -0.56372182177E+03  0.13313077122E+04  0.50400001928E-02 0. -1.
</event>
<event>
 5   0  0.1391878E-06  0.2476043E+04  0.7818609E-02  0.8411570E-01
       -1   -1    0    0    0  501  0.00000000000E+00  0.00000000000E+00  0.97463034417E+03  0.97463034418E+03  0.50400001928E-02 0. -1.
        1   -1    0    0  501    0  0.00000000000E+00  0.00000000000E+00 -0.15725939527E+04  0.15725939527E+04  0.50400001928E-02 0.  1.
    10030    2    1    2    0    0  0.00000000000E+00  0.00000000000E+00 -0.59796360851E+03  0.25472242969E+04  0.24760434450E+04 0.  0.
        2    1    3    3  502    0  0.10139314025E+04 -0.70707353712E+03 -0.36941842893E+03  0.12901472209E+04  0.25500000920E-02 0. -1.
       -2    1    3    3    0  502 -0.10139314025E+04  0.70707353712E+03 -0.22854517958E+03  0.12570770760E+04  0.25500000920E-02 0.  1.
</event>
<event>
 5   0  0.1282578E-06  0.3321086E+04  0.7818609E-02  0.8157551E-01
        1   -1    0    0  501    0  0.00000000000E+00  0.00000000000E+00  0.20269146422E+04  0.20269146422E+04  0.50400001928E-02 0.  1.
       -1   -1    0    0    0  501  0.00000000000E+00  0.00000000000E+00 -0.13603944705E+04  0.13603944705E+04  0.50400001928E-02 0. -1.
    10030    2    1    2    0    0  0.00000000000E+00  0.00000000000E+00  0.66652017175E+03  0.33873091127E+04  0.33210862508E+04 0.  0.
        4    1    3    3  502    0  0.15020082042E+04  0.27935803746E+03  0.99687384021E+03  0.18242337089E+04  0.12699999809E+01 0.  1.
       -4    1    3    3    0  502 -0.15020082042E+04 -0.27935803746E+03 -0.33035366846E+03  0.15630754037E+04  0.12699999809E+01 0. -1.
</event>
<event>
 5   0  0.1259875E-06  0.3257008E+04  0.7818609E-02  0.8173922E-01
        3   -1    0    0  501    0  0.00000000000E+00  0.00000000000E+00  0.20610520731E+04  0.20610520756E+04  0.10100000352E+00 0. -1.
       -3   -1    0    0    0  501  0.00000000000E+00  0.00000000000E+00 -0.12867340583E+04  0.12867340623E+04  0.10100000352E+00 0.  1.
    10030    2    1    2    0    0  0.00000000000E+00  0.00000000000E+00  0.77431801480E+03  0.33477861379E+04  0.32570083876E+04 0.  0.
        2    1    3    3  502    0 -0.14992630658E+04 -0.14384712488E+02  0.10405080105E+04  0.18250078302E+04  0.25500000920E-02 0. -1.
       -2    1    3    3    0  502  0.14992630658E+04  0.14384712488E+02 -0.26618999570E+03  0.15227783077E+04  0.25500000920E-02 0.  1.
</event>
<event>
 5   0  0.4017247E-06  0.3343667E+04  0.7818609E-02  0.8151872E-01
       -2   -1    0    0    0  501  0.00000000000E+00  0.00000000000E+00  0.16832047059E+04  0.16832047059E+04  0.25500000920E-02 0.  1.
        2   -1    0    0  501    0  0.00000000000E+00  0.00000000000E+00 -0.16605388254E+04  0.16605388254E+04  0.25500000920E-02 0. -1.
    10030    2    1    2    0    0  0.00000000000E+00  0.00000000000E+00  0.22665880478E+02  0.33437435314E+04  0.33436667091E+04 0.  0.
        1    1    3    3  502    0  0.16082828122E+04  0.45306228619E+03  0.67794188964E+02  0.16722544936E+04  0.50400001928E-02 0.  1.
       -1    1    3    3    0  502 -0.16082828122E+04 -0.45306228619E+03 -0.45128308486E+02  0.16714890378E+04  0.50400001928E-02 0. -1.
</event>
<event>
 5   0  0.1391878E-06  0.3245008E+04  0.7818609E-02  0.8177031E-01
        1   -1    0    0  501    0  0.00000000000E+00  0.00000000000E+00  0.16397371465E+04  0.16397371465E+04  0.50400001928E-02 0. -1.
       -1   -1    0    0    0  501  0.00000000000E+00  0.00000000000E+00 -0.16054518387E+04  0.16054518387E+04  0.50400001928E-02 0.  1.
    10030    2    1    2    0    0  0.00000000000E+00  0.00000000000E+00  0.34285307727E+02  0.32451889852E+04  0.32450078686E+04 0.  0.
        2    1    3    3  502    0 -0.38328123626E+03 -0.15257878284E+04 -0.37985055135E+03  0.16184002733E+04  0.25500000920E-02 0.  1.
       -2    1    3    3    0  502  0.38328123626E+03  0.15257878284E+04  0.41413585908E+03  0.16267887119E+04  0.25500000920E-02 0. -1.
</event>
<event>
 5   0  0.3896210E-06  0.3307634E+04  0.7818609E-02  0.8160956E-01
        2   -1    0    0  501    0  0.00000000000E+00  0.00000000000E+00  0.10404619377E+04  0.10404619377E+04  0.25500000920E-02 0.  1.
       -2   -1    0    0    0  501  0.00000000000E+00  0.00000000000E+00 -0.26287469806E+04  0.26287469806E+04  0.25500000920E-02 0. -1.
    10030    2    1    2    0    0  0.00000000000E+00  0.00000000000E+00 -0.15882850429E+04  0.36692089183E+04  0.33076343069E+04 0.  0.
        3    1    3    3  502    0  0.11460966961E+03  0.15935872539E+04 -0.32030071152E+03  0.16294932550E+04  0.10100000352E+00 0.  1.
       -3    1    3    3    0  502 -0.11460966961E+03 -0.15935872539E+04 -0.12679843314E+04  0.20397156633E+04  0.10100000352E+00 0. -1.
</event>
<event>
 5   0  0.1282578E-06  0.2043033E+04  0.7818609E-02  0.8586761E-01
        1   -1    0    0  501    0  0.00000000000E+00  0.00000000000E+00  0.16325049197E+04  0.16325049197E+04  0.50400001928E-02 0.  1.
       -1   -1    0    0    0  501  0.00000000000E+00  0.00000000000E+00 -0.63919948136E+03  0.63919948138E+03  0.50400001928E-02 0. -1.
    10030    2    1    2    0    0  0.00000000000E+00  0.00000000000E+00  0.99330543831E+03  0.22717044011E+04  0.20430333311E+04 0.  0.
        4    1    3    3  502    0 -0.52616722589E+03 -0.44203643796E+03 -0.34375136103E+03  0.76838452171E+03  0.12699999809E+01 0. -1.
       -4    1    3    3    0  502  0.52616722589E+03  0.44203643796E+03  0.13370567993E+04  0.15033198794E+04  0.12699999809E+01 0.  1.
</event>
<event>
 5   0  0.4017247E-06  0.3292953E+04  0.7818609E-02  0.8164691E-01
       -2   -1    0    0    0  501  0.00000000000E+00  0.00000000000E+00  0.34216335279E+04  0.34216335279E+04  0.25500000920E-02 0. -1.
        2   -1    0    0  501    0  0.00000000000E+00  0.00000000000E+00 -0.79227789826E+03  0.79227789827E+03  0.25500000920E-02 0.  1.
    10030    2    1    2    0    0  0.00000000000E+00  0.00000000000E+00  0.26293556296E+04  0.42139114261E+04  0.32929528512E+04 0.  0.
        1    1    3    3  502    0  0.12909904635E+04  0.44343358414E+03  0.13654552905E+03  0.13718361425E+04  0.50400001928E-02 0.  1.
       -1    1    3    3    0  502 -0.12909904635E+04 -0.44343358414E+03  0.24928101005E+04  0.28420752836E+04  0.50400001928E-02 0. -1.
</event>
<event>
 5   0  0.1339825E-06  0.3108607E+04  0.7818609E-02  0.8213380E-01
        1   -1    0    0  501    0  0.00000000000E+00  0.00000000000E+00  0.15993687194E+04  0.15993687194E+04  0.50400001928E-02 0.  1.
       -1   -1    0    0    0  501  0.00000000000E+00  0.00000000000E+00 -0.15105084720E+04  0.15105084720E+04  0.50400001928E-02 0. -1.
    10030    2    1    2    0    0  0.00000000000E+00  0.00000000000E+00  0.88860247367E+02  0.31098771914E+04  0.31086074056E+04 0.  0.
        3    1    3    3  502    0  0.86529640099E+03 -0.12183948593E+04 -0.38310388714E+03  0.15427224291E+04  0.10100000352E+00 0.  1.
       -3    1    3    3    0  502 -0.86529640099E+03  0.12183948593E+04  0.47196413451E+03  0.15671547624E+04  0.10100000352E+00 0. -1.
</event>
<event>
 5   0  0.3920487E-06  0.3351427E+04  0.7818609E-02  0.8149932E-01
        2   -1    0    0  501    0  0.00000000000E+00  0.00000000000E+00  0.23209420936E+04  0.23209420936E+04  0.25500000920E-02 0.  1.
       -2   -1    0    0    0  501  0.00000000000E+00  0.00000000000E+00 -0.12098601103E+04  0.12098601103E+04  0.25500000920E-02 0. -1.
    10030    2    1    2    0    0  0.00000000000E+00  0.00000000000E+00  0.11110819833E+04  0.35308022039E+04  0.33514267155E+04 0.  0.
        4    1    3    3  502    0  0.15615484985E+03  0.13422637334E+04 -0.48843372376E+03  0.14368804343E+04  0.12699999809E+01 0. -1.
       -4    1    3    3    0  502 -0.15615484985E+03 -0.13422637334E+04  0.15995157071E+04  0.20939217696E+04  0.12699999809E+01 0.  1.
</event>
<event>
 5   0  0.3671997E-06  0.2831718E+04  0.7818609E-02  0.8293488E-01
       -2   -1    0    0    0  501  0.00000000000E+00  0.00000000000E+00  0.10100415697E+04  0.10100415697E+04  0.25500000920E-02 0. -1.
        2   -1    0    0  501    0  0.00000000000E+00  0.00000000000E+00 -0.19847275181E+04  0.19847275181E+04  0.25500000920E-02 0.  1.
    10030    2    1    2    0    0  0.00000000000E+00  0.00000000000E+00 -0.97468594836E+03  0.29947690878E+04  0.28317184167E+04 0.  0.
        2    1    3    3  502    0  0.96281600955E+03 -0.26215929512E+02 -0.15848621735E+04  0.18545862213E+04  0.25500000920E-02 0.  1.
       -2    1    3    3    0  502 -0.96281600955E+03  0.26215929512E+02  0.61017622518E+03  0.11401828665E+04  0.25500000920E-02 0. -1.
</event>
<event>
 5   0  0.3812379E-06  0.3284313E+04  0.7818609E-02  0.8166898E-01
        2   -1    0    0  501    0  0.00000000000E+00  0.00000000000E+00  0.18863828251E+04  0.18863828251E+04  0.25500000920E-02 0. -1.
       -2   -1    0    0    0  501  0.00000000000E+00  0.00000000000E+00 -0.14295497106E+04  0.14295497106E+04  0.25500000920E-02 0.  1.
    10030    2    1    2    0    0  0.00000000000E+00  0.00000000000E+00  0.45683311443E+03  0.33159325357E+04  0.32843130312E+04 0.  0.
        5    1    3    3  502    0 -0.12648539003E+04 -0.97158137685E+03 -0.16628213892E+03  0.16035889750E+04  0.46999998093E+01 0.  1.
       -5    1    3    3    0  502  0.12648539003E+04  0.97158137685E+03  0.62311525334E+03  0.17123435607E+04  0.46999998093E+01 0. -1.
</event>
<event>
 5   0  0.3671997E-06  0.2716987E+04  0.7818609E-02  0.8329514E-01
       -2   -1    0    0    0  501  0.00000000000E+00  0.00000000000E+00  0.81684034848E+03  0.81684034848E+03  0.25500000920E-02 0. -1.
        2   -1    0    0  501    0  0.00000000000E+00  0.00000000000E+00 -0.22593207936E+04  0.22593207936E+04  0.25500000920E-02 0.  1.
    10030    2    1    2    0    0  0.00000000000E+00  0.00000000000E+00 -0.14424804451E+04  0.30761611421E+04  0.27169868490E+04 0.  0.
        2    1    3    3  502    0 -0.81359764483E+03  0.60546209464E+03 -0.17445967592E+04  0.20179552344E+04  0.25500000920E-02 0.  1.
       -2    1    3    3    0  502  0.81359764483E+03 -0.60546209464E+03  0.30211631414E+03  0.10582059077E+04  0.25500000920E-02 0. -1.
</event>
<event>
 5   0  0.3896210E-06  0.3366597E+04  0.7818609E-02  0.8146154E-01
       -2   -1    0    0    0  501  0.00000000000E+00  0.00000000000E+00  0.16371983094E+04  0.16371983094E+04  0.25500000920E-02 0.  1.
        2   -1    0    0  501    0  0.00000000000E+00  0.00000000000E+00 -0.17306965785E+04  0.17306965785E+04  0.25500000920E-02 0. -1.
    10030    2    1    2    0    0  0.00000000000E+00  0.00000000000E+00 -0.93498269080E+02  0.33678948878E+04  0.33665968053E+04 0.  0.
        3    1    3    3  502    0 -0.56112449602E+03 -0.49665218872E+02 -0.16336035369E+04  0.17280011169E+04  0.10100000352E+00 0. -1.
       -3    1    3    3    0  502  0.56112449602E+03  0.49665218872E+02  0.15401052678E+04  0.16398937710E+04  0.10100000352E+00 0.  1.
</event>
<event>
 5   0  0.3896210E-06  0.3288380E+04  0.7818609E-02  0.8165858E-01
       -2   -1    0    0    0  501  0.00000000000E+00  0.00000000000E+00  0.24341934724E+04  0.24341934724E+04  0.25500000920E-02 0. -1.
        2   -1    0    0  501    0  0.00000000000E+00  0.00000000000E+00 -0.11105774213E+04  0.11105774213E+04  0.25500000920E-02 0.  1.
    10030    2    1    2    0    0  0.00000000000E+00  0.00000000000E+00  0.13236160511E+04  0.35447708937E+04  0.32883797284E+04 0.  0.
        3    1    3    3  502    0 -0.14224137727E+04 -0.66376322663E+03  0.13424415113E+03  0.15753933046E+04  0.10100000352E+00 0.  1.
       -3    1    3    3    0  502  0.14224137727E+04  0.66376322663E+03  0.11893719000E+04  0.19693775891E+04  0.10100000352E+00 0. -1.
</event>
<event>
 5   0  0.3671997E-06  0.3257947E+04  0.7818609E-02  0.8173679E-01
       -2   -1    0    0    0  501  0.00000000000E+00  0.00000000000E+00  0.13355148456E+04  0.13355148456E+04  0.25500000920E-02 0.  1.
        2   -1    0    0  501    0  0.00000000000E+00  0.00000000000E+00 -0.19869146287E+04  0.19869146287E+04  0.25500000920E-02 0. -1.
    10030    2    1    2    0    0  0.00000000000E+00  0.00000000000E+00 -0.65139978304E+03  0.33224294743E+04  0.32579465825E+04 0.  0.
        2    1    3    3  502    0  0.13041479119E+04  0.64238120026E+03  0.42375989967E+03  0.15142746895E+04  0.25500000920E-02 0.  1.
       -2    1    3    3    0  502 -0.13041479119E+04 -0.64238120026E+03 -0.10751596827E+04  0.18081547848E+04  0.25500000920E-02 0. -1.
</event>
<event>
 5   0  0.3812379E-06  0.3240276E+04  0.7818609E-02  0.8178261E-01
       -2   -1    0    0    0  501  0.00000000000E+00  0.00000000000E+00  0.15961036110E+04  0.15961036110E+04  0.25500000920E-02 0.  1.
        2   -1    0    0  501    0  0.00000000000E+00  0.00000000000E+00 -0.16445345686E+04  0.16445345686E+04  0.25500000920E-02 0. -1.
    10030    2    1    2    0    0  0.00000000000E+00  0.00000000000E+00 -0.48430957587E+02  0.32406381795E+04  0.32402762618E+04 0.  0.
        5    1    3    3  502    0 -0.13392161416E+04  0.67236445473E+02  0.88517418880E+03  0.16067283678E+04  0.46999998093E+01 0.  1.
       -5    1    3    3    0  502  0.13392161416E+04 -0.67236445473E+02 -0.93360514639E+03  0.16339098117E+04  0.46999998093E+01 0. -1.
</event>
<event>
 5   0  0.3896210E-06  0.3244542E+04  0.7818609E-02  0.8177152E-01
       -2   -1    0    0    0  501  0.00000000000E+00  0.00000000000E+00  0.12883747726E+04  0.12883747726E+04  0.25500000920E-02 0. -1.
        2   -1    0    0  501    0  0.00000000000E+00  0.00000000000E+00 -0.20427004341E+04  0.20427004341E+04  0.25500000920E-02 0.  1.
    10030    2    1    2    0    0  0.00000000000E+00  0.00000000000E+00 -0.75432566149E+03  0.33310752067E+04  0.32445423142E+04 0.  0.
        3    1    3    3  502    0  0.78875655502E+03 -0.91517416429E+03  0.73433901179E+03  0.14138367828E+04  0.10100000352E+00 0. -1.
       -3    1    3    3    0  502 -0.78875655502E+03  0.91517416429E+03 -0.14886646733E+04  0.19172384238E+04  0.10100000352E+00 0.  1.
</event>
<event>
 5   0  0.1282578E-06  0.3410629E+04  0.7818609E-02  0.8135302E-01
        1   -1    0    0  501    0  0.00000000000E+00  0.00000000000E+00  0.86316693448E+03  0.86316693449E+03  0.50400001928E-02 0. -1.
       -1   -1    0    0    0  501  0.00000000000E+00  0.00000000000E+00 -0.33691029031E+04  0.33691029031E+04  0.50400001928E-02 0.  1.
    10030    2    1    2    0    0  0.00000000000E+00  0.00000000000E+00 -0.25059359686E+04  0.42322698376E+04  0.34106293993E+04 0.  0.
        4    1    3    3  502    0 -0.58803956071E+03  0.15911524424E+04 -0.10361110686E+04  0.19877334780E+04  0.12699999809E+01 0. -1.
       -4    1    3    3    0  502  0.58803956071E+03 -0.15911524424E+04 -0.14698249000E+04  0.22445363596E+04  0.12699999809E+01 0.  1.
</event>
<event>
 5   0  0.4017247E-06  0.3185797E+04  0.7818609E-02  0.8192578E-01
        2   -1    0    0  501    0  0.00000000000E+00  0.00000000000E+00  0.21959597503E+04  0.21959597503E+04  0.25500000920E-02 0.  1.
       -2   -1    0    0    0  501  0.00000000000E+00  0.00000000000E+00 -0.11554517989E+04  0.11554517989E+04  0.25500000920E-02 0. -1.
    10030    2    1    2    0    0  0.00000000000E+00  0.00000000000E+00  0.10405079514E+04  0.33514115492E+04  0.31857970079E+04 0.  0.
        1    1    3    3  502    0  0.35636434080E+02 -0.15042799017E+04 -0.29600993243E+02  0.15049930887E+04  0.50400001928E-02 0.  1.
       -1    1    3    3    0  502 -0.35636434080E+02  0.15042799017E+04  0.10701089446E+04  0.18464184606E+04  0.50400001928E-02 0. -1.
</event>
<event>
 5   0  0.3671997E-06  0.2544392E+04  0.7818609E-02  0.8387339E-01
        2   -1    0    0  501    0  0.00000000000E+00  0.00000000000E+00  0.24553993106E+04  0.24553993106E+04  0.25500000920E-02 0. -1.
       -2   -1    0    0    0  501  0.00000000000E+00  0.00000000000E+00 -0.65915271230E+03  0.65915271230E+03  0.25500000920E-02 0.  1.
    10030    2    1    2    0    0  0.00000000000E+00  0.00000000000E+00  0.17962465983E+04  0.31145520229E+04  0.25443923560E+04 0.  0.
        2    1    3    3  502    0  0.41872839724E+03  0.94261039608E+03 -0.13499661755E+02  0.10315183325E+04  0.25500000920E-02 0.  1.
       -2    1    3    3    0  502 -0.41872839724E+03 -0.94261039608E+03  0.18097462600E+04  0.20830336903E+04  0.25500000920E-02 0. -1.
</event>
<event>
 5   0  0.1391878E-06  0.3348904E+04  0.7818609E-02  0.8150562E-01
       -1   -1    0    0    0  501  0.00000000000E+00  0.00000000000E+00  0.20447357740E+04  0.20447357740E+04  0.50400001928E-02 0.  1.
        1   -1    0    0  501    0  0.00000000000E+00  0.00000000000E+00 -0.13712234921E+04  0.13712234921E+04  0.50400001928E-02 0. -1.
    10030    2    1    2    0    0  0.00000000000E+00  0.00000000000E+00  0.67351228182E+03  0.34159592661E+04  0.33489041363E+04 0.  0.
        2    1    3    3  502    0  0.53856819699E+03 -0.98357238356E+03  0.16051658817E+04  0.19580673748E+04  0.25500000920E-02 0.  1.
       -2    1    3    3    0  502 -0.53856819699E+03  0.98357238356E+03 -0.93165359989E+03  0.14578918913E+04  0.25500000920E-02 0. -1.
</event>
<event>
 5   0  0.3812379E-06  0.2934375E+04  0.7818609E-02  0.8262723E-01
       -2   -1    0    0    0  501  0.00000000000E+00  0.00000000000E+00  0.10465387162E+04  0.10465387162E+04  0.25500000920E-02 0. -1.
        2   -1    0    0  501    0  0.00000000000E+00  0.00000000000E+00 -0.20569129716E+04  0.20569129716E+04  0.25500000920E-02 0.  1.
    10030    2    1    2    0    0  0.00000000000E+00  0.00000000000E+00 -0.10103742554E+04  0.31034516877E+04  0.29343749321E+04 0.  0.
        5    1    3    3  502    0  0.86361738319E+03  0.11841543577E+04 -0.57660927602E+03  0.15749783727E+04  0.46999998093E+01 0.  1.
       -5    1    3    3    0  502 -0.86361738319E+03 -0.11841543577E+04 -0.43376497937E+03  0.15284733150E+04  0.46999998093E+01 0. -1.
</event>
<event>
 5   0  0.1552946E-06  0.2032091E+04  0.7818609E-02  0.8591762E-01
       -1   -1    0    0    0  501  0.00000000000E+00  0.00000000000E+00  0.11211319091E+04  0.11211319091E+04  0.50400001928E-02 0. -1.
        1   -1    0    0  501    0  0.00000000000E+00  0.00000000000E+00 -0.92080909780E+03  0.92080909781E+03  0.50400001928E-02 0.  1.
    10030    2    1    2    0    0  0.00000000000E+00  0.00000000000E+00  0.20032281134E+03  0.20419410070E+04  0.20320910037E+04 0.  0.
        3    1    3    3  502    0  0.11261033596E+03  0.79553117394E+03  0.72510651742E+03  0.10822801894E+04  0.10100000352E+00 0. -1.
       -3    1    3    3    0  502 -0.11261033596E+03 -0.79553117394E+03 -0.52478370607E+03  0.95966081760E+03  0.10100000352E+00 0.  1.
</event>
<event>
 5   0  0.1339825E-06  0.3328455E+04  0.7818609E-02  0.8155693E-01
        1   -1    0    0  501    0  0.00000000000E+00  0.00000000000E+00  0.28352028398E+04  0.28352028398E+04  0.50400001928E-02 0.  1.
       -1   -1    0    0    0  501  0.00000000000E+00  0.00000000000E+00 -0.97688012087E+03  0.97688012088E+03  0.50400001928E-02 0. -1.
    10030    2    1    2    0    0  0.00000000000E+00  0.00000000000E+00  0.18583227189E+04  0.38120829607E+04  0.33284550728E+04 0.  0.
        3    1    3    3  502    0 -0.16482612884E+04 -0.15440062423E+03  0.73396075210E+03  0.18108846521E+04  0.10100000352E+00 0. -1.
       -3    1    3    3    0  502  0.16482612884E+04  0.15440062423E+03  0.11243619668E+04  0.20011983085E+04  0.10100000352E+00 0.  1.
</event>
<event>
 5   0  0.1282578E-06  0.3069357E+04  0.7818609E-02  0.8224198E-01
       -1   -1    0    0    0  501  0.00000000000E+00  0.00000000000E+00  0.15025929623E+04  0.15025929623E+04  0.50400001928E-02 0.  1.
        1   -1    0    0  501    0  0.00000000000E+00  0.00000000000E+00 -0.15674486832E+04  0.15674486832E+04  0.50400001928E-02 0. -1.
    10030    2    1    2    0    0  0.00000000000E+00  0.00000000000E+00 -0.64855720902E+02  0.30700416455E+04  0.30693565190E+04 0.  0.
        4    1    3    3  502    0  0.10837514885E+04 -0.19937243023E+03  0.10359721172E+04  0.15124504935E+04  0.12699999809E+01 0.  1.
       -4    1    3    3    0  502 -0.10837514885E+04  0.19937243023E+03 -0.11008278381E+04  0.15575911520E+04  0.12699999809E+01 0. -1.
</event>
<event>
 5   0  0.3920487E-06  0.3081664E+04  0.7818609E-02  0.8220788E-01
        2   -1    0    0  501    0  0.00000000000E+00  0.00000000000E+00  0.21819731127E+04  0.21819731127E+04  0.25500000920E-02 0. -1.
       -2   -1    0    0    0  501  0.00000000000E+00  0.00000000000E+00 -0.10880811027E+04  0.10880811027E+04  0.25500000920E-02 0.  1.
    10030    2    1    2    0    0  0.00000000000E+00  0.00000000000E+00  0.10938920100E+04  0.32700542154E+04  0.30816642974E+04 0.  0.
        4    1    3    3  502    0 -0.98754107216E+03  0.30648156250E+02 -0.70769924582E+03  0.12153256823E+04  0.12699999809E+01 0.  1.
       -4    1    3    3    0  502  0.98754107216E+03 -0.30648156250E+02  0.18015912558E+04  0.20547285330E+04  0.12699999809E+01 0. -1.
</event>
<event>
 5   0  0.3671997E-06  0.3274706E+04  0.7818609E-02  0.8169361E-01
       -2   -1    0    0    0  501  0.00000000000E+00  0.00000000000E+00  0.16080276175E+04  0.16080276175E+04  0.25500000920E-02 0. -1.
        2   -1    0    0  501    0  0.00000000000E+00  0.00000000000E+00 -0.16672131256E+04  0.16672131256E+04  0.25500000920E-02 0.  1.
    10030    2    1    2    0    0  0.00000000000E+00  0.00000000000E+00 -0.59185508115E+02  0.32752407431E+04  0.32747059412E+04 0.  0.
        2    1    3    3  502    0  0.72276270826E+02 -0.14925241915E+04 -0.69908419750E+03  0.16497184719E+04  0.25500000920E-02 0. -1.
       -2    1    3    3    0  502 -0.72276270826E+02  0.14925241915E+04  0.63989868938E+03  0.16255222712E+04  0.25500000920E-02 0.  1.
</event>
<event>
 5   0  0.3920487E-06  0.3285976E+04  0.7818609E-02  0.8166473E-01
       -2   -1    0    0    0  501  0.00000000000E+00  0.00000000000E+00  0.15140827198E+04  0.15140827199E+04  0.25500000920E-02 0.  1.
        2   -1    0    0  501    0  0.00000000000E+00  0.00000000000E+00 -0.17828680886E+04  0.17828680886E+04  0.25500000920E-02 0. -1.
    10030    2    1    2    0    0  0.00000000000E+00  0.00000000000E+00 -0.26878536871E+03  0.32969508084E+04  0.32859761196E+04 0.  0.
        4    1    3    3  502    0 -0.10155817245E+03  0.51622366238E+03 -0.16960637650E+04  0.17757913278E+04  0.12699999809E+01 0. -1.
       -4    1    3    3    0  502  0.10155817245E+03 -0.51622366238E+03  0.14272783963E+04  0.15211594806E+04  0.12699999809E+01 0.  1.
</event>
<event>
 5   0  0.4017247E-06  0.3270084E+04  0.7818609E-02  0.8170550E-01
        2   -1    0    0  501    0  0.00000000000E+00  0.00000000000E+00  0.23079369912E+04  0.23079369912E+04  0.25500000920E-02 0. -1.
       -2   -1    0    0    0  501  0.00000000000E+00  0.00000000000E+00 -0.11583340746E+04  0.11583340746E+04  0.25500000920E-02 0.  1.
    10030    2    1    2    0    0  0.00000000000E+00  0.00000000000E+00  0.11496029165E+04  0.34662710658E+04  0.32700838270E+04 0.  0.
        1    1    3    3  502    0 -0.92165614683E+02  0.52003946995E+03 -0.10654271867E+04  0.11891470224E+04  0.50400001928E-02 0.  1.
       -1    1    3    3    0  502  0.92165614683E+02 -0.52003946995E+03  0.22150301032E+04  0.22771240434E+04  0.50400001928E-02 0. -1.
</event>
<event>
 5   0  0.3896210E-06  0.3366513E+04  0.7818609E-02  0.8146174E-01
        2   -1    0    0  501    0  0.00000000000E+00  0.00000000000E+00  0.17820229513E+04  0.17820229513E+04  0.25500000920E-02 0. -1.
       -2   -1    0    0    0  501  0.00000000000E+00  0.00000000000E+00 -0.15899640314E+04  0.15899640314E+04  0.25500000920E-02 0.  1.
    10030    2    1    2    0    0  0.00000000000E+00  0.00000000000E+00  0.19205891987E+03  0.33719869827E+04  0.33665129708E+04 0.  0.
        3    1    3    3  502    0 -0.92203043088E+03  0.10492847902E+04  0.10368190341E+04  0.17395782265E+04  0.10100000352E+00 0. -1.
       -3    1    3    3    0  502  0.92203043088E+03 -0.10492847902E+04 -0.84476011428E+03  0.16324087562E+04  0.10100000352E+00 0.  1.
</event>
<event>
 5   0  0.1405389E-06  0.3487566E+04  0.7818609E-02  0.8116743E-01
        1   -1    0    0  501    0  0.00000000000E+00  0.00000000000E+00  0.20709305516E+04  0.20709305516E+04  0.50400001928E-02 0.  1.
       -1   -1    0    0    0  501  0.00000000000E+00  0.00000000000E+00 -0.14683157534E+04  0.14683157534E+04  0.50400001928E-02 0. -1.
    10030    2    1    2    0    0  0.00000000000E+00  0.00000000000E+00  0.60261479822E+03  0.35392463050E+04  0.34875664599E+04 0.  0.
        1    1    3    3  502    0  0.12931690139E+04  0.44928408741E+03  0.13974228293E+04  0.19562548028E+04  0.50400001928E-02 0.  1.
       -1    1    3    3    0  502 -0.12931690139E+04 -0.44928408741E+03 -0.79480803106E+03  0.15829915022E+04  0.50400001928E-02 0. -1.
</event>
<event>
 5   0  0.3671997E-06  0.3101197E+04  0.7818609E-02  0.8215409E-01
        2   -1    0    0  501    0  0.00000000000E+00  0.00000000000E+00  0.20829062559E+04  0.20829062559E+04  0.25500000920E-02 0.  1.
       -2   -1    0    0    0  501  0.00000000000E+00  0.00000000000E+00 -0.11543273579E+04  0.11543273579E+04  0.25500000920E-02 0. -1.
    10030    2    1    2    0    0  0.00000000000E+00  0.00000000000E+00  0.92857889802E+03  0.32372336139E+04  0.31011969787E+04 0.  0.
        2    1    3    3  502    0  0.13865400762E+04 -0.62680506884E+03  0.77566554682E+03  0.17079329664E+04  0.25500000920E-02 0. -1.
       -2    1    3    3    0  502 -0.13865400762E+04  0.62680506884E+03  0.15291335120E+03  0.15293006474E+04  0.25500000920E-02 0.  1.
</event>
<event>
 5   0  0.1282578E-06  0.3202764E+04  0.7818609E-02  0.8188088E-01
       -1   -1    0    0    0  501  0.00000000000E+00  0.00000000000E+00  0.92882516962E+03  0.92882516964E+03  0.50400001928E-02 0.  1.
        1   -1    0    0  501    0  0.00000000000E+00  0.00000000000E+00 -0.27609338300E+04  0.27609338300E+04  0.50400001928E-02 0. -1.
    10030    2    1    2    0    0  0.00000000000E+00  0.00000000000E+00 -0.18321086604E+04  0.36897589997E+04  0.32027643267E+04 0.  0.
        4    1    3    3  502    0  0.15492858570E+03 -0.15404668837E+04 -0.44472163365E+03  0.16108445086E+04  0.12699999809E+01 0.  1.
       -4    1    3    3    0  502 -0.15492858570E+03  0.15404668837E+04 -0.13873870268E+04  0.20789144911E+04  0.12699999809E+01 0. -1.
</event>
<event>
 5   0  0.3671997E-06  0.2704389E+04  0.7818609E-02  0.8333582E-01
       -2   -1    0    0    0  501  0.00000000000E+00  0.00000000000E+00  0.76871889456E+03  0.76871889456E+03  0.25500000920E-02 0. -1.
        2   -1    0    0  501    0  0.00000000000E+00  0.00000000000E+00 -0.23785412540E+04  0.23785412540E+04  0.25500000920E-02 0.  1.
    10030    2    1    2    0    0  0.00000000000E+00  0.00000000000E+00 -0.16098223595E+04  0.31472601486E+04  0.27043887320E+04 0.  0.
        2    1    3    3  502    0  0.19916815335E+03 -0.21845266532E+03  0.73065277741E+03  0.78818969889E+03  0.25500000920E-02 0. -1.
       -2    1    3    3    0  502 -0.19916815335E+03  0.21845266532E+03 -0.23404751369E+04  0.23590704497E+04  0.25500000920E-02 0.  1.
</event>
<event>
 5   0  0.3920487E-06  0.3297442E+04  0.7818609E-02  0.8163547E-01
        2   -1    0    0  501    0  0.00000000000E+00  0.00000000000E+00  0.19799798162E+04  0.19799798162E+04  0.25500000920E-02 0.  1.
       -2   -1    0    0    0  501  0.00000000000E+00  0.00000000000E+00 -0.13728832919E+04  0.13728832919E+04  0.25500000920E-02 0. -1.
    10030    2    1    2    0    0  0.00000000000E+00  0.00000000000E+00  0.60709652430E+03  0.33528631081E+04  0.32974421651E+04 0.  0.
        4    1    3    3  502    0 -0.64509255021E+03  0.38453811970E+03 -0.11888621201E+04  0.14062036543E+04  0.12699999809E+01 0. -1.
       -4    1    3    3    0  502  0.64509255021E+03 -0.38453811970E+03  0.17959586444E+04  0.19466594538E+04  0.12699999809E+01 0.  1.
</event>
<event>
 5   0  0.1405389E-06  0.3061942E+04  0.7818609E-02  0.8226261E-01
        1   -1    0    0  501    0  0.00000000000E+00  0.00000000000E+00  0.25571428735E+04  0.25571428735E+04  0.50400001928E-02 0.  1.
       -1   -1    0    0    0  501  0.00000000000E+00  0.00000000000E+00 -0.91659795148E+03  0.91659795149E+03  0.50400001928E-02 0. -1.
    10030    2    1    2    0    0  0.00000000000E+00  0.00000000000E+00  0.16405449221E+04  0.34737408250E+04  0.30619418150E+04 0.  0.
        1    1    3    3  502    0 -0.43014603731E+03 -0.12207793657E+04 -0.10733768843E+03  0.12987876087E+04  0.50400001928E-02 0. -1.
       -1    1    3    3    0  502  0.43014603731E+03  0.12207793657E+04  0.17478826105E+04  0.21749532163E+04  0.50400001928E-02 0.  1.
</event>
<event>
 5   0  0.1339825E-06  0.2820687E+04  0.7818609E-02  0.8296875E-01
       -1   -1    0    0    0  501  0.00000000000E+00  0.00000000000E+00  0.11320037735E+04  0.11320037735E+04  0.50400001928E-02 0.  1.
        1   -1    0    0  501    0  0.00000000000E+00  0.00000000000E+00 -0.17571217871E+04  0.17571217871E+04  0.50400001928E-02 0. -1.
    10030    2    1    2    0    0  0.00000000000E+00  0.00000000000E+00 -0.62511801354E+03  0.28891255606E+04  0.28206867912E+04 0.  0.
        3    1    3    3  502    0 -0.78962663713E+03  0.71691275453E+03 -0.12577682064E+04  0.16490770130E+04  0.10100000352E+00 0. -1.
       -3    1    3    3    0  502  0.78962663713E+03 -0.71691275453E+03  0.63265019286E+03  0.12400485476E+04  0.10100000352E+00 0.  1.
</event>
<event>
 5   0  0.3896210E-06  0.2247735E+04  0.7818609E-02  0.8498818E-01
        2   -1    0    0  501    0  0.00000000000E+00  0.00000000000E+00  0.10537361760E+04  0.10537361760E+04  0.25500000920E-02 0. -1.
       -2   -1    0    0    0  501  0.00000000000E+00  0.00000000000E+00 -0.11986665786E+04  0.11986665786E+04  0.25500000920E-02 0.  1.
    10030    2    1    2    0    0  0.00000000000E+00  0.00000000000E+00 -0.14493040260E+03  0.22524027546E+04  0.22477351595E+04 0.  0.
        3    1    3    3  502    0 -0.97623185814E+03 -0.43090324425E+03  0.28093139260E+03  0.11034621445E+04  0.10100000352E+00 0. -1.
       -3    1    3    3    0  502  0.97623185814E+03  0.43090324425E+03 -0.42586179520E+03  0.11489406101E+04  0.10100000352E+00 0.  1.
</event>
<event>
 5   0  0.1352708E-06  0.3244655E+04  0.7818609E-02  0.8177122E-01
        1   -1    0    0  501    0  0.00000000000E+00  0.00000000000E+00  0.18567436467E+04  0.18567436467E+04  0.50400001928E-02 0.  1.
       -1   -1    0    0    0  501  0.00000000000E+00  0.00000000000E+00 -0.14175069019E+04  0.14175069020E+04  0.50400001928E-02 0. -1.
    10030    2    1    2    0    0  0.00000000000E+00  0.00000000000E+00  0.43923674477E+03  0.32742505487E+04  0.32446552571E+04 0.  0.
        5    1    3    3  502    0  0.23448226567E+03  0.12352926975E+03  0.18347431458E+04  0.18537923062E+04  0.46999998093E+01 0.  1.
       -5    1    3    3    0  502 -0.23448226567E+03 -0.12352926975E+03 -0.13955064010E+04  0.14204582425E+04  0.46999998093E+01 0. -1.
</event>
<event>
 5   0  0.1282578E-06  0.3271466E+04  0.7818609E-02  0.8170194E-01
        1   -1    0    0  501    0  0.00000000000E+00  0.00000000000E+00  0.22700651645E+04  0.22700651645E+04  0.50400001928E-02 0. -1.
       -1   -1    0    0    0  501  0.00000000000E+00  0.00000000000E+00 -0.11786548026E+04  0.11786548026E+04  0.50400001928E-02 0.  1.
    10030    2    1    2    0    0  0.00000000000E+00  0.00000000000E+00  0.10914103619E+04  0.34487199672E+04  0.32714664653E+04 0.  0.
        4    1    3    3  502    0  0.29727754017E+03  0.85190798553E+03 -0.89258670593E+03  0.12691862717E+04  0.12699999809E+01 0.  1.
       -4    1    3    3    0  502 -0.29727754017E+03 -0.85190798553E+03  0.19839970678E+04  0.21795336955E+04  0.12699999809E+01 0. -1.
</event>
<event>
 5   0  0.3920487E-06  0.3312407E+04  0.7818609E-02  0.8159746E-01
        2   -1    0    0  501    0  0.00000000000E+00  0.00000000000E+00  0.18481352245E+04  0.18481352245E+04  0.25500000920E-02 0.  1.
       -2   -1    0    0    0  501  0.00000000000E+00  0.00000000000E+00 -0.14842043843E+04  0.14842043843E+04  0.25500000920E-02 0. -1.
    10030    2    1    2    0    0  0.00000000000E+00  0.00000000000E+00  0.36393084022E+03  0.33323396088E+04  0.33124072232E+04 0.  0.
        4    1    3    3  502    0 -0.14819208966E+04 -0.58666977482E+03 -0.27100820999E+03  0.16166997344E+04  0.12699999809E+01 0. -1.
       -4    1    3    3    0  502  0.14819208966E+04  0.58666977482E+03  0.63493905021E+03  0.17156398744E+04  0.12699999809E+01 0.  1.
</event>
<event>
 5   0  0.4017247E-06  0.3321897E+04  0.7818609E-02  0.8157346E-01
        2   -1    0    0  501    0  0.00000000000E+00  0.00000000000E+00  0.27286323678E+04  0.27286323678E+04  0.25500000920E-02 0.  1.
       -2   -1    0    0    0  501  0.00000000000E+00  0.00000000000E+00 -0.10110376113E+04  0.10110376113E+04  0.25500000920E-02 0. -1.
    10030    2    1    2    0    0  0.00000000000E+00  0.00000000000E+00  0.17175947566E+04  0.37396699791E+04  0.33218970190E+04 0.  0.
        1    1    3    3  502    0  0.11160996529E+04 -0.88768544596E+03  0.18174072399E+04  0.23101153568E+04  0.50400001928E-02 0.  1.
       -1    1    3    3    0  502 -0.11160996529E+04  0.88768544596E+03 -0.99812483367E+02  0.14295546223E+04  0.50400001928E-02 0. -1.
</event>
<event>
 5   0  0.1391878E-06  0.3168932E+04  0.7818609E-02  0.8197071E-01
        1   -1    0    0  501    0  0.00000000000E+00  0.00000000000E+00  0.23174224882E+04  0.23174224882E+04  0.50400001928E-02 0.  1.
       -1   -1    0    0    0  501  0.00000000000E+00  0.00000000000E+00 -0.10833293380E+04  0.10833293380E+04  0.50400001928E-02 0. -1.
    10030    2    1    2    0    0  0.00000000000E+00  0.00000000000E+00  0.12340931502E+04  0.34007518263E+04  0.31689315361E+04 0.  0.
        2    1    3    3  502    0  0.12426037627E+04 -0.83033900609E+03  0.11818609304E+04  0.19053404511E+04  0.25500000920E-02 0. -1.
       -2    1    3    3    0  502 -0.12426037627E+04  0.83033900609E+03  0.52232219820E+02  0.14954113751E+04  0.25500000920E-02 0.  1.
</event>
<event>
 5   0  0.3671997E-06  0.3257419E+04  0.7818609E-02  0.8173815E-01
       -2   -1    0    0    0  501  0.00000000000E+00  0.00000000000E+00  0.26270925276E+04  0.26270925276E+04  0.25500000920E-02 0. -1.
        2   -1    0    0  501    0  0.00000000000E+00  0.00000000000E+00 -0.10097454491E+04  0.10097454491E+04  0.25500000920E-02 0.  1.
    10030    2    1    2    0    0  0.00000000000E+00  0.00000000000E+00  0.16173470785E+04  0.36368379768E+04  0.32574190546E+04 0.  0.
        2    1    3    3  502    0 -0.13402265674E+04  0.61468783390E+03  0.15811009763E+04  0.21619270761E+04  0.25500000920E-02 0. -1.
       -2    1    3    3    0  502  0.13402265674E+04 -0.61468783390E+03  0.36246102169E+02  0.14749109007E+04  0.25500000920E-02 0.  1.
</event>
<event>
 5   0  0.4017247E-06  0.3306633E+04  0.7818609E-02  0.8161210E-01
       -2   -1    0    0    0  501  0.00000000000E+00  0.00000000000E+00  0.13840451691E+04  0.13840451691E+04  0.25500000920E-02 0.  1.
        2   -1    0    0  501    0  0.00000000000E+00  0.00000000000E+00 -0.19749756614E+04  0.19749756614E+04  0.25500000920E-02 0. -1.
    10030    2    1    2    0    0  0.00000000000E+00  0.00000000000E+00 -0.59093049231E+03  0.33590208305E+04  0.33066330449E+04 0.  0.
        1    1    3    3  502    0 -0.12072656880E+04  0.92315163306E+03  0.36581370581E+03  0.15631759487E+04  0.50400001928E-02 0. -1.
       -1    1    3    3    0  502  0.12072656880E+04 -0.92315163306E+03 -0.95674419812E+03  0.17958448819E+04  0.50400001928E-02 0.  1.
</event>
<event>
 5   0  0.3896210E-06  0.2107584E+04  0.7818609E-02  0.8557910E-01
       -2   -1    0    0    0  501  0.00000000000E+00  0.00000000000E+00  0.10853289432E+04  0.10853289432E+04  0.25500000920E-02 0. -1.
        2   -1    0    0  501    0  0.00000000000E+00  0.00000000000E+00 -0.10231713366E+04  0.10231713366E+04  0.25500000920E-02 0.  1.
    10030    2    1    2    0    0  0.00000000000E+00  0.00000000000E+00  0.62157606636E+02  0.21085002798E+04  0.21075838920E+04 0.  0.
        3    1    3    3  502    0  0.65854234657E+03 -0.17842238268E+03 -0.77236744635E+03  0.10305649185E+04  0.10100000352E+00 0.  1.
       -3    1    3    3    0  502 -0.65854234657E+03  0.17842238268E+03  0.83452505299E+03  0.10779353613E+04  0.10100000352E+00 0. -1.
</event>
<event>
 5   0  0.3671997E-06  0.3273094E+04  0.7818609E-02  0.8169776E-01
       -2   -1    0    0    0  501  0.00000000000E+00  0.00000000000E+00  0.17187312712E+04  0.17187312712E+04  0.25500000920E-02 0.  1.
        2   -1    0    0  501    0  0.00000000000E+00  0.00000000000E+00 -0.15582920724E+04  0.15582920724E+04  0.25500000920E-02 0. -1.
    10030    2    1    2    0    0  0.00000000000E+00  0.00000000000E+00  0.16043919875E+03  0.32770233436E+04  0.32730935303E+04 0.  0.
        2    1    3    3  502    0 -0.91230725907E+03 -0.10001863045E+04 -0.84045401269E+03  0.15934365774E+04  0.25500000920E-02 0.  1.
       -2    1    3    3    0  502  0.91230725907E+03  0.10001863045E+04  0.10008932114E+04  0.16835867662E+04  0.25500000920E-02 0. -1.
</event>
<event>
 5   0  0.1352708E-06  0.3334975E+04  0.7818609E-02  0.8154053E-01
        1   -1    0    0  501    0  0.00000000000E+00  0.00000000000E+00  0.15408650445E+04  0.15408650445E+04  0.50400001928E-02 0. -1.
       -1   -1    0    0    0  501  0.00000000000E+00  0.00000000000E+00 -0.18045156945E+04  0.18045156945E+04  0.50400001928E-02 0.  1.
    10030    2    1    2    0    0  0.00000000000E+00  0.00000000000E+00 -0.26365064995E+03  0.33453807390E+04  0.33349753558E+04 0.  0.
        5    1    3    3  502    0  0.46080944336E+03  0.30468314701E+03  0.14463972059E+04  0.15483100886E+04  0.46999998093E+01 0. -1.
       -5    1    3    3    0  502 -0.46080944336E+03 -0.30468314701E+03 -0.17100478559E+04  0.17970706504E+04  0.46999998093E+01 0.  1.
</event>
<event>
 5   0  0.3920487E-06  0.2781977E+04  0.7818609E-02  0.8308886E-01
       -2   -1    0    0    0  501  0.00000000000E+00  0.00000000000E+00  0.11647702964E+04  0.11647702964E+04  0.25500000920E-02 0.  1.
        2   -1    0    0  501    0  0.00000000000E+00  0.00000000000E+00 -0.16611422765E+04  0.16611422765E+04  0.25500000920E-02 0. -1.
    10030    2    1    2    0    0  0.00000000000E+00  0.00000000000E+00 -0.49637198009E+03  0.28259125729E+04  0.27819771256E+04 0.  0.
        4    1    3    3  502    0 -0.92067824367E+03 -0.79027940677E+03  0.44274554852E+03  0.12915940549E+04  0.12699999809E+01 0.  1.
       -4    1    3    3    0  502  0.92067824367E+03  0.79027940677E+03 -0.93911752861E+03  0.15343185180E+04  0.12699999809E+01 0. -1.
</event>
<event>
 5   0  0.1339825E-06  0.3248224E+04  0.7818609E-02  0.8176196E-01
       -1   -1    0    0    0  501  0.00000000000E+00  0.00000000000E+00  0.19047213945E+04  0.19047213945E+04  0.50400001928E-02 0. -1.
        1   -1    0    0  501    0  0.00000000000E+00  0.00000000000E+00 -0.13848431355E+04  0.13848431356E+04  0.50400001928E-02 0.  1.
    10030    2    1    2    0    0  0.00000000000E+00  0.00000000000E+00  0.51987825898E+03  0.32895645301E+04  0.32482243447E+04 0.  0.
        3    1    3    3  502    0 -0.93062252282E+03  0.12049730112E+04 -0.31269696893E+03  0.15542836428E+04  0.10100000352E+00 0.  1.
       -3    1    3    3    0  502  0.93062252282E+03 -0.12049730112E+04  0.83257522791E+03  0.17352808873E+04  0.10100000352E+00 0. -1.
</event>
<event>
 5   0  0.1339825E-06  0.3279623E+04  0.7818609E-02  0.8168100E-01
        1   -1    0    0  501    0  0.00000000000E+00  0.00000000000E+00  0.23980895730E+04  0.23980895730E+04  0.50400001928E-02 0.  1.
       -1   -1    0    0    0  501  0.00000000000E+00  0.00000000000E+00 -0.11213018066E+04  0.11213018066E+04  0.50400001928E-02 0. -1.
    10030    2    1    2    0    0  0.00000000000E+00  0.00000000000E+00  0.12767877664E+04  0.35193913796E+04  0.32796232531E+04 0.  0.
        3    1    3    3  502    0 -0.41330218388E+03 -0.14758334653E+04  0.12596781977E+02  0.15326649345E+04  0.10100000352E+00 0. -1.
       -3    1    3    3    0  502  0.41330218388E+03  0.14758334653E+04  0.12641909844E+04  0.19867264451E+04  0.10100000352E+00 0.  1.
</event>
<event>
 5   0  0.3896210E-06  0.3227740E+04  0.7818609E-02  0.8181529E-01
        2   -1    0    0  501    0  0.00000000000E+00  0.00000000000E+00  0.20536263485E+04  0.20536263485E+04  0.25500000920E-02 0. -1.
       -2   -1    0    0    0  501  0.00000000000E+00  0.00000000000E+00 -0.12682817213E+04  0.12682817214E+04  0.25500000920E-02 0.  1.
    10030    2    1    2    0    0  0.00000000000E+00  0.00000000000E+00  0.78534462714E+03  0.33219080698E+04  0.32277402375E+04 0.  0.
        3    1    3    3  502    0  0.85853598820E+03  0.13618178876E+04  0.27557799230E+03  0.16332713314E+04  0.10100000352E+00 0.  1.
       -3    1    3    3    0  502 -0.85853598820E+03 -0.13618178876E+04  0.50976663484E+03  0.16886367384E+04  0.10100000352E+00 0. -1.
</event>
<event>
 5   0  0.1259875E-06  0.3330249E+04  0.7818609E-02  0.8155241E-01
       -3   -1    0    0    0  501  0.00000000000E+00  0.00000000000E+00  0.20458588419E+04  0.20458588444E+04  0.10100000352E+00 0.  1.
        3   -1    0    0  501    0  0.00000000000E+00  0.00000000000E+00 -0.13552445562E+04  0.13552445600E+04  0.10100000352E+00 0. -1.
    10030    2    1    2    0    0  0.00000000000E+00  0.00000000000E+00  0.69061428571E+03  0.34011034044E+04  0.33302486807E+04 0.  0.
        5    1    3    3  502    0  0.77411947474E+03  0.60380083733E+03 -0.10282164157E+04  0.14216495700E+04  0.46999998093E+01 0. -1.
       -5    1    3    3    0  502 -0.77411947474E+03 -0.60380083733E+03  0.17188307014E+04  0.19794538344E+04  0.46999998093E+01 0.  1.
</event>
<event>
 5   0  0.1339825E-06  0.3321916E+04  0.7818609E-02  0.8157341E-01
       -1   -1    0    0    0  501  0.00000000000E+00  0.00000000000E+00  0.14118169604E+04  0.14118169604E+04  0.50400001928E-02 0.  1.
        1   -1    0    0  501    0  0.00000000000E+00  0.00000000000E+00 -0.19540639729E+04  0.19540639729E+04  0.50400001928E-02 0. -1.
    10030    2    1    2    0    0  0.00000000000E+00  0.00000000000E+00 -0.54224701247E+03  0.33658809333E+04  0.33219155068E+04 0.  0.
        3    1    3    3  502    0 -0.11826925631E+03  0.49019661340E+03 -0.18746299592E+04  0.19412670685E+04  0.10100000352E+00 0. -1.
       -3    1    3    3    0  502  0.11826925631E+03 -0.49019661340E+03  0.13323829468E+04  0.14246138648E+04  0.10100000352E+00 0.  1.
</event>
<event>
 5   0  0.1282578E-06  0.2955796E+04  0.7818609E-02  0.8256467E-01
        1   -1    0    0  501    0  0.00000000000E+00  0.00000000000E+00  0.16714282219E+04  0.16714282219E+04  0.50400001928E-02 0.  1.
       -1   -1    0    0    0  501  0.00000000000E+00  0.00000000000E+00 -0.13067762983E+04  0.13067762983E+04  0.50400001928E-02 0. -1.
    10030    2    1    2    0    0  0.00000000000E+00  0.00000000000E+00  0.36465192365E+03  0.29782045202E+04  0.29557961937E+04 0.  0.
        4    1    3    3  502    0  0.13177771240E+04 -0.60566400022E+03 -0.10411031177E+03  0.14540309487E+04  0.12699999809E+01 0. -1.
       -4    1    3    3    0  502 -0.13177771240E+04  0.60566400022E+03  0.46876223541E+03  0.15241735715E+04  0.12699999809E+01 0.  1.
</event>
<event>
 5   0  0.1352708E-06  0.3247173E+04  0.7818609E-02  0.8176469E-01
        1   -1    0    0  501    0  0.00000000000E+00  0.00000000000E+00  0.19663774011E+04  0.19663774011E+04  0.50400001928E-02 0.  1.
       -1   -1    0    0    0  501  0.00000000000E+00  0.00000000000E+00 -0.13405528765E+04  0.13405528765E+04  0.50400001928E-02 0. -1.
    10030    2    1    2    0    0  0.00000000000E+00  0.00000000000E+00  0.62582452463E+03  0.33069302776E+04  0.32471728512E+04 0.  0.
        5    1    3    3  502    0  0.10631426416E+04 -0.38182039983E+03  0.15005428458E+04  0.18782199062E+04  0.46999998093E+01 0.  1.
       -5    1    3    3    0  502 -0.10631426416E+04  0.38182039983E+03 -0.87471832116E+03  0.14287103714E+04  0.46999998093E+01 0. -1.
</event>
<event>
 5   0  0.1282578E-06  0.3296538E+04  0.7818609E-02  0.8163777E-01
        1   -1    0    0  501    0  0.00000000000E+00  0.00000000000E+00  0.17944373431E+04  0.17944373431E+04  0.50400001928E-02 0. -1.
       -1   -1    0    0    0  501  0.00000000000E+00  0.00000000000E+00 -0.15140068731E+04  0.15140068731E+04  0.50400001928E-02 0.  1.
    10030    2    1    2    0    0  0.00000000000E+00  0.00000000000E+00  0.28043046997E+03  0.33084442162E+04  0.32965378631E+04 0.  0.
        4    1    3    3  502    0  0.89966544856E+03 -0.10951160981E+03  0.15219222859E+04  0.17713384118E+04  0.12699999809E+01 0. -1.
       -4    1    3    3    0  502 -0.89966544856E+03  0.10951160981E+03 -0.12414918159E+04  0.15371058044E+04  0.12699999809E+01 0.  1.
</event>
<event>
 5   0  0.3896210E-06  0.3252829E+04  0.7818609E-02  0.8175003E-01
        2   -1    0    0  501    0  0.00000000000E+00  0.00000000000E+00  0.20296685316E+04  0.20296685316E+04  0.25500000920E-02 0. -1.
       -2   -1    0    0    0  501  0.00000000000E+00  0.00000000000E+00 -0.13032786052E+04  0.13032786052E+04  0.25500000920E-02 0.  1.
    10030    2    1    2    0    0  0.00000000000E+00  0.00000000000E+00  0.72638992642E+03  0.33329471368E+04  0.32528286600E+04 0.  0.
        3    1    3    3  502    0 -0.43066783630E+03  0.11679281670E+04  0.14357302681E+04  0.19002243029E+04  0.10100000352E+00 0. -1.
       -3    1    3    3    0  502  0.43066783630E+03 -0.11679281670E+04 -0.70934034163E+03  0.14327228339E+04  0.10100000352E+00 0.  1.
</event>
<event>
 5   0  0.1405389E-06  0.2253139E+04  0.7818609E-02  0.8496630E-01
        1   -1    0    0  501    0  0.00000000000E+00  0.00000000000E+00  0.13713476421E+04  0.13713476421E+04  0.50400001928E-02 0. -1.
       -1   -1    0    0    0  501  0.00000000000E+00  0.00000000000E+00 -0.92548284284E+03  0.92548284286E+03  0.50400001928E-02 0.  1.
    10030    2    1    2    0    0  0.00000000000E+00  0.00000000000E+00  0.44586479921E+03  0.22968304849E+04  0.22531388899E+04 0.  0.
        1    1    3    3  502    0  0.57549330092E+03 -0.96772089132E+03  0.18368316317E+03  0.11407961112E+04  0.50400001928E-02 0.  1.
       -1    1    3    3    0  502 -0.57549330092E+03  0.96772089132E+03  0.26218163605E+03  0.11560343737E+04  0.50400001928E-02 0. -1.
</event>
<event>
 5   0  0.3896210E-06  0.3583125E+04  0.7818609E-02  0.8094368E-01
       -2   -1    0    0    0  501  0.00000000000E+00  0.00000000000E+00  0.17102646085E+04  0.17102646085E+04  0.25500000920E-02 0. -1.
        2   -1    0    0  501    0  0.00000000000E+00  0.00000000000E+00 -0.18767248514E+04  0.18767248514E+04  0.25500000920E-02 0.  1.
    10030    2    1    2    0    0  0.00000000000E+00  0.00000000000E+00 -0.16646024294E+03  0.35869894599E+04  0.35831249452E+04 0.  0.
        3    1    3    3  502    0 -0.67311533473E+03 -0.10337825764E+04 -0.13838254840E+04  0.18538510322E+04  0.10100000352E+00 0.  1.
       -3    1    3    3    0  502  0.67311533473E+03  0.10337825764E+04  0.12173652410E+04  0.17331384277E+04  0.10100000352E+00 0. -1.
</event>
<event>
 5   0  0.3920487E-06  0.3305723E+04  0.7818609E-02  0.8161441E-01
        2   -1    0    0  501    0  0.00000000000E+00  0.00000000000E+00  0.20580515623E+04  0.20580515623E+04  0.25500000920E-02 0.  1.
       -2   -1    0    0    0  501  0.00000000000E+00  0.00000000000E+00 -0.13274452098E+04  0.13274452098E+04  0.25500000920E-02 0. -1.
    10030    2    1    2    0    0  0.00000000000E+00  0.00000000000E+00  0.73060635248E+03  0.33854967721E+04  0.33057227276E+04 0.  0.
        4    1    3    3  502    0  0.70324946811E+03 -0.21252486044E+03  0.18816491076E+04  0.20199830711E+04  0.12699999809E+01 0.  1.
       -4    1    3    3    0  502 -0.70324946811E+03  0.21252486044E+03 -0.11510427551E+04  0.13655137010E+04  0.12699999809E+01 0. -1.
</event>
<event>
 5   0  0.1282578E-06  0.2344647E+04  0.7818609E-02  0.8460523E-01
        1   -1    0    0  501    0  0.00000000000E+00  0.00000000000E+00  0.14825640146E+04  0.14825640146E+04  0.50400001928E-02 0.  1.
       -1   -1    0    0    0  501  0.00000000000E+00  0.00000000000E+00 -0.92700349375E+03  0.92700349377E+03  0.50400001928E-02 0. -1.
    10030    2    1    2    0    0  0.00000000000E+00  0.00000000000E+00  0.55556052081E+03  0.24095675083E+04  0.23446466866E+04 0.  0.
        4    1    3    3  502    0  0.48442734892E+03  0.17573314411E+03  0.13599266867E+04  0.14542882109E+04  0.12699999809E+01 0.  1.
       -4    1    3    3    0  502 -0.48442734892E+03 -0.17573314411E+03 -0.80436616590E+03  0.95527929741E+03  0.12699999809E+01 0. -1.
</event>
<event>
 5   0  0.1405389E-06  0.3292523E+04  0.7818609E-02  0.8164800E-01
        1   -1    0    0  501    0  0.00000000000E+00  0.00000000000E+00  0.25510315368E+04  0.25510315368E+04  0.50400001928E-02 0.  1.
       -1   -1    0    0    0  501  0.00000000000E+00  0.00000000000E+00 -0.10623848149E+04  0.10623848149E+04  0.50400001928E-02 0. -1.
    10030    2    1    2    0    0  0.00000000000E+00  0.00000000000E+00  0.14886467219E+04  0.36134163517E+04  0.32925231462E+04 0.  0.
        1    1    3    3  502    0  0.84191708583E+03  0.13619890811E+04  0.11641485708E+04  0.19796667728E+04  0.50400001928E-02 0. -1.
       -1    1    3    3    0  502 -0.84191708583E+03 -0.13619890811E+04  0.32449815114E+03  0.16337495789E+04  0.50400001928E-02 0.  1.
</event>
<event>
 5   0  0.3671997E-06  0.3242632E+04  0.7818609E-02  0.8177648E-01
        2   -1    0    0  501    0  0.00000000000E+00  0.00000000000E+00  0.19495860788E+04  0.19495860788E+04  0.25500000920E-02 0.  1.
       -2   -1    0    0    0  501  0.00000000000E+00  0.00000000000E+00 -0.13483194244E+04  0.13483194244E+04  0.25500000920E-02 0. -1.
    10030    2    1    2    0    0  0.00000000000E+00  0.00000000000E+00  0.60126665435E+03  0.32979055032E+04  0.32426315113E+04 0.  0.
        2    1    3    3  502    0 -0.37502761274E+03  0.15583871961E+04  0.52656697209E+02  0.16037422146E+04  0.25500000920E-02 0. -1.
       -2    1    3    3    0  502  0.37502761274E+03 -0.15583871961E+04  0.54860995715E+03  0.16941632885E+04  0.25500000920E-02 0.  1.
</event>
<event>
 5   0  0.3896210E-06  0.2229772E+04  0.7818609E-02  0.8506137E-01
        2   -1    0    0  501    0  0.00000000000E+00  0.00000000000E+00  0.19906229355E+04  0.19906229355E+04  0.25500000920E-02 0.  1.
       -2   -1    0    0    0  501  0.00000000000E+00  0.00000000000E+00 -0.62441313607E+03  0.62441313607E+03  0.25500000920E-02 0. -1.
    10030    2    1    2    0    0  0.00000000000E+00  0.00000000000E+00  0.13662097994E+04  0.26150360716E+04  0.22297722842E+04 0.  0.
        3    1    3    3  502    0  0.21018066100E+03 -0.10715367646E+04  0.94692643585E+03  0.14453500037E+04  0.10100000352E+00 0. -1.
       -3    1    3    3    0  502 -0.21018066100E+03  0.10715367646E+04  0.41928336359E+03  0.11696860679E+04  0.10100000352E+00 0.  1.
</event>
<event>
 5   0  0.1282578E-06  0.3246068E+04  0.7818609E-02  0.8176755E-01
       -1   -1    0    0    0  501  0.00000000000E+00  0.00000000000E+00  0.16146027192E+04  0.16146027192E+04  0.50400001928E-02 0. -1.
        1   -1    0    0  501    0  0.00000000000E+00  0.00000000000E+00 -0.16315097410E+04  0.16315097410E+04  0.50400001928E-02 0.  1.
    10030    2    1    2    0    0  0.00000000000E+00  0.00000000000E+00 -0.16907021798E+02  0.32461124601E+04  0.32460684307E+04 0.  0.
        4    1    3    3  502    0  0.83296109822E+03 -0.93222015518E+03  0.10266353292E+04  0.16176650830E+04  0.12699999809E+01 0. -1.
       -4    1    3    3    0  502 -0.83296109822E+03  0.93222015518E+03 -0.10435423510E+04  0.16284473771E+04  0.12699999809E+01 0.  1.
</event>
<event>
 5   0  0.1391878E-06  0.2945202E+04  0.7818609E-02  0.8259554E-01
       -1   -1    0    0    0  501  0.00000000000E+00  0.00000000000E+00  0.13410470561E+04  0.13410470561E+04  0.50400001928E-02 0.  1.
        1   -1    0    0  501    0  0.00000000000E+00  0.00000000000E+00 -0.16170601920E+04  0.16170601920E+04  0.50400001928E-02 0. -1.
    10030    2    1    2    0    0  0.00000000000E+00  0.00000000000E+00 -0.27601313596E+03  0.29581072481E+04  0.29452020712E+04 0.  0.
        2    1    3    3  502    0 -0.59333188761E+03 -0.65920851923E+03  0.10427103933E+04  0.13688840582E+04  0.25500000920E-02 0.  1.
       -2    1    3    3    0  502  0.59333188761E+03  0.65920851923E+03 -0.13187235292E+04  0.15892231899E+04  0.25500000920E-02 0. -1.
</event>
<event>
 5   0  0.1405389E-06  0.2228999E+04  0.7818609E-02  0.8506454E-01
       -1   -1    0    0    0  501  0.00000000000E+00  0.00000000000E+00  0.78345981694E+03  0.78345981696E+03  0.50400001928E-02 0.  1.
        1   -1    0    0  501    0  0.00000000000E+00  0.00000000000E+00 -0.15854156690E+04  0.15854156690E+04  0.50400001928E-02 0. -1.
    10030    2    1    2    0    0  0.00000000000E+00  0.00000000000E+00 -0.80195585208E+03  0.23688754860E+04  0.22289993000E+04 0.  0.
        1    1    3    3  502    0  0.41281967592E+03 -0.94406732845E+03  0.50443512394E+02  0.10316141495E+04  0.50400001928E-02 0.  1.
       -1    1    3    3    0  502 -0.41281967592E+03  0.94406732845E+03 -0.85239936447E+03  0.13372613365E+04  0.50400001928E-02 0. -1.
</event>
<event>
 5   0  0.3671997E-06  0.3296421E+04  0.7818609E-02  0.8163807E-01
        2   -1    0    0  501    0  0.00000000000E+00  0.00000000000E+00  0.14605635014E+04  0.14605635014E+04  0.25500000920E-02 0. -1.
       -2   -1    0    0    0  501  0.00000000000E+00  0.00000000000E+00 -0.18599655987E+04  0.18599655987E+04  0.25500000920E-02 0.  1.
    10030    2    1    2    0    0  0.00000000000E+00  0.00000000000E+00 -0.39940209726E+03  0.33205291001E+04  0.32964210091E+04 0.  0.
        2    1    3    3  502    0 -0.15273523285E+04 -0.36552779827E+03 -0.70354121501E+03  0.17208677892E+04  0.25500000920E-02 0.  1.
       -2    1    3    3    0  502  0.15273523285E+04  0.36552779827E+03  0.30413911775E+03  0.15996613109E+04  0.25500000920E-02 0. -1.
</event>
<event>
 5   0  0.1352708E-06  0.3446776E+04  0.7818609E-02  0.8126520E-01
        1   -1    0    0  501    0  0.00000000000E+00  0.00000000000E+00  0.31249191704E+04  0.31249191705E+04  0.50400001928E-02 0. -1.
       -1   -1    0    0    0  501  0.00000000000E+00  0.00000000000E+00 -0.95044574554E+03  0.95044574555E+03  0.50400001928E-02 0.  1.
    10030    2    1    2    0    0  0.00000000000E+00  0.00000000000E+00  0.21744734249E+04  0.40753649160E+04  0.34467759607E+04 0.  0.
        5    1    3    3  502    0  0.74238137138E+03  0.59865380684E+03  0.27844743768E+04  0.29432696319E+04  0.46999998093E+01 0. -1.
       -5    1    3    3    0  502 -0.74238137138E+03 -0.59865380684E+03 -0.61000095188E+03  0.11320952841E+04  0.46999998093E+01 0.  1.
</event>
<event>
 5   0  0.1339825E-06  0.3118244E+04  0.7818609E-02  0.8210749E-01
       -1   -1    0    0    0  501  0.00000000000E+00  0.00000000000E+00  0.14088431233E+04  0.14088431233E+04  0.50400001928E-02 0. -1.
        1   -1    0    0  501    0  0.00000000000E+00  0.00000000000E+00 -0.17254313418E+04  0.17254313418E+04  0.50400001928E-02 0.  1.
    10030    2    1    2    0    0  0.00000000000E+00  0.00000000000E+00 -0.31658821843E+03  0.31342744651E+04  0.31182444296E+04 0.  0.
        3    1    3    3  502    0 -0.90605195610E+03  0.78619722100E+01 -0.14336232645E+04  0.16959562590E+04  0.10100000352E+00 0.  1.
       -3    1    3    3    0  502  0.90605195610E+03 -0.78619722100E+01  0.11170350460E+04  0.14383182061E+04  0.10100000352E+00 0. -1.
</event>
<event>
 5   0  0.3896210E-06  0.3286835E+04  0.7818609E-02  0.8166253E-01
        2   -1    0    0  501    0  0.00000000000E+00  0.00000000000E+00  0.20751291754E+04  0.20751291754E+04  0.25500000920E-02 0. -1.
       -2   -1    0    0    0  501  0.00000000000E+00  0.00000000000E+00 -0.13015192660E+04  0.13015192660E+04  0.25500000920E-02 0.  1.
    10030    2    1    2    0    0  0.00000000000E+00  0.00000000000E+00  0.77360990941E+03  0.33766484414E+04  0.32868347091E+04 0.  0.
        3    1    3    3  502    0 -0.59318828454E+03 -0.65677667066E+03  0.18094159495E+04  0.20142527211E+04  0.10100000352E+00 0. -1.
       -3    1    3    3    0  502  0.59318828454E+03  0.65677667066E+03 -0.10358060400E+04  0.13623957204E+04  0.10100000352E+00 0.  1.
</event>
<event>
 5   0  0.3896210E-06  0.3289904E+04  0.7818609E-02  0.8165469E-01
        2   -1    0    0  501    0  0.00000000000E+00  0.00000000000E+00  0.22115403827E+04  0.22115403827E+04  0.25500000920E-02 0. -1.
       -2   -1    0    0    0  501  0.00000000000E+00  0.00000000000E+00 -0.12235217386E+04  0.12235217386E+04  0.25500000920E-02 0.  1.
    10030    2    1    2    0    0  0.00000000000E+00  0.00000000000E+00  0.98801864413E+03  0.34350621213E+04  0.32899043962E+04 0.  0.
        3    1    3    3  502    0 -0.53468952805E+03 -0.14724646082E+04  0.10179701874E+04  0.18682366623E+04  0.10100000352E+00 0. -1.
       -3    1    3    3    0  502  0.53468952805E+03  0.14724646082E+04 -0.29951543288E+02  0.15668254590E+04  0.10100000352E+00 0.  1.
</event>
<event>
 5   0  0.1405389E-06  0.2875276E+04  0.7818609E-02  0.8280272E-01
        1   -1    0    0  501    0  0.00000000000E+00  0.00000000000E+00  0.17218621780E+04  0.17218621780E+04  0.50400001928E-02 0. -1.
       -1   -1    0    0    0  501  0.00000000000E+00  0.00000000000E+00 -0.12003299768E+04  0.12003299768E+04  0.50400001928E-02 0.  1.
    10030    2    1    2    0    0  0.00000000000E+00  0.00000000000E+00  0.52153220115E+03  0.29221921548E+04  0.28752758394E+04 0.  0.
        1    1    3    3  502    0  0.27404681334E+03 -0.68282099900E+03  0.15160130823E+04  0.16851236864E+04  0.50400001928E-02 0. -1.
       -1    1    3    3    0  502 -0.27404681334E+03  0.68282099900E+03 -0.99448088116E+03  0.12370684684E+04  0.50400001928E-02 0.  1.
</event>
<event>
 5   0  0.4017247E-06  0.3349618E+04  0.7818609E-02  0.8150384E-01
        2   -1    0    0  501    0  0.00000000000E+00  0.00000000000E+00  0.96146344857E+03  0.96146344857E+03  0.25500000920E-02 0.  1.
       -2   -1    0    0    0  501  0.00000000000E+00  0.00000000000E+00 -0.29174119167E+04  0.29174119167E+04  0.25500000920E-02 0. -1.
    10030    2    1    2    0    0  0.00000000000E+00  0.00000000000E+00 -0.19559484681E+04  0.38788753652E+04  0.33496178423E+04 0.  0.
        1    1    3    3  502    0  0.11674195566E+04 -0.46253058474E+03  0.30536632750E+03  0.12923047461E+04  0.50400001928E-02 0.  1.
       -1    1    3    3    0  502 -0.11674195566E+04  0.46253058474E+03 -0.22613147956E+04  0.25865706191E+04  0.50400001928E-02 0. -1.
</event>
<event>
 5   0  0.1391878E-06  0.3282082E+04  0.7818609E-02  0.8167470E-01
        1   -1    0    0  501    0  0.00000000000E+00  0.00000000000E+00  0.20652809363E+04  0.20652809363E+04  0.50400001928E-02 0. -1.
       -1   -1    0    0    0  501  0.00000000000E+00  0.00000000000E+00 -0.13039464178E+04  0.13039464178E+04  0.50400001928E-02 0.  1.
    10030    2    1    2    0    0  0.00000000000E+00  0.00000000000E+00  0.76133451847E+03  0.33692273542E+04  0.32820820701E+04 0.  0.
        2    1    3    3  502    0 -0.39847894425E+02 -0.15561636457E+04  0.91386437848E+03  0.18050986813E+04  0.25500000920E-02 0. -1.
       -2    1    3    3    0  502  0.39847894425E+02  0.15561636457E+04 -0.15252986001E+03  0.15641286728E+04  0.25500000920E-02 0.  1.
</event>
<event>
 5   0  0.1405389E-06  0.3260021E+04  0.7818609E-02  0.8173143E-01
        1   -1    0    0  501    0  0.00000000000E+00  0.00000000000E+00  0.24013505762E+04  0.24013505762E+04  0.50400001928E-02 0.  1.
       -1   -1    0    0    0  501  0.00000000000E+00  0.00000000000E+00 -0.11064333717E+04  0.11064333717E+04  0.50400001928E-02 0. -1.
    10030    2    1    2    0    0  0.00000000000E+00  0.00000000000E+00  0.12949172045E+04  0.35077839479E+04  0.32600211132E+04 0.  0.
        1    1    3    3  502    0 -0.17319914604E+03 -0.22905505317E+03  0.23739179739E+04  0.23912236844E+04  0.50400001928E-02 0.  1.
       -1    1    3    3    0  502  0.17319914604E+03  0.22905505317E+03 -0.10790007694E+04  0.11165602635E+04  0.50400001928E-02 0. -1.
</event>
<event>
 5   0  0.1259875E-06  0.3280374E+04  0.7818609E-02  0.8167907E-01
       -4   -1    0    0    0  501  0.00000000000E+00  0.00000000000E+00  0.19382384964E+04  0.19382389124E+04  0.12699999809E+01 0. -1.
        4   -1    0    0  501    0  0.00000000000E+00  0.00000000000E+00 -0.13879674081E+04  0.13879679891E+04  0.12699999809E+01 0.  1.
    10030    2    1    2    0    0  0.00000000000E+00  0.00000000000E+00  0.55027108829E+03  0.33262069016E+04  0.32803740764E+04 0.  0.
        3    1    3    3  502    0  0.60210576192E+03  0.48166932956E+03  0.17430070629E+04  0.19059407973E+04  0.10100000352E+00 0. -1.
       -3    1    3    3    0  502 -0.60210576192E+03 -0.48166932956E+03 -0.11927359746E+04  0.14202661042E+04  0.10100000352E+00 0.  1.
</event>
<event>
 5   0  0.4017247E-06  0.3261543E+04  0.7818609E-02  0.8172750E-01
        2   -1    0    0  501    0  0.00000000000E+00  0.00000000000E+00  0.23124596873E+04  0.23124596873E+04  0.25500000920E-02 0. -1.
       -2   -1    0    0    0  501  0.00000000000E+00  0.00000000000E+00 -0.11500373297E+04  0.11500373297E+04  0.25500000920E-02 0.  1.
    10030    2    1    2    0    0  0.00000000000E+00  0.00000000000E+00  0.11624223576E+04  0.34624970170E+04  0.32615425577E+04 0.  0.
        1    1    3    3  502    0  0.88285251539E+02  0.30174513071E+03  0.22799817611E+04  0.23015562649E+04  0.50400001928E-02 0. -1.
       -1    1    3    3    0  502 -0.88285251539E+02 -0.30174513071E+03 -0.11175594035E+04  0.11609407521E+04  0.50400001928E-02 0.  1.
</event>
<event>
 5   0  0.1282578E-06  0.3268921E+04  0.7818609E-02  0.8170849E-01
       -1   -1    0    0    0  501  0.00000000000E+00  0.00000000000E+00  0.17057265351E+04  0.17057265351E+04  0.50400001928E-02 0.  1.
        1   -1    0    0  501    0  0.00000000000E+00  0.00000000000E+00 -0.15661723229E+04  0.15661723229E+04  0.50400001928E-02 0. -1.
    10030    2    1    2    0    0  0.00000000000E+00  0.00000000000E+00  0.13955421223E+03  0.32718988580E+04  0.32689213449E+04 0.  0.
        4    1    3    3  502    0 -0.10342758635E+04  0.50445966273E+03  0.12315470435E+04  0.16855016601E+04  0.12699999809E+01 0.  1.
       -4    1    3    3    0  502  0.10342758635E+04 -0.50445966273E+03 -0.10919928313E+04  0.15863971979E+04  0.12699999809E+01 0. -1.
</event>
<event>
 5   0  0.1391878E-06  0.2374476E+04  0.7818609E-02  0.8449122E-01
        1   -1    0    0  501    0  0.00000000000E+00  0.00000000000E+00  0.14491023201E+04  0.14491023201E+04  0.50400001928E-02 0. -1.
       -1   -1    0    0    0  501  0.00000000000E+00  0.00000000000E+00 -0.97269476675E+03  0.97269476677E+03  0.50400001928E-02 0.  1.
    10030    2    1    2    0    0  0.00000000000E+00  0.00000000000E+00  0.47640755338E+03  0.24217970869E+04  0.23744761471E+04 0.  0.
        2    1    3    3  502    0  0.10596944993E+04  0.14375709284E+03 -0.28774317078E+03  0.11074360776E+04  0.25500000920E-02 0.  1.
       -2    1    3    3    0  502 -0.10596944993E+04 -0.14375709284E+03  0.76415072416E+03  0.13143610093E+04  0.25500000920E-02 0. -1.
</event>
<event>
 5   0  0.3671997E-06  0.3292497E+04  0.7818609E-02  0.8164807E-01
        2   -1    0    0  501    0  0.00000000000E+00  0.00000000000E+00  0.22582942693E+04  0.22582942693E+04  0.25500000920E-02 0.  1.
       -2   -1    0    0    0  501  0.00000000000E+00  0.00000000000E+00 -0.12000804337E+04  0.12000804337E+04  0.25500000920E-02 0. -1.
    10030    2    1    2    0    0  0.00000000000E+00  0.00000000000E+00  0.10582138356E+04  0.34583747030E+04  0.32924973902E+04 0.  0.
        2    1    3    3  502    0 -0.12804221972E+03 -0.37930853120E+03 -0.11481716584E+04  0.12159637861E+04  0.25500000920E-02 0. -1.
       -2    1    3    3    0  502  0.12804221972E+03  0.37930853120E+03  0.22063854940E+04  0.22424109169E+04  0.25500000920E-02 0.  1.
</event>
<event>
 5   0  0.1339825E-06  0.3372338E+04  0.7818609E-02  0.8144729E-01
        1   -1    0    0  501    0  0.00000000000E+00  0.00000000000E+00  0.21670385891E+04  0.21670385891E+04  0.50400001928E-02 0. -1.
       -1   -1    0    0    0  501  0.00000000000E+00  0.00000000000E+00 -0.13120049070E+04  0.13120049070E+04  0.50400001928E-02 0.  1.
    10030    2    1    2    0    0  0.00000000000E+00  0.00000000000E+00  0.85503368208E+03  0.34790434961E+04  0.33723376240E+04 0.  0.
        3    1    3    3  502    0 -0.64950669934E+03  0.44123390382E+03  0.19669178267E+04  0.21178555327E+04  0.10100000352E+00 0. -1.
       -3    1    3    3    0  502  0.64950669934E+03 -0.44123390382E+03 -0.11118841446E+04  0.13611879634E+04  0.10100000352E+00 0.  1.
</event>
<event>
 5   0  0.3812379E-06  0.3315814E+04  0.7818609E-02  0.8158883E-01
       -2   -1    0    0    0  501  0.00000000000E+00  0.00000000000E+00  0.10281874469E+04  0.10281874469E+04  0.25500000920E-02 0.  1.
        2   -1    0    0  501    0  0.00000000000E+00  0.00000000000E+00 -0.26733026653E+04  0.26733026653E+04  0.25500000920E-02 0. -1.
    10030    2    1    2    0    0  0.00000000000E+00  0.00000000000E+00 -0.16451152184E+04  0.37014901121E+04  0.33158143749E+04 0.  0.
        5    1    3    3  502    0  0.12078361010E+04  0.76788531207E+03  0.11149660404E+03  0.14356077048E+04  0.46999998093E+01 0.  1.
       -5    1    3    3    0  502 -0.12078361010E+04 -0.76788531207E+03 -0.17566118224E+04  0.22658824074E+04  0.46999998093E+01 0. -1.
</event>
<event>
 5   0  0.1339825E-06  0.3285980E+04  0.7818609E-02  0.8166472E-01
       -1   -1    0    0    0  501  0.00000000000E+00  0.00000000000E+00  0.14930049977E+04  0.14930049977E+04  0.50400001928E-02 0. -1.
        1   -1    0    0  501    0  0.00000000000E+00  0.00000000000E+00 -0.18080427990E+04  0.18080427990E+04  0.50400001928E-02 0.  1.
    10030    2    1    2    0    0  0.00000000000E+00  0.00000000000E+00 -0.31503780129E+03  0.33010477968E+04  0.32859804839E+04 0.  0.
        3    1    3    3  502    0  0.58789131081E+02  0.16120742092E+04  0.15564356929E+03  0.16206370194E+04  0.10100000352E+00 0. -1.
       -3    1    3    3    0  502 -0.58789131081E+02 -0.16120742092E+04 -0.47068137057E+03  0.16804107774E+04  0.10100000352E+00 0.  1.
</event>
<event>
 5   0  0.3671997E-06  0.3175877E+04  0.7818609E-02  0.8195217E-01
       -2   -1    0    0    0  501  0.00000000000E+00  0.00000000000E+00  0.15491587467E+04  0.15491587467E+04  0.25500000920E-02 0. -1.
        2   -1    0    0  501    0  0.00000000000E+00  0.00000000000E+00 -0.16276889840E+04  0.16276889840E+04  0.25500000920E-02 0.  1.
    10030    2    1    2    0    0  0.00000000000E+00  0.00000000000E+00 -0.78530237307E+02  0.31768477308E+04  0.31758769665E+04 0.  0.
        2    1    3    3  502    0  0.22725715113E+03  0.78773277619E+03  0.13210696390E+04  0.15547970062E+04  0.25500000920E-02 0. -1.
       -2    1    3    3    0  502 -0.22725715113E+03 -0.78773277619E+03 -0.13995998763E+04  0.16220507246E+04  0.25500000920E-02 0.  1.
</event>
<event>
 5   0  0.3671997E-06  0.3233394E+04  0.7818609E-02  0.8180053E-01
        2   -1    0    0  501    0  0.00000000000E+00  0.00000000000E+00  0.26835028875E+04  0.26835028875E+04  0.25500000920E-02 0. -1.
       -2   -1    0    0    0  501  0.00000000000E+00  0.00000000000E+00 -0.97399155123E+03  0.97399155123E+03  0.25500000920E-02 0.  1.
    10030    2    1    2    0    0  0.00000000000E+00  0.00000000000E+00  0.17095113363E+04  0.36574944387E+04  0.32333939693E+04 0.  0.
        2    1    3    3  502    0  0.11390101648E+02 -0.16124072381E+04  0.98726259165E+03  0.18906808987E+04  0.25500000920E-02 0.  1.
       -2    1    3    3    0  502 -0.11390101648E+02  0.16124072381E+04  0.72224874461E+03  0.17668135400E+04  0.25500000920E-02 0. -1.
</event>
<event>
 5   0  0.1405389E-06  0.3478853E+04  0.7818609E-02  0.8118820E-01
        1   -1    0    0  501    0  0.00000000000E+00  0.00000000000E+00  0.18090511705E+04  0.18090511705E+04  0.50400001928E-02 0.  1.
       -1   -1    0    0    0  501  0.00000000000E+00  0.00000000000E+00 -0.16724812142E+04  0.16724812142E+04  0.50400001928E-02 0. -1.
    10030    2    1    2    0    0  0.00000000000E+00  0.00000000000E+00  0.13656995622E+03  0.34815323847E+04  0.34788527409E+04 0.  0.
        1    1    3    3  502    0  0.15058108832E+04  0.40976751847E+03 -0.70056993633E+03  0.17106063459E+04  0.50400001928E-02 0. -1.
       -1    1    3    3    0  502 -0.15058108832E+04 -0.40976751847E+03  0.83713989254E+03  0.17709260388E+04  0.50400001928E-02 0.  1.
</event>
<event>
 5   0  0.3896210E-06  0.3258971E+04  0.7818609E-02  0.8173414E-01
       -2   -1    0    0    0  501  0.00000000000E+00  0.00000000000E+00  0.13707214926E+04  0.13707214926E+04  0.25500000920E-02 0. -1.
        2   -1    0    0  501    0  0.00000000000E+00  0.00000000000E+00 -0.19370991483E+04  0.19370991483E+04  0.25500000920E-02 0.  1.
    10030    2    1    2    0    0  0.00000000000E+00  0.00000000000E+00 -0.56637765574E+03  0.33078206409E+04  0.32589712707E+04 0.  0.
        3    1    3    3  502    0  0.89678043714E+03  0.11670741128E+04  0.42653926786E+03  0.15323879712E+04  0.10100000352E+00 0. -1.
       -3    1    3    3    0  502 -0.89678043714E+03 -0.11670741128E+04 -0.99291692360E+03  0.17754326697E+04  0.10100000352E+00 0.  1.
</event>
<event>
 5   0  0.3671997E-06  0.3228074E+04  0.7818609E-02  0.8181442E-01
        2   -1    0    0  501    0  0.00000000000E+00  0.00000000000E+00  0.18815900309E+04  0.18815900309E+04  0.25500000920E-02 0. -1.
       -2   -1    0    0    0  501  0.00000000000E+00  0.00000000000E+00 -0.13845287334E+04  0.13845287334E+04  0.25500000920E-02 0.  1.
    10030    2    1    2    0    0  0.00000000000E+00  0.00000000000E+00  0.49706129745E+03  0.32661187643E+04  0.32280740155E+04 0.  0.
        2    1    3    3  502    0 -0.10711149995E+04  0.11658197944E+04 -0.69325182818E+02  0.15846858099E+04  0.25500000920E-02 0. -1.
       -2    1    3    3    0  502  0.10711149995E+04 -0.11658197944E+04  0.56638648027E+03  0.16814329544E+04  0.25500000920E-02 0.  1.
</event>
<event>
 5   0  0.1339825E-06  0.3258285E+04  0.7818609E-02  0.8173592E-01
        1   -1    0    0  501    0  0.00000000000E+00  0.00000000000E+00  0.17251161773E+04  0.17251161773E+04  0.50400001928E-02 0. -1.
       -1   -1    0    0    0  501  0.00000000000E+00  0.00000000000E+00 -0.15385083694E+04  0.15385083694E+04  0.50400001928E-02 0.  1.
    10030    2    1    2    0    0  0.00000000000E+00  0.00000000000E+00  0.18660780789E+03  0.32636245467E+04  0.32582852404E+04 0.  0.
        3    1    3    3  502    0  0.11773397757E+03  0.59147882049E+03  0.16091897229E+04  0.17184877244E+04  0.10100000352E+00 0. -1.
       -3    1    3    3    0  502 -0.11773397757E+03 -0.59147882049E+03 -0.14225819150E+04  0.15451368223E+04  0.10100000352E+00 0.  1.
</event>
<event>
 5   0  0.1339825E-06  0.2710451E+04  0.7818609E-02  0.8331622E-01
       -1   -1    0    0    0  501  0.00000000000E+00  0.00000000000E+00  0.11683386705E+04  0.11683386705E+04  0.50400001928E-02 0. -1.
        1   -1    0    0  501    0  0.00000000000E+00  0.00000000000E+00 -0.15720071612E+04  0.15720071612E+04  0.50400001928E-02 0.  1.
    10030    2    1    2    0    0  0.00000000000E+00  0.00000000000E+00 -0.40366849070E+03  0.27403458317E+04  0.27104514433E+04 0.  0.
        3    1    3    3  502    0 -0.13348893904E+04  0.22760651632E+03 -0.25630175872E+03  0.13781962896E+04  0.10100000352E+00 0. -1.
       -3    1    3    3    0  502  0.13348893904E+04 -0.22760651632E+03 -0.14736673198E+03  0.13621495420E+04  0.10100000352E+00 0.  1.
</event>
<event>
 5   0  0.1282578E-06  0.3396639E+04  0.7818609E-02  0.8138732E-01
       -1   -1    0    0    0  501  0.00000000000E+00  0.00000000000E+00  0.11446131002E+04  0.11446131002E+04  0.50400001928E-02 0.  1.
        1   -1    0    0  501    0  0.00000000000E+00  0.00000000000E+00 -0.25198813981E+04  0.25198813981E+04  0.50400001928E-02 0. -1.
    10030    2    1    2    0    0  0.00000000000E+00  0.00000000000E+00 -0.13752682979E+04  0.36644944983E+04  0.33966390795E+04 0.  0.
        4    1    3    3  502    0  0.10271345977E+04  0.81285189629E+03  0.47860887131E+03  0.13945614908E+04  0.12699999809E+01 0.  1.
       -4    1    3    3    0  502 -0.10271345977E+04 -0.81285189629E+03 -0.18538771692E+04  0.22699330075E+04  0.12699999809E+01 0. -1.
</event>
<event>
 5   0  0.3896210E-06  0.3314533E+04  0.7818609E-02  0.8159207E-01
       -2   -1    0    0    0  501  0.00000000000E+00  0.00000000000E+00  0.93435376438E+03  0.93435376439E+03  0.25500000920E-02 0. -1.
        2   -1    0    0  501    0  0.00000000000E+00  0.00000000000E+00 -0.29394994326E+04  0.29394994326E+04  0.25500000920E-02 0.  1.
    10030    2    1    2    0    0  0.00000000000E+00  0.00000000000E+00 -0.20051456682E+04  0.38738531970E+04  0.33145330653E+04 0.  0.
        3    1    3    3  502    0 -0.62829388138E+03  0.14702246122E+04 -0.15123113515E+04  0.22007724202E+04  0.10100000352E+00 0.  1.
       -3    1    3    3    0  502  0.62829388138E+03 -0.14702246122E+04 -0.49283431670E+03  0.16730807767E+04  0.10100000352E+00 0. -1.
</event>
<event>
 5   0  0.3671997E-06  0.3213148E+04  0.7818609E-02  0.8185354E-01
       -2   -1    0    0    0  501  0.00000000000E+00  0.00000000000E+00  0.19568802739E+04  0.19568802739E+04  0.25500000920E-02 0.  1.
        2   -1    0    0  501    0  0.00000000000E+00  0.00000000000E+00 -0.13189766649E+04  0.13189766649E+04  0.25500000920E-02 0. -1.
    10030    2    1    2    0    0  0.00000000000E+00  0.00000000000E+00  0.63790360901E+03  0.32758569387E+04  0.32131476263E+04 0.  0.
        2    1    3    3  502    0 -0.82137710370E+03  0.49751137585E+03 -0.99416859420E+03  0.13822261426E+04  0.25500000920E-02 0. -1.
       -2    1    3    3    0  502  0.82137710370E+03 -0.49751137585E+03  0.16320722032E+04  0.18936307961E+04  0.25500000920E-02 0.  1.
</event>
<event>
 5   0  0.3920487E-06  0.2919196E+04  0.7818609E-02  0.8267189E-01
       -2   -1    0    0    0  501  0.00000000000E+00  0.00000000000E+00  0.14853159580E+04  0.14853159580E+04  0.25500000920E-02 0.  1.
        2   -1    0    0  501    0  0.00000000000E+00  0.00000000000E+00 -0.14343253424E+04  0.14343253424E+04  0.25500000920E-02 0. -1.
    10030    2    1    2    0    0  0.00000000000E+00  0.00000000000E+00  0.50990615623E+02  0.29196413004E+04  0.29191959989E+04 0.  0.
        4    1    3    3  502    0  0.11229118285E+04 -0.85681290318E+03 -0.34248116242E+03  0.14533940571E+04  0.12699999809E+01 0.  1.
       -4    1    3    3    0  502 -0.11229118285E+04  0.85681290318E+03  0.39347177805E+03  0.14662472433E+04  0.12699999809E+01 0. -1.
</event>
<event>
 5   0  0.1391878E-06  0.3311130E+04  0.7818609E-02  0.8160069E-01
        1   -1    0    0  501    0  0.00000000000E+00  0.00000000000E+00  0.12344252736E+04  0.12344252737E+04  0.50400001928E-02 0. -1.
       -1   -1    0    0    0  501  0.00000000000E+00  0.00000000000E+00 -0.22203824587E+04  0.22203824587E+04  0.50400001928E-02 0.  1.
    10030    2    1    2    0    0  0.00000000000E+00  0.00000000000E+00 -0.98595718501E+03  0.34548077323E+04  0.33111304560E+04 0.  0.
        2    1    3    3  502    0 -0.46414064997E+03  0.31404505631E+03 -0.21184099917E+04  0.21912808431E+04  0.25500000920E-02 0.  1.
       -2    1    3    3    0  502  0.46414064997E+03 -0.31404505631E+03  0.11324528067E+04  0.12635268892E+04  0.25500000920E-02 0. -1.
</event>
<event>
 5   0  0.4017247E-06  0.3144599E+04  0.7818609E-02  0.8203604E-01
       -2   -1    0    0    0  501  0.00000000000E+00  0.00000000000E+00  0.10137209069E+04  0.10137209069E+04  0.25500000920E-02 0. -1.
        2   -1    0    0  501    0  0.00000000000E+00  0.00000000000E+00 -0.24386646717E+04  0.24386646717E+04  0.25500000920E-02 0.  1.
    10030    2    1    2    0    0  0.00000000000E+00  0.00000000000E+00 -0.14249437647E+04  0.34523855786E+04  0.31445987742E+04 0.  0.
        1    1    3    3  502    0 -0.13038796053E+04 -0.45872462003E+03 -0.15352177177E+04  0.20657743689E+04  0.50400001928E-02 0.  1.
       -1    1    3    3    0  502  0.13038796053E+04  0.45872462003E+03  0.11027395300E+03  0.13866112097E+04  0.50400001928E-02 0. -1.
</event>
<event>
 5   0  0.3671997E-06  0.2657453E+04  0.7818609E-02  0.8348943E-01
       -2   -1    0    0    0  501  0.00000000000E+00  0.00000000000E+00  0.13598980546E+04  0.13598980546E+04  0.25500000920E-02 0. -1.
        2   -1    0    0  501    0  0.00000000000E+00  0.00000000000E+00 -0.12982699112E+04  0.12982699112E+04  0.25500000920E-02 0.  1.
    10030    2    1    2    0    0  0.00000000000E+00  0.00000000000E+00  0.61628143420E+02  0.26581679659E+04  0.26574534627E+04 0.  0.
        2    1    3    3  502    0  0.65668877253E+03 -0.11826084069E+02 -0.11245439828E+04  0.13022976501E+04  0.25500000920E-02 0.  1.
       -2    1    3    3    0  502 -0.65668877253E+03  0.11826084069E+02  0.11861721262E+04  0.13558703158E+04  0.25500000920E-02 0. -1.
</event>
<event>
 5   0  0.1405389E-06  0.3267325E+04  0.7818609E-02  0.8171260E-01
       -1   -1    0    0    0  501  0.00000000000E+00  0.00000000000E+00  0.14306902408E+04  0.14306902409E+04  0.50400001928E-02 0. -1.
        1   -1    0    0  501    0  0.00000000000E+00  0.00000000000E+00 -0.18654302705E+04  0.18654302705E+04  0.50400001928E-02 0.  1.
    10030    2    1    2    0    0  0.00000000000E+00  0.00000000000E+00 -0.43474002962E+03  0.32961205113E+04  0.32673248280E+04 0.  0.
        1    1    3    3  502    0  0.85718880934E+03  0.39911004771E+03  0.11265840539E+04  0.14708001617E+04  0.50400001928E-02 0. -1.
       -1    1    3    3    0  502 -0.85718880934E+03 -0.39911004771E+03 -0.15613240835E+04  0.18253203497E+04  0.50400001928E-02 0.  1.
</event>
<event>
 5   0  0.1339825E-06  0.3428388E+04  0.7818609E-02  0.8130974E-01
       -1   -1    0    0    0  501  0.00000000000E+00  0.00000000000E+00  0.27643888066E+04  0.27643888066E+04  0.50400001928E-02 0. -1.
        1   -1    0    0  501    0  0.00000000000E+00  0.00000000000E+00 -0.10629693387E+04  0.10629693387E+04  0.50400001928E-02 0.  1.
    10030    2    1    2    0    0  0.00000000000E+00  0.00000000000E+00  0.17014194679E+04  0.38273581453E+04  0.34283876921E+04 0.  0.
        3    1    3    3  502    0  0.72448175456E+03 -0.10150137138E+04 -0.46231432155E+03  0.13299854112E+04  0.10100000352E+00 0.  1.
       -3    1    3    3    0  502 -0.72448175456E+03  0.10150137138E+04  0.21637337894E+04  0.24973727342E+04  0.10100000352E+00 0. -1.
</event>
<event>
 5   0  0.1282578E-06  0.3388103E+04  0.7818609E-02  0.8140833E-01
        1   -1    0    0  501    0  0.00000000000E+00  0.00000000000E+00  0.19304109219E+04  0.19304109219E+04  0.50400001928E-02 0.  1.
       -1   -1    0    0    0  501  0.00000000000E+00  0.00000000000E+00 -0.14866315692E+04  0.14866315692E+04  0.50400001928E-02 0. -1.
    10030    2    1    2    0    0  0.00000000000E+00  0.00000000000E+00  0.44377935270E+03  0.34170424912E+04  0.33881026065E+04 0.  0.
        4    1    3    3  502    0 -0.15585516488E+04 -0.29774040060E+03  0.82031753037E+03  0.17862404798E+04  0.12699999809E+01 0.  1.
       -4    1    3    3    0  502  0.15585516488E+04  0.29774040060E+03 -0.37653817766E+03  0.16308020114E+04  0.12699999809E+01 0. -1.
</event>
<event>
 5   0  0.1339825E-06  0.2764840E+04  0.7818609E-02  0.8314268E-01
        1   -1    0    0  501    0  0.00000000000E+00  0.00000000000E+00  0.16194333164E+04  0.16194333164E+04  0.50400001928E-02 0.  1.
       -1   -1    0    0    0  501  0.00000000000E+00  0.00000000000E+00 -0.11800946813E+04  0.11800946813E+04  0.50400001928E-02 0. -1.
    10030    2    1    2    0    0  0.00000000000E+00  0.00000000000E+00  0.43933863508E+03  0.27995279976E+04  0.27648397012E+04 0.  0.
        3    1    3    3  502    0  0.38953766317E+03 -0.12324818529E+04  0.71605818813E+03  0.14776638480E+04  0.10100000352E+00 0.  1.
       -3    1    3    3    0  502 -0.38953766317E+03  0.12324818529E+04 -0.27671955305E+03  0.13218641496E+04  0.10100000352E+00 0. -1.
</event>
<event>
 5   0  0.3896210E-06  0.3267344E+04  0.7818609E-02  0.8171255E-01
        2   -1    0    0  501    0  0.00000000000E+00  0.00000000000E+00  0.11409067808E+04  0.11409067808E+04  0.25500000920E-02 0.  1.
       -2   -1    0    0    0  501  0.00000000000E+00  0.00000000000E+00 -0.23392656592E+04  0.23392656592E+04  0.25500000920E-02 0. -1.
    10030    2    1    2    0    0  0.00000000000E+00  0.00000000000E+00 -0.11983588784E+04  0.34801724400E+04  0.32673439076E+04 0.  0.
        3    1    3    3  502    0  0.43631220112E+03 -0.34486958349E+03  0.10369713640E+04  0.11766957918E+04  0.10100000352E+00 0.  1.
       -3    1    3    3    0  502 -0.43631220112E+03  0.34486958349E+03 -0.22353302423E+04  0.23034766482E+04  0.10100000352E+00 0. -1.
</event>
<event>
 5   0  0.1282578E-06  0.3106959E+04  0.7818609E-02  0.8213831E-01
        1   -1    0    0  501    0  0.00000000000E+00  0.00000000000E+00  0.15691931744E+04  0.15691931744E+04  0.50400001928E-02 0.  1.
       -1   -1    0    0    0  501  0.00000000000E+00  0.00000000000E+00 -0.15379236216E+04  0.15379236216E+04  0.50400001928E-02 0. -1.
    10030    2    1    2    0    0  0.00000000000E+00  0.00000000000E+00  0.31269552732E+02  0.31071167960E+04  0.31069594460E+04 0.  0.
        4    1    3    3  502    0 -0.89401721814E+03  0.75984567406E+03 -0.10025844571E+04  0.15433111939E+04  0.12699999809E+01 0. -1.
       -4    1    3    3    0  502  0.89401721814E+03 -0.75984567406E+03  0.10338540098E+04  0.15638056021E+04  0.12699999809E+01 0.  1.
</event>
<event>
 5   0  0.4017247E-06  0.3253244E+04  0.7818609E-02  0.8174895E-01
       -2   -1    0    0    0  501  0.00000000000E+00  0.00000000000E+00  0.13865540451E+04  0.13865540451E+04  0.25500000920E-02 0.  1.
        2   -1    0    0  501    0  0.00000000000E+00  0.00000000000E+00 -0.19082556227E+04  0.19082556227E+04  0.25500000920E-02 0. -1.
    10030    2    1    2    0    0  0.00000000000E+00  0.00000000000E+00 -0.52170157760E+03  0.32948096678E+04  0.32532442593E+04 0.  0.
        1    1    3    3  502    0  0.14085683315E+04 -0.48562514353E+03  0.40017743470E+03  0.15427373411E+04  0.50400001928E-02 0.  1.
       -1    1    3    3    0  502 -0.14085683315E+04  0.48562514353E+03 -0.92187901230E+03  0.17520723266E+04  0.50400001928E-02 0. -1.
</event>
<event>
 5   0  0.1391878E-06  0.2072449E+04  0.7818609E-02  0.8573478E-01
        1   -1    0    0  501    0  0.00000000000E+00  0.00000000000E+00  0.55147648733E+03  0.55147648735E+03  0.50400001928E-02 0. -1.
       -1   -1    0    0    0  501  0.00000000000E+00  0.00000000000E+00 -0.19470665021E+04  0.19470665021E+04  0.50400001928E-02 0.  1.
    10030    2    1    2    0    0  0.00000000000E+00  0.00000000000E+00 -0.13955900148E+04  0.24985429894E+04  0.20724491745E+04 0.  0.
        2    1    3    3  502    0 -0.78004658776E+02 -0.10277824245E+04 -0.56941168028E+03  0.11775615061E+04  0.25500000920E-02 0. -1.
       -2    1    3    3    0  502  0.78004658776E+02  0.10277824245E+04 -0.82617833448E+03  0.13209814834E+04  0.25500000920E-02 0.  1.
</event>
<event>
 5   0  0.1339825E-06  0.3247553E+04  0.7818609E-02  0.8176370E-01
       -1   -1    0    0    0  501  0.00000000000E+00  0.00000000000E+00  0.14271163222E+04  0.14271163223E+04  0.50400001928E-02 0. -1.
        1   -1    0    0  501    0  0.00000000000E+00  0.00000000000E+00 -0.18475368962E+04  0.18475368962E+04  0.50400001928E-02 0.  1.
    10030    2    1    2    0    0  0.00000000000E+00  0.00000000000E+00 -0.42042057391E+03  0.32746532184E+04  0.32475529621E+04 0.  0.
        3    1    3    3  502    0 -0.24361961740E+03  0.83780411640E+03  0.11706640313E+04  0.14600412802E+04  0.10100000352E+00 0. -1.
       -3    1    3    3    0  502  0.24361961740E+03 -0.83780411640E+03 -0.15910846052E+04  0.18146119383E+04  0.10100000352E+00 0.  1.
</event>
<event>
 5   0  0.3920487E-06  0.3309981E+04  0.7818609E-02  0.8160360E-01
        2   -1    0    0  501    0  0.00000000000E+00  0.00000000000E+00  0.10821818577E+04  0.10821818577E+04  0.25500000920E-02 0. -1.
       -2   -1    0    0    0  501  0.00000000000E+00  0.00000000000E+00 -0.25309918421E+04  0.25309918421E+04  0.25500000920E-02 0.  1.
    10030    2    1    2    0    0  0.00000000000E+00  0.00000000000E+00 -0.14488099844E+04  0.36131736999E+04  0.33099809387E+04 0.  0.
        4    1    3    3  502    0  0.12790071996E+04  0.18929913134E+03  0.40332790351E+03  0.13543886401E+04  0.12699999809E+01 0. -1.
       -4    1    3    3    0  502 -0.12790071996E+04 -0.18929913134E+03 -0.18521378879E+04  0.22587850598E+04  0.12699999809E+01 0.  1.
</event>
<event>
 5   0  0.1282578E-06  0.3269230E+04  0.7818609E-02  0.8170769E-01
       -1   -1    0    0    0  501  0.00000000000E+00  0.00000000000E+00  0.13496575583E+04  0.13496575583E+04  0.50400001928E-02 0.  1.
        1   -1    0    0  501    0  0.00000000000E+00  0.00000000000E+00 -0.19797358483E+04  0.19797358483E+04  0.50400001928E-02 0. -1.
    10030    2    1    2    0    0  0.00000000000E+00  0.00000000000E+00 -0.63007829004E+03  0.33293934066E+04  0.32692295429E+04 0.  0.
        4    1    3    3  502    0  0.51158918914E+03 -0.15460048799E+04 -0.45945592185E+03  0.16920271701E+04  0.12699999809E+01 0.  1.
       -4    1    3    3    0  502 -0.51158918914E+03  0.15460048799E+04 -0.17062236819E+03  0.16373662366E+04  0.12699999809E+01 0. -1.
</event>
<event>
 5   0  0.3671997E-06  0.3259230E+04  0.7818609E-02  0.8173347E-01
        2   -1    0    0  501    0  0.00000000000E+00  0.00000000000E+00  0.14083056347E+04  0.14083056347E+04  0.25500000920E-02 0. -1.
       -2   -1    0    0    0  501  0.00000000000E+00  0.00000000000E+00 -0.18857023606E+04  0.18857023606E+04  0.25500000920E-02 0.  1.
    10030    2    1    2    0    0  0.00000000000E+00  0.00000000000E+00 -0.47739672589E+03  0.32940079953E+04  0.32592301299E+04 0.  0.
        2    1    3    3  502    0 -0.12312893713E+04  0.10128433240E+04  0.10212418975E+03  0.15976089838E+04  0.25500000920E-02 0. -1.
       -2    1    3    3    0  502  0.12312893713E+04 -0.10128433240E+04 -0.57952091564E+03  0.16963990116E+04  0.25500000920E-02 0.  1.
</event>
<event>
 5   0  0.1352708E-06  0.2644104E+04  0.7818609E-02  0.8353373E-01
       -1   -1    0    0    0  501  0.00000000000E+00  0.00000000000E+00  0.84650746382E+03  0.84650746384E+03  0.50400001928E-02 0. -1.
        1   -1    0    0  501    0  0.00000000000E+00  0.00000000000E+00 -0.20647437345E+04  0.20647437346E+04  0.50400001928E-02 0.  1.
    10030    2    1    2    0    0  0.00000000000E+00  0.00000000000E+00 -0.12182362707E+04  0.29112511984E+04  0.26441036154E+04 0.  0.
        5    1    3    3  502    0  0.44089758495E+03  0.15862831527E+03  0.75200601709E+03  0.88605234753E+03  0.46999998093E+01 0. -1.
       -5    1    3    3    0  502 -0.44089758495E+03 -0.15862831527E+03 -0.19702422878E+04  0.20251988509E+04  0.46999998093E+01 0.  1.
</event>
<event>
 5   0  0.3896210E-06  0.2482627E+04  0.7818609E-02  0.8409201E-01
        2   -1    0    0  501    0  0.00000000000E+00  0.00000000000E+00  0.20153171624E+04  0.20153171624E+04  0.25500000920E-02 0.  1.
       -2   -1    0    0    0  501  0.00000000000E+00  0.00000000000E+00 -0.76457423324E+03  0.76457423325E+03  0.25500000920E-02 0. -1.
    10030    2    1    2    0    0  0.00000000000E+00  0.00000000000E+00  0.12507429291E+04  0.27798913956E+04  0.24826272972E+04 0.  0.
        3    1    3    3  502    0 -0.70575100001E+03  0.42510694333E+03 -0.41427299309E+03  0.92218355564E+03  0.10100000352E+00 0.  1.
       -3    1    3    3    0  502  0.70575100001E+03 -0.42510694333E+03  0.16650159222E+04  0.18577078400E+04  0.10100000352E+00 0. -1.
</event>
<event>
 5   0  0.1391878E-06  0.3350778E+04  0.7818609E-02  0.8150094E-01
       -1   -1    0    0    0  501  0.00000000000E+00  0.00000000000E+00  0.16778373225E+04  0.16778373225E+04  0.50400001928E-02 0.  1.
        1   -1    0    0  501    0  0.00000000000E+00  0.00000000000E+00 -0.16729443251E+04  0.16729443251E+04  0.50400001928E-02 0. -1.
    10030    2    1    2    0    0  0.00000000000E+00  0.00000000000E+00  0.48929974131E+01  0.33507816476E+04  0.33507780751E+04 0.  0.
        2    1    3    3  502    0  0.42636481336E+03  0.13971644079E+04  0.82285769163E+03  0.16765888338E+04  0.25500000920E-02 0.  1.
       -2    1    3    3    0  502 -0.42636481336E+03 -0.13971644079E+04 -0.81796469422E+03  0.16741928138E+04  0.25500000920E-02 0. -1.
</event>
<event>
 5   0  0.3671997E-06  0.3033840E+04  0.7818609E-02  0.8234133E-01
       -2   -1    0    0    0  501  0.00000000000E+00  0.00000000000E+00  0.10150808927E+04  0.10150808927E+04  0.25500000920E-02 0. -1.
        2   -1    0    0  501    0  0.00000000000E+00  0.00000000000E+00 -0.22668605268E+04  0.22668605268E+04  0.25500000920E-02 0.  1.
    10030    2    1    2    0    0  0.00000000000E+00  0.00000000000E+00 -0.12517796341E+04  0.32819414195E+04  0.30338403433E+04 0.  0.
        2    1    3    3  502    0 -0.80132489681E+03  0.95669285876E+03 -0.15587713139E+04  0.19967851225E+04  0.25500000920E-02 0.  1.
       -2    1    3    3    0  502  0.80132489681E+03 -0.95669285876E+03  0.30699167986E+03  0.12851562970E+04  0.25500000920E-02 0. -1.
</event>
<event>
 5   0  0.4017247E-06  0.3307220E+04  0.7818609E-02  0.8161061E-01
        2   -1    0    0  501    0  0.00000000000E+00  0.00000000000E+00  0.22137548153E+04  0.22137548153E+04  0.25500000920E-02 0. -1.
       -2   -1    0    0    0  501  0.00000000000E+00  0.00000000000E+00 -0.12351979405E+04  0.12351979405E+04  0.25500000920E-02 0.  1.
    10030    2    1    2    0    0  0.00000000000E+00  0.00000000000E+00  0.97855687481E+03  0.34489527558E+04  0.33072196109E+04 0.  0.
        1    1    3    3  502    0  0.11086573059E+04  0.11101850333E+04  0.10339582337E+04  0.18790160881E+04  0.50400001928E-02 0.  1.
       -1    1    3    3    0  502 -0.11086573059E+04 -0.11101850333E+04 -0.55401358903E+02  0.15699366678E+04  0.50400001928E-02 0. -1.
</event>
<event>
 5   0  0.1339825E-06  0.3301815E+04  0.7818609E-02  0.8162434E-01
        1   -1    0    0  501    0  0.00000000000E+00  0.00000000000E+00  0.18387775520E+04  0.18387775520E+04  0.50400001928E-02 0.  1.
       -1   -1    0    0    0  501  0.00000000000E+00  0.00000000000E+00 -0.14822327584E+04  0.14822327584E+04  0.50400001928E-02 0. -1.
    10030    2    1    2    0    0  0.00000000000E+00  0.00000000000E+00  0.35654479357E+03  0.33210103104E+04  0.33018154540E+04 0.  0.
        3    1    3    3  502    0  0.14301048096E+04  0.61241370311E+03 -0.37743019296E+03  0.16008447366E+04  0.10100000352E+00 0. -1.
       -3    1    3    3    0  502 -0.14301048096E+04 -0.61241370311E+03  0.73397498653E+03  0.17201655738E+04  0.10100000352E+00 0.  1.
</event>
<event>
 5   0  0.1282578E-06  0.2601258E+04  0.7818609E-02  0.8367774E-01
       -1   -1    0    0    0  501  0.00000000000E+00  0.00000000000E+00  0.68599573905E+03  0.68599573907E+03  0.50400001928E-02 0.  1.
        1   -1    0    0  501    0  0.00000000000E+00  0.00000000000E+00 -0.24659558934E+04  0.24659558934E+04  0.50400001928E-02 0. -1.
    10030    2    1    2    0    0  0.00000000000E+00  0.00000000000E+00 -0.17799601544E+04  0.31519516325E+04  0.26012575694E+04 0.  0.
        4    1    3    3  502    0 -0.61862271762E+03  0.11380571868E+04 -0.74781578197E+03  0.14956932452E+04  0.12699999809E+01 0.  1.
       -4    1    3    3    0  502  0.61862271762E+03 -0.11380571868E+04 -0.10321443724E+04  0.16562583873E+04  0.12699999809E+01 0. -1.
</event>
<event>
 5   0  0.3671997E-06  0.3235904E+04  0.7818609E-02  0.8179399E-01
       -2   -1    0    0    0  501  0.00000000000E+00  0.00000000000E+00  0.12915207479E+04  0.12915207479E+04  0.25500000920E-02 0. -1.
        2   -1    0    0  501    0  0.00000000000E+00  0.00000000000E+00 -0.20268892030E+04  0.20268892030E+04  0.25500000920E-02 0.  1.
    10030    2    1    2    0    0  0.00000000000E+00  0.00000000000E+00 -0.73536845511E+03  0.33184099509E+04  0.32359044852E+04 0.  0.
        2    1    3    3  502    0  0.96404272497E+02 -0.83095874234E+03  0.10525394455E+04  0.13444796390E+04  0.25500000920E-02 0. -1.
       -2    1    3    3    0  502 -0.96404272497E+02  0.83095874234E+03 -0.17879079006E+04  0.19739303119E+04  0.25500000920E-02 0.  1.
</event>
<event>
 5   0  0.3920487E-06  0.3284859E+04  0.7818609E-02  0.8166759E-01
       -2   -1    0    0    0  501  0.00000000000E+00  0.00000000000E+00  0.12552454884E+04  0.12552454884E+04  0.25500000920E-02 0. -1.
        2   -1    0    0  501    0  0.00000000000E+00  0.00000000000E+00 -0.21490415830E+04  0.21490415830E+04  0.25500000920E-02 0.  1.
    10030    2    1    2    0    0  0.00000000000E+00  0.00000000000E+00 -0.89379609460E+03  0.34042870713E+04  0.32848590541E+04 0.  0.
        4    1    3    3  502    0 -0.15375823363E+04 -0.49954765875E+03 -0.74702290785E+03  0.17809413640E+04  0.12699999809E+01 0.  1.
       -4    1    3    3    0  502  0.15375823363E+04  0.49954765875E+03 -0.14677318675E+03  0.16233457073E+04  0.12699999809E+01 0. -1.
</event>
<event>
 5   0  0.3896210E-06  0.3268564E+04  0.7818609E-02  0.8170941E-01
        2   -1    0    0  501    0  0.00000000000E+00  0.00000000000E+00  0.96331620996E+03  0.96331620997E+03  0.25500000920E-02 0. -1.
       -2   -1    0    0    0  501  0.00000000000E+00  0.00000000000E+00 -0.27725873342E+04  0.27725873342E+04  0.25500000920E-02 0.  1.
    10030    2    1    2    0    0  0.00000000000E+00  0.00000000000E+00 -0.18092711243E+04  0.37359035442E+04  0.32685644082E+04 0.  0.
        3    1    3    3  502    0 -0.12072911457E+04  0.67818689752E+03 -0.18967190605E+04  0.23484106505E+04  0.10100000352E+00 0.  1.
       -3    1    3    3    0  502  0.12072911457E+04 -0.67818689752E+03  0.87447936263E+02  0.13874928937E+04  0.10100000352E+00 0. -1.
</event>
<event>
 5   0  0.3812379E-06  0.2110964E+04  0.7818609E-02  0.8556429E-01
       -2   -1    0    0    0  501  0.00000000000E+00  0.00000000000E+00  0.74131650265E+03  0.74131650265E+03  0.25500000920E-02 0.  1.
        2   -1    0    0  501    0  0.00000000000E+00  0.00000000000E+00 -0.15027896239E+04  0.15027896239E+04  0.25500000920E-02 0. -1.
    10030    2    1    2    0    0  0.00000000000E+00  0.00000000000E+00 -0.76147312127E+03  0.22441061266E+04  0.21109644698E+04 0.  0.
        5    1    3    3  502    0  0.46120863713E+02  0.10496617401E+04 -0.48759378363E+03  0.11583120005E+04  0.46999998093E+01 0.  1.
       -5    1    3    3    0  502 -0.46120863713E+02 -0.10496617401E+04 -0.27387933764E+03  0.10857941261E+04  0.46999998093E+01 0. -1.
</event>
<event>
 5   0  0.1282578E-06  0.3342252E+04  0.7818609E-02  0.8152227E-01
        1   -1    0    0  501    0  0.00000000000E+00  0.00000000000E+00  0.14418821362E+04  0.14418821362E+04  0.50400001928E-02 0.  1.
       -1   -1    0    0    0  501  0.00000000000E+00  0.00000000000E+00 -0.19368167167E+04  0.19368167167E+04  0.50400001928E-02 0. -1.
    10030    2    1    2    0    0  0.00000000000E+00  0.00000000000E+00 -0.49493458047E+03  0.33786988529E+04  0.33422515913E+04 0.  0.
        4    1    3    3  502    0 -0.46584630034E+03  0.16047603881E+04 -0.22747453209E+03  0.16864207525E+04  0.12699999809E+01 0.  1.
       -4    1    3    3    0  502  0.46584630034E+03 -0.16047603881E+04 -0.26746004838E+03  0.16922781004E+04  0.12699999809E+01 0. -1.
</event>
<event>
 5   0  0.1352708E-06  0.3031559E+04  0.7818609E-02  0.8234776E-01
       -1   -1    0    0    0  501  0.00000000000E+00  0.00000000000E+00  0.20970714611E+04  0.20970714611E+04  0.50400001928E-02 0.  1.
        1   -1    0    0  501    0  0.00000000000E+00  0.00000000000E+00 -0.10956172980E+04  0.10956172980E+04  0.50400001928E-02 0. -1.
    10030    2    1    2    0    0  0.00000000000E+00  0.00000000000E+00  0.10014541631E+04  0.31926887591E+04  0.30315591817E+04 0.  0.
        5    1    3    3  502    0  0.55983244814E+03 -0.64680966592E+03  0.18185509465E+04  0.20097076277E+04  0.46999998093E+01 0.  1.
       -5    1    3    3    0  502 -0.55983244814E+03  0.64680966592E+03 -0.81709678338E+03  0.11829811314E+04  0.46999998093E+01 0. -1.
</event>
<event>
 5   0  0.1405389E-06  0.3282304E+04  0.7818609E-02  0.8167413E-01
        1   -1    0    0  501    0  0.00000000000E+00  0.00000000000E+00  0.95381933006E+03  0.95381933008E+03  0.50400001928E-02 0.  1.
       -1   -1    0    0    0  501  0.00000000000E+00  0.00000000000E+00 -0.28237840648E+04  0.28237840648E+04  0.50400001928E-02 0. -1.
    10030    2    1    2    0    0  0.00000000000E+00  0.00000000000E+00 -0.18699647347E+04  0.37776033949E+04  0.32823039621E+04 0.  0.
        1    1    3    3  502    0  0.11956413548E+04  0.99134146512E+02  0.35381693316E+03  0.12508286256E+04  0.50400001928E-02 0.  1.
       -1    1    3    3    0  502 -0.11956413548E+04 -0.99134146512E+02 -0.22237816679E+04  0.25267747693E+04  0.50400001928E-02 0. -1.
</event>
<event>
 5   0  0.3920487E-06  0.2257741E+04  0.7818609E-02  0.8494772E-01
       -2   -1    0    0    0  501  0.00000000000E+00  0.00000000000E+00  0.96240839201E+03  0.96240839202E+03  0.25500000920E-02 0. -1.
        2   -1    0    0  501    0  0.00000000000E+00  0.00000000000E+00 -0.13241240047E+04  0.13241240047E+04  0.25500000920E-02 0.  1.
    10030    2    1    2    0    0  0.00000000000E+00  0.00000000000E+00 -0.36171561267E+03  0.22865323967E+04  0.22577405114E+04 0.  0.
        4    1    3    3  502    0  0.15585085942E+03 -0.10766976547E+04  0.12428019467E+03  0.10949952099E+04  0.12699999809E+01 0. -1.
       -4    1    3    3    0  502 -0.15585085942E+03  0.10766976547E+04 -0.48599580734E+03  0.11915371868E+04  0.12699999809E+01 0.  1.
</event>
<event>
 5   0  0.3920487E-06  0.3282224E+04  0.7818609E-02  0.8167433E-01
        2   -1    0    0  501    0  0.00000000000E+00  0.00000000000E+00  0.23110932400E+04  0.23110932400E+04  0.25500000920E-02 0. -1.
       -2   -1    0    0    0  501  0.00000000000E+00  0.00000000000E+00 -0.11653570875E+04  0.11653570875E+04  0.25500000920E-02 0.  1.
    10030    2    1    2    0    0  0.00000000000E+00  0.00000000000E+00  0.11457361526E+04  0.34764503275E+04  0.32822241770E+04 0.  0.
        4    1    3    3  502    0  0.59173665713E+03  0.15291624873E+04  0.49981500451E+03  0.17141490121E+04  0.12699999809E+01 0. -1.
       -4    1    3    3    0  502 -0.59173665713E+03 -0.15291624873E+04  0.64592114808E+03  0.17623013154E+04  0.12699999809E+01 0.  1.
</event>
<event>
 5   0  0.1259875E-06  0.3240631E+04  0.7818609E-02  0.8178168E-01
        3   -1    0    0  501    0  0.00000000000E+00  0.00000000000E+00  0.11845320914E+04  0.11845320957E+04  0.10100000352E+00 0.  1.
       -3   -1    0    0    0  501  0.00000000000E+00  0.00000000000E+00 -0.22164213561E+04  0.22164213584E+04  0.10100000352E+00 0. -1.
    10030    2    1    2    0    0  0.00000000000E+00  0.00000000000E+00 -0.10318892647E+04  0.34009534541E+04  0.32406309482E+04 0.  0.
        4    1    3    3  502    0  0.12927229256E+04  0.48833051452E+01 -0.15411371590E+04  0.20115321934E+04  0.12699999809E+01 0.  1.
       -4    1    3    3    0  502 -0.12927229256E+04 -0.48833051452E+01  0.50924789436E+03  0.13894212608E+04  0.12699999809E+01 0. -1.
</event>
<event>
 5   0  0.3671997E-06  0.3220301E+04  0.7818609E-02  0.8183476E-01
       -2   -1    0    0    0  501  0.00000000000E+00  0.00000000000E+00  0.86370792850E+03  0.86370792851E+03  0.25500000920E-02 0.  1.
        2   -1    0    0  501    0  0.00000000000E+00  0.00000000000E+00 -0.30016905080E+04  0.30016905080E+04  0.25500000920E-02 0. -1.
    10030    2    1    2    0    0  0.00000000000E+00  0.00000000000E+00 -0.21379825795E+04  0.38653984365E+04  0.32203005392E+04 0.  0.
        2    1    3    3  502    0  0.71881602773E+03  0.12054814941E+04 -0.20161830560E+04  0.24565985081E+04  0.25500000920E-02 0.  1.
       -2    1    3    3    0  502 -0.71881602773E+03 -0.12054814941E+04 -0.12179952346E+03  0.14087999284E+04  0.25500000920E-02 0. -1.
</event>
<event>
 5   0  0.1391878E-06  0.3300653E+04  0.7818609E-02  0.8162729E-01
        1   -1    0    0  501    0  0.00000000000E+00  0.00000000000E+00  0.15141689790E+04  0.15141689791E+04  0.50400001928E-02 0. -1.
       -1   -1    0    0    0  501  0.00000000000E+00  0.00000000000E+00 -0.17987279202E+04  0.17987279202E+04  0.50400001928E-02 0.  1.
    10030    2    1    2    0    0  0.00000000000E+00  0.00000000000E+00 -0.28455894118E+03  0.33128968993E+04  0.33006532799E+04 0.  0.
        2    1    3    3  502    0  0.12537824213E+03  0.14817610301E+04 -0.86064559798E+03  0.17181520012E+04  0.25500000920E-02 0.  1.
       -2    1    3    3    0  502 -0.12537824213E+03 -0.14817610301E+04  0.57608665680E+03  0.15947448981E+04  0.25500000920E-02 0. -1.
</event>
<event>
 5   0  0.1339825E-06  0.3295033E+04  0.7818609E-02  0.8164160E-01
       -1   -1    0    0    0  501  0.00000000000E+00  0.00000000000E+00  0.14304731458E+04  0.14304731458E+04  0.50400001928E-02 0. -1.
        1   -1    0    0  501    0  0.00000000000E+00  0.00000000000E+00 -0.18974912414E+04  0.18974912414E+04  0.50400001928E-02 0.  1.
    10030    2    1    2    0    0  0.00000000000E+00  0.00000000000E+00 -0.46701809557E+03  0.33279643872E+04  0.32950327860E+04 0.  0.
        3    1    3    3  502    0  0.12274738345E+03  0.95166126300E+03 -0.15861415280E+04  0.18537990821E+04  0.10100000352E+00 0.  1.
       -3    1    3    3    0  502 -0.12274738345E+03 -0.95166126300E+03  0.11191234324E+04  0.14741653051E+04  0.10100000352E+00 0. -1.
</event>
<event>
 5   0  0.3812379E-06  0.3314131E+04  0.7818609E-02  0.8159309E-01
       -2   -1    0    0    0  501  0.00000000000E+00  0.00000000000E+00  0.14226704288E+04  0.14226704288E+04  0.25500000920E-02 0. -1.
        2   -1    0    0  501    0  0.00000000000E+00  0.00000000000E+00 -0.19300791766E+04  0.19300791766E+04  0.25500000920E-02 0.  1.
    10030    2    1    2    0    0  0.00000000000E+00  0.00000000000E+00 -0.50740874775E+03  0.33527496054E+04  0.33141313008E+04 0.  0.
        5    1    3    3  502    0 -0.11728671427E+04  0.10981229661E+04  0.15642450927E+03  0.16143054544E+04  0.46999998093E+01 0. -1.
       -5    1    3    3    0  502  0.11728671427E+04 -0.10981229661E+04 -0.66383325703E+03  0.17384441510E+04  0.46999998093E+01 0.  1.
</event>
<event>
 5   0  0.4017247E-06  0.2162111E+04  0.7818609E-02  0.8534366E-01
       -2   -1    0    0    0  501  0.00000000000E+00  0.00000000000E+00  0.82124635133E+03  0.82124635133E+03  0.25500000920E-02 0.  1.
        2   -1    0    0  501    0  0.00000000000E+00  0.00000000000E+00 -0.14230576401E+04  0.14230576401E+04  0.25500000920E-02 0. -1.
    10030    2    1    2    0    0  0.00000000000E+00  0.00000000000E+00 -0.60181128877E+03  0.22443039914E+04  0.21621109080E+04 0.  0.
        1    1    3    3  502    0  0.56256595264E+03  0.44983300619E+03 -0.11376841442E+04  0.13465345880E+04  0.50400001928E-02 0. -1.
       -1    1    3    3    0  502 -0.56256595264E+03 -0.44983300619E+03  0.53587285547E+03  0.89776940346E+03  0.50400001928E-02 0.  1.
</event>
<event>
 5   0  0.1282578E-06  0.2103897E+04  0.7818609E-02  0.8559529E-01
        1   -1    0    0  501    0  0.00000000000E+00  0.00000000000E+00  0.15400382105E+04  0.15400382105E+04  0.50400001928E-02 0.  1.
       -1   -1    0    0    0  501  0.00000000000E+00  0.00000000000E+00 -0.71855075066E+03  0.71855075068E+03  0.50400001928E-02 0. -1.
    10030    2    1    2    0    0  0.00000000000E+00  0.00000000000E+00  0.82148745983E+03  0.22585889612E+04  0.21038969673E+04 0.  0.
        4    1    3    3  502    0  0.46728531449E+03  0.90835227557E+03  0.14100309627E+03  0.10311851956E+04  0.12699999809E+01 0. -1.
       -4    1    3    3    0  502 -0.46728531449E+03 -0.90835227557E+03  0.68048436356E+03  0.12274037655E+04  0.12699999809E+01 0.  1.
</event>
<event>
 5   0  0.1282578E-06  0.2823938E+04  0.7818609E-02  0.8295875E-01
        1   -1    0    0  501    0  0.00000000000E+00  0.00000000000E+00  0.24101031723E+04  0.24101031723E+04  0.50400001928E-02 0. -1.
       -1   -1    0    0    0  501  0.00000000000E+00  0.00000000000E+00 -0.82720815308E+03  0.82720815310E+03  0.50400001928E-02 0.  1.
    10030    2    1    2    0    0  0.00000000000E+00  0.00000000000E+00  0.15828950192E+04  0.32373113254E+04  0.28239383803E+04 0.  0.
        4    1    3    3  502    0  0.63249651493E+03 -0.11524569924E+04  0.13820804808E+04  0.19074477789E+04  0.12699999809E+01 0. -1.
       -4    1    3    3    0  502 -0.63249651493E+03  0.11524569924E+04  0.20081453844E+03  0.13298635466E+04  0.12699999809E+01 0.  1.
</event>
<event>
 5   0  0.1352708E-06  0.3243113E+04  0.7818609E-02  0.8177523E-01
       -1   -1    0    0    0  501  0.00000000000E+00  0.00000000000E+00  0.16126903543E+04  0.16126903543E+04  0.50400001928E-02 0.  1.
        1   -1    0    0  501    0  0.00000000000E+00  0.00000000000E+00 -0.16304711897E+04  0.16304711897E+04  0.50400001928E-02 0. -1.
    10030    2    1    2    0    0  0.00000000000E+00  0.00000000000E+00 -0.17780835320E+02  0.32431615440E+04  0.32431128014E+04 0.  0.
        5    1    3    3  502    0  0.55759088202E+03  0.81778423424E+03  0.12755526583E+04  0.16145387328E+04  0.46999998093E+01 0.  1.
       -5    1    3    3    0  502 -0.55759088202E+03 -0.81778423424E+03 -0.12933334936E+04  0.16286228112E+04  0.46999998093E+01 0. -1.
</event>
<event>
 5   0  0.3920487E-06  0.3288152E+04  0.7818609E-02  0.8165917E-01
        2   -1    0    0  501    0  0.00000000000E+00  0.00000000000E+00  0.23126879006E+04  0.23126879006E+04  0.25500000920E-02 0.  1.
       -2   -1    0    0    0  501  0.00000000000E+00  0.00000000000E+00 -0.11687640718E+04  0.11687640718E+04  0.25500000920E-02 0. -1.
    10030    2    1    2    0    0  0.00000000000E+00  0.00000000000E+00  0.11439238288E+04  0.34814519724E+04  0.32881523855E+04 0.  0.
        4    1    3    3  502    0 -0.82481871607E+03  0.13870992502E+04  0.23947141840E+03  0.16314773726E+04  0.12699999809E+01 0. -1.
       -4    1    3    3    0  502  0.82481871607E+03 -0.13870992502E+04  0.90445241044E+03  0.18499745998E+04  0.12699999809E+01 0.  1.
</event>
<event>
 5   0  0.1352708E-06  0.2181593E+04  0.7818609E-02  0.8526129E-01
       -1   -1    0    0    0  501  0.00000000000E+00  0.00000000000E+00  0.86971904774E+03  0.86971904776E+03  0.50400001928E-02 0. -1.
        1   -1    0    0  501    0  0.00000000000E+00  0.00000000000E+00 -0.13680700281E+04  0.13680700281E+04  0.50400001928E-02 0.  1.
    10030    2    1    2    0    0  0.00000000000E+00  0.00000000000E+00 -0.49835098032E+03  0.22377890758E+04  0.21815925945E+04 0.  0.
        5    1    3    3  502    0 -0.58944278711E+03  0.65299224912E+03  0.41239780007E+03  0.97156353996E+03  0.46999998093E+01 0. -1.
       -5    1    3    3    0  502  0.58944278711E+03 -0.65299224912E+03 -0.91074878039E+03  0.12662255359E+04  0.46999998093E+01 0.  1.
</event>
<event>
 5   0  0.3896210E-06  0.3321118E+04  0.7818609E-02  0.8157543E-01
       -2   -1    0    0    0  501  0.00000000000E+00  0.00000000000E+00  0.20881576331E+04  0.20881576331E+04  0.25500000920E-02 0. -1.
        2   -1    0    0  501    0  0.00000000000E+00  0.00000000000E+00 -0.13205207601E+04  0.13205207601E+04  0.25500000920E-02 0.  1.
    10030    2    1    2    0    0  0.00000000000E+00  0.00000000000E+00  0.76763687300E+03  0.34086783933E+04  0.33211175860E+04 0.  0.
        3    1    3    3  502    0 -0.16485855671E+04  0.56808839376E+02  0.57961990546E+03  0.17484338310E+04  0.10100000352E+00 0.  1.
       -3    1    3    3    0  502  0.16485855671E+04 -0.56808839376E+02  0.18801696754E+03  0.16602445623E+04  0.10100000352E+00 0. -1.
</event>
<event>
 5   0  0.3896210E-06  0.3281521E+04  0.7818609E-02  0.8167613E-01
       -2   -1    0    0    0  501  0.00000000000E+00  0.00000000000E+00  0.16215331723E+04  0.16215331723E+04  0.25500000920E-02 0. -1.
        2   -1    0    0  501    0  0.00000000000E+00  0.00000000000E+00 -0.16602162907E+04  0.16602162907E+04  0.25500000920E-02 0.  1.
    10030    2    1    2    0    0  0.00000000000E+00  0.00000000000E+00 -0.38683118372E+02  0.32817494630E+04  0.32815214694E+04 0.  0.
        3    1    3    3  502    0  0.88913002627E+03 -0.11067942990E+04 -0.84192527432E+03  0.16505708108E+04  0.10100000352E+00 0. -1.
       -3    1    3    3    0  502 -0.88913002627E+03  0.11067942990E+04  0.80324215595E+03  0.16311786521E+04  0.10100000352E+00 0.  1.
</event>
<event>
 5   0  0.1259875E-06  0.3224835E+04  0.7818609E-02  0.8182289E-01
       -3   -1    0    0    0  501  0.00000000000E+00  0.00000000000E+00  0.91587686669E+03  0.91587687226E+03  0.10100000352E+00 0.  1.
        3   -1    0    0  501    0  0.00000000000E+00  0.00000000000E+00 -0.28386905027E+04  0.28386905045E+04  0.10100000352E+00 0. -1.
    10030    2    1    2    0    0  0.00000000000E+00  0.00000000000E+00 -0.19228136360E+04  0.37545673767E+04  0.32248354854E+04 0.  0.
        5    1    3    3  502    0  0.98789083371E+03  0.12583385268E+04 -0.11957824493E+04  0.19973136718E+04  0.46999998093E+01 0. -1.
       -5    1    3    3    0  502 -0.98789083371E+03 -0.12583385268E+04 -0.72703118664E+03  0.17572537050E+04  0.46999998093E+01 0.  1.
</event>
<event>
 5   0  0.1352708E-06  0.3287552E+04  0.7818609E-02  0.8166070E-01
        1   -1    0    0  501    0  0.00000000000E+00  0.00000000000E+00  0.21309454550E+04  0.21309454550E+04  0.50400001928E-02 0.  1.
       -1   -1    0    0    0  501  0.00000000000E+00  0.00000000000E+00 -0.12679812097E+04  0.12679812097E+04  0.50400001928E-02 0. -1.
    10030    2    1    2    0    0  0.00000000000E+00  0.00000000000E+00  0.86296424528E+03  0.33989266647E+04  0.32875515484E+04 0.  0.
        5    1    3    3  502    0 -0.15793421514E+04 -0.43848239673E+03  0.30323016089E+03  0.16669010360E+04  0.46999998093E+01 0.  1.
       -5    1    3    3    0  502  0.15793421514E+04  0.43848239673E+03  0.55973408439E+03  0.17320256287E+04  0.46999998093E+01 0. -1.
</event>
<event>
 5   0  0.3896210E-06  0.3169118E+04  0.7818609E-02  0.8197021E-01
        2   -1    0    0  501    0  0.00000000000E+00  0.00000000000E+00  0.26690379600E+04  0.26690379600E+04  0.25500000920E-02 0.  1.
       -2   -1    0    0    0  501  0.00000000000E+00  0.00000000000E+00 -0.94072359000E+03  0.94072359001E+03  0.25500000920E-02 0. -1.
    10030    2    1    2    0    0  0.00000000000E+00  0.00000000000E+00  0.17283143699E+04  0.36097615500E+04  0.31691178404E+04 0.  0.
        3    1    3    3  502    0 -0.76672713537E+03 -0.62604668633E+02 -0.71375130787E+03  0.10493954375E+04  0.10100000352E+00 0. -1.
       -3    1    3    3    0  502  0.76672713537E+03  0.62604668633E+02  0.24420656778E+04  0.25603661124E+04  0.10100000352E+00 0.  1.
</event>
<event>
 5   0  0.3671997E-06  0.2347936E+04  0.7818609E-02  0.8459257E-01
        2   -1    0    0  501    0  0.00000000000E+00  0.00000000000E+00  0.18417814731E+04  0.18417814731E+04  0.25500000920E-02 0.  1.
       -2   -1    0    0    0  501  0.00000000000E+00  0.00000000000E+00 -0.74829794690E+03  0.74829794691E+03  0.25500000920E-02 0. -1.
    10030    2    1    2    0    0  0.00000000000E+00  0.00000000000E+00  0.10934835262E+04  0.25900794200E+04  0.23479363662E+04 0.  0.
        2    1    3    3  502    0  0.25906929503E+03  0.41861840661E+03 -0.62892953649E+03  0.79869307739E+03  0.25500000920E-02 0. -1.
       -2    1    3    3    0  502 -0.25906929503E+03 -0.41861840661E+03  0.17224130626E+04  0.17913863426E+04  0.25500000920E-02 0.  1.
</event>
<event>
 5   0  0.4017247E-06  0.3277363E+04  0.7818609E-02  0.8168679E-01
       -2   -1    0    0    0  501  0.00000000000E+00  0.00000000000E+00  0.12021790621E+04  0.12021790621E+04  0.25500000920E-02 0.  1.
        2   -1    0    0  501    0  0.00000000000E+00  0.00000000000E+00 -0.22336752148E+04  0.22336752148E+04  0.25500000920E-02 0. -1.
    10030    2    1    2    0    0  0.00000000000E+00  0.00000000000E+00 -0.10314961527E+04  0.34358542769E+04  0.32773633151E+04 0.  0.
        1    1    3    3  502    0 -0.16258260107E+04  0.15443081550E+03 -0.65686238120E+03  0.17602918172E+04  0.50400001928E-02 0.  1.
       -1    1    3    3    0  502  0.16258260107E+04 -0.15443081550E+03 -0.37463377148E+03  0.16755624598E+04  0.50400001928E-02 0. -1.
</event>
<event>
 5   0  0.1405389E-06  0.3358512E+04  0.7818609E-02  0.8148164E-01
       -1   -1    0    0    0  501  0.00000000000E+00  0.00000000000E+00  0.26394442068E+04  0.26394442068E+04  0.50400001928E-02 0. -1.
        1   -1    0    0  501    0  0.00000000000E+00  0.00000000000E+00 -0.10683693992E+04  0.10683693992E+04  0.50400001928E-02 0.  1.
    10030    2    1    2    0    0  0.00000000000E+00  0.00000000000E+00  0.15710748076E+04  0.37078136060E+04  0.33585124215E+04 0.  0.
        1    1    3    3  502    0  0.10852561291E+03 -0.38521258453E+03  0.25860248973E+04  0.26168093766E+04  0.50400001928E-02 0. -1.
       -1    1    3    3    0  502 -0.10852561291E+03  0.38521258453E+03 -0.10149500897E+04  0.10910042294E+04  0.50400001928E-02 0.  1.
</event>
<event>
 5   0  0.3920487E-06  0.3228555E+04  0.7818609E-02  0.8181316E-01
        2   -1    0    0  501    0  0.00000000000E+00  0.00000000000E+00  0.15851805007E+04  0.15851805007E+04  0.25500000920E-02 0. -1.
       -2   -1    0    0    0  501  0.00000000000E+00  0.00000000000E+00 -0.16439090981E+04  0.16439090981E+04  0.25500000920E-02 0.  1.
    10030    2    1    2    0    0  0.00000000000E+00  0.00000000000E+00 -0.58728597412E+02  0.32290895989E+04  0.32285554958E+04 0.  0.
        4    1    3    3  502    0 -0.13442437224E+04  0.82741579726E+03  0.30874923647E+03  0.16083954087E+04  0.12699999809E+01 0. -1.
       -4    1    3    3    0  502  0.13442437224E+04 -0.82741579726E+03 -0.36747783388E+03  0.16206941902E+04  0.12699999809E+01 0.  1.
</event>
<event>
 5   0  0.3920487E-06  0.3372936E+04  0.7818609E-02  0.8144581E-01
       -2   -1    0    0    0  501  0.00000000000E+00  0.00000000000E+00  0.28404674567E+04  0.28404674567E+04  0.25500000920E-02 0. -1.
        2   -1    0    0  501    0  0.00000000000E+00  0.00000000000E+00 -0.10013047241E+04  0.10013047241E+04  0.25500000920E-02 0.  1.
    10030    2    1    2    0    0  0.00000000000E+00  0.00000000000E+00  0.18391627326E+04  0.38417721808E+04  0.33729355067E+04 0.  0.
        4    1    3    3  502    0 -0.29616646780E+03 -0.12038291170E+04 -0.38269557951E+03  0.12974500527E+04  0.12699999809E+01 0.  1.
       -4    1    3    3    0  502  0.29616646780E+03  0.12038291170E+04  0.22218583121E+04  0.25443221281E+04  0.12699999809E+01 0. -1.
</event>
<event>
 5   0  0.3812379E-06  0.3346221E+04  0.7818609E-02  0.8151233E-01
        2   -1    0    0  501    0  0.00000000000E+00  0.00000000000E+00  0.24112301082E+04  0.24112301082E+04  0.25500000920E-02 0.  1.
       -2   -1    0    0    0  501  0.00000000000E+00  0.00000000000E+00 -0.11609418871E+04  0.11609418871E+04  0.25500000920E-02 0. -1.
    10030    2    1    2    0    0  0.00000000000E+00  0.00000000000E+00  0.12502882210E+04  0.35721719953E+04  0.33462205738E+04 0.  0.
        5    1    3    3  502    0  0.13201814308E+04  0.61216551504E+02 -0.47012208450E+03  0.14027342373E+04  0.46999998093E+01 0. -1.
       -5    1    3    3    0  502 -0.13201814308E+04 -0.61216551504E+02  0.17204103055E+04  0.21694377580E+04  0.46999998093E+01 0.  1.
</event>
<event>
 5   0  0.1282578E-06  0.3300625E+04  0.7818609E-02  0.8162736E-01
       -1   -1    0    0    0  501  0.00000000000E+00  0.00000000000E+00  0.10333227329E+04  0.10333227330E+04  0.50400001928E-02 0.  1.
        1   -1    0    0  501    0  0.00000000000E+00  0.00000000000E+00 -0.26357018540E+04  0.26357018540E+04  0.50400001928E-02 0. -1.
    10030    2    1    2    0    0  0.00000000000E+00  0.00000000000E+00 -0.16023791211E+04  0.36690245870E+04  0.33006245730E+04 0.  0.
        4    1    3    3  502    0  0.56543785179E+03  0.13888520635E+04 -0.15672360492E+04  0.21690690320E+04  0.12699999809E+01 0. -1.
       -4    1    3    3    0  502 -0.56543785179E+03 -0.13888520635E+04 -0.35143071847E+02  0.14999555550E+04  0.12699999809E+01 0.  1.
</event>
<event>
 5   0  0.1391878E-06  0.3277321E+04  0.7818609E-02  0.8168690E-01
       -1   -1    0    0    0  501  0.00000000000E+00  0.00000000000E+00  0.14522615348E+04  0.14522615348E+04  0.50400001928E-02 0.  1.
        1   -1    0    0  501    0  0.00000000000E+00  0.00000000000E+00 -0.18489839162E+04  0.18489839162E+04  0.50400001928E-02 0. -1.
    10030    2    1    2    0    0  0.00000000000E+00  0.00000000000E+00 -0.39672238139E+03  0.33012454510E+04  0.32773209913E+04 0.  0.
        2    1    3    3  502    0 -0.13308019016E+04  0.63551811674E+03  0.52120026781E+03  0.15641504714E+04  0.25500000920E-02 0.  1.
       -2    1    3    3    0  502  0.13308019016E+04 -0.63551811674E+03 -0.91792264920E+03  0.17370949796E+04  0.25500000920E-02 0. -1.
</event>
<event>
 5   0  0.3896210E-06  0.3278796E+04  0.7818609E-02  0.8168312E-01
        2   -1    0    0  501    0  0.00000000000E+00  0.00000000000E+00  0.17136240813E+04  0.17136240813E+04  0.25500000920E-02 0. -1.
       -2   -1    0    0    0  501  0.00000000000E+00  0.00000000000E+00 -0.15683874847E+04  0.15683874847E+04  0.25500000920E-02 0.  1.
    10030    2    1    2    0    0  0.00000000000E+00  0.00000000000E+00  0.14523659669E+03  0.32820115660E+04  0.32787964637E+04 0.  0.
        3    1    3    3  502    0  0.47201892755E+03 -0.48082080741E+03 -0.14233825953E+04  0.15748042861E+04  0.10100000352E+00 0.  1.
       -3    1    3    3    0  502 -0.47201892755E+03  0.48082080741E+03  0.15686191920E+04  0.17072072799E+04  0.10100000352E+00 0. -1.
</event>
<event>
 5   0  0.3920487E-06  0.3264469E+04  0.7818609E-02  0.8171996E-01
        2   -1    0    0  501    0  0.00000000000E+00  0.00000000000E+00  0.23447970749E+04  0.23447970749E+04  0.25500000920E-02 0. -1.
       -2   -1    0    0    0  501  0.00000000000E+00  0.00000000000E+00 -0.11362133062E+04  0.11362133062E+04  0.25500000920E-02 0.  1.
    10030    2    1    2    0    0  0.00000000000E+00  0.00000000000E+00  0.12085837686E+04  0.34810103811E+04  0.32644691065E+04 0.  0.
        4    1    3    3  502    0  0.15495606546E+04  0.61788132235E+02  0.61370329008E+02  0.15520064193E+04  0.12699999809E+01 0.  1.
       -4    1    3    3    0  502 -0.15495606546E+04 -0.61788132235E+02  0.11472134396E+04  0.19290039618E+04  0.12699999809E+01 0. -1.
</event>
<event>
 5   0  0.3920487E-06  0.3303829E+04  0.7818609E-02  0.8161922E-01
        2   -1    0    0  501    0  0.00000000000E+00  0.00000000000E+00  0.22716943481E+04  0.22716943481E+04  0.25500000920E-02 0. -1.
       -2   -1    0    0    0  501  0.00000000000E+00  0.00000000000E+00 -0.12012275724E+04  0.12012275724E+04  0.25500000920E-02 0.  1.
    10030    2    1    2    0    0  0.00000000000E+00  0.00000000000E+00  0.10704667757E+04  0.34729219205E+04  0.33038292250E+04 0.  0.
        4    1    3    3  502    0  0.79103096811E+03  0.99192361154E+03 -0.57682343320E+03  0.13936891079E+04  0.12699999809E+01 0. -1.
       -4    1    3    3    0  502 -0.79103096811E+03 -0.99192361154E+03  0.16472902089E+04  0.20792328126E+04  0.12699999809E+01 0.  1.
</event>
<event>
 5   0  0.1339825E-06  0.3320975E+04  0.7818609E-02  0.8157579E-01
        1   -1    0    0  501    0  0.00000000000E+00  0.00000000000E+00  0.30129672248E+04  0.30129672248E+04  0.50400001928E-02 0. -1.
       -1   -1    0    0    0  501  0.00000000000E+00  0.00000000000E+00 -0.91511733350E+03  0.91511733351E+03  0.50400001928E-02 0.  1.
    10030    2    1    2    0    0  0.00000000000E+00  0.00000000000E+00  0.20978498913E+04  0.39280845583E+04  0.33209748766E+04 0.  0.
        3    1    3    3  502    0 -0.10073067675E+04  0.67203012261E+03  0.23928223003E+04  0.26817699343E+04  0.10100000352E+00 0. -1.
       -3    1    3    3    0  502  0.10073067675E+04 -0.67203012261E+03 -0.29497240901E+03  0.12463146240E+04  0.10100000352E+00 0.  1.
</event>
<event>
 5   0  0.1405389E-06  0.3245676E+04  0.7818609E-02  0.8176857E-01
       -1   -1    0    0    0  501  0.00000000000E+00  0.00000000000E+00  0.11523718738E+04  0.11523718738E+04  0.50400001928E-02 0. -1.
        1   -1    0    0  501    0  0.00000000000E+00  0.00000000000E+00 -0.22853767783E+04  0.22853767783E+04  0.50400001928E-02 0.  1.
    10030    2    1    2    0    0  0.00000000000E+00  0.00000000000E+00 -0.11330049045E+04  0.34377486521E+04  0.32456764597E+04 0.  0.
        1    1    3    3  502    0  0.13170012944E+04  0.93080033385E+03 -0.37490467393E+03  0.16557279926E+04  0.50400001928E-02 0. -1.
       -1    1    3    3    0  502 -0.13170012944E+04 -0.93080033385E+03 -0.75810023059E+03  0.17820206594E+04  0.50400001928E-02 0.  1.
</event>
<event>
 5   0  0.1282578E-06  0.3267093E+04  0.7818609E-02  0.8171319E-01
        1   -1    0    0  501    0  0.00000000000E+00  0.00000000000E+00  0.19667553941E+04  0.19667553941E+04  0.50400001928E-02 0.  1.
       -1   -1    0    0    0  501  0.00000000000E+00  0.00000000000E+00 -0.13567901690E+04  0.13567901690E+04  0.50400001928E-02 0. -1.
    10030    2    1    2    0    0  0.00000000000E+00  0.00000000000E+00  0.60996522503E+03  0.33235455631E+04  0.32670931322E+04 0.  0.
        4    1    3    3  502    0  0.14758168062E+04  0.65259537704E+03  0.46512032991E+02  0.16143360721E+04  0.12699999809E+01 0. -1.
       -4    1    3    3    0  502 -0.14758168062E+04 -0.65259537704E+03  0.56345319204E+03  0.17092094910E+04  0.12699999809E+01 0.  1.
</event>
<event>
 5   0  0.4017247E-06  0.3290028E+04  0.7818609E-02  0.8165437E-01
        2   -1    0    0  501    0  0.00000000000E+00  0.00000000000E+00  0.27950694583E+04  0.27950694583E+04  0.25500000920E-02 0. -1.
       -2   -1    0    0    0  501  0.00000000000E+00  0.00000000000E+00 -0.96815880280E+03  0.96815880280E+03  0.25500000920E-02 0.  1.
    10030    2    1    2    0    0  0.00000000000E+00  0.00000000000E+00  0.18269106555E+04  0.37632282611E+04  0.32900280245E+04 0.  0.
        1    1    3    3  502    0 -0.97234204696E+03 -0.13166240335E+04  0.11018338634E+04  0.19730650685E+04  0.50400001928E-02 0. -1.
       -1    1    3    3    0  502  0.97234204696E+03  0.13166240335E+04  0.72507679207E+03  0.17901631926E+04  0.50400001928E-02 0.  1.
</event>
<event>
 5   0  0.3920487E-06  0.2244214E+04  0.7818609E-02  0.8500247E-01
       -2   -1    0    0    0  501  0.00000000000E+00  0.00000000000E+00  0.18770738327E+04  0.18770738327E+04  0.25500000920E-02 0.  1.
        2   -1    0    0  501    0  0.00000000000E+00  0.00000000000E+00 -0.67079078225E+03  0.67079078225E+03  0.25500000920E-02 0. -1.
    10030    2    1    2    0    0  0.00000000000E+00  0.00000000000E+00  0.12062830505E+04  0.25478646150E+04  0.22442137372E+04 0.  0.
        4    1    3    3  502    0 -0.21303525809E+03 -0.11010623066E+04  0.56066253137E+03  0.12538206854E+04  0.12699999809E+01 0.  1.
       -4    1    3    3    0  502  0.21303525809E+03  0.11010623066E+04  0.64562051912E+03  0.12940439296E+04  0.12699999809E+01 0. -1.
</event>
<event>
 5   0  0.1352708E-06  0.3317894E+04  0.7818609E-02  0.8158357E-01
       -1   -1    0    0    0  501  0.00000000000E+00  0.00000000000E+00  0.13761819024E+04  0.13761819024E+04  0.50400001928E-02 0.  1.
        1   -1    0    0  501    0  0.00000000000E+00  0.00000000000E+00 -0.19998120703E+04  0.19998120703E+04  0.50400001928E-02 0. -1.
    10030    2    1    2    0    0  0.00000000000E+00  0.00000000000E+00 -0.62363016787E+03  0.33759939727E+04  0.33178940184E+04 0.  0.
        5    1    3    3  502    0  0.66168532450E+03 -0.72838472409E+03  0.10471285286E+04  0.14369662558E+04  0.46999998093E+01 0.  1.
       -5    1    3    3    0  502 -0.66168532450E+03  0.72838472409E+03 -0.16707586965E+04  0.19390277169E+04  0.46999998093E+01 0. -1.
</event>
<event>
 5   0  0.4017247E-06  0.3235498E+04  0.7818609E-02  0.8179505E-01
       -2   -1    0    0    0  501  0.00000000000E+00  0.00000000000E+00  0.19450779147E+04  0.19450779148E+04  0.25500000920E-02 0. -1.
        2   -1    0    0  501    0  0.00000000000E+00  0.00000000000E+00 -0.13455052039E+04  0.13455052039E+04  0.25500000920E-02 0.  1.
    10030    2    1    2    0    0  0.00000000000E+00  0.00000000000E+00  0.59957271086E+03  0.32905831186E+04  0.32354983890E+04 0.  0.
        1    1    3    3  502    0  0.28741099321E+03 -0.15915397262E+04  0.33928933415E+03  0.16524893438E+04  0.50400001928E-02 0.  1.
       -1    1    3    3    0  502 -0.28741099321E+03  0.15915397262E+04  0.26028337671E+03  0.16380937749E+04  0.50400001928E-02 0. -1.
</event>
<event>
 5   0  0.1339825E-06  0.3271433E+04  0.7818609E-02  0.8170203E-01
       -1   -1    0    0    0  501  0.00000000000E+00  0.00000000000E+00  0.14128661391E+04  0.14128661391E+04  0.50400001928E-02 0.  1.
        1   -1    0    0  501    0  0.00000000000E+00  0.00000000000E+00 -0.18937169217E+04  0.18937169217E+04  0.50400001928E-02 0. -1.
    10030    2    1    2    0    0  0.00000000000E+00  0.00000000000E+00 -0.48085078264E+03  0.33065830608E+04  0.32714330289E+04 0.  0.
        3    1    3    3  502    0  0.51263319379E+03  0.80395496318E+03 -0.15837775590E+04  0.18486448390E+04  0.10100000352E+00 0. -1.
       -3    1    3    3    0  502 -0.51263319379E+03 -0.80395496318E+03  0.11029267764E+04  0.14579382217E+04  0.10100000352E+00 0.  1.
</event>
<event>
 5   0  0.1259875E-06  0.3249934E+04  0.7818609E-02  0.8175753E-01
        3   -1    0    0  501    0  0.00000000000E+00  0.00000000000E+00  0.19983686848E+04  0.19983686874E+04  0.10100000352E+00 0.  1.
       -3   -1    0    0    0  501  0.00000000000E+00  0.00000000000E+00 -0.13213363827E+04  0.13213363866E+04  0.10100000352E+00 0. -1.
    10030    2    1    2    0    0  0.00000000000E+00  0.00000000000E+00  0.67703230209E+03  0.33197050739E+04  0.32499336977E+04 0.  0.
        2    1    3    3  502    0  0.12224153170E+04  0.26351527997E+02  0.14317851446E+04  0.18828176519E+04  0.25500000920E-02 0.  1.
       -2    1    3    3    0  502 -0.12224153170E+04 -0.26351527997E+02 -0.75475284248E+03  0.14368874220E+04  0.25500000920E-02 0. -1.
</event>
<event>
 5   0  0.1352708E-06  0.3197343E+04  0.7818609E-02  0.8189519E-01
        1   -1    0    0  501    0  0.00000000000E+00  0.00000000000E+00  0.16567762641E+04  0.16567762641E+04  0.50400001928E-02 0. -1.
       -1   -1    0    0    0  501  0.00000000000E+00  0.00000000000E+00 -0.15426040874E+04  0.15426040874E+04  0.50400001928E-02 0.  1.
    10030    2    1    2    0    0  0.00000000000E+00  0.00000000000E+00  0.11417217670E+03  0.31993803516E+04  0.31973425447E+04 0.  0.
        5    1    3    3  502    0  0.20866819427E+03 -0.14480350258E+04 -0.58782440471E+03  0.15766760835E+04  0.46999998093E+01 0.  1.
       -5    1    3    3    0  502 -0.20866819427E+03  0.14480350258E+04  0.70199658142E+03  0.16227042681E+04  0.46999998093E+01 0. -1.
</event>
<event>
 5   0  0.3812379E-06  0.3317246E+04  0.7818609E-02  0.8158521E-01
        2   -1    0    0  501    0  0.00000000000E+00  0.00000000000E+00  0.21232992210E+04  0.21232992210E+04  0.25500000920E-02 0.  1.
       -2   -1    0    0    0  501  0.00000000000E+00  0.00000000000E+00 -0.12956391183E+04  0.12956391183E+04  0.25500000920E-02 0. -1.
    10030    2    1    2    0    0  0.00000000000E+00  0.00000000000E+00  0.82766010270E+03  0.34189383393E+04  0.33172455626E+04 0.  0.
        5    1    3    3  502    0 -0.31420381611E+03  0.37546960785E+02 -0.12642325516E+04  0.13032420522E+04  0.46999998093E+01 0. -1.
       -5    1    3    3    0  502  0.31420381611E+03 -0.37546960785E+02  0.20918926543E+04  0.21156962871E+04  0.46999998093E+01 0.  1.
</event>
<event>
 5   0  0.3812379E-06  0.3304092E+04  0.7818609E-02  0.8161855E-01
        2   -1    0    0  501    0  0.00000000000E+00  0.00000000000E+00  0.16488385733E+04  0.16488385733E+04  0.25500000920E-02 0.  1.
       -2   -1    0    0    0  501  0.00000000000E+00  0.00000000000E+00 -0.16552601277E+04  0.16552601277E+04  0.25500000920E-02 0. -1.
    10030    2    1    2    0    0  0.00000000000E+00  0.00000000000E+00 -0.64215544236E+01  0.33040987009E+04  0.33040924607E+04 0.  0.
        5    1    3    3  502    0  0.98280721691E+03  0.92338678168E+03 -0.95750890828E+03  0.16539040400E+04  0.46999998093E+01 0. -1.
       -5    1    3    3    0  502 -0.98280721691E+03 -0.92338678168E+03  0.95108735386E+03  0.16501946609E+04  0.46999998093E+01 0.  1.
</event>
<event>
 5   0  0.3671997E-06  0.3349941E+04  0.7818609E-02  0.8150303E-01
        2   -1    0    0  501    0  0.00000000000E+00  0.00000000000E+00  0.10245997035E+04  0.10245997035E+04  0.25500000920E-02 0. -1.
       -2   -1    0    0    0  501  0.00000000000E+00  0.00000000000E+00 -0.27381681679E+04  0.27381681679E+04  0.25500000920E-02 0.  1.
    10030    2    1    2    0    0  0.00000000000E+00  0.00000000000E+00 -0.17135684644E+04  0.37627678715E+04  0.33499410700E+04 0.  0.
        2    1    3    3  502    0  0.40010123812E+03 -0.16264038492E+04 -0.87474936605E+03  0.18895652767E+04  0.25500000920E-02 0. -1.
       -2    1    3    3    0  502 -0.40010123812E+03  0.16264038492E+04 -0.83881909833E+03  0.18732025948E+04  0.25500000920E-02 0.  1.
</event>
<event>
 5   0  0.1405389E-06  0.3289781E+04  0.7818609E-02  0.8165501E-01
       -1   -1    0    0    0  501  0.00000000000E+00  0.00000000000E+00  0.16570700010E+04  0.16570700010E+04  0.50400001928E-02 0. -1.
        1   -1    0    0  501    0  0.00000000000E+00  0.00000000000E+00 -0.16328004101E+04  0.16328004101E+04  0.50400001928E-02 0.  1.
    10030    2    1    2    0    0  0.00000000000E+00  0.00000000000E+00  0.24269590918E+02  0.32898704111E+04  0.32897808907E+04 0.  0.
        1    1    3    3  502    0 -0.14786803803E+04 -0.14065191887E+03  0.71882647254E+03  0.16501485166E+04  0.50400001928E-02 0. -1.
       -1    1    3    3    0  502  0.14786803803E+04  0.14065191887E+03 -0.69455688162E+03  0.16397218945E+04  0.50400001928E-02 0.  1.
</event>
<event>
 5   0  0.3812379E-06  0.3285269E+04  0.7818609E-02  0.8166654E-01
        2   -1    0    0  501    0  0.00000000000E+00  0.00000000000E+00  0.22802816145E+04  0.22802816145E+04  0.25500000920E-02 0.  1.
       -2   -1    0    0    0  501  0.00000000000E+00  0.00000000000E+00 -0.11832960807E+04  0.11832960807E+04  0.25500000920E-02 0. -1.
    10030    2    1    2    0    0  0.00000000000E+00  0.00000000000E+00  0.10969855338E+04  0.34635776952E+04  0.32852691197E+04 0.  0.
        5    1    3    3  502    0  0.33840875026E+03  0.13093954736E+04 -0.43441133631E+03  0.14204831177E+04  0.46999998093E+01 0. -1.
       -5    1    3    3    0  502 -0.33840875026E+03 -0.13093954736E+04  0.15313968702E+04  0.20430945775E+04  0.46999998093E+01 0.  1.
</event>
<event>
 5   0  0.1352708E-06  0.2554397E+04  0.7818609E-02  0.8383858E-01
        1   -1    0    0  501    0  0.00000000000E+00  0.00000000000E+00  0.94042398555E+03  0.94042398556E+03  0.50400001928E-02 0.  1.
       -1   -1    0    0    0  501  0.00000000000E+00  0.00000000000E+00 -0.17345755051E+04  0.17345755051E+04  0.50400001928E-02 0. -1.
    10030    2    1    2    0    0  0.00000000000E+00  0.00000000000E+00 -0.79415151959E+03  0.26749994907E+04  0.25543973143E+04 0.  0.
        5    1    3    3  502    0 -0.11567346606E+04 -0.51389862448E+03 -0.57567848003E+03  0.13905231654E+04  0.46999998093E+01 0.  1.
       -5    1    3    3    0  502  0.11567346606E+04  0.51389862448E+03 -0.21847303955E+03  0.12844763253E+04  0.46999998093E+01 0. -1.
</event>
<event>
 5   0  0.3896210E-06  0.3270681E+04  0.7818609E-02  0.8170396E-01
       -2   -1    0    0    0  501  0.00000000000E+00  0.00000000000E+00  0.17600921790E+04  0.17600921790E+04  0.25500000920E-02 0.  1.
        2   -1    0    0  501    0  0.00000000000E+00  0.00000000000E+00 -0.15194312837E+04  0.15194312838E+04  0.25500000920E-02 0. -1.
    10030    2    1    2    0    0  0.00000000000E+00  0.00000000000E+00  0.24066089524E+03  0.32795234627E+04  0.32706813474E+04 0.  0.
        3    1    3    3  502    0 -0.47625868537E+03 -0.50329338542E+03  0.16056224914E+04  0.17487567476E+04  0.10100000352E+00 0.  1.
       -3    1    3    3    0  502  0.47625868537E+03  0.50329338542E+03 -0.13649615961E+04  0.15307667152E+04  0.10100000352E+00 0. -1.
</event>
<event>
 5   0  0.3812379E-06  0.2071821E+04  0.7818609E-02  0.8573759E-01
        2   -1    0    0  501    0  0.00000000000E+00  0.00000000000E+00  0.99600837315E+03  0.99600837315E+03  0.25500000920E-02 0.  1.
       -2   -1    0    0    0  501  0.00000000000E+00  0.00000000000E+00 -0.10774108191E+04  0.10774108191E+04  0.25500000920E-02 0. -1.
    10030    2    1    2    0    0  0.00000000000E+00  0.00000000000E+00 -0.81402445955E+02  0.20734191923E+04  0.20718206459E+04 0.  0.
        5    1    3    3  502    0 -0.78931979467E+03  0.56893286595E+03  0.31506956805E+03  0.10227420334E+04  0.46999998093E+01 0.  1.
       -5    1    3    3    0  502  0.78931979467E+03 -0.56893286595E+03 -0.39647201400E+03  0.10506771588E+04  0.46999998093E+01 0. -1.
</event>
<event>
 5   0  0.1282578E-06  0.3371517E+04  0.7818609E-02  0.8144932E-01
        1   -1    0    0  501    0  0.00000000000E+00  0.00000000000E+00  0.16971365086E+04  0.16971365086E+04  0.50400001928E-02 0. -1.
       -1   -1    0    0    0  501  0.00000000000E+00  0.00000000000E+00 -0.16744572499E+04  0.16744572499E+04  0.50400001928E-02 0.  1.
    10030    2    1    2    0    0  0.00000000000E+00  0.00000000000E+00  0.22679258662E+02  0.33715937585E+04  0.33715174808E+04 0.  0.
        4    1    3    3  502    0 -0.82856741082E+03  0.13892530690E+04  0.48593742259E+03  0.16889892941E+04  0.12699999809E+01 0.  1.
       -4    1    3    3    0  502  0.82856741082E+03 -0.13892530690E+04 -0.46325816393E+03  0.16826044643E+04  0.12699999809E+01 0. -1.
</event>
<event>
 5   0  0.3896210E-06  0.3169075E+04  0.7818609E-02  0.8197032E-01
        2   -1    0    0  501    0  0.00000000000E+00  0.00000000000E+00  0.12686030161E+04  0.12686030161E+04  0.25500000920E-02 0.  1.
       -2   -1    0    0    0  501  0.00000000000E+00  0.00000000000E+00 -0.19791524959E+04  0.19791524959E+04  0.25500000920E-02 0. -1.
    10030    2    1    2    0    0  0.00000000000E+00  0.00000000000E+00 -0.71054947985E+03  0.32477555120E+04  0.31690748339E+04 0.  0.
        3    1    3    3  502    0  0.49070353057E+03  0.14780630850E+04 -0.65458473399E+03  0.16893613061E+04  0.10100000352E+00 0.  1.
       -3    1    3    3    0  502 -0.49070353057E+03 -0.14780630850E+04 -0.55964745855E+02  0.15583942060E+04  0.10100000352E+00 0. -1.
</event>
<event>
 5   0  0.3671997E-06  0.3269305E+04  0.7818609E-02  0.8170750E-01
        2   -1    0    0  501    0  0.00000000000E+00  0.00000000000E+00  0.16727295521E+04  0.16727295521E+04  0.25500000920E-02 0. -1.
       -2   -1    0    0    0  501  0.00000000000E+00  0.00000000000E+00 -0.15974420820E+04  0.15974420820E+04  0.25500000920E-02 0.  1.
    10030    2    1    2    0    0  0.00000000000E+00  0.00000000000E+00  0.75287470130E+02  0.32701716341E+04  0.32693048670E+04 0.  0.
        2    1    3    3  502    0  0.97020273412E+03  0.13153867318E+04  0.61165470297E+02  0.16356273458E+04  0.25500000920E-02 0.  1.
       -2    1    3    3    0  502 -0.97020273412E+03 -0.13153867318E+04  0.14121999832E+02  0.16345442883E+04  0.25500000920E-02 0. -1.
</event>
<event>
 5   0  0.3920487E-06  0.3167068E+04  0.7818609E-02  0.8197569E-01
       -2   -1    0    0    0  501  0.00000000000E+00  0.00000000000E+00  0.12372935380E+04  0.12372935380E+04  0.25500000920E-02 0. -1.
        2   -1    0    0  501    0  0.00000000000E+00  0.00000000000E+00 -0.20266652981E+04  0.20266652981E+04  0.25500000920E-02 0.  1.
    10030    2    1    2    0    0  0.00000000000E+00  0.00000000000E+00 -0.78937176005E+03  0.32639588361E+04  0.31670679671E+04 0.  0.
        4    1    3    3  502    0 -0.95827069611E+03 -0.10774953430E+04  0.27978155105E+03  0.14688629175E+04  0.12699999809E+01 0. -1.
       -4    1    3    3    0  502  0.95827069611E+03  0.10774953430E+04 -0.10691533111E+04  0.17950959185E+04  0.12699999809E+01 0.  1.
</event>
<event>
 5   0  0.3812379E-06  0.3266877E+04  0.7818609E-02  0.8171375E-01
        2   -1    0    0  501    0  0.00000000000E+00  0.00000000000E+00  0.20509643045E+04  0.20509643045E+04  0.25500000920E-02 0.  1.
       -2   -1    0    0    0  501  0.00000000000E+00  0.00000000000E+00 -0.13009104955E+04  0.13009104955E+04  0.25500000920E-02 0. -1.
    10030    2    1    2    0    0  0.00000000000E+00  0.00000000000E+00  0.75005380899E+03  0.33518748000E+04  0.32668767896E+04 0.  0.
        5    1    3    3  502    0 -0.77088563293E+03  0.76618399374E+03  0.16260944932E+04  0.19558905803E+04  0.46999998093E+01 0.  1.
       -5    1    3    3    0  502  0.77088563293E+03 -0.76618399374E+03 -0.87604068417E+03  0.13959842197E+04  0.46999998093E+01 0. -1.
</event>
<event>
 5   0  0.4017247E-06  0.3176218E+04  0.7818609E-02  0.8195126E-01
       -2   -1    0    0    0  501  0.00000000000E+00  0.00000000000E+00  0.15436649791E+04  0.15436649791E+04  0.25500000920E-02 0. -1.
        2   -1    0    0  501    0  0.00000000000E+00  0.00000000000E+00 -0.16338329779E+04  0.16338329779E+04  0.25500000920E-02 0.  1.
    10030    2    1    2    0    0  0.00000000000E+00  0.00000000000E+00 -0.90167998825E+02  0.31774979570E+04  0.31762183488E+04 0.  0.
        1    1    3    3  502    0  0.11103387857E+04  0.70223583093E+03 -0.93768970892E+03  0.16140784899E+04  0.50400001928E-02 0.  1.
       -1    1    3    3    0  502 -0.11103387857E+04 -0.70223583093E+03  0.84752171010E+03  0.15634194672E+04  0.50400001928E-02 0. -1.
</event>
<event>
 5   0  0.4017247E-06  0.3224445E+04  0.7818609E-02  0.8182391E-01
        2   -1    0    0  501    0  0.00000000000E+00  0.00000000000E+00  0.11693419006E+04  0.11693419006E+04  0.25500000920E-02 0.  1.
       -2   -1    0    0    0  501  0.00000000000E+00  0.00000000000E+00 -0.22228406924E+04  0.22228406924E+04  0.25500000920E-02 0. -1.
    10030    2    1    2    0    0  0.00000000000E+00  0.00000000000E+00 -0.10534987918E+04  0.33921825930E+04  0.32244446095E+04 0.  0.
        1    1    3    3  502    0 -0.45222055697E+03 -0.62696522607E+03 -0.20151531275E+04  0.21583398606E+04  0.50400001928E-02 0. -1.
       -1    1    3    3    0  502  0.45222055697E+03  0.62696522607E+03  0.96165433563E+03  0.12338427323E+04  0.50400001928E-02 0.  1.
</event>
<event>
 5   0  0.1405389E-06  0.2174493E+04  0.7818609E-02  0.8529120E-01
        1   -1    0    0  501    0  0.00000000000E+00  0.00000000000E+00  0.14554336819E+04  0.14554336819E+04  0.50400001928E-02 0. -1.
       -1   -1    0    0    0  501  0.00000000000E+00  0.00000000000E+00 -0.81220117935E+03  0.81220117936E+03  0.50400001928E-02 0.  1.
    10030    2    1    2    0    0  0.00000000000E+00  0.00000000000E+00  0.64323250253E+03  0.22676348612E+04  0.21744930011E+04 0.  0.
        1    1    3    3  502    0 -0.52977554911E+03 -0.92119430238E+03  0.56134076712E+03  0.12018171791E+04  0.50400001928E-02 0. -1.
       -1    1    3    3    0  502  0.52977554911E+03  0.92119430238E+03  0.81891735413E+02  0.10658176821E+04  0.50400001928E-02 0.  1.
</event>
<event>
 5   0  0.1391878E-06  0.3138037E+04  0.7818609E-02  0.8205376E-01
       -1   -1    0    0    0  501  0.00000000000E+00  0.00000000000E+00  0.13231151338E+04  0.13231151338E+04  0.50400001928E-02 0.  1.
        1   -1    0    0  501    0  0.00000000000E+00  0.00000000000E+00 -0.18606239042E+04  0.18606239042E+04  0.50400001928E-02 0. -1.
    10030    2    1    2    0    0  0.00000000000E+00  0.00000000000E+00 -0.53750877041E+03  0.31837390380E+04  0.31380373777E+04 0.  0.
        2    1    3    3  502    0  0.55691413863E+03 -0.12008449418E+04  0.58591410835E+03  0.14475763450E+04  0.25500000920E-02 0.  1.
       -2    1    3    3    0  502 -0.55691413863E+03  0.12008449418E+04 -0.11234228788E+04  0.17361626930E+04  0.25500000920E-02 0. -1.
</event>
<event>
 5   0  0.4017247E-06  0.2694310E+04  0.7818609E-02  0.8336853E-01
       -2   -1    0    0    0  501  0.00000000000E+00  0.00000000000E+00  0.16250197103E+04  0.16250197103E+04  0.25500000920E-02 0.  1.
        2   -1    0    0  501    0  0.00000000000E+00  0.00000000000E+00 -0.11168030848E+04  0.11168030848E+04  0.25500000920E-02 0. -1.
    10030    2    1    2    0    0  0.00000000000E+00  0.00000000000E+00  0.50821662552E+03  0.27418227951E+04  0.26943103202E+04 0.  0.
        1    1    3    3  502    0 -0.79330688933E+03  0.48375012616E+03  0.12467463659E+04  0.15549040183E+04  0.50400001928E-02 0.  1.
       -1    1    3    3    0  502  0.79330688933E+03 -0.48375012616E+03 -0.73852974042E+03  0.11869187768E+04  0.50400001928E-02 0. -1.
</event>
<event>
 5   0  0.1352708E-06  0.3311235E+04  0.7818609E-02  0.8160042E-01
        1   -1    0    0  501    0  0.00000000000E+00  0.00000000000E+00  0.24963214404E+04  0.24963214404E+04  0.50400001928E-02 0. -1.
       -1   -1    0    0    0  501  0.00000000000E+00  0.00000000000E+00 -0.10980435176E+04  0.10980435177E+04  0.50400001928E-02 0.  1.
    10030    2    1    2    0    0  0.00000000000E+00  0.00000000000E+00  0.13982779227E+04  0.35943649580E+04  0.33112351626E+04 0.  0.
        5    1    3    3  502    0 -0.82581215104E+03  0.10069286333E+04 -0.41061566809E+03  0.13654663300E+04  0.46999998093E+01 0.  1.
       -5    1    3    3    0  502  0.82581215104E+03 -0.10069286333E+04  0.18088935908E+04  0.22288986281E+04  0.46999998093E+01 0. -1.
</event>
<event>
 5   0  0.3812379E-06  0.2316291E+04  0.7818609E-02  0.8471525E-01
        2   -1    0    0  501    0  0.00000000000E+00  0.00000000000E+00  0.14135043144E+04  0.14135043144E+04  0.25500000920E-02 0.  1.
       -2   -1    0    0    0  501  0.00000000000E+00  0.00000000000E+00 -0.94891914558E+03  0.94891914558E+03  0.25500000920E-02 0. -1.
    10030    2    1    2    0    0  0.00000000000E+00  0.00000000000E+00  0.46458516886E+03  0.23624234600E+04  0.23162912652E+04 0.  0.
        5    1    3    3  502    0  0.10952732264E+04 -0.33456132222E+03  0.40813427024E+03  0.12157920839E+04  0.46999998093E+01 0. -1.
       -5    1    3    3    0  502 -0.10952732264E+04  0.33456132222E+03  0.56450898626E+02  0.11466313761E+04  0.46999998093E+01 0.  1.
</event>
<event>
 5   0  0.1339825E-06  0.3210001E+04  0.7818609E-02  0.8186181E-01
        1   -1    0    0  501    0  0.00000000000E+00  0.00000000000E+00  0.29156373906E+04  0.29156373906E+04  0.50400001928E-02 0. -1.
       -1   -1    0    0    0  501  0.00000000000E+00  0.00000000000E+00 -0.88352098254E+03  0.88352098256E+03  0.50400001928E-02 0.  1.
    10030    2    1    2    0    0  0.00000000000E+00  0.00000000000E+00  0.20321164081E+04  0.37991583732E+04  0.32100011290E+04 0.  0.
        3    1    3    3  502    0 -0.49524181415E+03  0.27854836261E+03 -0.76050023219E+03  0.94932305258E+03  0.10100000352E+00 0.  1.
       -3    1    3    3    0  502  0.49524181415E+03 -0.27854836261E+03  0.27926166402E+04  0.28498353206E+04  0.10100000352E+00 0. -1.
</event>
<event>
 5   0  0.3671997E-06  0.2531866E+04  0.7818609E-02  0.8391720E-01
       -2   -1    0    0    0  501  0.00000000000E+00  0.00000000000E+00  0.12654778751E+04  0.12654778751E+04  0.25500000920E-02 0. -1.
        2   -1    0    0  501    0  0.00000000000E+00  0.00000000000E+00 -0.12663878711E+04  0.12663878711E+04  0.25500000920E-02 0.  1.
    10030    2    1    2    0    0  0.00000000000E+00  0.00000000000E+00 -0.90999599402E+00  0.25318657463E+04  0.25318655827E+04 0.  0.
        2    1    3    3  502    0  0.48929379103E+03 -0.11276565029E+04 -0.30305744601E+03  0.12660416336E+04  0.25500000920E-02 0.  1.
       -2    1    3    3    0  502 -0.48929379103E+03  0.11276565029E+04  0.30214745002E+03  0.12658241126E+04  0.25500000920E-02 0. -1.
</event>
<event>
 5   0  0.1282578E-06  0.3352210E+04  0.7818609E-02  0.8149736E-01
       -1   -1    0    0    0  501  0.00000000000E+00  0.00000000000E+00  0.10757477873E+04  0.10757477873E+04  0.50400001928E-02 0. -1.
        1   -1    0    0  501    0  0.00000000000E+00  0.00000000000E+00 -0.26115113026E+04  0.26115113026E+04  0.50400001928E-02 0.  1.
    10030    2    1    2    0    0  0.00000000000E+00  0.00000000000E+00 -0.15357635152E+04  0.36872590899E+04  0.33522097222E+04 0.  0.
        4    1    3    3  502    0  0.95673384816E+03  0.54589797327E+03  0.62170740686E+03  0.12648580814E+04  0.12699999809E+01 0. -1.
       -4    1    3    3    0  502 -0.95673384816E+03 -0.54589797327E+03 -0.21574709221E+04  0.24224010085E+04  0.12699999809E+01 0.  1.
</event>
<event>
 5   0  0.1352708E-06  0.3272626E+04  0.7818609E-02  0.8169896E-01
       -1   -1    0    0    0  501  0.00000000000E+00  0.00000000000E+00  0.11491325893E+04  0.11491325893E+04  0.50400001928E-02 0. -1.
        1   -1    0    0  501    0  0.00000000000E+00  0.00000000000E+00 -0.23300352291E+04  0.23300352291E+04  0.50400001928E-02 0.  1.
    10030    2    1    2    0    0  0.00000000000E+00  0.00000000000E+00 -0.11809026399E+04  0.34791678184E+04  0.32726255001E+04 0.  0.
        5    1    3    3  502    0  0.13076675663E+04 -0.57379208437E+03  0.25888511442E+03  0.14513012825E+04  0.46999998093E+01 0.  1.
       -5    1    3    3    0  502 -0.13076675663E+04  0.57379208437E+03 -0.14397877543E+04  0.20278665359E+04  0.46999998093E+01 0. -1.
</event>
<event>
 5   0  0.1405389E-06  0.3292895E+04  0.7818609E-02  0.8164706E-01
        1   -1    0    0  501    0  0.00000000000E+00  0.00000000000E+00  0.15800460118E+04  0.15800460118E+04  0.50400001928E-02 0.  1.
       -1   -1    0    0    0  501  0.00000000000E+00  0.00000000000E+00 -0.17156395686E+04  0.17156395686E+04  0.50400001928E-02 0. -1.
    10030    2    1    2    0    0  0.00000000000E+00  0.00000000000E+00 -0.13559355684E+03  0.32956855804E+04  0.32928950534E+04 0.  0.
        1    1    3    3  502    0  0.92959143349E+03 -0.49511195687E+03 -0.13343783567E+04  0.16999534352E+04  0.50400001928E-02 0. -1.
       -1    1    3    3    0  502 -0.92959143349E+03  0.49511195687E+03  0.11987847998E+04  0.15957321452E+04  0.50400001928E-02 0.  1.
</event>
<event>
 5   0  0.1391878E-06  0.3142057E+04  0.7818609E-02  0.8204290E-01
       -1   -1    0    0    0  501  0.00000000000E+00  0.00000000000E+00  0.11014724314E+04  0.11014724315E+04  0.50400001928E-02 0. -1.
        1   -1    0    0  501    0  0.00000000000E+00  0.00000000000E+00 -0.22407556642E+04  0.22407556642E+04  0.50400001928E-02 0.  1.
    10030    2    1    2    0    0  0.00000000000E+00  0.00000000000E+00 -0.11392832327E+04  0.33422280956E+04  0.31420570267E+04 0.  0.
        2    1    3    3  502    0 -0.90420432990E+02 -0.56846580121E+03 -0.21245474725E+04  0.22011431540E+04  0.25500000920E-02 0.  1.
       -2    1    3    3    0  502  0.90420432990E+02  0.56846580121E+03  0.98526423972E+03  0.11410849416E+04  0.25500000920E-02 0. -1.
</event>
<event>
 5   0  0.3896210E-06  0.2693983E+04  0.7818609E-02  0.8336960E-01
        2   -1    0    0  501    0  0.00000000000E+00  0.00000000000E+00  0.18099581003E+04  0.18099581003E+04  0.25500000920E-02 0. -1.
       -2   -1    0    0    0  501  0.00000000000E+00  0.00000000000E+00 -0.10024461937E+04  0.10024461937E+04  0.25500000920E-02 0.  1.
    10030    2    1    2    0    0  0.00000000000E+00  0.00000000000E+00  0.80751190665E+03  0.28124042940E+04  0.26939826342E+04 0.  0.
        3    1    3    3  502    0  0.41006054388E+03  0.24229145580E+03  0.17191141646E+04  0.17838745248E+04  0.10100000352E+00 0. -1.
       -3    1    3    3    0  502 -0.41006054388E+03 -0.24229145580E+03 -0.91160225794E+03  0.10285297692E+04  0.10100000352E+00 0.  1.
</event>
<event>
 5   0  0.4017247E-06  0.3302749E+04  0.7818609E-02  0.8162196E-01
       -2   -1    0    0    0  501  0.00000000000E+00  0.00000000000E+00  0.10635471575E+04  0.10635471575E+04  0.25500000920E-02 0.  1.
        2   -1    0    0  501    0  0.00000000000E+00  0.00000000000E+00 -0.25640961678E+04  0.25640961678E+04  0.25500000920E-02 0. -1.
    10030    2    1    2    0    0  0.00000000000E+00  0.00000000000E+00 -0.15005490103E+04  0.36276433252E+04  0.33027486678E+04 0.  0.
        1    1    3    3  502    0  0.15907911162E+04 -0.46366696250E+02 -0.12343944555E+04  0.20140744568E+04  0.50400001928E-02 0. -1.
       -1    1    3    3    0  502 -0.15907911162E+04  0.46366696250E+02 -0.26615455484E+03  0.16135688684E+04  0.50400001928E-02 0.  1.
</event>
<event>
 5   0  0.1391878E-06  0.3303793E+04  0.7818609E-02  0.8161931E-01
        1   -1    0    0  501    0  0.00000000000E+00  0.00000000000E+00  0.16443622794E+04  0.16443622794E+04  0.50400001928E-02 0. -1.
       -1   -1    0    0    0  501  0.00000000000E+00  0.00000000000E+00 -0.16594649213E+04  0.16594649213E+04  0.50400001928E-02 0.  1.
    10030    2    1    2    0    0  0.00000000000E+00  0.00000000000E+00 -0.15102641892E+02  0.33038272008E+04  0.33037926815E+04 0.  0.
        2    1    3    3  502    0 -0.95838320370E+03 -0.11207346998E+04 -0.75201654488E+03  0.16553167419E+04  0.25500000920E-02 0.  1.
       -2    1    3    3    0  502  0.95838320370E+03  0.11207346998E+04  0.73691390299E+03  0.16485104588E+04  0.25500000920E-02 0. -1.
</event>
<event>
 5   0  0.1282578E-06  0.3291638E+04  0.7818609E-02  0.8165026E-01
        1   -1    0    0  501    0  0.00000000000E+00  0.00000000000E+00  0.27942560407E+04  0.27942560407E+04  0.50400001928E-02 0. -1.
       -1   -1    0    0    0  501  0.00000000000E+00  0.00000000000E+00 -0.96938869646E+03  0.96938869647E+03  0.50400001928E-02 0.  1.
    10030    2    1    2    0    0  0.00000000000E+00  0.00000000000E+00  0.18248673443E+04  0.37636447372E+04  0.32916380244E+04 0.  0.
        4    1    3    3  502    0 -0.13115682286E+04  0.24833408568E+03  0.20132081890E+04  0.24155516681E+04  0.12699999809E+01 0. -1.
       -4    1    3    3    0  502  0.13115682286E+04 -0.24833408568E+03 -0.18834084468E+03  0.13480930691E+04  0.12699999809E+01 0.  1.
</event>
<event>
 5   0  0.1339825E-06  0.3349953E+04  0.7818609E-02  0.8150300E-01
       -1   -1    0    0    0  501  0.00000000000E+00  0.00000000000E+00  0.14584909353E+04  0.14584909353E+04  0.50400001928E-02 0. -1.
        1   -1    0    0  501    0  0.00000000000E+00  0.00000000000E+00 -0.19235953883E+04  0.19235953883E+04  0.50400001928E-02 0.  1.
    10030    2    1    2    0    0  0.00000000000E+00  0.00000000000E+00 -0.46510445307E+03  0.33820863236E+04  0.33499530964E+04 0.  0.
        3    1    3    3  502    0 -0.15231695537E+04 -0.40655355642E+03 -0.80385573992E+03  0.17696088111E+04  0.10100000352E+00 0.  1.
       -3    1    3    3    0  502  0.15231695537E+04  0.40655355642E+03  0.33875128685E+03  0.16124775125E+04  0.10100000352E+00 0. -1.
</event>
<event>
 5   0  0.1282578E-06  0.3094710E+04  0.7818609E-02  0.8217191E-01
       -1   -1    0    0    0  501  0.00000000000E+00  0.00000000000E+00  0.11560505862E+04  0.11560505862E+04  0.50400001928E-02 0.  1.
        1   -1    0    0  501    0  0.00000000000E+00  0.00000000000E+00 -0.20711091096E+04  0.20711091096E+04  0.50400001928E-02 0. -1.
    10030    2    1    2    0    0  0.00000000000E+00  0.00000000000E+00 -0.91505852332E+03  0.32271596958E+04  0.30947096150E+04 0.  0.
        4    1    3    3  502    0 -0.19150527715E+03 -0.32296632465E+03 -0.20228824843E+04  0.20574344890E+04  0.12699999809E+01 0. -1.
       -4    1    3    3    0  502  0.19150527715E+03  0.32296632465E+03  0.11078239610E+04  0.11697252068E+04  0.12699999809E+01 0.  1.
</event>
<event>
 5   0  0.3671997E-06  0.3321295E+04  0.7818609E-02  0.8157498E-01
       -2   -1    0    0    0  501  0.00000000000E+00  0.00000000000E+00  0.12740410831E+04  0.12740410831E+04  0.25500000920E-02 0.  1.
        2   -1    0    0  501    0  0.00000000000E+00  0.00000000000E+00 -0.21645691839E+04  0.21645691839E+04  0.25500000920E-02 0. -1.
    10030    2    1    2    0    0  0.00000000000E+00  0.00000000000E+00 -0.89052810078E+03  0.34386102670E+04  0.33212949689E+04 0.  0.
        2    1    3    3  502    0 -0.13562694315E+04  0.49508223111E+03  0.40419041625E+03  0.14993142028E+04  0.25500000920E-02 0.  1.
       -2    1    3    3    0  502  0.13562694315E+04 -0.49508223111E+03 -0.12947185170E+04  0.19392960642E+04  0.25500000920E-02 0. -1.
</event>
<event>
 5   0  0.4017247E-06  0.3345645E+04  0.7818609E-02  0.8151377E-01
       -2   -1    0    0    0  501  0.00000000000E+00  0.00000000000E+00  0.21130377109E+04  0.21130377109E+04  0.25500000920E-02 0.  1.
        2   -1    0    0  501    0  0.00000000000E+00  0.00000000000E+00 -0.13243187981E+04  0.13243187981E+04  0.25500000920E-02 0. -1.
    10030    2    1    2    0    0  0.00000000000E+00  0.00000000000E+00  0.78871891283E+03  0.34373565090E+04  0.33456452661E+04 0.  0.
        1    1    3    3  502    0  0.81278126710E+03 -0.56995318577E+03  0.17776986472E+04  0.20360924592E+04  0.50400001928E-02 0.  1.
       -1    1    3    3    0  502 -0.81278126710E+03  0.56995318577E+03 -0.98897973438E+03  0.14012640498E+04  0.50400001928E-02 0. -1.
</event>
<event>
 5   0  0.1405389E-06  0.3251134E+04  0.7818609E-02  0.8175442E-01
        1   -1    0    0  501    0  0.00000000000E+00  0.00000000000E+00  0.16738758044E+04  0.16738758044E+04  0.50400001928E-02 0. -1.
       -1   -1    0    0    0  501  0.00000000000E+00  0.00000000000E+00 -0.15786521765E+04  0.15786521765E+04  0.50400001928E-02 0.  1.
    10030    2    1    2    0    0  0.00000000000E+00  0.00000000000E+00  0.95223627846E+02  0.32525279809E+04  0.32511337603E+04 0.  0.
        1    1    3    3  502    0  0.87589864805E+03 -0.12897396459E+04  0.50807095120E+03  0.16397447629E+04  0.50400001928E-02 0.  1.
       -1    1    3    3    0  502 -0.87589864805E+03  0.12897396459E+04 -0.41284732335E+03  0.16127832180E+04  0.50400001928E-02 0. -1.
</event>
<event>
 5   0  0.3671997E-06  0.3282888E+04  0.7818609E-02  0.8167263E-01
        2   -1    0    0  501    0  0.00000000000E+00  0.00000000000E+00  0.19670681059E+04  0.19670681059E+04  0.25500000920E-02 0. -1.
       -2   -1    0    0    0  501  0.00000000000E+00  0.00000000000E+00 -0.13697227866E+04  0.13697227866E+04  0.25500000920E-02 0.  1.
    10030    2    1    2    0    0  0.00000000000E+00  0.00000000000E+00  0.59734531923E+03  0.33367908925E+04  0.32828877577E+04 0.  0.
        2    1    3    3  502    0 -0.61017918086E+03  0.76691157052E+03 -0.10397113046E+04  0.14288007512E+04  0.25500000920E-02 0.  1.
       -2    1    3    3    0  502  0.61017918086E+03 -0.76691157052E+03  0.16370566238E+04  0.19079901413E+04  0.25500000920E-02 0. -1.
</event>
<event>
 5   0  0.1339825E-06  0.3243912E+04  0.7818609E-02  0.8177316E-01
        1   -1    0    0  501    0  0.00000000000E+00  0.00000000000E+00  0.14143049427E+04  0.14143049427E+04  0.50400001928E-02 0.  1.
       -1   -1    0    0    0  501  0.00000000000E+00  0.00000000000E+00 -0.18600942591E+04  0.18600942591E+04  0.50400001928E-02 0. -1.
    10030    2    1    2    0    0  0.00000000000E+00  0.00000000000E+00 -0.44578931640E+03  0.32743992018E+04  0.32439115305E+04 0.  0.
        3    1    3    3  502    0  0.10851595875E+04 -0.99506066111E+03 -0.90974815747E+03  0.17307104812E+04  0.10100000352E+00 0. -1.
       -3    1    3    3    0  502 -0.10851595875E+04  0.99506066111E+03  0.46395884107E+03  0.15436887206E+04  0.10100000352E+00 0.  1.
</event>
<event>
 5   0  0.4017247E-06  0.3438553E+04  0.7818609E-02  0.8128509E-01
        2   -1    0    0  501    0  0.00000000000E+00  0.00000000000E+00  0.26303556535E+04  0.26303556535E+04  0.25500000920E-02 0. -1.
       -2   -1    0    0    0  501  0.00000000000E+00  0.00000000000E+00 -0.11237686749E+04  0.11237686749E+04  0.25500000920E-02 0.  1.
    10030    2    1    2    0    0  0.00000000000E+00  0.00000000000E+00  0.15065869786E+04  0.37541243284E+04  0.34385527696E+04 0.  0.
        1    1    3    3  502    0 -0.31005221973E+03  0.43290500939E+03 -0.10314730995E+04  0.11608082879E+04  0.50400001928E-02 0.  1.
       -1    1    3    3    0  502  0.31005221973E+03 -0.43290500939E+03  0.25380600781E+04  0.25933160405E+04  0.50400001928E-02 0. -1.
</event>
<event>
 5   0  0.1339825E-06  0.3289009E+04  0.7818609E-02  0.8165698E-01
       -1   -1    0    0    0  501  0.00000000000E+00  0.00000000000E+00  0.15179618652E+04  0.15179618652E+04  0.50400001928E-02 0. -1.
        1   -1    0    0  501    0  0.00000000000E+00  0.00000000000E+00 -0.17815958802E+04  0.17815958802E+04  0.50400001928E-02 0.  1.
    10030    2    1    2    0    0  0.00000000000E+00  0.00000000000E+00 -0.26363401500E+03  0.32995577454E+04  0.32890087293E+04 0.  0.
        3    1    3    3  502    0 -0.11386075405E+04 -0.73047803121E+03  0.80625928403E+03  0.15748267615E+04  0.10100000352E+00 0. -1.
       -3    1    3    3    0  502  0.11386075405E+04  0.73047803121E+03 -0.10698932990E+04  0.17247309839E+04  0.10100000352E+00 0.  1.
</event>
<event>
 5   0  0.3812379E-06  0.3272166E+04  0.7818609E-02  0.8170014E-01
        2   -1    0    0  501    0  0.00000000000E+00  0.00000000000E+00  0.13877036604E+04  0.13877036604E+04  0.25500000920E-02 0.  1.
       -2   -1    0    0    0  501  0.00000000000E+00  0.00000000000E+00 -0.19289190018E+04  0.19289190018E+04  0.25500000920E-02 0. -1.
    10030    2    1    2    0    0  0.00000000000E+00  0.00000000000E+00 -0.54121534135E+03  0.33166226622E+04  0.32721662302E+04 0.  0.
        5    1    3    3  502    0  0.55465334070E+03  0.61505045467E+03 -0.17007410306E+04  0.18916843112E+04  0.46999998093E+01 0. -1.
       -5    1    3    3    0  502 -0.55465334070E+03 -0.61505045467E+03  0.11595256892E+04  0.14249383510E+04  0.46999998093E+01 0.  1.
</event>
<event>
 5   0  0.4017247E-06  0.3283020E+04  0.7818609E-02  0.8167229E-01
       -2   -1    0    0    0  501  0.00000000000E+00  0.00000000000E+00  0.12175314601E+04  0.12175314601E+04  0.25500000920E-02 0.  1.
        2   -1    0    0  501    0  0.00000000000E+00  0.00000000000E+00 -0.22131297782E+04  0.22131297782E+04  0.25500000920E-02 0. -1.
    10030    2    1    2    0    0  0.00000000000E+00  0.00000000000E+00 -0.99559831813E+03  0.34306612382E+04  0.32830200305E+04 0.  0.
        1    1    3    3  502    0 -0.12593888652E+04  0.10369302945E+04 -0.30719464174E+03  0.16600160533E+04  0.50400001928E-02 0.  1.
       -1    1    3    3    0  502  0.12593888652E+04 -0.10369302945E+04 -0.68840367639E+03  0.17706451849E+04  0.50400001928E-02 0. -1.
</event>
<event>
 5   0  0.1391878E-06  0.3342499E+04  0.7818609E-02  0.8152165E-01
       -1   -1    0    0    0  501  0.00000000000E+00  0.00000000000E+00  0.12564858119E+04  0.12564858119E+04  0.50400001928E-02 0. -1.
        1   -1    0    0  501    0  0.00000000000E+00  0.00000000000E+00 -0.22229255939E+04  0.22229255939E+04  0.50400001928E-02 0.  1.
    10030    2    1    2    0    0  0.00000000000E+00  0.00000000000E+00 -0.96643978199E+03  0.34794114058E+04  0.33424987478E+04 0.  0.
        2    1    3    3  502    0  0.29140575964E+03 -0.85190250824E+03  0.98243690061E+03  0.13326055170E+04  0.25500000920E-02 0. -1.
       -2    1    3    3    0  502 -0.29140575964E+03  0.85190250824E+03 -0.19488766826E+04  0.21468058888E+04  0.25500000920E-02 0.  1.
</event>
<event>
 5   0  0.3671997E-06  0.3302465E+04  0.7818609E-02  0.8162269E-01
        2   -1    0    0  501    0  0.00000000000E+00  0.00000000000E+00  0.24489730508E+04  0.24489730508E+04  0.25500000920E-02 0. -1.
       -2   -1    0    0    0  501  0.00000000000E+00  0.00000000000E+00 -0.11133516246E+04  0.11133516246E+04  0.25500000920E-02 0.  1.
    10030    2    1    2    0    0  0.00000000000E+00  0.00000000000E+00  0.13356214262E+04  0.35623246754E+04  0.33024646097E+04 0.  0.
        2    1    3    3  502    0 -0.66713243390E+03 -0.14119125188E+04  0.88921173407E+02  0.15641194393E+04  0.25500000920E-02 0.  1.
       -2    1    3    3    0  502  0.66713243390E+03  0.14119125188E+04  0.12467002528E+04  0.19982052361E+04  0.25500000920E-02 0. -1.
</event>
<event>
 5   0  0.4017247E-06  0.2721482E+04  0.7818609E-02  0.8328068E-01
        2   -1    0    0  501    0  0.00000000000E+00  0.00000000000E+00  0.13355784457E+04  0.13355784457E+04  0.25500000920E-02 0. -1.
       -2   -1    0    0    0  501  0.00000000000E+00  0.00000000000E+00 -0.13863773394E+04  0.13863773394E+04  0.25500000920E-02 0.  1.
    10030    2    1    2    0    0  0.00000000000E+00  0.00000000000E+00 -0.50798893745E+02  0.27219557851E+04  0.27214817229E+04 0.  0.
        1    1    3    3  502    0 -0.46253421911E+03 -0.78386469601E+03 -0.10371259105E+04  0.13798593841E+04  0.50400001928E-02 0.  1.
       -1    1    3    3    0  502  0.46253421911E+03  0.78386469601E+03  0.98632701678E+03  0.13420964010E+04  0.50400001928E-02 0. -1.
</event>
<event>
 5   0  0.1391878E-06  0.2355192E+04  0.7818609E-02  0.8456472E-01
        1   -1    0    0  501    0  0.00000000000E+00  0.00000000000E+00  0.12756412807E+04  0.12756412807E+04  0.50400001928E-02 0.  1.
       -1   -1    0    0    0  501  0.00000000000E+00  0.00000000000E+00 -0.10870864333E+04  0.10870864333E+04  0.50400001928E-02 0. -1.
    10030    2    1    2    0    0  0.00000000000E+00  0.00000000000E+00  0.18855484740E+03  0.23627277140E+04  0.23551919922E+04 0.  0.
        2    1    3    3  502    0  0.10077458820E+04  0.51486045228E+03  0.42104847983E+03  0.12074414563E+04  0.25500000920E-02 0. -1.
       -2    1    3    3    0  502 -0.10077458820E+04 -0.51486045228E+03 -0.23249363243E+03  0.11552862577E+04  0.25500000920E-02 0.  1.
</event>
<event>
 5   0  0.1282578E-06  0.3288538E+04  0.7818609E-02  0.8165818E-01
        1   -1    0    0  501    0  0.00000000000E+00  0.00000000000E+00  0.20440501138E+04  0.20440501138E+04  0.50400001928E-02 0. -1.
       -1   -1    0    0    0  501  0.00000000000E+00  0.00000000000E+00 -0.13226781540E+04  0.13226781540E+04  0.50400001928E-02 0.  1.
    10030    2    1    2    0    0  0.00000000000E+00  0.00000000000E+00  0.72137195985E+03  0.33667282678E+04  0.32885379311E+04 0.  0.
        4    1    3    3  502    0  0.12605942401E+04 -0.58806259454E+03 -0.53691765154E+03  0.14910391111E+04  0.12699999809E+01 0.  1.
       -4    1    3    3    0  502 -0.12605942401E+04  0.58806259454E+03  0.12582896114E+04  0.18756891567E+04  0.12699999809E+01 0. -1.
</event>
<event>
 5   0  0.3812379E-06  0.3345503E+04  0.7818609E-02  0.8151413E-01
       -2   -1    0    0    0  501  0.00000000000E+00  0.00000000000E+00  0.12329614953E+04  0.12329614953E+04  0.25500000920E-02 0.  1.
        2   -1    0    0  501    0  0.00000000000E+00  0.00000000000E+00 -0.22694125199E+04  0.22694125199E+04  0.25500000920E-02 0. -1.
    10030    2    1    2    0    0  0.00000000000E+00  0.00000000000E+00 -0.10364510245E+04  0.35023740152E+04  0.33455034025E+04 0.  0.
        5    1    3    3  502    0 -0.14239395941E+04  0.68904811059E+03  0.51040975260E+02  0.15827250353E+04  0.46999998093E+01 0.  1.
       -5    1    3    3    0  502  0.14239395941E+04 -0.68904811059E+03 -0.10874919998E+04  0.19196489799E+04  0.46999998093E+01 0. -1.
</event>
<event>
 5   0  0.1339825E-06  0.3254030E+04  0.7818609E-02  0.8174692E-01
       -1   -1    0    0    0  501  0.00000000000E+00  0.00000000000E+00  0.14827533572E+04  0.14827533572E+04  0.50400001928E-02 0.  1.
        1   -1    0    0  501    0  0.00000000000E+00  0.00000000000E+00 -0.17853121327E+04  0.17853121327E+04  0.50400001928E-02 0. -1.
    10030    2    1    2    0    0  0.00000000000E+00  0.00000000000E+00 -0.30255877546E+03  0.32680654899E+04  0.32540298452E+04 0.  0.
        3    1    3    3  502    0  0.10392115532E+04 -0.12382557493E+04 -0.33630103764E+03  0.16511621213E+04  0.10100000352E+00 0.  1.
       -3    1    3    3    0  502 -0.10392115532E+04  0.12382557493E+04  0.33742262177E+02  0.16169033686E+04  0.10100000352E+00 0. -1.
</event>
<event>
 5   0  0.1339825E-06  0.3202825E+04  0.7818609E-02  0.8188072E-01
        1   -1    0    0  501    0  0.00000000000E+00  0.00000000000E+00  0.89331309413E+03  0.89331309415E+03  0.50400001928E-02 0. -1.
       -1   -1    0    0    0  501  0.00000000000E+00  0.00000000000E+00 -0.28707980945E+04  0.28707980945E+04  0.50400001928E-02 0.  1.
    10030    2    1    2    0    0  0.00000000000E+00  0.00000000000E+00 -0.19774850004E+04  0.37641111887E+04  0.32028247086E+04 0.  0.
        3    1    3    3  502    0  0.79188368484E+03 -0.13716201829E+04 -0.71038045774E+03  0.17358174159E+04  0.10100000352E+00 0.  1.
       -3    1    3    3    0  502 -0.79188368484E+03  0.13716201829E+04 -0.12671045426E+04  0.20282937728E+04  0.10100000352E+00 0. -1.
</event>
<event>
 5   0  0.3896210E-06  0.3136690E+04  0.7818609E-02  0.8205740E-01
       -2   -1    0    0    0  501  0.00000000000E+00  0.00000000000E+00  0.12563494183E+04  0.12563494183E+04  0.25500000920E-02 0.  1.
        2   -1    0    0  501    0  0.00000000000E+00  0.00000000000E+00 -0.19578200717E+04  0.19578200717E+04  0.25500000920E-02 0. -1.
    10030    2    1    2    0    0  0.00000000000E+00  0.00000000000E+00 -0.70147065334E+03  0.32141694900E+04  0.31366900442E+04 0.  0.
        3    1    3    3  502    0  0.92296483961E+03  0.57441493407E+03 -0.15090960338E+04  0.18598890992E+04  0.10100000352E+00 0. -1.
       -3    1    3    3    0  502 -0.92296483961E+03 -0.57441493407E+03  0.80762538050E+03  0.13542803909E+04  0.10100000352E+00 0.  1.
</event>
<event>
 5   0  0.3812379E-06  0.3126314E+04  0.7818609E-02  0.8208553E-01
        2   -1    0    0  501    0  0.00000000000E+00  0.00000000000E+00  0.19560754120E+04  0.19560754120E+04  0.25500000920E-02 0. -1.
       -2   -1    0    0    0  501  0.00000000000E+00  0.00000000000E+00 -0.12491641014E+04  0.12491641014E+04  0.25500000920E-02 0.  1.
    10030    2    1    2    0    0  0.00000000000E+00  0.00000000000E+00  0.70691131057E+03  0.32052395134E+04  0.31263136019E+04 0.  0.
        5    1    3    3  502    0 -0.10698012230E+03  0.37449913458E+03  0.19055241401E+04  0.19449263962E+04  0.46999998093E+01 0. -1.
       -5    1    3    3    0  502  0.10698012230E+03 -0.37449913458E+03 -0.11986128295E+04  0.12603131172E+04  0.46999998093E+01 0.  1.
</event>
<event>
 5   0  0.1352708E-06  0.3095989E+04  0.7818609E-02  0.8216839E-01
        1   -1    0    0  501    0  0.00000000000E+00  0.00000000000E+00  0.18694958295E+04  0.18694958295E+04  0.50400001928E-02 0.  1.
       -1   -1    0    0    0  501  0.00000000000E+00  0.00000000000E+00 -0.12817827828E+04  0.12817827828E+04  0.50400001928E-02 0. -1.
    10030    2    1    2    0    0  0.00000000000E+00  0.00000000000E+00  0.58771304672E+03  0.31512786123E+04  0.30959893842E+04 0.  0.
        5    1    3    3  502    0  0.14394232947E+04 -0.37250709620E+03  0.73232139909E+03  0.16574129478E+04  0.46999998093E+01 0. -1.
       -5    1    3    3    0  502 -0.14394232947E+04  0.37250709620E+03 -0.14460835237E+03  0.14938656645E+04  0.46999998093E+01 0.  1.
</event>
<event>
 5   0  0.1391878E-06  0.3300207E+04  0.7818609E-02  0.8162843E-01
        1   -1    0    0  501    0  0.00000000000E+00  0.00000000000E+00  0.28709432948E+04  0.28709432948E+04  0.50400001928E-02 0.  1.
       -1   -1    0    0    0  501  0.00000000000E+00  0.00000000000E+00 -0.94841333770E+03  0.94841333771E+03  0.50400001928E-02 0. -1.
    10030    2    1    2    0    0  0.00000000000E+00  0.00000000000E+00  0.19225299571E+04  0.38193566325E+04  0.33002066072E+04 0.  0.
        2    1    3    3  502    0  0.15595568816E+04 -0.51185135966E+03  0.11570910959E+04  0.20082503045E+04  0.25500000920E-02 0.  1.
       -2    1    3    3    0  502 -0.15595568816E+04  0.51185135966E+03  0.76543886118E+03  0.18111063280E+04  0.25500000920E-02 0. -1.
</event>
<event>
 5   0  0.3920487E-06  0.3223456E+04  0.7818609E-02  0.8182650E-01
       -2   -1    0    0    0  501  0.00000000000E+00  0.00000000000E+00  0.18364740727E+04  0.18364740727E+04  0.25500000920E-02 0. -1.
        2   -1    0    0  501    0  0.00000000000E+00  0.00000000000E+00 -0.14144860293E+04  0.14144860293E+04  0.25500000920E-02 0.  1.
    10030    2    1    2    0    0  0.00000000000E+00  0.00000000000E+00  0.42198804344E+03  0.32509601020E+04  0.32234558591E+04 0.  0.
        4    1    3    3  502    0 -0.13556539815E+04 -0.85997499644E+03  0.67262764492E+02  0.16068231404E+04  0.12699999809E+01 0.  1.
       -4    1    3    3    0  502  0.13556539815E+04  0.85997499644E+03  0.35472527895E+03  0.16441369616E+04  0.12699999809E+01 0. -1.
</event>
<event>
 5   0  0.3812379E-06  0.3276940E+04  0.7818609E-02  0.8168788E-01
        2   -1    0    0  501    0  0.00000000000E+00  0.00000000000E+00  0.30246453454E+04  0.30246453454E+04  0.25500000920E-02 0. -1.
       -2   -1    0    0    0  501  0.00000000000E+00  0.00000000000E+00 -0.88756996937E+03  0.88756996938E+03  0.25500000920E-02 0.  1.
    10030    2    1    2    0    0  0.00000000000E+00  0.00000000000E+00  0.21370753760E+04  0.39122153148E+04  0.32769402659E+04 0.  0.
        5    1    3    3  502    0  0.19695852429E+03 -0.78813000792E+02  0.30081719187E+04  0.30156466192E+04  0.46999998093E+01 0. -1.
       -5    1    3    3    0  502 -0.19695852429E+03  0.78813000792E+02 -0.87109654264E+03  0.89656869563E+03  0.46999998093E+01 0.  1.
</event>
<event>
 5   0  0.1405389E-06  0.2362330E+04  0.7818609E-02  0.8453743E-01
        1   -1    0    0  501    0  0.00000000000E+00  0.00000000000E+00  0.21734967315E+04  0.21734967315E+04  0.50400001928E-02 0. -1.
       -1   -1    0    0    0  501  0.00000000000E+00  0.00000000000E+00 -0.64189250275E+03  0.64189250277E+03  0.50400001928E-02 0.  1.
    10030    2    1    2    0    0  0.00000000000E+00  0.00000000000E+00  0.15316042288E+04  0.28153892343E+04  0.23623304229E+04 0.  0.
        1    1    3    3  502    0 -0.26622745702E+03 -0.10332584195E+04  0.16203496023E+03  0.10792383187E+04  0.50400001928E-02 0.  1.
       -1    1    3    3    0  502  0.26622745702E+03  0.10332584195E+04  0.13695692685E+04  0.17361509156E+04  0.50400001928E-02 0. -1.
</event>
<event>
 5   0  0.3671997E-06  0.3323577E+04  0.7818609E-02  0.8156922E-01
        2   -1    0    0  501    0  0.00000000000E+00  0.00000000000E+00  0.22993430875E+04  0.22993430875E+04  0.25500000920E-02 0.  1.
       -2   -1    0    0    0  501  0.00000000000E+00  0.00000000000E+00 -0.12010126992E+04  0.12010126992E+04  0.25500000920E-02 0. -1.
    10030    2    1    2    0    0  0.00000000000E+00  0.00000000000E+00  0.10983303883E+04  0.35003557867E+04  0.33235765362E+04 0.  0.
        2    1    3    3  502    0  0.13901054794E+04 -0.70598870880E+03  0.11548424931E+04  0.19402253695E+04  0.25500000920E-02 0.  1.
       -2    1    3    3    0  502 -0.13901054794E+04  0.70598870880E+03 -0.56512104760E+02  0.15601304172E+04  0.25500000920E-02 0. -1.
</event>
<event>
 5   0  0.1391878E-06  0.3240248E+04  0.7818609E-02  0.8178268E-01
        1   -1    0    0  501    0  0.00000000000E+00  0.00000000000E+00  0.20541544102E+04  0.20541544102E+04  0.50400001928E-02 0.  1.
       -1   -1    0    0    0  501  0.00000000000E+00  0.00000000000E+00 -0.12778012931E+04  0.12778012931E+04  0.50400001928E-02 0. -1.
    10030    2    1    2    0    0  0.00000000000E+00  0.00000000000E+00  0.77635311709E+03  0.33319557033E+04  0.32402476211E+04 0.  0.
        2    1    3    3  502    0 -0.99370573653E+02 -0.95998348577E+03 -0.94994465705E+03  0.13541926212E+04  0.25500000920E-02 0. -1.
       -2    1    3    3    0  502  0.99370573653E+02  0.95998348577E+03  0.17262977741E+04  0.19777630821E+04  0.25500000920E-02 0.  1.
</event>
<event>
 5   0  0.4017247E-06  0.3295069E+04  0.7818609E-02  0.8164151E-01
       -2   -1    0    0    0  501  0.00000000000E+00  0.00000000000E+00  0.25486334610E+04  0.25486334610E+04  0.25500000920E-02 0. -1.
        2   -1    0    0  501    0  0.00000000000E+00  0.00000000000E+00 -0.10650294356E+04  0.10650294356E+04  0.25500000920E-02 0.  1.
    10030    2    1    2    0    0  0.00000000000E+00  0.00000000000E+00  0.14836040254E+04  0.36136628966E+04  0.32950688348E+04 0.  0.
        1    1    3    3  502    0  0.11812018966E+04  0.12825339684E+03  0.19935084476E+04  0.23207246250E+04  0.50400001928E-02 0. -1.
       -1    1    3    3    0  502 -0.11812018966E+04 -0.12825339684E+03 -0.50990442220E+03  0.12929382716E+04  0.50400001928E-02 0.  1.
</event>
<event>
 5   0  0.1339825E-06  0.3327105E+04  0.7818609E-02  0.8156033E-01
        1   -1    0    0  501    0  0.00000000000E+00  0.00000000000E+00  0.14718647146E+04  0.14718647146E+04  0.50400001928E-02 0.  1.
       -1   -1    0    0    0  501  0.00000000000E+00  0.00000000000E+00 -0.18802043494E+04  0.18802043494E+04  0.50400001928E-02 0. -1.
    10030    2    1    2    0    0  0.00000000000E+00  0.00000000000E+00 -0.40833963481E+03  0.33520690641E+04  0.33271047102E+04 0.  0.
        3    1    3    3  502    0 -0.10429697286E+04  0.41179004591E+03 -0.14422309375E+04  0.18268516590E+04  0.10100000352E+00 0. -1.
       -3    1    3    3    0  502  0.10429697286E+04 -0.41179004591E+03  0.10338913027E+04  0.15252174051E+04  0.10100000352E+00 0.  1.
</event>
<event>
 5   0  0.1339825E-06  0.3306893E+04  0.7818609E-02  0.8161144E-01
        1   -1    0    0  501    0  0.00000000000E+00  0.00000000000E+00  0.21586252093E+04  0.21586252093E+04  0.50400001928E-02 0. -1.
       -1   -1    0    0    0  501  0.00000000000E+00  0.00000000000E+00 -0.12664939143E+04  0.12664939143E+04  0.50400001928E-02 0.  1.
    10030    2    1    2    0    0  0.00000000000E+00  0.00000000000E+00  0.89213129501E+03  0.34251191236E+04  0.33068932192E+04 0.  0.
        3    1    3    3  502    0  0.11077724559E+04  0.11444913095E+04  0.90562364250E+03  0.18322593604E+04  0.10100000352E+00 0. -1.
       -3    1    3    3    0  502 -0.11077724559E+04 -0.11444913095E+04 -0.13492347494E+02  0.15928597632E+04  0.10100000352E+00 0.  1.
</event>
<event>
 5   0  0.3920487E-06  0.3393849E+04  0.7818609E-02  0.8139418E-01
        2   -1    0    0  501    0  0.00000000000E+00  0.00000000000E+00  0.20864162754E+04  0.20864162754E+04  0.25500000920E-02 0.  1.
       -2   -1    0    0    0  501  0.00000000000E+00  0.00000000000E+00 -0.13801427847E+04  0.13801427847E+04  0.25500000920E-02 0. -1.
    10030    2    1    2    0    0  0.00000000000E+00  0.00000000000E+00  0.70627349070E+03  0.34665590601E+04  0.33938487700E+04 0.  0.
        4    1    3    3  502    0 -0.33998883088E+03  0.63107709911E+03 -0.12178986022E+04  0.14131982622E+04  0.12699999809E+01 0. -1.
       -4    1    3    3    0  502  0.33998883088E+03 -0.63107709911E+03  0.19241720929E+04  0.20533607979E+04  0.12699999809E+01 0.  1.
</event>
<event>
 5   0  0.4017247E-06  0.3244728E+04  0.7818609E-02  0.8177103E-01
        2   -1    0    0  501    0  0.00000000000E+00  0.00000000000E+00  0.23720180423E+04  0.23720180423E+04  0.25500000920E-02 0.  1.
       -2   -1    0    0    0  501  0.00000000000E+00  0.00000000000E+00 -0.11096313538E+04  0.11096313538E+04  0.25500000920E-02 0. -1.
    10030    2    1    2    0    0  0.00000000000E+00  0.00000000000E+00  0.12623866885E+04  0.34816493961E+04  0.32447283964E+04 0.  0.
        1    1    3    3  502    0 -0.21723787049E+03  0.62359336938E+03 -0.95890252503E+03  0.11642830563E+04  0.50400001928E-02 0. -1.
       -1    1    3    3    0  502  0.21723787049E+03 -0.62359336938E+03  0.22212892135E+04  0.23173663398E+04  0.50400001928E-02 0.  1.
</event>
<event>
 5   0  0.1259875E-06  0.3380794E+04  0.7818609E-02  0.8142636E-01
       -4   -1    0    0    0  501  0.00000000000E+00  0.00000000000E+00  0.15411597190E+04  0.15411602423E+04  0.12699999809E+01 0. -1.
        4   -1    0    0  501    0  0.00000000000E+00  0.00000000000E+00 -0.18540846370E+04  0.18540850719E+04  0.12699999809E+01 0.  1.
    10030    2    1    2    0    0  0.00000000000E+00  0.00000000000E+00 -0.31292491796E+03  0.33952453143E+04  0.33807940990E+04 0.  0.
        3    1    3    3  502    0  0.39113067257E+02  0.16716717632E+04 -0.40536426940E+03  0.17205628489E+04  0.10100000352E+00 0.  1.
       -3    1    3    3    0  502 -0.39113067257E+02 -0.16716717632E+04  0.92439351440E+02  0.16746824654E+04  0.10100000352E+00 0. -1.
</event>
<event>
 5   0  0.1282578E-06  0.3257358E+04  0.7818609E-02  0.8173831E-01
        1   -1    0    0  501    0  0.00000000000E+00  0.00000000000E+00  0.21058286929E+04  0.21058286929E+04  0.50400001928E-02 0. -1.
       -1   -1    0    0    0  501  0.00000000000E+00  0.00000000000E+00 -0.12596446502E+04  0.12596446502E+04  0.50400001928E-02 0.  1.
    10030    2    1    2    0    0  0.00000000000E+00  0.00000000000E+00  0.84618404264E+03  0.33654733431E+04  0.32573583452E+04 0.  0.
        4    1    3    3  502    0  0.59957339771E+02 -0.82305768038E+03  0.18738244287E+04  0.20474956484E+04  0.12699999809E+01 0. -1.
       -4    1    3    3    0  502 -0.59957339771E+02  0.82305768038E+03 -0.10276403860E+04  0.13179776947E+04  0.12699999809E+01 0.  1.
</event>
<event>
 5   0  0.1352708E-06  0.3313551E+04  0.7818609E-02  0.8159456E-01
       -1   -1    0    0    0  501  0.00000000000E+00  0.00000000000E+00  0.12116814848E+04  0.12116814848E+04  0.50400001928E-02 0. -1.
        1   -1    0    0  501    0  0.00000000000E+00  0.00000000000E+00 -0.22653684118E+04  0.22653684118E+04  0.50400001928E-02 0.  1.
    10030    2    1    2    0    0  0.00000000000E+00  0.00000000000E+00 -0.10536869270E+04  0.34770498966E+04  0.33135509417E+04 0.  0.
        5    1    3    3  502    0  0.14900444112E+04 -0.43101258752E+03 -0.11377002314E+04  0.19236392865E+04  0.46999998093E+01 0.  1.
       -5    1    3    3    0  502 -0.14900444112E+04  0.43101258752E+03  0.84013304441E+02  0.15534106100E+04  0.46999998093E+01 0. -1.
</event>
<event>
 5   0  0.3671997E-06  0.3326830E+04  0.7818609E-02  0.8156102E-01
        2   -1    0    0  501    0  0.00000000000E+00  0.00000000000E+00  0.19337855897E+04  0.19337855897E+04  0.25500000920E-02 0.  1.
       -2   -1    0    0    0  501  0.00000000000E+00  0.00000000000E+00 -0.14308460055E+04  0.14308460055E+04  0.25500000920E-02 0. -1.
    10030    2    1    2    0    0  0.00000000000E+00  0.00000000000E+00  0.50293958417E+03  0.33646315952E+04  0.33268299545E+04 0.  0.
        2    1    3    3  502    0 -0.71610714380E+03 -0.44669917039E+03 -0.11982048291E+04  0.14656208250E+04  0.25500000920E-02 0. -1.
       -2    1    3    3    0  502  0.71610714380E+03  0.44669917039E+03  0.17011444133E+04  0.18990107701E+04  0.25500000920E-02 0.  1.
</event>
<event>
 5   0  0.1282578E-06  0.3319005E+04  0.7818609E-02  0.8158076E-01
       -1   -1    0    0    0  501  0.00000000000E+00  0.00000000000E+00  0.12340882790E+04  0.12340882790E+04  0.50400001928E-02 0. -1.
        1   -1    0    0  501    0  0.00000000000E+00  0.00000000000E+00 -0.22315655013E+04  0.22315655013E+04  0.50400001928E-02 0.  1.
    10030    2    1    2    0    0  0.00000000000E+00  0.00000000000E+00 -0.99747722229E+03  0.34656537803E+04  0.33190051696E+04 0.  0.
        4    1    3    3  502    0  0.13151694078E+04  0.16277887993E+03 -0.15417632637E+04  0.20330280641E+04  0.12699999809E+01 0.  1.
       -4    1    3    3    0  502 -0.13151694078E+04 -0.16277887993E+03  0.54428604144E+03  0.14326257162E+04  0.12699999809E+01 0. -1.
</event>
<event>
 5   0  0.3812379E-06  0.3211000E+04  0.7818609E-02  0.8185918E-01
       -2   -1    0    0    0  501  0.00000000000E+00  0.00000000000E+00  0.10335232259E+04  0.10335232259E+04  0.25500000920E-02 0. -1.
        2   -1    0    0  501    0  0.00000000000E+00  0.00000000000E+00 -0.24940219876E+04  0.24940219876E+04  0.25500000920E-02 0.  1.
    10030    2    1    2    0    0  0.00000000000E+00  0.00000000000E+00 -0.14604987617E+04  0.35275452135E+04  0.32109996264E+04 0.  0.
        5    1    3    3  502    0  0.10606037761E+04  0.10885485282E+04 -0.12987473758E+04  0.19991460938E+04  0.46999998093E+01 0. -1.
       -5    1    3    3    0  502 -0.10606037761E+04 -0.10885485282E+04 -0.16175138582E+03  0.15283991197E+04  0.46999998093E+01 0.  1.
</event>
<event>
 5   0  0.1352708E-06  0.3008090E+04  0.7818609E-02  0.8241425E-01
        1   -1    0    0  501    0  0.00000000000E+00  0.00000000000E+00  0.21622077033E+04  0.21622077033E+04  0.50400001928E-02 0.  1.
       -1   -1    0    0    0  501  0.00000000000E+00  0.00000000000E+00 -0.10462227652E+04  0.10462227652E+04  0.50400001928E-02 0. -1.
    10030    2    1    2    0    0  0.00000000000E+00  0.00000000000E+00  0.11159849381E+04  0.32084304685E+04  0.30080897076E+04 0.  0.
        5    1    3    3  502    0 -0.10137558998E+03  0.13195731079E+04 -0.20414474323E+03  0.13391218629E+04  0.46999998093E+01 0. -1.
       -5    1    3    3    0  502  0.10137558998E+03 -0.13195731079E+04  0.13201296814E+04  0.18693086056E+04  0.46999998093E+01 0.  1.
</event>
<event>
 5   0  0.1405389E-06  0.3287563E+04  0.7818609E-02  0.8166067E-01
        1   -1    0    0  501    0  0.00000000000E+00  0.00000000000E+00  0.27463066632E+04  0.27463066632E+04  0.50400001928E-02 0.  1.
       -1   -1    0    0    0  501  0.00000000000E+00  0.00000000000E+00 -0.98387329759E+03  0.98387329760E+03  0.50400001928E-02 0. -1.
    10030    2    1    2    0    0  0.00000000000E+00  0.00000000000E+00  0.17624333656E+04  0.37301799608E+04  0.32875631054E+04 0.  0.
        1    1    3    3  502    0 -0.28626684195E+03 -0.10443970846E+04  0.22843617476E+04  0.25280471849E+04  0.50400001928E-02 0.  1.
       -1    1    3    3    0  502  0.28626684195E+03  0.10443970846E+04 -0.52192838194E+03  0.12021327760E+04  0.50400001928E-02 0. -1.
</event>
<event>
 5   0  0.3671997E-06  0.2956782E+04  0.7818609E-02  0.8256181E-01
       -2   -1    0    0    0  501  0.00000000000E+00  0.00000000000E+00  0.16406052156E+04  0.16406052156E+04  0.25500000920E-02 0. -1.
        2   -1    0    0  501    0  0.00000000000E+00  0.00000000000E+00 -0.13322159151E+04  0.13322159151E+04  0.25500000920E-02 0.  1.
    10030    2    1    2    0    0  0.00000000000E+00  0.00000000000E+00  0.30838930048E+03  0.29728211306E+04  0.29567822906E+04 0.  0.
        2    1    3    3  502    0  0.14111926715E+04  0.10481661530E+03 -0.27613299295E+03  0.14417699916E+04  0.25500000920E-02 0.  1.
       -2    1    3    3    0  502 -0.14111926715E+04 -0.10481661530E+03  0.58452229343E+03  0.15310511390E+04  0.25500000920E-02 0. -1.
</event>
<event>
 5   0  0.1352708E-06  0.3272520E+04  0.7818609E-02  0.8169923E-01
       -1   -1    0    0    0  501  0.00000000000E+00  0.00000000000E+00  0.23210257133E+04  0.23210257133E+04  0.50400001928E-02 0.  1.
        1   -1    0    0  501    0  0.00000000000E+00  0.00000000000E+00 -0.11535189533E+04  0.11535189533E+04  0.50400001928E-02 0. -1.
    10030    2    1    2    0    0  0.00000000000E+00  0.00000000000E+00  0.11675067600E+04  0.34745446666E+04  0.32725202223E+04 0.  0.
        5    1    3    3  502    0 -0.73822428367E+03 -0.14582992223E+04  0.50350045993E+03  0.17103059720E+04  0.46999998093E+01 0.  1.
       -5    1    3    3    0  502  0.73822428367E+03  0.14582992223E+04  0.66400630006E+03  0.17642386946E+04  0.46999998093E+01 0. -1.
</event>
<event>
 5   0  0.4017247E-06  0.3261642E+04  0.7818609E-02  0.8172725E-01
        2   -1    0    0  501    0  0.00000000000E+00  0.00000000000E+00  0.19073088191E+04  0.19073088191E+04  0.25500000920E-02 0. -1.
       -2   -1    0    0    0  501  0.00000000000E+00  0.00000000000E+00 -0.13944130674E+04  0.13944130674E+04  0.25500000920E-02 0.  1.
    10030    2    1    2    0    0  0.00000000000E+00  0.00000000000E+00  0.51289575173E+03  0.33017218865E+04  0.32616415137E+04 0.  0.
        1    1    3    3  502    0 -0.80021042115E+03 -0.10834317070E+03  0.16907220839E+04  0.18736638241E+04  0.50400001928E-02 0. -1.
       -1    1    3    3    0  502  0.80021042115E+03  0.10834317070E+03 -0.11778263322E+04  0.14280580624E+04  0.50400001928E-02 0.  1.
</event>
<event>
 5   0  0.1405389E-06  0.2254695E+04  0.7818609E-02  0.8496002E-01
       -1   -1    0    0    0  501  0.00000000000E+00  0.00000000000E+00  0.13343894116E+04  0.13343894116E+04  0.50400001928E-02 0. -1.
        1   -1    0    0  501    0  0.00000000000E+00  0.00000000000E+00 -0.95242978326E+03  0.95242978327E+03  0.50400001928E-02 0.  1.
    10030    2    1    2    0    0  0.00000000000E+00  0.00000000000E+00  0.38195962836E+03  0.22868191949E+04  0.22546948513E+04 0.  0.
        1    1    3    3  502    0  0.60647522592E+03 -0.94953054322E+03  0.15180613206E+03  0.11368665506E+04  0.50400001928E-02 0.  1.
       -1    1    3    3    0  502 -0.60647522592E+03  0.94953054322E+03  0.23015349630E+03  0.11499526443E+04  0.50400001928E-02 0. -1.
</event>
<event>
 5   0  0.1391878E-06  0.2932393E+04  0.7818609E-02  0.8263304E-01
        1   -1    0    0  501    0  0.00000000000E+00  0.00000000000E+00  0.20275562424E+04  0.20275562424E+04  0.50400001928E-02 0. -1.
       -1   -1    0    0    0  501  0.00000000000E+00  0.00000000000E+00 -0.10602576523E+04  0.10602576523E+04  0.50400001928E-02 0.  1.
    10030    2    1    2    0    0  0.00000000000E+00  0.00000000000E+00  0.96729859010E+03  0.30878138948E+04  0.29323928943E+04 0.  0.
        2    1    3    3  502    0 -0.16821251828E+02  0.42112404368E+03 -0.99509752048E+03  0.10806699265E+04  0.25500000920E-02 0.  1.
       -2    1    3    3    0  502  0.16821251828E+02 -0.42112404368E+03  0.19623961106E+04  0.20071439683E+04  0.25500000920E-02 0. -1.
</event>
<event>
 5   0  0.3920487E-06  0.3259167E+04  0.7818609E-02  0.8173364E-01
        2   -1    0    0  501    0  0.00000000000E+00  0.00000000000E+00  0.16172424806E+04  0.16172424806E+04  0.25500000920E-02 0.  1.
       -2   -1    0    0    0  501  0.00000000000E+00  0.00000000000E+00 -0.16420185952E+04  0.16420185952E+04  0.25500000920E-02 0. -1.
    10030    2    1    2    0    0  0.00000000000E+00  0.00000000000E+00 -0.24776114658E+02  0.32592610758E+04  0.32591669034E+04 0.  0.
        4    1    3    3  502    0  0.94243290590E+03 -0.12239215363E+04 -0.53141837559E+03  0.16335760809E+04  0.12699999809E+01 0. -1.
       -4    1    3    3    0  502 -0.94243290590E+03  0.12239215363E+04  0.50664226093E+03  0.16256849949E+04  0.12699999809E+01 0.  1.
</event>
<event>
 5   0  0.3671997E-06  0.3316232E+04  0.7818609E-02  0.8158777E-01
       -2   -1    0    0    0  501  0.00000000000E+00  0.00000000000E+00  0.16918976196E+04  0.16918976196E+04  0.25500000920E-02 0. -1.
        2   -1    0    0  501    0  0.00000000000E+00  0.00000000000E+00 -0.16250092805E+04  0.16250092805E+04  0.25500000920E-02 0.  1.
    10030    2    1    2    0    0  0.00000000000E+00  0.00000000000E+00  0.66888339088E+02  0.33169069000E+04  0.33162324004E+04 0.  0.
        2    1    3    3  502    0  0.20832611039E+03  0.74456798863E+03  0.15005649532E+04  0.16880392284E+04  0.25500000920E-02 0. -1.
       -2    1    3    3    0  502 -0.20832611039E+03 -0.74456798863E+03 -0.14336766141E+04  0.16288676716E+04  0.25500000920E-02 0.  1.
</event>
<event>
 5   0  0.3920487E-06  0.3325845E+04  0.7818609E-02  0.8156350E-01
       -2   -1    0    0    0  501  0.00000000000E+00  0.00000000000E+00  0.15824989872E+04  0.15824989872E+04  0.25500000920E-02 0. -1.
        2   -1    0    0  501    0  0.00000000000E+00  0.00000000000E+00 -0.17474329021E+04  0.17474329021E+04  0.25500000920E-02 0.  1.
    10030    2    1    2    0    0  0.00000000000E+00  0.00000000000E+00 -0.16493391495E+03  0.33299318893E+04  0.33258447334E+04 0.  0.
        4    1    3    3  502    0  0.13454150707E+04 -0.52922631245E+03 -0.90511344350E+03  0.17057122151E+04  0.12699999809E+01 0.  1.
       -4    1    3    3    0  502 -0.13454150707E+04  0.52922631245E+03  0.74017952855E+03  0.16242196741E+04  0.12699999809E+01 0. -1.
</event>
<event>
 5   0  0.1391878E-06  0.2696318E+04  0.7818609E-02  0.8336201E-01
       -1   -1    0    0    0  501  0.00000000000E+00  0.00000000000E+00  0.82476774416E+03  0.82476774418E+03  0.50400001928E-02 0. -1.
        1   -1    0    0  501    0  0.00000000000E+00  0.00000000000E+00 -0.22036904799E+04  0.22036904799E+04  0.50400001928E-02 0.  1.
    10030    2    1    2    0    0  0.00000000000E+00  0.00000000000E+00 -0.13789227357E+04  0.30284582240E+04  0.26963181014E+04 0.  0.
        2    1    3    3  502    0  0.10971000187E+04 -0.29811066669E+03 -0.15033113187E+04  0.18847926522E+04  0.25500000920E-02 0.  1.
       -2    1    3    3    0  502 -0.10971000187E+04  0.29811066669E+03  0.12438858304E+03  0.11436655719E+04  0.25500000920E-02 0. -1.
</event>
<event>
 5   0  0.4017247E-06  0.3420420E+04  0.7818609E-02  0.8132913E-01
       -2   -1    0    0    0  501  0.00000000000E+00  0.00000000000E+00  0.16345130223E+04  0.16345130223E+04  0.25500000920E-02 0. -1.
        2   -1    0    0  501    0  0.00000000000E+00  0.00000000000E+00 -0.17894129879E+04  0.17894129879E+04  0.25500000920E-02 0.  1.
    10030    2    1    2    0    0  0.00000000000E+00  0.00000000000E+00 -0.15489996564E+03  0.34239260103E+04  0.34204203432E+04 0.  0.
        1    1    3    3  502    0  0.43400335204E+03  0.85939418712E+03  0.13374701709E+04  0.16479513756E+04  0.50400001928E-02 0. -1.
       -1    1    3    3    0  502 -0.43400335204E+03 -0.85939418712E+03 -0.14923701365E+04  0.17759746346E+04  0.50400001928E-02 0.  1.
</event>
<event>
 5   0  0.1282578E-06  0.3294232E+04  0.7818609E-02  0.8164365E-01
       -1   -1    0    0    0  501  0.00000000000E+00  0.00000000000E+00  0.12837171175E+04  0.12837171175E+04  0.50400001928E-02 0. -1.
        1   -1    0    0  501    0  0.00000000000E+00  0.00000000000E+00 -0.21133865268E+04  0.21133865268E+04  0.50400001928E-02 0.  1.
    10030    2    1    2    0    0  0.00000000000E+00  0.00000000000E+00 -0.82966940933E+03  0.33971036443E+04  0.32942316011E+04 0.  0.
        4    1    3    3  502    0  0.50906050908E+03  0.12535142574E+04  0.55394246993E+03  0.14619488596E+04  0.12699999809E+01 0. -1.
       -4    1    3    3    0  502 -0.50906050908E+03 -0.12535142574E+04 -0.13836118793E+04  0.19351547847E+04  0.12699999809E+01 0.  1.
</event>
<event>
 5   0  0.1391878E-06  0.3166461E+04  0.7818609E-02  0.8197731E-01
       -1   -1    0    0    0  501  0.00000000000E+00  0.00000000000E+00  0.13520005255E+04  0.13520005255E+04  0.50400001928E-02 0. -1.
        1   -1    0    0  501    0  0.00000000000E+00  0.00000000000E+00 -0.18540077769E+04  0.18540077769E+04  0.50400001928E-02 0.  1.
    10030    2    1    2    0    0  0.00000000000E+00  0.00000000000E+00 -0.50200725136E+03  0.32060083024E+04  0.31664614248E+04 0.  0.
        2    1    3    3  502    0  0.63577089368E+03 -0.10897221476E+04  0.71745733897E+03  0.14513593702E+04  0.25500000920E-02 0. -1.
       -2    1    3    3    0  502 -0.63577089368E+03  0.10897221476E+04 -0.12194645903E+04  0.17546489322E+04  0.25500000920E-02 0.  1.
</event>
<event>
 5   0  0.1405389E-06  0.3330277E+04  0.7818609E-02  0.8155234E-01
        1   -1    0    0  501    0  0.00000000000E+00  0.00000000000E+00  0.11934068483E+04  0.11934068483E+04  0.50400001928E-02 0.  1.
       -1   -1    0    0    0  501  0.00000000000E+00  0.00000000000E+00 -0.23233373526E+04  0.23233373527E+04  0.50400001928E-02 0. -1.
    10030    2    1    2    0    0  0.00000000000E+00  0.00000000000E+00 -0.11299305044E+04  0.35167442009E+04  0.33302772903E+04 0.  0.
        1    1    3    3  502    0  0.44879984068E+03 -0.13459012266E+04 -0.14854453461E+04  0.20541225098E+04  0.50400001928E-02 0. -1.
       -1    1    3    3    0  502 -0.44879984068E+03  0.13459012266E+04  0.35551484177E+03  0.14626216912E+04  0.50400001928E-02 0.  1.
</event>
<event>
 5   0  0.4017247E-06  0.3264490E+04  0.7818609E-02  0.8171990E-01
       -2   -1    0    0    0  501  0.00000000000E+00  0.00000000000E+00  0.11705026740E+04  0.11705026740E+04  0.25500000920E-02 0. -1.
        2   -1    0    0  501    0  0.00000000000E+00  0.00000000000E+00 -0.22761363439E+04  0.22761363439E+04  0.25500000920E-02 0.  1.
    10030    2    1    2    0    0  0.00000000000E+00  0.00000000000E+00 -0.11056336699E+04  0.34466390179E+04  0.32644899613E+04 0.  0.
        1    1    3    3  502    0  0.71350539817E+03 -0.44318496795E+03 -0.20304503438E+04  0.21973237057E+04  0.50400001928E-02 0.  1.
       -1    1    3    3    0  502 -0.71350539817E+03  0.44318496795E+03  0.92481667387E+03  0.12493153122E+04  0.50400001928E-02 0. -1.
</event>
<event>
 5   0  0.1339825E-06  0.3252881E+04  0.7818609E-02  0.8174989E-01
        1   -1    0    0  501    0  0.00000000000E+00  0.00000000000E+00  0.16424734059E+04  0.16424734059E+04  0.50400001928E-02 0.  1.
       -1   -1    0    0    0  501  0.00000000000E+00  0.00000000000E+00 -0.16105638892E+04  0.16105638892E+04  0.50400001928E-02 0. -1.
    10030    2    1    2    0    0  0.00000000000E+00  0.00000000000E+00  0.31909516691E+02  0.32530372951E+04  0.32528807888E+04 0.  0.
        3    1    3    3  502    0  0.59857635142E+02 -0.24073177595E+03 -0.15915346677E+04  0.16107505496E+04  0.10100000352E+00 0. -1.
       -3    1    3    3    0  502 -0.59857635142E+02  0.24073177595E+03  0.16234441844E+04  0.16422867455E+04  0.10100000352E+00 0.  1.
</event>
<event>
 5   0  0.1352708E-06  0.3310266E+04  0.7818609E-02  0.8160288E-01
       -1   -1    0    0    0  501  0.00000000000E+00  0.00000000000E+00  0.17326412399E+04  0.17326412399E+04  0.50400001928E-02 0.  1.
        1   -1    0    0  501    0  0.00000000000E+00  0.00000000000E+00 -0.15810921898E+04  0.15810921898E+04  0.50400001928E-02 0. -1.
    10030    2    1    2    0    0  0.00000000000E+00  0.00000000000E+00  0.15154905012E+03  0.33137334297E+04  0.33102661718E+04 0.  0.
        5    1    3    3  502    0 -0.64996146104E+03  0.63712985557E+03 -0.13080840551E+04  0.15935778421E+04  0.46999998093E+01 0. -1.
       -5    1    3    3    0  502  0.64996146104E+03 -0.63712985557E+03  0.14596331052E+04  0.17201555876E+04  0.46999998093E+01 0.  1.
</event>
<event>
 5   0  0.1339825E-06  0.3248686E+04  0.7818609E-02  0.8176076E-01
        1   -1    0    0  501    0  0.00000000000E+00  0.00000000000E+00  0.16538244068E+04  0.16538244068E+04  0.50400001928E-02 0. -1.
       -1   -1    0    0    0  501  0.00000000000E+00  0.00000000000E+00 -0.15953871629E+04  0.15953871629E+04  0.50400001928E-02 0.  1.
    10030    2    1    2    0    0  0.00000000000E+00  0.00000000000E+00  0.58437243875E+02  0.32492115696E+04  0.32486860287E+04 0.  0.
        3    1    3    3  502    0 -0.47323563461E+03  0.94882291943E+03  0.12599758231E+04  0.16467410189E+04  0.10100000352E+00 0. -1.
       -3    1    3    3    0  502  0.47323563461E+03 -0.94882291943E+03 -0.12015385793E+04  0.16024705507E+04  0.10100000352E+00 0.  1.
</event>
<event>
 5   0  0.3671997E-06  0.3300902E+04  0.7818609E-02  0.8162666E-01
        2   -1    0    0  501    0  0.00000000000E+00  0.00000000000E+00  0.30049571126E+04  0.30049571126E+04  0.25500000920E-02 0. -1.
       -2   -1    0    0    0  501  0.00000000000E+00  0.00000000000E+00 -0.90649855773E+03  0.90649855774E+03  0.25500000920E-02 0.  1.
    10030    2    1    2    0    0  0.00000000000E+00  0.00000000000E+00  0.20984585549E+04  0.39114556704E+04  0.33009024758E+04 0.  0.
        2    1    3    3  502    0  0.12392094953E+04 -0.62670205314E+03  0.21061718078E+04  0.25227673933E+04  0.25500000920E-02 0. -1.
       -2    1    3    3    0  502 -0.12392094953E+04  0.62670205314E+03 -0.77132529308E+01  0.13886882771E+04  0.25500000920E-02 0.  1.
</event>
<event>
 5   0  0.3671997E-06  0.3389727E+04  0.7818609E-02  0.8140432E-01
       -2   -1    0    0    0  501  0.00000000000E+00  0.00000000000E+00  0.15316359713E+04  0.15316359713E+04  0.25500000920E-02 0.  1.
        2   -1    0    0  501    0  0.00000000000E+00  0.00000000000E+00 -0.18754867987E+04  0.18754867987E+04  0.25500000920E-02 0. -1.
    10030    2    1    2    0    0  0.00000000000E+00  0.00000000000E+00 -0.34385082745E+03  0.34071227700E+04  0.33897274490E+04 0.  0.
        2    1    3    3  502    0 -0.13183966892E+04 -0.91952054192E+03  0.36830387118E+03  0.16490408117E+04  0.25500000920E-02 0.  1.
       -2    1    3    3    0  502  0.13183966892E+04  0.91952054192E+03 -0.71215469863E+03  0.17580819583E+04  0.25500000920E-02 0. -1.
</event>
<event>
 5   0  0.3920487E-06  0.3468411E+04  0.7818609E-02  0.8121317E-01
       -2   -1    0    0    0  501  0.00000000000E+00  0.00000000000E+00  0.91580960027E+03  0.91580960027E+03  0.25500000920E-02 0. -1.
        2   -1    0    0  501    0  0.00000000000E+00  0.00000000000E+00 -0.32839449888E+04  0.32839449888E+04  0.25500000920E-02 0.  1.
    10030    2    1    2    0    0  0.00000000000E+00  0.00000000000E+00 -0.23681353885E+04  0.41997545890E+04  0.34684107874E+04 0.  0.
        4    1    3    3  502    0  0.15980342580E+04  0.39572596367E+03 -0.18441290790E+04  0.24720692145E+04  0.12699999809E+01 0.  1.
       -4    1    3    3    0  502 -0.15980342580E+04 -0.39572596367E+03 -0.52400630949E+03  0.17276853746E+04  0.12699999809E+01 0. -1.
</event>
<event>
 5   0  0.1259875E-06  0.2751992E+04  0.7818609E-02  0.8318330E-01
       -3   -1    0    0    0  501  0.00000000000E+00  0.00000000000E+00  0.74918777289E+03  0.74918777970E+03  0.10100000352E+00 0. -1.
        3   -1    0    0  501    0  0.00000000000E+00  0.00000000000E+00 -0.25272244117E+04  0.25272244137E+04  0.10100000352E+00 0.  1.
    10030    2    1    2    0    0  0.00000000000E+00  0.00000000000E+00 -0.17780366388E+04  0.32764121934E+04  0.27519924731E+04 0.  0.
        3    1    3    3  502    0  0.76457462451E+03  0.11398889083E+04 -0.10047206215E+04  0.17009951843E+04  0.10100000352E+00 0. -1.
       -3    1    3    3    0  502 -0.76457462451E+03 -0.11398889083E+04 -0.77331601729E+03  0.15754170091E+04  0.10100000352E+00 0.  1.
</event>
<event>
 5   0  0.1339825E-06  0.3298266E+04  0.7818609E-02  0.8163337E-01
        1   -1    0    0  501    0  0.00000000000E+00  0.00000000000E+00  0.15548770265E+04  0.15548770266E+04  0.50400001928E-02 0. -1.
       -1   -1    0    0    0  501  0.00000000000E+00  0.00000000000E+00 -0.17491023498E+04  0.17491023498E+04  0.50400001928E-02 0.  1.
    10030    2    1    2    0    0  0.00000000000E+00  0.00000000000E+00 -0.19422532328E+03  0.33039793764E+04  0.32982656417E+04 0.  0.
        3    1    3    3  502    0  0.86826699564E+03  0.13955089092E+04 -0.23264804521E+03  0.16599571725E+04  0.10100000352E+00 0.  1.
       -3    1    3    3    0  502 -0.86826699564E+03 -0.13955089092E+04  0.38422721931E+02  0.16440222039E+04  0.10100000352E+00 0. -1.
</event>
<event>
 5   0  0.1282578E-06  0.3317259E+04  0.7818609E-02  0.8158518E-01
        1   -1    0    0  501    0  0.00000000000E+00  0.00000000000E+00  0.31164766351E+04  0.31164766351E+04  0.50400001928E-02 0. -1.
       -1   -1    0    0    0  501  0.00000000000E+00  0.00000000000E+00 -0.88274407994E+03  0.88274407995E+03  0.50400001928E-02 0.  1.
    10030    2    1    2    0    0  0.00000000000E+00  0.00000000000E+00  0.22337325551E+04  0.39992207150E+04  0.33172586875E+04 0.  0.
        4    1    3    3  502    0  0.70813261712E+03 -0.10184994029E+04  0.24442404302E+04  0.27410045112E+04  0.12699999809E+01 0.  1.
       -4    1    3    3    0  502 -0.70813261712E+03  0.10184994029E+04 -0.21050787504E+03  0.12582162038E+04  0.12699999809E+01 0. -1.
</event>
<event>
 5   0  0.3812379E-06  0.3311702E+04  0.7818609E-02  0.8159924E-01
        2   -1    0    0  501    0  0.00000000000E+00  0.00000000000E+00  0.20896863024E+04  0.20896863024E+04  0.25500000920E-02 0. -1.
       -2   -1    0    0    0  501  0.00000000000E+00  0.00000000000E+00 -0.13120831583E+04  0.13120831583E+04  0.25500000920E-02 0.  1.
    10030    2    1    2    0    0  0.00000000000E+00  0.00000000000E+00  0.77760314411E+03  0.34017694607E+04  0.33117018003E+04 0.  0.
        5    1    3    3  502    0 -0.70895439467E+03 -0.58679480300E+03 -0.10251808483E+04  0.13776655386E+04  0.46999998093E+01 0.  1.
       -5    1    3    3    0  502  0.70895439467E+03  0.58679480300E+03  0.18027839924E+04  0.20241039222E+04  0.46999998093E+01 0. -1.
</event>
<event>
 5   0  0.1352708E-06  0.2911379E+04  0.7818609E-02  0.8269500E-01
       -1   -1    0    0    0  501  0.00000000000E+00  0.00000000000E+00  0.12509058545E+04  0.12509058546E+04  0.50400001928E-02 0. -1.
        1   -1    0    0  501    0  0.00000000000E+00  0.00000000000E+00 -0.16939981744E+04  0.16939981744E+04  0.50400001928E-02 0.  1.
    10030    2    1    2    0    0  0.00000000000E+00  0.00000000000E+00 -0.44309231987E+03  0.29449040290E+04  0.29113792154E+04 0.  0.
        5    1    3    3  502    0 -0.11737363825E+04  0.58548585405E+03 -0.86013140127E+03  0.15685339965E+04  0.46999998093E+01 0.  1.
       -5    1    3    3    0  502  0.11737363825E+04 -0.58548585405E+03  0.41703908141E+03  0.13763700325E+04  0.46999998093E+01 0. -1.
</event>
<event>
 5   0  0.1391878E-06  0.3262730E+04  0.7818609E-02  0.8172444E-01
        1   -1    0    0  501    0  0.00000000000E+00  0.00000000000E+00  0.16704586263E+04  0.16704586263E+04  0.50400001928E-02 0.  1.
       -1   -1    0    0    0  501  0.00000000000E+00  0.00000000000E+00 -0.15931866333E+04  0.15931866333E+04  0.50400001928E-02 0. -1.
    10030    2    1    2    0    0  0.00000000000E+00  0.00000000000E+00  0.77271993026E+02  0.32636452596E+04  0.32627303627E+04 0.  0.
        2    1    3    3  502    0 -0.14271127800E+04 -0.29462375592E+03  0.77225716256E+03  0.16491922779E+04  0.25500000920E-02 0.  1.
       -2    1    3    3    0  502  0.14271127800E+04  0.29462375592E+03 -0.69498516953E+03  0.16144529817E+04  0.25500000920E-02 0. -1.
</event>
<event>
 5   0  0.3896210E-06  0.3289120E+04  0.7818609E-02  0.8165669E-01
        2   -1    0    0  501    0  0.00000000000E+00  0.00000000000E+00  0.12899396899E+04  0.12899396899E+04  0.25500000920E-02 0.  1.
       -2   -1    0    0    0  501  0.00000000000E+00  0.00000000000E+00 -0.20966702503E+04  0.20966702503E+04  0.25500000920E-02 0. -1.
    10030    2    1    2    0    0  0.00000000000E+00  0.00000000000E+00 -0.80673056040E+03  0.33866099403E+04  0.32891203521E+04 0.  0.
        3    1    3    3  502    0 -0.11817847220E+04 -0.10016606257E+04 -0.97166596784E+03  0.18286809184E+04  0.10100000352E+00 0. -1.
       -3    1    3    3    0  502  0.11817847220E+04  0.10016606257E+04  0.16493540744E+03  0.15579290218E+04  0.10100000352E+00 0.  1.
</event>
<event>
 5   0  0.1339825E-06  0.3339859E+04  0.7818609E-02  0.8152827E-01
       -1   -1    0    0    0  501  0.00000000000E+00  0.00000000000E+00  0.26693916239E+04  0.26693916239E+04  0.50400001928E-02 0.  1.
        1   -1    0    0  501    0  0.00000000000E+00  0.00000000000E+00 -0.10446817636E+04  0.10446817636E+04  0.50400001928E-02 0. -1.
    10030    2    1    2    0    0  0.00000000000E+00  0.00000000000E+00  0.16247098603E+04  0.37140733875E+04  0.33398591284E+04 0.  0.
        3    1    3    3  502    0  0.41641844136E+03 -0.12794001586E+04 -0.28761190088E+03  0.13758596221E+04  0.10100000352E+00 0. -1.
       -3    1    3    3    0  502 -0.41641844136E+03  0.12794001586E+04  0.19123217612E+04  0.23382137654E+04  0.10100000352E+00 0.  1.
</event>
<event>
 5   0  0.1339825E-06  0.3274251E+04  0.7818609E-02  0.8169478E-01
       -1   -1    0    0    0  501  0.00000000000E+00  0.00000000000E+00  0.18132300347E+04  0.18132300347E+04  0.50400001928E-02 0. -1.
        1   -1    0    0  501    0  0.00000000000E+00  0.00000000000E+00 -0.14781244602E+04  0.14781244602E+04  0.50400001928E-02 0.  1.
    10030    2    1    2    0    0  0.00000000000E+00  0.00000000000E+00  0.33510557451E+03  0.32913544948E+04  0.32742508555E+04 0.  0.
        3    1    3    3  502    0  0.46144726595E+03  0.12296358961E+04  0.11500228677E+04  0.17457063392E+04  0.10100000352E+00 0. -1.
       -3    1    3    3    0  502 -0.46144726595E+03 -0.12296358961E+04 -0.81491729316E+03  0.15456481557E+04  0.10100000352E+00 0.  1.
</event>
<event>
 5   0  0.1339825E-06  0.3157271E+04  0.7818609E-02  0.8200194E-01
       -1   -1    0    0    0  501  0.00000000000E+00  0.00000000000E+00  0.16083392391E+04  0.16083392391E+04  0.50400001928E-02 0. -1.
        1   -1    0    0  501    0  0.00000000000E+00  0.00000000000E+00 -0.15494807097E+04  0.15494807097E+04  0.50400001928E-02 0.  1.
    10030    2    1    2    0    0  0.00000000000E+00  0.00000000000E+00  0.58858529383E+02  0.31578199489E+04  0.31572713699E+04 0.  0.
        3    1    3    3  502    0 -0.80255388939E+03  0.51327321799E+03  0.12884364749E+04  0.16023765793E+04  0.10100000352E+00 0. -1.
       -3    1    3    3    0  502  0.80255388939E+03 -0.51327321799E+03 -0.12295779455E+04  0.15554433696E+04  0.10100000352E+00 0.  1.
</event>
<event>
 5   0  0.1259875E-06  0.3295411E+04  0.7818609E-02  0.8164064E-01
       -4   -1    0    0    0  501  0.00000000000E+00  0.00000000000E+00  0.17615184153E+04  0.17615188732E+04  0.12699999809E+01 0.  1.
        4   -1    0    0  501    0  0.00000000000E+00  0.00000000000E+00 -0.15412452402E+04  0.15412457635E+04  0.12699999809E+01 0. -1.
    10030    2    1    2    0    0  0.00000000000E+00  0.00000000000E+00  0.22027317512E+03  0.33027646366E+04  0.32954110477E+04 0.  0.
        5    1    3    3  502    0 -0.15666061768E+04  0.50820463185E+03  0.61195845400E+02  0.16481182853E+04  0.46999998093E+01 0. -1.
       -5    1    3    3    0  502  0.15666061768E+04 -0.50820463185E+03  0.15907732972E+03  0.16546463513E+04  0.46999998093E+01 0.  1.
</event>
<event>
 5   0  0.1282578E-06  0.2762402E+04  0.7818609E-02  0.8315037E-01
       -1   -1    0    0    0  501  0.00000000000E+00  0.00000000000E+00  0.11896518896E+04  0.11896518896E+04  0.50400001928E-02 0. -1.
        1   -1    0    0  501    0  0.00000000000E+00  0.00000000000E+00 -0.16035922622E+04  0.16035922622E+04  0.50400001928E-02 0.  1.
    10030    2    1    2    0    0  0.00000000000E+00  0.00000000000E+00 -0.41394037261E+03  0.27932441518E+04  0.27624022624E+04 0.  0.
        4    1    3    3  502    0 -0.10109356938E+04  0.83381632034E+03 -0.64827655181E+03  0.14620207706E+04  0.12699999809E+01 0.  1.
       -4    1    3    3    0  502  0.10109356938E+04 -0.83381632034E+03  0.23433617920E+03  0.13312233813E+04  0.12699999809E+01 0. -1.
</event>
<event>
 5   0  0.1282578E-06  0.3257906E+04  0.7818609E-02  0.8173689E-01
        1   -1    0    0  501    0  0.00000000000E+00  0.00000000000E+00  0.24193390526E+04  0.24193390526E+04  0.50400001928E-02 0.  1.
       -1   -1    0    0    0  501  0.00000000000E+00  0.00000000000E+00 -0.10967822989E+04  0.10967822989E+04  0.50400001928E-02 0. -1.
    10030    2    1    2    0    0  0.00000000000E+00  0.00000000000E+00  0.13225567537E+04  0.35161213515E+04  0.32579062282E+04 0.  0.
        4    1    3    3  502    0 -0.15376656430E+03 -0.43326268516E+03  0.23478675281E+04  0.23924556951E+04  0.12699999809E+01 0.  1.
       -4    1    3    3    0  502  0.15376656430E+03  0.43326268516E+03 -0.10253107743E+04  0.11236656564E+04  0.12699999809E+01 0. -1.
</event>
<event>
 5   0  0.3896210E-06  0.3179487E+04  0.7818609E-02  0.8194256E-01
        2   -1    0    0  501    0  0.00000000000E+00  0.00000000000E+00  0.19133764693E+04  0.19133764693E+04  0.25500000920E-02 0. -1.
       -2   -1    0    0    0  501  0.00000000000E+00  0.00000000000E+00 -0.13208503138E+04  0.13208503138E+04  0.25500000920E-02 0.  1.
    10030    2    1    2    0    0  0.00000000000E+00  0.00000000000E+00  0.59252615551E+03  0.32342267831E+04  0.31794866943E+04 0.  0.
        3    1    3    3  502    0  0.14995723185E+04  0.16176686562E+03  0.80730510878E+03  0.17107387896E+04  0.10100000352E+00 0.  1.
       -3    1    3    3    0  502 -0.14995723185E+04 -0.16176686562E+03 -0.21477895327E+03  0.15234879935E+04  0.10100000352E+00 0. -1.
</event>
<event>
 5   0  0.3920487E-06  0.2327929E+04  0.7818609E-02  0.8466990E-01
       -2   -1    0    0    0  501  0.00000000000E+00  0.00000000000E+00  0.78294378142E+03  0.78294378142E+03  0.25500000920E-02 0. -1.
        2   -1    0    0  501    0  0.00000000000E+00  0.00000000000E+00 -0.17304088018E+04  0.17304088018E+04  0.25500000920E-02 0.  1.
    10030    2    1    2    0    0  0.00000000000E+00  0.00000000000E+00 -0.94746502035E+03  0.25133525832E+04  0.23279285304E+04 0.  0.
        4    1    3    3  502    0 -0.11161397357E+04  0.26648138182E+03 -0.26318387742E+03  0.11773052292E+04  0.12699999809E+01 0. -1.
       -4    1    3    3    0  502  0.11161397357E+04 -0.26648138182E+03 -0.68428114293E+03  0.13360473540E+04  0.12699999809E+01 0.  1.
</event>
<event>
 5   0  0.3920487E-06  0.3298467E+04  0.7818609E-02  0.8163286E-01
        2   -1    0    0  501    0  0.00000000000E+00  0.00000000000E+00  0.18942445871E+04  0.18942445871E+04  0.25500000920E-02 0. -1.
       -2   -1    0    0    0  501  0.00000000000E+00  0.00000000000E+00 -0.14359134861E+04  0.14359134861E+04  0.25500000920E-02 0.  1.
    10030    2    1    2    0    0  0.00000000000E+00  0.00000000000E+00  0.45833110104E+03  0.33301580732E+04  0.32984671280E+04 0.  0.
        4    1    3    3  502    0 -0.64885060663E+03 -0.82734014501E+03 -0.10536605884E+04  0.14885231183E+04  0.12699999809E+01 0.  1.
       -4    1    3    3    0  502  0.64885060663E+03  0.82734014501E+03  0.15119916894E+04  0.18416349549E+04  0.12699999809E+01 0. -1.
</event>
<event>
 5   0  0.1352708E-06  0.2962498E+04  0.7818609E-02  0.8254522E-01
        1   -1    0    0  501    0  0.00000000000E+00  0.00000000000E+00  0.17132980979E+04  0.17132980979E+04  0.50400001928E-02 0.  1.
       -1   -1    0    0    0  501  0.00000000000E+00  0.00000000000E+00 -0.12806288700E+04  0.12806288700E+04  0.50400001928E-02 0. -1.
    10030    2    1    2    0    0  0.00000000000E+00  0.00000000000E+00  0.43266922789E+03  0.29939269680E+04  0.29624982749E+04 0.  0.
        5    1    3    3  502    0  0.13322560462E+04  0.64677984133E+03  0.18692986357E+03  0.14927140381E+04  0.46999998093E+01 0. -1.
       -5    1    3    3    0  502 -0.13322560462E+04 -0.64677984133E+03  0.24573936432E+03  0.15012129299E+04  0.46999998093E+01 0.  1.
</event>
<event>
 5   0  0.1339825E-06  0.2482443E+04  0.7818609E-02  0.8409267E-01
       -1   -1    0    0    0  501  0.00000000000E+00  0.00000000000E+00  0.14993498096E+04  0.14993498096E+04  0.50400001928E-02 0. -1.
        1   -1    0    0  501    0  0.00000000000E+00  0.00000000000E+00 -0.10275329415E+04  0.10275329415E+04  0.50400001928E-02 0.  1.
    10030    2    1    2    0    0  0.00000000000E+00  0.00000000000E+00  0.47181686804E+03  0.25268827511E+04  0.24824434094E+04 0.  0.
        3    1    3    3  502    0  0.73032733915E+03 -0.78271955252E+03 -0.40351145351E+03  0.11440495721E+04  0.10100000352E+00 0.  1.
       -3    1    3    3    0  502 -0.73032733915E+03  0.78271955252E+03  0.87532832154E+03  0.13828331790E+04  0.10100000352E+00 0. -1.
</event>
<event>
 5   0  0.3920487E-06  0.2820020E+04  0.7818609E-02  0.8297080E-01
       -2   -1    0    0    0  501  0.00000000000E+00  0.00000000000E+00  0.12300886842E+04  0.12300886842E+04  0.25500000920E-02 0. -1.
        2   -1    0    0  501    0  0.00000000000E+00  0.00000000000E+00 -0.16162483486E+04  0.16162483486E+04  0.25500000920E-02 0.  1.
    10030    2    1    2    0    0  0.00000000000E+00  0.00000000000E+00 -0.38615966437E+03  0.28463370328E+04  0.28200204286E+04 0.  0.
        4    1    3    3  502    0  0.69284537999E+03  0.11817880147E+04 -0.53006610551E+03  0.14688871030E+04  0.12699999809E+01 0.  1.
       -4    1    3    3    0  502 -0.69284537999E+03 -0.11817880147E+04  0.14390644114E+03  0.13774499298E+04  0.12699999809E+01 0. -1.
</event>
<event>
 5   0  0.3812379E-06  0.3416833E+04  0.7818609E-02  0.8133787E-01
        2   -1    0    0  501    0  0.00000000000E+00  0.00000000000E+00  0.18829296198E+04  0.18829296198E+04  0.25500000920E-02 0. -1.
       -2   -1    0    0    0  501  0.00000000000E+00  0.00000000000E+00 -0.15500778602E+04  0.15500778602E+04  0.25500000920E-02 0.  1.
    10030    2    1    2    0    0  0.00000000000E+00  0.00000000000E+00  0.33285175952E+03  0.34330074800E+04  0.34168333386E+04 0.  0.
        5    1    3    3  502    0  0.13688025857E+04  0.12722452418E+03  0.11855541476E+04  0.18153146628E+04  0.46999998093E+01 0.  1.
       -5    1    3    3    0  502 -0.13688025857E+04 -0.12722452418E+03 -0.85270238808E+03  0.16176928172E+04  0.46999998093E+01 0. -1.
</event>
<event>
 5   0  0.1352708E-06  0.2930824E+04  0.7818609E-02  0.8263765E-01
        1   -1    0    0  501    0  0.00000000000E+00  0.00000000000E+00  0.18714111268E+04  0.18714111268E+04  0.50400001928E-02 0. -1.
       -1   -1    0    0    0  501  0.00000000000E+00  0.00000000000E+00 -0.11474938743E+04  0.11474938743E+04  0.50400001928E-02 0.  1.
    10030    2    1    2    0    0  0.00000000000E+00  0.00000000000E+00  0.72391725245E+03  0.30189050011E+04  0.29308243239E+04 0.  0.
        5    1    3    3  502    0  0.10101191756E+04  0.94982180422E+03  0.85045641212E+03  0.16265916536E+04  0.46999998093E+01 0. -1.
       -5    1    3    3    0  502 -0.10101191756E+04 -0.94982180422E+03 -0.12653915967E+03  0.13923133475E+04  0.46999998093E+01 0.  1.
</event>
<event>
 5   0  0.1339825E-06  0.3296589E+04  0.7818609E-02  0.8163764E-01
       -1   -1    0    0    0  501  0.00000000000E+00  0.00000000000E+00  0.14225205361E+04  0.14225205361E+04  0.50400001928E-02 0. -1.
        1   -1    0    0  501    0  0.00000000000E+00  0.00000000000E+00 -0.19099022099E+04  0.19099022099E+04  0.50400001928E-02 0.  1.
    10030    2    1    2    0    0  0.00000000000E+00  0.00000000000E+00 -0.48738167376E+03  0.33324227460E+04  0.32965892164E+04 0.  0.
        3    1    3    3  502    0 -0.12167316919E+04 -0.96065927577E+03 -0.80975346564E+03  0.17490005545E+04  0.10100000352E+00 0.  1.
       -3    1    3    3    0  502  0.12167316919E+04  0.96065927577E+03  0.32237179188E+03  0.15834221915E+04  0.10100000352E+00 0. -1.
</event>
<event>
 5   0  0.3671997E-06  0.2281514E+04  0.7818609E-02  0.8485246E-01
        2   -1    0    0  501    0  0.00000000000E+00  0.00000000000E+00  0.95749344126E+03  0.95749344127E+03  0.25500000920E-02 0. -1.
       -2   -1    0    0    0  501  0.00000000000E+00  0.00000000000E+00 -0.13590970157E+04  0.13590970157E+04  0.25500000920E-02 0.  1.
    10030    2    1    2    0    0  0.00000000000E+00  0.00000000000E+00 -0.40160357442E+03  0.23165904570E+04  0.22815139522E+04 0.  0.
        2    1    3    3  502    0  0.71411037584E+03 -0.39772487724E+03 -0.10087664996E+04  0.12983638002E+04  0.25500000920E-02 0.  1.
       -2    1    3    3    0  502 -0.71411037584E+03  0.39772487724E+03  0.60716292519E+03  0.10182266568E+04  0.25500000920E-02 0. -1.
</event>
<event>
 5   0  0.3812379E-06  0.3153156E+04  0.7818609E-02  0.8201299E-01
        2   -1    0    0  501    0  0.00000000000E+00  0.00000000000E+00  0.24255752668E+04  0.24255752668E+04  0.25500000920E-02 0. -1.
       -2   -1    0    0    0  501  0.00000000000E+00  0.00000000000E+00 -0.10247459125E+04  0.10247459125E+04  0.25500000920E-02 0.  1.
    10030    2    1    2    0    0  0.00000000000E+00  0.00000000000E+00  0.14008293543E+04  0.34503211793E+04  0.31531560952E+04 0.  0.
        5    1    3    3  502    0 -0.10063470214E+04  0.90258266821E+03 -0.18733090921E+03  0.13647361503E+04  0.46999998093E+01 0.  1.
       -5    1    3    3    0  502  0.10063470214E+04 -0.90258266821E+03  0.15881602635E+04  0.20855850290E+04  0.46999998093E+01 0. -1.
</event>
<event>
 5   0  0.4017247E-06  0.3253694E+04  0.7818609E-02  0.8174779E-01
        2   -1    0    0  501    0  0.00000000000E+00  0.00000000000E+00  0.16887903409E+04  0.16887903409E+04  0.25500000920E-02 0.  1.
       -2   -1    0    0    0  501  0.00000000000E+00  0.00000000000E+00 -0.15671757637E+04  0.15671757637E+04  0.25500000920E-02 0. -1.
    10030    2    1    2    0    0  0.00000000000E+00  0.00000000000E+00  0.12161457712E+03  0.32559661046E+04  0.32536940804E+04 0.  0.
        1    1    3    3  502    0 -0.15965857117E+04  0.21501710710E+03 -0.16587462248E+03  0.16195161875E+04  0.50400001928E-02 0.  1.
       -1    1    3    3    0  502  0.15965857117E+04 -0.21501710710E+03  0.28748919960E+03  0.16364499171E+04  0.50400001928E-02 0. -1.
</event>
<event>
 5   0  0.3920487E-06  0.3393995E+04  0.7818609E-02  0.8139382E-01
        2   -1    0    0  501    0  0.00000000000E+00  0.00000000000E+00  0.28508965236E+04  0.28508965236E+04  0.25500000920E-02 0. -1.
       -2   -1    0    0    0  501  0.00000000000E+00  0.00000000000E+00 -0.10101384623E+04  0.10101384623E+04  0.25500000920E-02 0.  1.
    10030    2    1    2    0    0  0.00000000000E+00  0.00000000000E+00  0.18407580613E+04  0.38610349859E+04  0.33939948324E+04 0.  0.
        4    1    3    3  502    0 -0.59653955359E+03  0.14343987049E+04  0.14343410135E+03  0.15601070597E+04  0.12699999809E+01 0.  1.
       -4    1    3    3    0  502  0.59653955359E+03 -0.14343987049E+04  0.16973239599E+04  0.23009279261E+04  0.12699999809E+01 0. -1.
</event>
<event>
 5   0  0.3812379E-06  0.3352249E+04  0.7818609E-02  0.8149726E-01
       -2   -1    0    0    0  501  0.00000000000E+00  0.00000000000E+00  0.21711739270E+04  0.21711739270E+04  0.25500000920E-02 0.  1.
        2   -1    0    0  501    0  0.00000000000E+00  0.00000000000E+00 -0.12939512270E+04  0.12939512270E+04  0.25500000920E-02 0. -1.
    10030    2    1    2    0    0  0.00000000000E+00  0.00000000000E+00  0.87722269995E+03  0.34651251540E+04  0.33522488970E+04 0.  0.
        5    1    3    3  502    0 -0.62893972608E+03  0.14991146699E+04  0.16876923462E+02  0.16257973100E+04  0.46999998093E+01 0. -1.
       -5    1    3    3    0  502  0.62893972608E+03 -0.14991146699E+04  0.86034577649E+03  0.18393278440E+04  0.46999998093E+01 0.  1.
</event>
<event>
 5   0  0.3896210E-06  0.3293016E+04  0.7818609E-02  0.8164675E-01
        2   -1    0    0  501    0  0.00000000000E+00  0.00000000000E+00  0.14949244048E+04  0.14949244048E+04  0.25500000920E-02 0.  1.
       -2   -1    0    0    0  501  0.00000000000E+00  0.00000000000E+00 -0.18134615530E+04  0.18134615530E+04  0.25500000920E-02 0. -1.
    10030    2    1    2    0    0  0.00000000000E+00  0.00000000000E+00 -0.31853714820E+03  0.33083859577E+04  0.32930155983E+04 0.  0.
        3    1    3    3  502    0  0.21188628157E+03  0.79582062870E+03 -0.15916728562E+04  0.17921073519E+04  0.10100000352E+00 0. -1.
       -3    1    3    3    0  502 -0.21188628157E+03 -0.79582062870E+03  0.12731357080E+04  0.15162786058E+04  0.10100000352E+00 0.  1.
</event>
<event>
 5   0  0.1282578E-06  0.3306527E+04  0.7818609E-02  0.8161237E-01
       -1   -1    0    0    0  501  0.00000000000E+00  0.00000000000E+00  0.15920910930E+04  0.15920910930E+04  0.50400001928E-02 0.  1.
        1   -1    0    0  501    0  0.00000000000E+00  0.00000000000E+00 -0.17167860959E+04  0.17167860959E+04  0.50400001928E-02 0. -1.
    10030    2    1    2    0    0  0.00000000000E+00  0.00000000000E+00 -0.12469500291E+03  0.33088771889E+04  0.33065267891E+04 0.  0.
        4    1    3    3  502    0 -0.63418104233E+03 -0.13744347578E+04 -0.72766725525E+03  0.16795111625E+04  0.12699999809E+01 0. -1.
       -4    1    3    3    0  502  0.63418104233E+03  0.13744347578E+04  0.60297225234E+03  0.16293660263E+04  0.12699999809E+01 0.  1.
</event>
<event>
 5   0  0.3812379E-06  0.2179870E+04  0.7818609E-02  0.8526853E-01
        2   -1    0    0  501    0  0.00000000000E+00  0.00000000000E+00  0.11532717261E+04  0.11532717261E+04  0.25500000920E-02 0.  1.
       -2   -1    0    0    0  501  0.00000000000E+00  0.00000000000E+00 -0.10300770096E+04  0.10300770096E+04  0.25500000920E-02 0. -1.
    10030    2    1    2    0    0  0.00000000000E+00  0.00000000000E+00  0.12319471653E+03  0.21833487357E+04  0.21798703547E+04 0.  0.
        5    1    3    3  502    0  0.10849664843E+04 -0.56731589513E+02 -0.25523363633E+02  0.10867586105E+04  0.46999998093E+01 0. -1.
       -5    1    3    3    0  502 -0.10849664843E+04  0.56731589513E+02  0.14871808017E+03  0.10965901252E+04  0.46999998093E+01 0.  1.
</event>
<event>
 5   0  0.1352708E-06  0.3309795E+04  0.7818609E-02  0.8160408E-01
       -1   -1    0    0    0  501  0.00000000000E+00  0.00000000000E+00  0.22712079659E+04  0.22712079660E+04  0.50400001928E-02 0. -1.
        1   -1    0    0  501    0  0.00000000000E+00  0.00000000000E+00 -0.12058275692E+04  0.12058275692E+04  0.50400001928E-02 0.  1.
    10030    2    1    2    0    0  0.00000000000E+00  0.00000000000E+00  0.10653803967E+04  0.34770355352E+04  0.33097946648E+04 0.  0.
        5    1    3    3  502    0 -0.25279314973E+02 -0.48053855413E+03 -0.11307013490E+04  0.12288466041E+04  0.46999998093E+01 0.  1.
       -5    1    3    3    0  502  0.25279314973E+02  0.48053855413E+03  0.21960817457E+04  0.22481889311E+04  0.46999998093E+01 0. -1.
</event>
<event>
 5   0  0.1352708E-06  0.3430551E+04  0.7818609E-02  0.8130449E-01
       -1   -1    0    0    0  501  0.00000000000E+00  0.00000000000E+00  0.12837119529E+04  0.12837119529E+04  0.50400001928E-02 0. -1.
        1   -1    0    0  501    0  0.00000000000E+00  0.00000000000E+00 -0.22919241601E+04  0.22919241601E+04  0.50400001928E-02 0.  1.
    10030    2    1    2    0    0  0.00000000000E+00  0.00000000000E+00 -0.10082122072E+04  0.35756361130E+04  0.34305512323E+04 0.  0.
        5    1    3    3  502    0 -0.16758220892E+04  0.64067139887E+02 -0.12878823567E+03  0.16819907172E+04  0.46999998093E+01 0. -1.
       -5    1    3    3    0  502  0.16758220892E+04 -0.64067139887E+02 -0.87942397158E+03  0.18936453958E+04  0.46999998093E+01 0.  1.
</event>
<event>
 5   0  0.1352708E-06  0.3425448E+04  0.7818609E-02  0.8131689E-01
       -1   -1    0    0    0  501  0.00000000000E+00  0.00000000000E+00  0.14673773496E+04  0.14673773496E+04  0.50400001928E-02 0.  1.
        1   -1    0    0  501    0  0.00000000000E+00  0.00000000000E+00 -0.19990926803E+04  0.19990926803E+04  0.50400001928E-02 0. -1.
    10030    2    1    2    0    0  0.00000000000E+00  0.00000000000E+00 -0.53171533069E+03  0.34664700299E+04  0.34254478941E+04 0.  0.
        5    1    3    3  502    0 -0.42474426535E+02  0.16288426606E+04 -0.79987863132E+03  0.18151474885E+04  0.46999998093E+01 0.  1.
       -5    1    3    3    0  502  0.42474426535E+02 -0.16288426606E+04  0.26816330063E+03  0.16513225414E+04  0.46999998093E+01 0. -1.
</event>
<event>
 5   0  0.1405389E-06  0.3332200E+04  0.7818609E-02  0.8154750E-01
       -1   -1    0    0    0  501  0.00000000000E+00  0.00000000000E+00  0.30891651312E+04  0.30891651312E+04  0.50400001928E-02 0.  1.
        1   -1    0    0  501    0  0.00000000000E+00  0.00000000000E+00 -0.89858867060E+03  0.89858867061E+03  0.50400001928E-02 0. -1.
    10030    2    1    2    0    0  0.00000000000E+00  0.00000000000E+00  0.21905764606E+04  0.39877538018E+04  0.33321997470E+04 0.  0.
        1    1    3    3  502    0 -0.21978885675E+03  0.18189208288E+03 -0.86913995275E+03  0.91476561416E+03  0.50400001928E-02 0. -1.
       -1    1    3    3    0  502  0.21978885675E+03 -0.18189208288E+03  0.30597164134E+04  0.30729881877E+04  0.50400001928E-02 0.  1.
</event>
<event>
 5   0  0.3896210E-06  0.3324067E+04  0.7818609E-02  0.8156799E-01
       -2   -1    0    0    0  501  0.00000000000E+00  0.00000000000E+00  0.18232726442E+04  0.18232726442E+04  0.25500000920E-02 0.  1.
        2   -1    0    0  501    0  0.00000000000E+00  0.00000000000E+00 -0.15150529464E+04  0.15150529464E+04  0.25500000920E-02 0. -1.
    10030    2    1    2    0    0  0.00000000000E+00  0.00000000000E+00  0.30821969783E+03  0.33383255906E+04  0.33240665407E+04 0.  0.
        3    1    3    3  502    0 -0.15363351987E+04  0.45874197685E+03 -0.28547145213E+03  0.16285772946E+04  0.10100000352E+00 0. -1.
       -3    1    3    3    0  502  0.15363351987E+04 -0.45874197685E+03  0.59369114996E+03  0.17097482961E+04  0.10100000352E+00 0.  1.
</event>
<event>
 5   0  0.3812379E-06  0.3319956E+04  0.7818609E-02  0.8157836E-01
       -2   -1    0    0    0  501  0.00000000000E+00  0.00000000000E+00  0.17329324327E+04  0.17329324327E+04  0.25500000920E-02 0. -1.
        2   -1    0    0  501    0  0.00000000000E+00  0.00000000000E+00 -0.15900947128E+04  0.15900947128E+04  0.25500000920E-02 0.  1.
    10030    2    1    2    0    0  0.00000000000E+00  0.00000000000E+00  0.14283771994E+03  0.33230271455E+04  0.33199558424E+04 0.  0.
        5    1    3    3  502    0  0.56339572873E+03 -0.79691312982E+03  0.14154266083E+04  0.17192846935E+04  0.46999998093E+01 0. -1.
       -5    1    3    3    0  502 -0.56339572873E+03  0.79691312982E+03 -0.12725888884E+04  0.16037424521E+04  0.46999998093E+01 0.  1.
</event>
<event>
 5   0  0.1282578E-06  0.3269768E+04  0.7818609E-02  0.8170631E-01
        1   -1    0    0  501    0  0.00000000000E+00  0.00000000000E+00  0.17660316345E+04  0.17660316345E+04  0.50400001928E-02 0. -1.
       -1   -1    0    0    0  501  0.00000000000E+00  0.00000000000E+00 -0.15134752546E+04  0.15134752546E+04  0.50400001928E-02 0.  1.
    10030    2    1    2    0    0  0.00000000000E+00  0.00000000000E+00  0.25255637989E+03  0.32795068891E+04  0.32697676845E+04 0.  0.
        4    1    3    3  502    0  0.40957713672E+03 -0.15495090967E+04  0.44990269919E+03  0.16646759214E+04  0.12699999809E+01 0.  1.
       -4    1    3    3    0  502 -0.40957713672E+03  0.15495090967E+04 -0.19734631930E+03  0.16148309677E+04  0.12699999809E+01 0. -1.
</event>
<event>
 5   0  0.3671997E-06  0.3325183E+04  0.7818609E-02  0.8156517E-01
        2   -1    0    0  501    0  0.00000000000E+00  0.00000000000E+00  0.18071057520E+04  0.18071057520E+04  0.25500000920E-02 0. -1.
       -2   -1    0    0    0  501  0.00000000000E+00  0.00000000000E+00 -0.15296343094E+04  0.15296343094E+04  0.25500000920E-02 0.  1.
    10030    2    1    2    0    0  0.00000000000E+00  0.00000000000E+00  0.27747144260E+03  0.33367400615E+04  0.33251832786E+04 0.  0.
        2    1    3    3  502    0  0.69586306418E+03 -0.14050880815E+04  0.69357061775E+03  0.17145081285E+04  0.25500000920E-02 0. -1.
       -2    1    3    3    0  502 -0.69586306418E+03  0.14050880815E+04 -0.41609917515E+03  0.16222319330E+04  0.25500000920E-02 0.  1.
</event>
<event>
 5   0  0.3671997E-06  0.3064536E+04  0.7818609E-02  0.8225539E-01
       -2   -1    0    0    0  501  0.00000000000E+00  0.00000000000E+00  0.10438602616E+04  0.10438602616E+04  0.25500000920E-02 0. -1.
        2   -1    0    0  501    0  0.00000000000E+00  0.00000000000E+00 -0.22491946052E+04  0.22491946052E+04  0.25500000920E-02 0.  1.
    10030    2    1    2    0    0  0.00000000000E+00  0.00000000000E+00 -0.12053343436E+04  0.32930548667E+04  0.30645357683E+04 0.  0.
        2    1    3    3  502    0  0.32036163649E+03  0.14983481060E+04 -0.58881215055E+03  0.16414561747E+04  0.25500000920E-02 0.  1.
       -2    1    3    3    0  502 -0.32036163649E+03 -0.14983481060E+04 -0.61652219307E+03  0.16515986920E+04  0.25500000920E-02 0. -1.
</event>
<event>
 5   0  0.1405389E-06  0.3272849E+04  0.7818609E-02  0.8169838E-01
        1   -1    0    0  501    0  0.00000000000E+00  0.00000000000E+00  0.18603285238E+04  0.18603285238E+04  0.50400001928E-02 0. -1.
       -1   -1    0    0    0  501  0.00000000000E+00  0.00000000000E+00 -0.14394693283E+04  0.14394693283E+04  0.50400001928E-02 0.  1.
    10030    2    1    2    0    0  0.00000000000E+00  0.00000000000E+00  0.42085919553E+03  0.32997978521E+04  0.32728494317E+04 0.  0.
        1    1    3    3  502    0  0.55642681882E+03  0.89147289059E+03 -0.10543118150E+04  0.14885926651E+04  0.50400001928E-02 0.  1.
       -1    1    3    3    0  502 -0.55642681882E+03 -0.89147289059E+03  0.14751710105E+04  0.18112051870E+04  0.50400001928E-02 0. -1.
</event>
<event>
 5   0  0.3812379E-06  0.3281461E+04  0.7818609E-02  0.8167629E-01
        2   -1    0    0  501    0  0.00000000000E+00  0.00000000000E+00  0.15659952883E+04  0.15659952883E+04  0.25500000920E-02 0.  1.
       -2   -1    0    0    0  501  0.00000000000E+00  0.00000000000E+00 -0.17190328710E+04  0.17190328710E+04  0.25500000920E-02 0. -1.
    10030    2    1    2    0    0  0.00000000000E+00  0.00000000000E+00 -0.15303758269E+03  0.32850281594E+04  0.32814614893E+04 0.  0.
        5    1    3    3  502    0 -0.15429131313E+04  0.53981517622E+03  0.65034796752E+02  0.16359196099E+04  0.46999998093E+01 0. -1.
       -5    1    3    3    0  502  0.15429131313E+04 -0.53981517622E+03 -0.21807237944E+03  0.16491085495E+04  0.46999998093E+01 0.  1.
</event>
<event>
 5   0  0.1339825E-06  0.3180427E+04  0.7818609E-02  0.8194006E-01
       -1   -1    0    0    0  501  0.00000000000E+00  0.00000000000E+00  0.18664146402E+04  0.18664146402E+04  0.50400001928E-02 0.  1.
        1   -1    0    0  501    0  0.00000000000E+00  0.00000000000E+00 -0.13548860391E+04  0.13548860391E+04  0.50400001928E-02 0. -1.
    10030    2    1    2    0    0  0.00000000000E+00  0.00000000000E+00  0.51152860104E+03  0.32213006793E+04  0.31804271029E+04 0.  0.
        3    1    3    3  502    0  0.14007900994E+01 -0.13634178247E+04  0.10847380135E+04  0.17422877762E+04  0.10100000352E+00 0.  1.
       -3    1    3    3    0  502 -0.14007900994E+01  0.13634178247E+04 -0.57320941243E+03  0.14790129031E+04  0.10100000352E+00 0. -1.
</event>
<event>
 5   0  0.3920487E-06  0.3282173E+04  0.7818609E-02  0.8167446E-01
       -2   -1    0    0    0  501  0.00000000000E+00  0.00000000000E+00  0.11442131759E+04  0.11442131759E+04  0.25500000920E-02 0. -1.
        2   -1    0    0  501    0  0.00000000000E+00  0.00000000000E+00 -0.23537262994E+04  0.23537262994E+04  0.25500000920E-02 0.  1.
    10030    2    1    2    0    0  0.00000000000E+00  0.00000000000E+00 -0.12095131235E+04  0.34979394754E+04  0.32821728439E+04 0.  0.
        4    1    3    3  502    0  0.56801718938E+03 -0.11071154210E+04 -0.17450548925E+04  0.21432606639E+04  0.12699999809E+01 0.  1.
       -4    1    3    3    0  502 -0.56801718938E+03  0.11071154210E+04  0.53554176896E+03  0.13546788114E+04  0.12699999809E+01 0. -1.
</event>
<event>
 5   0  0.1259875E-06  0.2055214E+04  0.7818609E-02  0.8581233E-01
        4   -1    0    0  501    0  0.00000000000E+00  0.00000000000E+00  0.13661808558E+04  0.13661814461E+04  0.12699999809E+01 0.  1.
       -4   -1    0    0    0  501  0.00000000000E+00  0.00000000000E+00 -0.77293897708E+03  0.77294002044E+03  0.12699999809E+01 0. -1.
    10030    2    1    2    0    0  0.00000000000E+00  0.00000000000E+00  0.59324187870E+03  0.21391214665E+04  0.20552140331E+04 0.  0.
        2    1    3    3  502    0  0.92784079530E+03  0.40911931575E+03  0.12336465042E+03  0.10215116215E+04  0.25500000920E-02 0. -1.
       -2    1    3    3    0  502 -0.92784079530E+03 -0.40911931575E+03  0.46987722827E+03  0.11176098450E+04  0.25500000920E-02 0.  1.
</event>
<event>
 5   0  0.1405389E-06  0.3355583E+04  0.7818609E-02  0.8148895E-01
        1   -1    0    0  501    0  0.00000000000E+00  0.00000000000E+00  0.14876794012E+04  0.14876794012E+04  0.50400001928E-02 0.  1.
       -1   -1    0    0    0  501  0.00000000000E+00  0.00000000000E+00 -0.18921977351E+04  0.18921977351E+04  0.50400001928E-02 0. -1.
    10030    2    1    2    0    0  0.00000000000E+00  0.00000000000E+00 -0.40451833387E+03  0.33798771363E+04  0.33555825685E+04 0.  0.
        1    1    3    3  502    0  0.13469834462E+04 -0.71887040154E+03  0.49836627453E+03  0.16060846809E+04  0.50400001928E-02 0.  1.
       -1    1    3    3    0  502 -0.13469834462E+04  0.71887040154E+03 -0.90288460841E+03  0.17737924554E+04  0.50400001928E-02 0. -1.
</event>
<event>
 5   0  0.1405389E-06  0.2964140E+04  0.7818609E-02  0.8254046E-01
        1   -1    0    0  501    0  0.00000000000E+00  0.00000000000E+00  0.24749321242E+04  0.24749321242E+04  0.50400001928E-02 0. -1.
       -1   -1    0    0    0  501  0.00000000000E+00  0.00000000000E+00 -0.88751198668E+03  0.88751198669E+03  0.50400001928E-02 0.  1.
    10030    2    1    2    0    0  0.00000000000E+00  0.00000000000E+00  0.15874201376E+04  0.33624441109E+04  0.29641402980E+04 0.  0.
        1    1    3    3  502    0 -0.58215085133E+03  0.12270791244E+04  0.14666427014E+04  0.19989156073E+04  0.50400001928E-02 0. -1.
       -1    1    3    3    0  502  0.58215085133E+03 -0.12270791244E+04  0.12077743613E+03  0.13635285037E+04  0.50400001928E-02 0.  1.
</event>
<event>
 5   0  0.1339825E-06  0.3362171E+04  0.7818609E-02  0.8147254E-01
        1   -1    0    0  501    0  0.00000000000E+00  0.00000000000E+00  0.26392556118E+04  0.26392556118E+04  0.50400001928E-02 0.  1.
       -1   -1    0    0    0  501  0.00000000000E+00  0.00000000000E+00 -0.10707749531E+04  0.10707749531E+04  0.50400001928E-02 0. -1.
    10030    2    1    2    0    0  0.00000000000E+00  0.00000000000E+00  0.15684806587E+04  0.37100305648E+04  0.33621712055E+04 0.  0.
        3    1    3    3  502    0  0.98887218106E+03  0.13082074250E+04  0.11923335086E+04  0.20275438499E+04  0.10100000352E+00 0.  1.
       -3    1    3    3    0  502 -0.98887218106E+03 -0.13082074250E+04  0.37614715009E+03  0.16824867150E+04  0.10100000352E+00 0. -1.
</event>
<event>
 5   0  0.3920487E-06  0.3310042E+04  0.7818609E-02  0.8160345E-01
        2   -1    0    0  501    0  0.00000000000E+00  0.00000000000E+00  0.19103554738E+04  0.19103554738E+04  0.25500000920E-02 0. -1.
       -2   -1    0    0    0  501  0.00000000000E+00  0.00000000000E+00 -0.14338140893E+04  0.14338140893E+04  0.25500000920E-02 0.  1.
    10030    2    1    2    0    0  0.00000000000E+00  0.00000000000E+00  0.47654138451E+03  0.33441695631E+04  0.33100420505E+04 0.  0.
        4    1    3    3  502    0  0.11737778640E+03  0.16480486043E+04  0.33544570656E+03  0.16859321404E+04  0.12699999809E+01 0. -1.
       -4    1    3    3    0  502 -0.11737778640E+03 -0.16480486043E+04  0.14109567794E+03  0.16582374228E+04  0.12699999809E+01 0.  1.
</event>
<event>
 5   0  0.4017247E-06  0.3207976E+04  0.7818609E-02  0.8186714E-01
        2   -1    0    0  501    0  0.00000000000E+00  0.00000000000E+00  0.27696392056E+04  0.27696392056E+04  0.25500000920E-02 0. -1.
       -2   -1    0    0    0  501  0.00000000000E+00  0.00000000000E+00 -0.92892154991E+03  0.92892154991E+03  0.25500000920E-02 0.  1.
    10030    2    1    2    0    0  0.00000000000E+00  0.00000000000E+00  0.18407176557E+04  0.36985607555E+04  0.32079760246E+04 0.  0.
        1    1    3    3  502    0  0.85495074626E+02  0.12073897678E+04 -0.29305356154E+03  0.12453834145E+04  0.50400001928E-02 0. -1.
       -1    1    3    3    0  502 -0.85495074626E+02 -0.12073897678E+04  0.21337712173E+04  0.24531773411E+04  0.50400001928E-02 0.  1.
</event>
<event>
 5   0  0.1259875E-06  0.2719745E+04  0.7818609E-02  0.8328627E-01
       -4   -1    0    0    0  501  0.00000000000E+00  0.00000000000E+00  0.10120099808E+04  0.10120107777E+04  0.12699999809E+01 0.  1.
        4   -1    0    0  501    0  0.00000000000E+00  0.00000000000E+00 -0.18273053044E+04  0.18273057457E+04  0.12699999809E+01 0. -1.
    10030    2    1    2    0    0  0.00000000000E+00  0.00000000000E+00 -0.81529532353E+03  0.28393165234E+04  0.27197448144E+04 0.  0.
        4    1    3    3  502    0 -0.61304640393E+02 -0.10634247591E+04  0.47487019429E+03  0.11662477402E+04  0.12699999809E+01 0.  1.
       -4    1    3    3    0  502  0.61304640393E+02  0.10634247591E+04 -0.12901655178E+04  0.16730687832E+04  0.12699999809E+01 0. -1.
</event>
<event>
 5   0  0.1391878E-06  0.3203941E+04  0.7818609E-02  0.8187777E-01
       -1   -1    0    0    0  501  0.00000000000E+00  0.00000000000E+00  0.16836731390E+04  0.16836731390E+04  0.50400001928E-02 0.  1.
        1   -1    0    0  501    0  0.00000000000E+00  0.00000000000E+00 -0.15242326353E+04  0.15242326353E+04  0.50400001928E-02 0. -1.
    10030    2    1    2    0    0  0.00000000000E+00  0.00000000000E+00  0.15944050371E+03  0.32079057743E+04  0.32039410392E+04 0.  0.
        2    1    3    3  502    0 -0.10589654673E+04 -0.89418021736E+03 -0.72460653466E+03  0.15639759436E+04  0.25500000920E-02 0. -1.
       -2    1    3    3    0  502  0.10589654673E+04  0.89418021736E+03  0.88404703837E+03  0.16439298307E+04  0.25500000920E-02 0.  1.
</event>
<event>
 5   0  0.1259875E-06  0.3400776E+04  0.7818609E-02  0.8137716E-01
        3   -1    0    0  501    0  0.00000000000E+00  0.00000000000E+00  0.14176179864E+04  0.14176179900E+04  0.10100000352E+00 0.  1.
       -3   -1    0    0    0  501  0.00000000000E+00  0.00000000000E+00 -0.20395612601E+04  0.20395612626E+04  0.10100000352E+00 0. -1.
    10030    2    1    2    0    0  0.00000000000E+00  0.00000000000E+00 -0.62194327372E+03  0.34571792527E+04  0.34007756394E+04 0.  0.
        2    1    3    3  502    0 -0.90161558033E+03  0.70697621233E+03 -0.15882306163E+04  0.19583673072E+04  0.25500000920E-02 0. -1.
       -2    1    3    3    0  502  0.90161558033E+03 -0.70697621233E+03  0.96628734255E+03  0.14988119455E+04  0.25500000920E-02 0.  1.
</event>
<event>
 5   0  0.3920487E-06  0.3225004E+04  0.7818609E-02  0.8182245E-01
        2   -1    0    0  501    0  0.00000000000E+00  0.00000000000E+00  0.26221494585E+04  0.26221494585E+04  0.25500000920E-02 0. -1.
       -2   -1    0    0    0  501  0.00000000000E+00  0.00000000000E+00 -0.99161490451E+03  0.99161490451E+03  0.25500000920E-02 0.  1.
    10030    2    1    2    0    0  0.00000000000E+00  0.00000000000E+00  0.16305345540E+04  0.36137643630E+04  0.32250038666E+04 0.  0.
        4    1    3    3  502    0 -0.22922822369E+03 -0.14172332520E+04  0.16379838396E+04  0.21780928219E+04  0.12699999809E+01 0. -1.
       -4    1    3    3    0  502  0.22922822369E+03  0.14172332520E+04 -0.74492856388E+01  0.14356715411E+04  0.12699999809E+01 0.  1.
</event>
<event>
 5   0  0.1339825E-06  0.3342649E+04  0.7818609E-02  0.8152127E-01
        1   -1    0    0  501    0  0.00000000000E+00  0.00000000000E+00  0.20887506758E+04  0.20887506758E+04  0.50400001928E-02 0.  1.
       -1   -1    0    0    0  501  0.00000000000E+00  0.00000000000E+00 -0.13373186069E+04  0.13373186069E+04  0.50400001928E-02 0. -1.
    10030    2    1    2    0    0  0.00000000000E+00  0.00000000000E+00  0.75143206890E+03  0.34260692827E+04  0.33426487365E+04 0.  0.
        3    1    3    3  502    0 -0.10223348281E+04  0.23477533728E+02 -0.97924589788E+03  0.14158538887E+04  0.10100000352E+00 0. -1.
       -3    1    3    3    0  502  0.10223348281E+04 -0.23477533728E+02  0.17306779668E+04  0.20102153940E+04  0.10100000352E+00 0.  1.
</event>
<event>
 5   0  0.3920487E-06  0.3250594E+04  0.7818609E-02  0.8175582E-01
        2   -1    0    0  501    0  0.00000000000E+00  0.00000000000E+00  0.18339799688E+04  0.18339799688E+04  0.25500000920E-02 0. -1.
       -2   -1    0    0    0  501  0.00000000000E+00  0.00000000000E+00 -0.14403590412E+04  0.14403590412E+04  0.25500000920E-02 0.  1.
    10030    2    1    2    0    0  0.00000000000E+00  0.00000000000E+00  0.39362092758E+03  0.32743390100E+04  0.32505935639E+04 0.  0.
        4    1    3    3  502    0 -0.48852581817E+03  0.44528575200E+03  0.16924636821E+04  0.18169677499E+04  0.12699999809E+01 0. -1.
       -4    1    3    3    0  502  0.48852581817E+03 -0.44528575200E+03 -0.12988427545E+04  0.14573712601E+04  0.12699999809E+01 0.  1.
</event>
<event>
 5   0  0.1339825E-06  0.2692282E+04  0.7818609E-02  0.8337514E-01
        1   -1    0    0  501    0  0.00000000000E+00  0.00000000000E+00  0.11257927562E+04  0.11257927563E+04  0.50400001928E-02 0. -1.
       -1   -1    0    0    0  501  0.00000000000E+00  0.00000000000E+00 -0.16096171645E+04  0.16096171645E+04  0.50400001928E-02 0.  1.
    10030    2    1    2    0    0  0.00000000000E+00  0.00000000000E+00 -0.48382440828E+03  0.27354099208E+04  0.26922818160E+04 0.  0.
        3    1    3    3  502    0  0.40138268744E+03  0.10123321527E+04  0.56207351545E+03  0.12255003453E+04  0.10100000352E+00 0. -1.
       -3    1    3    3    0  502 -0.40138268744E+03 -0.10123321527E+04 -0.10458979237E+04  0.15099095755E+04  0.10100000352E+00 0.  1.
</event>
<event>
 5   0  0.1339825E-06  0.3358402E+04  0.7818609E-02  0.8148192E-01
        1   -1    0    0  501    0  0.00000000000E+00  0.00000000000E+00  0.22195341560E+04  0.22195341560E+04  0.50400001928E-02 0. -1.
       -1   -1    0    0    0  501  0.00000000000E+00  0.00000000000E+00 -0.12704087885E+04  0.12704087885E+04  0.50400001928E-02 0.  1.
    10030    2    1    2    0    0  0.00000000000E+00  0.00000000000E+00  0.94912536751E+03  0.34899429446E+04  0.33584018213E+04 0.  0.
        3    1    3    3  502    0  0.16100866589E+04 -0.11878082829E+03 -0.52895670056E+01  0.16144707876E+04  0.10100000352E+00 0.  1.
       -3    1    3    3    0  502 -0.16100866589E+04  0.11878082829E+03  0.95441493452E+03  0.18754721570E+04  0.10100000352E+00 0. -1.
</event>
<event>
 5   0  0.3920487E-06  0.2642489E+04  0.7818609E-02  0.8353910E-01
        2   -1    0    0  501    0  0.00000000000E+00  0.00000000000E+00  0.10492289465E+04  0.10492289465E+04  0.25500000920E-02 0.  1.
       -2   -1    0    0    0  501  0.00000000000E+00  0.00000000000E+00 -0.16637804666E+04  0.16637804666E+04  0.25500000920E-02 0. -1.
    10030    2    1    2    0    0  0.00000000000E+00  0.00000000000E+00 -0.61455152009E+03  0.27130094132E+04  0.26424886954E+04 0.  0.
        4    1    3    3  502    0  0.39379246786E+03 -0.31333957767E+03 -0.15615291003E+04  0.16406184635E+04  0.12699999809E+01 0. -1.
       -4    1    3    3    0  502 -0.39379246786E+03  0.31333957767E+03  0.94697758022E+03  0.10723909497E+04  0.12699999809E+01 0.  1.
</event>
<event>
 5   0  0.4017247E-06  0.3350478E+04  0.7818609E-02  0.8150169E-01
        2   -1    0    0  501    0  0.00000000000E+00  0.00000000000E+00  0.15695796124E+04  0.15695796124E+04  0.25500000920E-02 0. -1.
       -2   -1    0    0    0  501  0.00000000000E+00  0.00000000000E+00 -0.17880114197E+04  0.17880114198E+04  0.25500000920E-02 0.  1.
    10030    2    1    2    0    0  0.00000000000E+00  0.00000000000E+00 -0.21843180738E+03  0.33575910321E+04  0.33504783367E+04 0.  0.
        1    1    3    3  502    0  0.35870540301E+03  0.16057876057E+04 -0.42484941071E+03  0.16993294038E+04  0.50400001928E-02 0. -1.
       -1    1    3    3    0  502 -0.35870540301E+03 -0.16057876057E+04  0.20641760333E+03  0.16582616283E+04  0.50400001928E-02 0.  1.
</event>
<event>
 5   0  0.3671997E-06  0.3220176E+04  0.7818609E-02  0.8183509E-01
        2   -1    0    0  501    0  0.00000000000E+00  0.00000000000E+00  0.10741706527E+04  0.10741706527E+04  0.25500000920E-02 0.  1.
       -2   -1    0    0    0  501  0.00000000000E+00  0.00000000000E+00 -0.24133812619E+04  0.24133812619E+04  0.25500000920E-02 0. -1.
    10030    2    1    2    0    0  0.00000000000E+00  0.00000000000E+00 -0.13392106092E+04  0.34875519145E+04  0.32201759736E+04 0.  0.
        2    1    3    3  502    0 -0.46368545107E+03  0.97664946308E+03  0.62258102878E+03  0.12475798606E+04  0.25500000920E-02 0.  1.
       -2    1    3    3    0  502  0.46368545107E+03 -0.97664946308E+03 -0.19617916380E+04  0.22399720539E+04  0.25500000920E-02 0. -1.
</event>
<event>
 5   0  0.3920487E-06  0.3371345E+04  0.7818609E-02  0.8144975E-01
       -2   -1    0    0    0  501  0.00000000000E+00  0.00000000000E+00  0.16102937088E+04  0.16102937088E+04  0.25500000920E-02 0. -1.
        2   -1    0    0  501    0  0.00000000000E+00  0.00000000000E+00 -0.17645801097E+04  0.17645801097E+04  0.25500000920E-02 0.  1.
    10030    2    1    2    0    0  0.00000000000E+00  0.00000000000E+00 -0.15428640091E+03  0.33748738185E+04  0.33713452801E+04 0.  0.
        4    1    3    3  502    0 -0.10103640297E+04 -0.59194861640E+03 -0.12909517597E+04  0.17429276221E+04  0.12699999809E+01 0.  1.
       -4    1    3    3    0  502  0.10103640297E+04  0.59194861640E+03  0.11366653588E+04  0.16319461964E+04  0.12699999809E+01 0. -1.
</event>
<event>
 5   0  0.1405389E-06  0.3291632E+04  0.7818609E-02  0.8165028E-01
       -1   -1    0    0    0  501  0.00000000000E+00  0.00000000000E+00  0.17870122093E+04  0.17870122093E+04  0.50400001928E-02 0. -1.
        1   -1    0    0  501    0  0.00000000000E+00  0.00000000000E+00 -0.15157761734E+04  0.15157761734E+04  0.50400001928E-02 0.  1.
    10030    2    1    2    0    0  0.00000000000E+00  0.00000000000E+00  0.27123603593E+03  0.33027883827E+04  0.32916321352E+04 0.  0.
        1    1    3    3  502    0 -0.42340634267E+03  0.11346357329E+04 -0.98262741359E+03  0.15595601339E+04  0.50400001928E-02 0.  1.
       -1    1    3    3    0  502  0.42340634267E+03 -0.11346357329E+04  0.12538634495E+04  0.17432282488E+04  0.50400001928E-02 0. -1.
</event>
<event>
 5   0  0.1339825E-06  0.3310983E+04  0.7818609E-02  0.8160106E-01
       -1   -1    0    0    0  501  0.00000000000E+00  0.00000000000E+00  0.11060300910E+04  0.11060300910E+04  0.50400001928E-02 0. -1.
        1   -1    0    0  501    0  0.00000000000E+00  0.00000000000E+00 -0.24779176864E+04  0.24779176864E+04  0.50400001928E-02 0.  1.
    10030    2    1    2    0    0  0.00000000000E+00  0.00000000000E+00 -0.13718875955E+04  0.35839477774E+04  0.33109826482E+04 0.  0.
        3    1    3    3  502    0  0.14065442203E+04  0.48700401349E+03 -0.14703314050E+04  0.20922270440E+04  0.10100000352E+00 0.  1.
       -3    1    3    3    0  502 -0.14065442203E+04 -0.48700401349E+03  0.98443809530E+02  0.14917207334E+04  0.10100000352E+00 0. -1.
</event>
<event>
 5   0  0.3671997E-06  0.3381308E+04  0.7818609E-02  0.8142509E-01
       -2   -1    0    0    0  501  0.00000000000E+00  0.00000000000E+00  0.16930038786E+04  0.16930038786E+04  0.25500000920E-02 0. -1.
        2   -1    0    0  501    0  0.00000000000E+00  0.00000000000E+00 -0.16883073310E+04  0.16883073310E+04  0.25500000920E-02 0.  1.
    10030    2    1    2    0    0  0.00000000000E+00  0.00000000000E+00  0.46965476255E+01  0.33813112096E+04  0.33813079480E+04 0.  0.
        2    1    3    3  502    0  0.16709697781E+04  0.18541906762E+03 -0.17595116877E+03  0.16904079518E+04  0.25500000920E-02 0. -1.
       -2    1    3    3    0  502 -0.16709697781E+04 -0.18541906762E+03  0.18064771639E+03  0.16909032578E+04  0.25500000920E-02 0.  1.
</event>
<event>
 5   0  0.1391878E-06  0.3297529E+04  0.7818609E-02  0.8163525E-01
        1   -1    0    0  501    0  0.00000000000E+00  0.00000000000E+00  0.97957055474E+03  0.97957055475E+03  0.50400001928E-02 0.  1.
       -1   -1    0    0    0  501  0.00000000000E+00  0.00000000000E+00 -0.27751179073E+04  0.27751179073E+04  0.50400001928E-02 0. -1.
    10030    2    1    2    0    0  0.00000000000E+00  0.00000000000E+00 -0.17955473526E+04  0.37546884621E+04  0.32975286431E+04 0.  0.
        2    1    3    3  502    0 -0.20979061296E+03  0.68163485309E+02  0.96269294941E+03  0.98764167433E+03  0.25500000920E-02 0.  1.
       -2    1    3    3    0  502  0.20979061296E+03 -0.68163485309E+02 -0.27582403020E+04  0.27670467877E+04  0.25500000920E-02 0. -1.
</event>
<event>
 5   0  0.1282578E-06  0.3313861E+04  0.7818609E-02  0.8159377E-01
       -1   -1    0    0    0  501  0.00000000000E+00  0.00000000000E+00  0.21983711126E+04  0.21983711126E+04  0.50400001928E-02 0. -1.
        1   -1    0    0  501    0  0.00000000000E+00  0.00000000000E+00 -0.12488419272E+04  0.12488419272E+04  0.50400001928E-02 0.  1.
    10030    2    1    2    0    0  0.00000000000E+00  0.00000000000E+00  0.94952918536E+03  0.34472130398E+04  0.33138605987E+04 0.  0.
        4    1    3    3  502    0 -0.13731021973E+04  0.28656487040E+03 -0.44270618154E+03  0.14708906979E+04  0.12699999809E+01 0.  1.
       -4    1    3    3    0  502  0.13731021973E+04 -0.28656487040E+03  0.13922353669E+04  0.19763223419E+04  0.12699999809E+01 0. -1.
</event>
<event>
 5   0  0.1282578E-06  0.3319422E+04  0.7818609E-02  0.8157971E-01
       -1   -1    0    0    0  501  0.00000000000E+00  0.00000000000E+00  0.13925845918E+04  0.13925845918E+04  0.50400001928E-02 0. -1.
        1   -1    0    0  501    0  0.00000000000E+00  0.00000000000E+00 -0.19780782747E+04  0.19780782747E+04  0.50400001928E-02 0.  1.
    10030    2    1    2    0    0  0.00000000000E+00  0.00000000000E+00 -0.58549368286E+03  0.33706628665E+04  0.33194224358E+04 0.  0.
        4    1    3    3  502    0  0.12006826042E+04  0.11438024356E+04 -0.36248734764E+03  0.16974455566E+04  0.12699999809E+01 0. -1.
       -4    1    3    3    0  502 -0.12006826042E+04 -0.11438024356E+04 -0.22300633522E+03  0.16732173099E+04  0.12699999809E+01 0.  1.
</event>
<event>
 5   0  0.3671997E-06  0.3053991E+04  0.7818609E-02  0.8228479E-01
       -2   -1    0    0    0  501  0.00000000000E+00  0.00000000000E+00  0.13857941304E+04  0.13857941304E+04  0.25500000920E-02 0. -1.
        2   -1    0    0  501    0  0.00000000000E+00  0.00000000000E+00 -0.16825840006E+04  0.16825840006E+04  0.25500000920E-02 0.  1.
    10030    2    1    2    0    0  0.00000000000E+00  0.00000000000E+00 -0.29678987019E+03  0.30683781310E+04  0.30539908526E+04 0.  0.
        2    1    3    3  502    0 -0.26430626798E+03  0.47004686372E+03  0.12869405156E+04  0.13953557784E+04  0.25500000920E-02 0. -1.
       -2    1    3    3    0  502  0.26430626798E+03 -0.47004686372E+03 -0.15837303858E+04  0.16730223526E+04  0.25500000920E-02 0.  1.
</event>
<event>
 5   0  0.1405389E-06  0.2439714E+04  0.7818609E-02  0.8424783E-01
        1   -1    0    0  501    0  0.00000000000E+00  0.00000000000E+00  0.16035272477E+04  0.16035272478E+04  0.50400001928E-02 0. -1.
       -1   -1    0    0    0  501  0.00000000000E+00  0.00000000000E+00 -0.92798618694E+03  0.92798618695E+03  0.50400001928E-02 0.  1.
    10030    2    1    2    0    0  0.00000000000E+00  0.00000000000E+00  0.67554106081E+03  0.25315134347E+04  0.24397140294E+04 0.  0.
        1    1    3    3  502    0  0.90957584707E+03 -0.19945314742E+03 -0.47987789749E+03  0.10475650701E+04  0.50400001928E-02 0.  1.
       -1    1    3    3    0  502 -0.90957584707E+03  0.19945314742E+03  0.11554189583E+04  0.14839483646E+04  0.50400001928E-02 0. -1.
</event>
<event>
 5   0  0.3671997E-06  0.2205880E+04  0.7818609E-02  0.8515985E-01
       -2   -1    0    0    0  501  0.00000000000E+00  0.00000000000E+00  0.10639728041E+04  0.10639728041E+04  0.25500000920E-02 0. -1.
        2   -1    0    0  501    0  0.00000000000E+00  0.00000000000E+00 -0.11433346262E+04  0.11433346262E+04  0.25500000920E-02 0.  1.
    10030    2    1    2    0    0  0.00000000000E+00  0.00000000000E+00 -0.79361822092E+02  0.22073074303E+04  0.22058802762E+04 0.  0.
        2    1    3    3  502    0  0.10737611362E+04  0.10057104090E+03 -0.27091359715E+03  0.11119674856E+04  0.25500000920E-02 0.  1.
       -2    1    3    3    0  502 -0.10737611362E+04 -0.10057104090E+03  0.19155177506E+03  0.10953399447E+04  0.25500000920E-02 0. -1.
</event>
<event>
 5   0  0.3671997E-06  0.3253437E+04  0.7818609E-02  0.8174845E-01
        2   -1    0    0  501    0  0.00000000000E+00  0.00000000000E+00  0.23002953183E+04  0.23002953183E+04  0.25500000920E-02 0. -1.
       -2   -1    0    0    0  501  0.00000000000E+00  0.00000000000E+00 -0.11503798390E+04  0.11503798390E+04  0.25500000920E-02 0.  1.
    10030    2    1    2    0    0  0.00000000000E+00  0.00000000000E+00  0.11499154793E+04  0.34506751573E+04  0.32534371720E+04 0.  0.
        2    1    3    3  502    0 -0.12576760923E+04 -0.44478509245E+03  0.15623247648E+04  0.20543713400E+04  0.25500000920E-02 0. -1.
       -2    1    3    3    0  502  0.12576760923E+04  0.44478509245E+03 -0.41240928553E+03  0.13963038174E+04  0.25500000920E-02 0.  1.
</event>
<event>
 5   0  0.3671997E-06  0.3237659E+04  0.7818609E-02  0.8178942E-01
       -2   -1    0    0    0  501  0.00000000000E+00  0.00000000000E+00  0.14418567800E+04  0.14418567800E+04  0.25500000920E-02 0.  1.
        2   -1    0    0  501    0  0.00000000000E+00  0.00000000000E+00 -0.18175237401E+04  0.18175237401E+04  0.25500000920E-02 0. -1.
    10030    2    1    2    0    0  0.00000000000E+00  0.00000000000E+00 -0.37566696017E+03  0.32593805201E+04  0.32376589861E+04 0.  0.
        2    1    3    3  502    0 -0.41586335779E+03 -0.78256713707E+03 -0.15516382402E+04  0.17868785311E+04  0.25500000920E-02 0. -1.
       -2    1    3    3    0  502  0.41586335779E+03  0.78256713707E+03  0.11759712800E+04  0.14725019891E+04  0.25500000920E-02 0.  1.
</event>
<event>
 5   0  0.4017247E-06  0.3201439E+04  0.7818609E-02  0.8188437E-01
       -2   -1    0    0    0  501  0.00000000000E+00  0.00000000000E+00  0.21916088686E+04  0.21916088686E+04  0.25500000920E-02 0.  1.
        2   -1    0    0  501    0  0.00000000000E+00  0.00000000000E+00 -0.11691424340E+04  0.11691424340E+04  0.25500000920E-02 0. -1.
    10030    2    1    2    0    0  0.00000000000E+00  0.00000000000E+00  0.10224664346E+04  0.33607513026E+04  0.32014390058E+04 0.  0.
        1    1    3    3  502    0 -0.46164127936E+03 -0.26372217477E+03  0.20962153139E+04  0.21625865760E+04  0.50400001928E-02 0.  1.
       -1    1    3    3    0  502  0.46164127936E+03  0.26372217477E+03 -0.10737488793E+04  0.11981647266E+04  0.50400001928E-02 0. -1.
</event>
<event>
 5   0  0.1391878E-06  0.3309981E+04  0.7818609E-02  0.8160360E-01
       -1   -1    0    0    0  501  0.00000000000E+00  0.00000000000E+00  0.14102295481E+04  0.14102295481E+04  0.50400001928E-02 0.  1.
        1   -1    0    0  501    0  0.00000000000E+00  0.00000000000E+00 -0.19422326032E+04  0.19422326032E+04  0.50400001928E-02 0. -1.
    10030    2    1    2    0    0  0.00000000000E+00  0.00000000000E+00 -0.53200305505E+03  0.33524621513E+04  0.33099811518E+04 0.  0.
        2    1    3    3  502    0  0.58513399591E+03  0.17985970178E+03 -0.18233514647E+04  0.19233673257E+04  0.25500000920E-02 0. -1.
       -2    1    3    3    0  502 -0.58513399591E+03 -0.17985970178E+03  0.12913484097E+04  0.14290948257E+04  0.25500000920E-02 0.  1.
</event>
<event>
 5   0  0.3920487E-06  0.3249826E+04  0.7818609E-02  0.8175781E-01
        2   -1    0    0  501    0  0.00000000000E+00  0.00000000000E+00  0.17388619980E+04  0.17388619980E+04  0.25500000920E-02 0.  1.
       -2   -1    0    0    0  501  0.00000000000E+00  0.00000000000E+00 -0.15184311270E+04  0.15184311270E+04  0.25500000920E-02 0. -1.
    10030    2    1    2    0    0  0.00000000000E+00  0.00000000000E+00  0.22043087097E+03  0.32572931249E+04  0.32498259542E+04 0.  0.
        4    1    3    3  502    0  0.10425230443E+04  0.12174629637E+04 -0.15736277351E+03  0.16105387363E+04  0.12699999809E+01 0. -1.
       -4    1    3    3    0  502 -0.10425230443E+04 -0.12174629637E+04  0.37779364448E+03  0.16467543886E+04  0.12699999809E+01 0.  1.
</event>
<event>
 5   0  0.3812379E-06  0.3296607E+04  0.7818609E-02  0.8163759E-01
       -2   -1    0    0    0  501  0.00000000000E+00  0.00000000000E+00  0.13181176344E+04  0.13181176344E+04  0.25500000920E-02 0. -1.
        2   -1    0    0  501    0  0.00000000000E+00  0.00000000000E+00 -0.20612004653E+04  0.20612004653E+04  0.25500000920E-02 0.  1.
    10030    2    1    2    0    0  0.00000000000E+00  0.00000000000E+00 -0.74308283089E+03  0.33793180997E+04  0.32966071536E+04 0.  0.
        5    1    3    3  502    0  0.79315835416E+02  0.16054823453E+04  0.23255829849E+01  0.16074489295E+04  0.46999998093E+01 0. -1.
       -5    1    3    3    0  502 -0.79315835416E+02 -0.16054823453E+04 -0.74540841388E+03  0.17718691702E+04  0.46999998093E+01 0.  1.
</event>
<event>
 5   0  0.1339825E-06  0.3239691E+04  0.7818609E-02  0.8178413E-01
        1   -1    0    0  501    0  0.00000000000E+00  0.00000000000E+00  0.13068717689E+04  0.13068717689E+04  0.50400001928E-02 0. -1.
       -1   -1    0    0    0  501  0.00000000000E+00  0.00000000000E+00 -0.20077708166E+04  0.20077708166E+04  0.50400001928E-02 0.  1.
    10030    2    1    2    0    0  0.00000000000E+00  0.00000000000E+00 -0.70089904772E+03  0.33146425855E+04  0.32396907251E+04 0.  0.
        3    1    3    3  502    0  0.87348328918E+03 -0.52553972020E+03 -0.16384360863E+04  0.19296729964E+04  0.10100000352E+00 0.  1.
       -3    1    3    3    0  502 -0.87348328918E+03  0.52553972020E+03  0.93753703854E+03  0.13849695891E+04  0.10100000352E+00 0. -1.
</event>
<event>
 5   0  0.3812379E-06  0.2336706E+04  0.7818609E-02  0.8463588E-01
        2   -1    0    0  501    0  0.00000000000E+00  0.00000000000E+00  0.87435880432E+03  0.87435880433E+03  0.25500000920E-02 0. -1.
       -2   -1    0    0    0  501  0.00000000000E+00  0.00000000000E+00 -0.15611993464E+04  0.15611993464E+04  0.25500000920E-02 0.  1.
    10030    2    1    2    0    0  0.00000000000E+00  0.00000000000E+00 -0.68684054205E+03  0.24355581507E+04  0.23367057100E+04 0.  0.
        5    1    3    3  502    0 -0.47489722107E+03  0.59010531670E+03 -0.12705875773E+04  0.14792452592E+04  0.46999998093E+01 0. -1.
       -5    1    3    3    0  502  0.47489722107E+03 -0.59010531670E+03  0.58374703520E+03  0.95631289151E+03  0.46999998093E+01 0.  1.
</event>
<event>
 5   0  0.1352708E-06  0.2714024E+04  0.7818609E-02  0.8330469E-01
       -1   -1    0    0    0  501  0.00000000000E+00  0.00000000000E+00  0.23172063616E+04  0.23172063616E+04  0.50400001928E-02 0. -1.
        1   -1    0    0  501    0  0.00000000000E+00  0.00000000000E+00 -0.79469914444E+03  0.79469914446E+03  0.50400001928E-02 0.  1.
    10030    2    1    2    0    0  0.00000000000E+00  0.00000000000E+00  0.15225072172E+04  0.31119055061E+04  0.27140242542E+04 0.  0.
        5    1    3    3  502    0 -0.40441102095E+03  0.21508106428E+03  0.22258784755E+04  0.22725239747E+04  0.46999998093E+01 0. -1.
       -5    1    3    3    0  502  0.40441102095E+03 -0.21508106428E+03 -0.70337125834E+03  0.83938153133E+03  0.46999998093E+01 0.  1.
</event>
<event>
 5   0  0.3812379E-06  0.3307571E+04  0.7818609E-02  0.8160972E-01
        2   -1    0    0  501    0  0.00000000000E+00  0.00000000000E+00  0.27640144315E+04  0.27640144315E+04  0.25500000920E-02 0.  1.
       -2   -1    0    0    0  501  0.00000000000E+00  0.00000000000E+00 -0.98950518621E+03  0.98950518621E+03  0.25500000920E-02 0. -1.
    10030    2    1    2    0    0  0.00000000000E+00  0.00000000000E+00  0.17745092453E+04  0.37535196177E+04  0.33075710815E+04 0.  0.
        5    1    3    3  502    0  0.90546196742E+03 -0.13455792052E+04  0.52033559130E+03  0.17032956260E+04  0.46999998093E+01 0. -1.
       -5    1    3    3    0  502 -0.90546196742E+03  0.13455792052E+04  0.12541736540E+04  0.20502239917E+04  0.46999998093E+01 0.  1.
</event>
<event>
 5   0  0.3671997E-06  0.3336807E+04  0.7818609E-02  0.8153593E-01
       -2   -1    0    0    0  501  0.00000000000E+00  0.00000000000E+00  0.12938739060E+04  0.12938739060E+04  0.25500000920E-02 0. -1.
        2   -1    0    0  501    0  0.00000000000E+00  0.00000000000E+00 -0.21513453360E+04  0.21513453360E+04  0.25500000920E-02 0.  1.
    10030    2    1    2    0    0  0.00000000000E+00  0.00000000000E+00 -0.85747143003E+03  0.34452192419E+04  0.33368066129E+04 0.  0.
        2    1    3    3  502    0  0.10220433660E+04  0.62220274557E+03  0.77173562760E+03  0.14238275097E+04  0.25500000920E-02 0. -1.
       -2    1    3    3    0  502 -0.10220433660E+04 -0.62220274557E+03 -0.16292070576E+04  0.20213917322E+04  0.25500000920E-02 0.  1.
</event>
<event>
 5   0  0.1405389E-06  0.3647939E+04  0.7818609E-02  0.8079598E-01
       -1   -1    0    0    0  501  0.00000000000E+00  0.00000000000E+00  0.17140336051E+04  0.17140336051E+04  0.50400001928E-02 0.  1.
        1   -1    0    0  501    0  0.00000000000E+00  0.00000000000E+00 -0.19409567906E+04  0.19409567906E+04  0.50400001928E-02 0. -1.
    10030    2    1    2    0    0  0.00000000000E+00  0.00000000000E+00 -0.22692318550E+03  0.36549903957E+04  0.36479392348E+04 0.  0.
        1    1    3    3  502    0  0.99016228736E+03  0.15278474357E+04 -0.31305195077E+01  0.18206451994E+04  0.50400001928E-02 0. -1.
       -1    1    3    3    0  502 -0.99016228736E+03 -0.15278474357E+04 -0.22379266599E+03  0.18343451963E+04  0.50400001928E-02 0.  1.
</event>
<event>
 5   0  0.1339825E-06  0.2384564E+04  0.7818609E-02  0.8445305E-01
        1   -1    0    0  501    0  0.00000000000E+00  0.00000000000E+00  0.16319577019E+04  0.16319577019E+04  0.50400001928E-02 0.  1.
       -1   -1    0    0    0  501  0.00000000000E+00  0.00000000000E+00 -0.87106176740E+03  0.87106176742E+03  0.50400001928E-02 0. -1.
    10030    2    1    2    0    0  0.00000000000E+00  0.00000000000E+00  0.76089593450E+03  0.25030194693E+04  0.23845636583E+04 0.  0.
        3    1    3    3  502    0 -0.44751062757E+02  0.11693950190E+04  0.14097320152E+03  0.11787115092E+04  0.10100000352E+00 0. -1.
       -3    1    3    3    0  502  0.44751062757E+02 -0.11693950190E+04  0.61992273299E+03  0.13243079601E+04  0.10100000352E+00 0.  1.
</event>
<event>
 5   0  0.3920487E-06  0.3262960E+04  0.7818609E-02  0.8172385E-01
        2   -1    0    0  501    0  0.00000000000E+00  0.00000000000E+00  0.14698926851E+04  0.14698926851E+04  0.25500000920E-02 0.  1.
       -2   -1    0    0    0  501  0.00000000000E+00  0.00000000000E+00 -0.18108304353E+04  0.18108304353E+04  0.25500000920E-02 0. -1.
    10030    2    1    2    0    0  0.00000000000E+00  0.00000000000E+00 -0.34093775018E+03  0.32807231204E+04  0.32629596447E+04 0.  0.
        4    1    3    3  502    0  0.12651330702E+04 -0.10242647934E+04 -0.28081490013E+03  0.16518288874E+04  0.12699999809E+01 0.  1.
       -4    1    3    3    0  502 -0.12651330702E+04  0.10242647934E+04 -0.60122850054E+02  0.16288942330E+04  0.12699999809E+01 0. -1.
</event>
<event>
 5   0  0.3920487E-06  0.3313598E+04  0.7818609E-02  0.8159444E-01
        2   -1    0    0  501    0  0.00000000000E+00  0.00000000000E+00  0.22748463147E+04  0.22748463147E+04  0.25500000920E-02 0.  1.
       -2   -1    0    0    0  501  0.00000000000E+00  0.00000000000E+00 -0.12066676247E+04  0.12066676247E+04  0.25500000920E-02 0. -1.
    10030    2    1    2    0    0  0.00000000000E+00  0.00000000000E+00  0.10681786900E+04  0.34815139393E+04  0.33135982853E+04 0.  0.
        4    1    3    3  502    0  0.72749586833E+03 -0.35253573958E+03  0.20535590134E+04  0.22069521790E+04  0.12699999809E+01 0.  1.
       -4    1    3    3    0  502 -0.72749586833E+03  0.35253573958E+03 -0.98538032344E+03  0.12745617603E+04  0.12699999809E+01 0. -1.
</event>
<event>
 5   0  0.4017247E-06  0.3284253E+04  0.7818609E-02  0.8166914E-01
       -2   -1    0    0    0  501  0.00000000000E+00  0.00000000000E+00  0.13394878359E+04  0.13394878359E+04  0.25500000920E-02 0.  1.
        2   -1    0    0  501    0  0.00000000000E+00  0.00000000000E+00 -0.20131422664E+04  0.20131422664E+04  0.25500000920E-02 0. -1.
    10030    2    1    2    0    0  0.00000000000E+00  0.00000000000E+00 -0.67365443049E+03  0.33526301023E+04  0.32842530827E+04 0.  0.
        1    1    3    3  502    0  0.96239858211E+03  0.15916379233E+01  0.10214254182E+04  0.14033971102E+04  0.50400001928E-02 0.  1.
       -1    1    3    3    0  502 -0.96239858211E+03 -0.15916379233E+01 -0.16950798487E+04  0.19492329921E+04  0.50400001928E-02 0. -1.
</event>
<event>
 5   0  0.3812379E-06  0.3409728E+04  0.7818609E-02  0.8135523E-01
        2   -1    0    0  501    0  0.00000000000E+00  0.00000000000E+00  0.17221541088E+04  0.17221541088E+04  0.25500000920E-02 0.  1.
       -2   -1    0    0    0  501  0.00000000000E+00  0.00000000000E+00 -0.16877474567E+04  0.16877474567E+04  0.25500000920E-02 0. -1.
    10030    2    1    2    0    0  0.00000000000E+00  0.00000000000E+00  0.34406652128E+02  0.34099015655E+04  0.34097279758E+04 0.  0.
        5    1    3    3  502    0  0.77257509351E+03 -0.14677175305E+04 -0.37711625679E+03  0.17009720120E+04  0.46999998093E+01 0. -1.
       -5    1    3    3    0  502 -0.77257509351E+03  0.14677175305E+04  0.41152290892E+03  0.17089295536E+04  0.46999998093E+01 0.  1.
</event>
<event>
 5   0  0.1339825E-06  0.3310243E+04  0.7818609E-02  0.8160294E-01
        1   -1    0    0  501    0  0.00000000000E+00  0.00000000000E+00  0.12499964647E+04  0.12499964647E+04  0.50400001928E-02 0.  1.
       -1   -1    0    0    0  501  0.00000000000E+00  0.00000000000E+00 -0.21915477601E+04  0.21915477601E+04  0.50400001928E-02 0. -1.
    10030    2    1    2    0    0  0.00000000000E+00  0.00000000000E+00 -0.94155129542E+03  0.34415442248E+04  0.33102428626E+04 0.  0.
        3    1    3    3  502    0 -0.10855178177E+04 -0.78701528568E+03 -0.14796714420E+04  0.19967898184E+04  0.10100000352E+00 0. -1.
       -3    1    3    3    0  502  0.10855178177E+04  0.78701528568E+03  0.53812014661E+03  0.14447544064E+04  0.10100000352E+00 0.  1.
</event>
<event>
 5   0  0.1405389E-06  0.3372001E+04  0.7818609E-02  0.8144813E-01
       -1   -1    0    0    0  501  0.00000000000E+00  0.00000000000E+00  0.21198330521E+04  0.21198330521E+04  0.50400001928E-02 0. -1.
        1   -1    0    0  501    0  0.00000000000E+00  0.00000000000E+00 -0.13409532198E+04  0.13409532198E+04  0.50400001928E-02 0.  1.
    10030    2    1    2    0    0  0.00000000000E+00  0.00000000000E+00  0.77887983227E+03  0.34607862720E+04  0.33720005675E+04 0.  0.
        1    1    3    3  502    0 -0.10243467238E+04 -0.12495280624E+04 -0.10489594441E+03  0.16191385823E+04  0.50400001928E-02 0.  1.
       -1    1    3    3    0  502  0.10243467238E+04  0.12495280624E+04  0.88377577668E+03  0.18416476897E+04  0.50400001928E-02 0. -1.
</event>
<event>
 5   0  0.3671997E-06  0.3146878E+04  0.7818609E-02  0.8202989E-01
       -2   -1    0    0    0  501  0.00000000000E+00  0.00000000000E+00  0.11957126134E+04  0.11957126134E+04  0.25500000920E-02 0. -1.
        2   -1    0    0  501    0  0.00000000000E+00  0.00000000000E+00 -0.20704893374E+04  0.20704893374E+04  0.25500000920E-02 0.  1.
    10030    2    1    2    0    0  0.00000000000E+00  0.00000000000E+00 -0.87477672399E+03  0.32662019507E+04  0.31468779554E+04 0.  0.
        2    1    3    3  502    0 -0.14857774950E+04  0.51145706228E+03 -0.35314977062E+03  0.16105396151E+04  0.25500000920E-02 0. -1.
       -2    1    3    3    0  502  0.14857774950E+04 -0.51145706228E+03 -0.52162695337E+03  0.16556623357E+04  0.25500000920E-02 0.  1.
</event>
<event>
 5   0  0.1352708E-06  0.2923577E+04  0.7818609E-02  0.8265897E-01
        1   -1    0    0  501    0  0.00000000000E+00  0.00000000000E+00  0.12549789889E+04  0.12549789889E+04  0.50400001928E-02 0. -1.
       -1   -1    0    0    0  501  0.00000000000E+00  0.00000000000E+00 -0.17026787369E+04  0.17026787369E+04  0.50400001928E-02 0.  1.
    10030    2    1    2    0    0  0.00000000000E+00  0.00000000000E+00 -0.44769974800E+03  0.29576577258E+04  0.29235772880E+04 0.  0.
        5    1    3    3  502    0  0.41398698356E+03  0.14013021703E+04 -0.26642314722E+03  0.14852731663E+04  0.46999998093E+01 0. -1.
       -5    1    3    3    0  502 -0.41398698356E+03 -0.14013021703E+04 -0.18127660077E+03  0.14723845595E+04  0.46999998093E+01 0.  1.
</event>
<event>
 5   0  0.1339825E-06  0.3291985E+04  0.7818609E-02  0.8164938E-01
        1   -1    0    0  501    0  0.00000000000E+00  0.00000000000E+00  0.16362941087E+04  0.16362941087E+04  0.50400001928E-02 0.  1.
       -1   -1    0    0    0  501  0.00000000000E+00  0.00000000000E+00 -0.16557486952E+04  0.16557486952E+04  0.50400001928E-02 0. -1.
    10030    2    1    2    0    0  0.00000000000E+00  0.00000000000E+00 -0.19454586517E+02  0.32920428039E+04  0.32919853192E+04 0.  0.
        3    1    3    3  502    0 -0.15853571503E+04 -0.22894433294E+03 -0.38857295544E+03  0.16482602202E+04  0.10100000352E+00 0. -1.
       -3    1    3    3    0  502  0.15853571503E+04  0.22894433294E+03  0.36911836892E+03  0.16437825836E+04  0.10100000352E+00 0.  1.
</event>
<event>
 5   0  0.1391878E-06  0.3271444E+04  0.7818609E-02  0.8170200E-01
       -1   -1    0    0    0  501  0.00000000000E+00  0.00000000000E+00  0.12196330090E+04  0.12196330090E+04  0.50400001928E-02 0. -1.
        1   -1    0    0  501    0  0.00000000000E+00  0.00000000000E+00 -0.21937636077E+04  0.21937636077E+04  0.50400001928E-02 0.  1.
    10030    2    1    2    0    0  0.00000000000E+00  0.00000000000E+00 -0.97413059869E+03  0.34133966168E+04  0.32714440298E+04 0.  0.
        2    1    3    3  502    0 -0.20281605738E+03 -0.86369138333E+03 -0.19209179693E+04  0.21158976827E+04  0.25500000920E-02 0.  1.
       -2    1    3    3    0  502  0.20281605738E+03  0.86369138333E+03  0.94678737062E+03  0.12974989341E+04  0.25500000920E-02 0. -1.
</event>
<event>
 5   0  0.3671997E-06  0.2522903E+04  0.7818609E-02  0.8394871E-01
       -2   -1    0    0    0  501  0.00000000000E+00  0.00000000000E+00  0.15815088729E+04  0.15815088729E+04  0.25500000920E-02 0.  1.
        2   -1    0    0  501    0  0.00000000000E+00  0.00000000000E+00 -0.10061659486E+04  0.10061659487E+04  0.25500000920E-02 0. -1.
    10030    2    1    2    0    0  0.00000000000E+00  0.00000000000E+00  0.57534292422E+03  0.25876748215E+04  0.25229033873E+04 0.  0.
        2    1    3    3  502    0  0.71413206650E+03 -0.23077259999E+03  0.13276151290E+04  0.15250582061E+04  0.25500000920E-02 0.  1.
       -2    1    3    3    0  502 -0.71413206650E+03  0.23077259999E+03 -0.75227220475E+03  0.10626166154E+04  0.25500000920E-02 0. -1.
</event>
<event>
 5   0  0.3896210E-06  0.3234745E+04  0.7818609E-02  0.8179701E-01
       -2   -1    0    0    0  501  0.00000000000E+00  0.00000000000E+00  0.20162636452E+04  0.20162636452E+04  0.25500000920E-02 0.  1.
        2   -1    0    0  501    0  0.00000000000E+00  0.00000000000E+00 -0.12973970478E+04  0.12973970478E+04  0.25500000920E-02 0. -1.
    10030    2    1    2    0    0  0.00000000000E+00  0.00000000000E+00  0.71886659744E+03  0.33136606930E+04  0.32347454310E+04 0.  0.
        3    1    3    3  502    0 -0.69839608496E+03 -0.10969909076E+04 -0.62566531986E+03  0.14431227410E+04  0.10100000352E+00 0. -1.
       -3    1    3    3    0  502  0.69839608496E+03  0.10969909076E+04  0.13445319173E+04  0.18705379520E+04  0.10100000352E+00 0.  1.
</event>
<event>
 5   0  0.1352708E-06  0.3378112E+04  0.7818609E-02  0.8143299E-01
        1   -1    0    0  501    0  0.00000000000E+00  0.00000000000E+00  0.14866267805E+04  0.14866267805E+04  0.50400001928E-02 0. -1.
       -1   -1    0    0    0  501  0.00000000000E+00  0.00000000000E+00 -0.19190494874E+04  0.19190494874E+04  0.50400001928E-02 0.  1.
    10030    2    1    2    0    0  0.00000000000E+00  0.00000000000E+00 -0.43242270696E+03  0.34056762679E+04  0.33781121124E+04 0.  0.
        5    1    3    3  502    0 -0.18855916350E+03 -0.44386687328E+03  0.14157359509E+04  0.14956278722E+04  0.46999998093E+01 0. -1.
       -5    1    3    3    0  502  0.18855916350E+03  0.44386687328E+03 -0.18481586579E+04  0.19100483957E+04  0.46999998093E+01 0.  1.
</event>
<event>
 5   0  0.1405389E-06  0.3298602E+04  0.7818609E-02  0.8163251E-01
       -1   -1    0    0    0  501  0.00000000000E+00  0.00000000000E+00  0.98505903055E+03  0.98505903056E+03  0.50400001928E-02 0.  1.
        1   -1    0    0  501    0  0.00000000000E+00  0.00000000000E+00 -0.27614517892E+04  0.27614517892E+04  0.50400001928E-02 0. -1.
    10030    2    1    2    0    0  0.00000000000E+00  0.00000000000E+00 -0.17763927587E+04  0.37465108198E+04  0.32986015354E+04 0.  0.
        1    1    3    3  502    0  0.34142297786E+03 -0.13219823461E+04  0.16262881720E+03  0.13750109474E+04  0.50400001928E-02 0. -1.
       -1    1    3    3    0  502 -0.34142297786E+03  0.13219823461E+04 -0.19390215759E+04  0.23714998724E+04  0.50400001928E-02 0.  1.
</event>
<event>
 5   0  0.1339825E-06  0.3250359E+04  0.7818609E-02  0.8175643E-01
        1   -1    0    0  501    0  0.00000000000E+00  0.00000000000E+00  0.26929030854E+04  0.26929030855E+04  0.50400001928E-02 0. -1.
       -1   -1    0    0    0  501  0.00000000000E+00  0.00000000000E+00 -0.98080325176E+03  0.98080325177E+03  0.50400001928E-02 0.  1.
    10030    2    1    2    0    0  0.00000000000E+00  0.00000000000E+00  0.17120998337E+04  0.36737063372E+04  0.32503588128E+04 0.  0.
        3    1    3    3  502    0  0.68508482604E+03 -0.94452401301E+03 -0.42254866337E+03  0.12409730912E+04  0.10100000352E+00 0.  1.
       -3    1    3    3    0  502 -0.68508482604E+03  0.94452401301E+03  0.21346484971E+04  0.24327332460E+04  0.10100000352E+00 0. -1.
</event>
<event>
 5   0  0.3812379E-06  0.3185520E+04  0.7818609E-02  0.8192652E-01
       -2   -1    0    0    0  501  0.00000000000E+00  0.00000000000E+00  0.16228221081E+04  0.16228221081E+04  0.25500000920E-02 0. -1.
        2   -1    0    0  501    0  0.00000000000E+00  0.00000000000E+00 -0.15632549050E+04  0.15632549050E+04  0.25500000920E-02 0.  1.
    10030    2    1    2    0    0  0.00000000000E+00  0.00000000000E+00  0.59567203139E+02  0.31860770131E+04  0.31855201273E+04 0.  0.
        5    1    3    3  502    0  0.25428828775E+03 -0.90766941444E+03  0.13138835193E+04  0.16170461625E+04  0.46999998093E+01 0. -1.
       -5    1    3    3    0  502 -0.25428828775E+03  0.90766941444E+03 -0.12543163162E+04  0.15690308506E+04  0.46999998093E+01 0.  1.
</event>
<event>
 5   0  0.1259875E-06  0.3164855E+04  0.7818609E-02  0.8198161E-01
        3   -1    0    0  501    0  0.00000000000E+00  0.00000000000E+00  0.15980567269E+04  0.15980567301E+04  0.10100000352E+00 0. -1.
       -3   -1    0    0    0  501  0.00000000000E+00  0.00000000000E+00 -0.15669515375E+04  0.15669515408E+04  0.10100000352E+00 0.  1.
    10030    2    1    2    0    0  0.00000000000E+00  0.00000000000E+00  0.31105189367E+02  0.31650082709E+04  0.31648554188E+04 0.  0.
        5    1    3    3  502    0 -0.12113052721E+04  0.34195514549E+03 -0.94358787277E+03  0.15730778581E+04  0.46999998093E+01 0.  1.
       -5    1    3    3    0  502  0.12113052721E+04 -0.34195514549E+03  0.97469306214E+03  0.15919304128E+04  0.46999998093E+01 0. -1.
</event>
<event>
 5   0  0.3671997E-06  0.2926314E+04  0.7818609E-02  0.8265091E-01
        2   -1    0    0  501    0  0.00000000000E+00  0.00000000000E+00  0.16805998961E+04  0.16805998961E+04  0.25500000920E-02 0. -1.
       -2   -1    0    0    0  501  0.00000000000E+00  0.00000000000E+00 -0.12738473848E+04  0.12738473848E+04  0.25500000920E-02 0.  1.
    10030    2    1    2    0    0  0.00000000000E+00  0.00000000000E+00  0.40675251131E+03  0.29544472809E+04  0.29263135734E+04 0.  0.
        2    1    3    3  502    0 -0.10352221132E+04 -0.35285617918E+03  0.11846439674E+04  0.16123193345E+04  0.25500000920E-02 0. -1.
       -2    1    3    3    0  502  0.10352221132E+04  0.35285617918E+03 -0.77789145614E+03  0.13421279464E+04  0.25500000920E-02 0.  1.
</event>
<event>
 5   0  0.3671997E-06  0.3234221E+04  0.7818609E-02  0.8179838E-01
       -2   -1    0    0    0  501  0.00000000000E+00  0.00000000000E+00  0.19511757458E+04  0.19511757458E+04  0.25500000920E-02 0. -1.
        2   -1    0    0  501    0  0.00000000000E+00  0.00000000000E+00 -0.13402409254E+04  0.13402409254E+04  0.25500000920E-02 0.  1.
    10030    2    1    2    0    0  0.00000000000E+00  0.00000000000E+00  0.61093482034E+03  0.32914166712E+04  0.32342205164E+04 0.  0.
        2    1    3    3  502    0  0.99455634352E+03 -0.70961618139E+03 -0.77267724123E+03  0.14455890026E+04  0.25500000920E-02 0.  1.
       -2    1    3    3    0  502 -0.99455634352E+03  0.70961618139E+03  0.13836120616E+04  0.18458276686E+04  0.25500000920E-02 0. -1.
</event>
<event>
 5   0  0.3812379E-06  0.3298653E+04  0.7818609E-02  0.8163238E-01
        2   -1    0    0  501    0  0.00000000000E+00  0.00000000000E+00  0.25056835494E+04  0.25056835494E+04  0.25500000920E-02 0.  1.
       -2   -1    0    0    0  501  0.00000000000E+00  0.00000000000E+00 -0.10856430975E+04  0.10856430975E+04  0.25500000920E-02 0. -1.
    10030    2    1    2    0    0  0.00000000000E+00  0.00000000000E+00  0.14200404519E+04  0.35913266469E+04  0.32986530887E+04 0.  0.
        5    1    3    3  502    0 -0.41314362555E+03 -0.14419460295E+04  0.14566983586E+04  0.20909060727E+04  0.46999998093E+01 0.  1.
       -5    1    3    3    0  502  0.41314362555E+03  0.14419460295E+04 -0.36657906619E+02  0.15004205741E+04  0.46999998093E+01 0. -1.
</event>
<event>
 5   0  0.4017247E-06  0.3112984E+04  0.7818609E-02  0.8212184E-01
        2   -1    0    0  501    0  0.00000000000E+00  0.00000000000E+00  0.18235131049E+04  0.18235131049E+04  0.25500000920E-02 0.  1.
       -2   -1    0    0    0  501  0.00000000000E+00  0.00000000000E+00 -0.13285711236E+04  0.13285711236E+04  0.25500000920E-02 0. -1.
    10030    2    1    2    0    0  0.00000000000E+00  0.00000000000E+00  0.49494198126E+03  0.31520842285E+04  0.31129836843E+04 0.  0.
        1    1    3    3  502    0 -0.59290427402E+03  0.13877661933E+04  0.63335666948E+03  0.16366340936E+04  0.50400001928E-02 0.  1.
       -1    1    3    3    0  502  0.59290427402E+03 -0.13877661933E+04 -0.13841468823E+03  0.15154501349E+04  0.50400001928E-02 0. -1.
</event>
<event>
 5   0  0.3671997E-06  0.3232167E+04  0.7818609E-02  0.8180373E-01
        2   -1    0    0  501    0  0.00000000000E+00  0.00000000000E+00  0.27431128109E+04  0.27431128109E+04  0.25500000920E-02 0. -1.
       -2   -1    0    0    0  501  0.00000000000E+00  0.00000000000E+00 -0.95210291321E+03  0.95210291321E+03  0.25500000920E-02 0.  1.
    10030    2    1    2    0    0  0.00000000000E+00  0.00000000000E+00  0.17910098976E+04  0.36952157241E+04  0.32321668883E+04 0.  0.
        2    1    3    3  502    0 -0.84738199790E+03  0.19178653079E+03 -0.66239227039E+03  0.10925208665E+04  0.25500000920E-02 0.  1.
       -2    1    3    3    0  502  0.84738199790E+03 -0.19178653079E+03  0.24534021680E+04  0.26026948576E+04  0.25500000920E-02 0. -1.
</event>
<event>
 5   0  0.4017247E-06  0.3257102E+04  0.7818609E-02  0.8173897E-01
        2   -1    0    0  501    0  0.00000000000E+00  0.00000000000E+00  0.10188600302E+04  0.10188600302E+04  0.25500000920E-02 0. -1.
       -2   -1    0    0    0  501  0.00000000000E+00  0.00000000000E+00 -0.26030839004E+04  0.26030839004E+04  0.25500000920E-02 0.  1.
    10030    2    1    2    0    0  0.00000000000E+00  0.00000000000E+00 -0.15842238701E+04  0.36219439306E+04  0.32571018660E+04 0.  0.
        1    1    3    3  502    0 -0.78871939851E+03  0.33824859665E+03 -0.23312328555E+04  0.24841773346E+04  0.50400001928E-02 0.  1.
       -1    1    3    3    0  502  0.78871939851E+03 -0.33824859665E+03  0.74700898543E+03  0.11377665960E+04  0.50400001928E-02 0. -1.
</event>
<event>
 5   0  0.1282578E-06  0.3294363E+04  0.7818609E-02  0.8164331E-01
        1   -1    0    0  501    0  0.00000000000E+00  0.00000000000E+00  0.20662656135E+04  0.20662656135E+04  0.50400001928E-02 0. -1.
       -1   -1    0    0    0  501  0.00000000000E+00  0.00000000000E+00 -0.13130971704E+04  0.13130971705E+04  0.50400001928E-02 0.  1.
    10030    2    1    2    0    0  0.00000000000E+00  0.00000000000E+00  0.75316844303E+03  0.33793627839E+04  0.32943633864E+04 0.  0.
        4    1    3    3  502    0  0.13620230400E+04  0.70454524661E+03  0.99352952846E+03  0.18271817925E+04  0.12699999809E+01 0.  1.
       -4    1    3    3    0  502 -0.13620230400E+04 -0.70454524661E+03 -0.24036108542E+03  0.15521809915E+04  0.12699999809E+01 0. -1.
</event>
<event>
 5   0  0.1282578E-06  0.3322275E+04  0.7818609E-02  0.8157251E-01
       -1   -1    0    0    0  501  0.00000000000E+00  0.00000000000E+00  0.13204771790E+04  0.13204771790E+04  0.50400001928E-02 0.  1.
        1   -1    0    0  501    0  0.00000000000E+00  0.00000000000E+00 -0.20896817778E+04  0.20896817778E+04  0.50400001928E-02 0. -1.
    10030    2    1    2    0    0  0.00000000000E+00  0.00000000000E+00 -0.76920459882E+03  0.34101589568E+04  0.33222745816E+04 0.  0.
        4    1    3    3  502    0 -0.14829738785E+04 -0.50790663664E+03 -0.94886663355E+03  0.18323564547E+04  0.12699999809E+01 0. -1.
       -4    1    3    3    0  502  0.14829738785E+04  0.50790663664E+03  0.17966203473E+03  0.15778025021E+04  0.12699999809E+01 0.  1.
</event>
<event>
 5   0  0.1282578E-06  0.3559998E+04  0.7818609E-02  0.8099716E-01
       -1   -1    0    0    0  501  0.00000000000E+00  0.00000000000E+00  0.18439787495E+04  0.18439787495E+04  0.50400001928E-02 0.  1.
        1   -1    0    0  501    0  0.00000000000E+00  0.00000000000E+00 -0.17182394056E+04  0.17182394056E+04  0.50400001928E-02 0. -1.
    10030    2    1    2    0    0  0.00000000000E+00  0.00000000000E+00  0.12573934392E+03  0.35622181551E+04  0.35599982868E+04 0.  0.
        4    1    3    3  502    0  0.79392507504E+03 -0.40286771540E+03  0.16051860184E+04  0.18355498325E+04  0.12699999809E+01 0.  1.
       -4    1    3    3    0  502 -0.79392507504E+03  0.40286771540E+03 -0.14794466745E+04  0.17266683226E+04  0.12699999809E+01 0. -1.
</event>
<event>
 5   0  0.3920487E-06  0.3322669E+04  0.7818609E-02  0.8157151E-01
        2   -1    0    0  501    0  0.00000000000E+00  0.00000000000E+00  0.17777387244E+04  0.17777387244E+04  0.25500000920E-02 0. -1.
       -2   -1    0    0    0  501  0.00000000000E+00  0.00000000000E+00 -0.15525527338E+04  0.15525527339E+04  0.25500000920E-02 0.  1.
    10030    2    1    2    0    0  0.00000000000E+00  0.00000000000E+00  0.22518599052E+03  0.33302914582E+04  0.33226694790E+04 0.  0.
        4    1    3    3  502    0  0.40035316966E+03  0.15623648925E+04 -0.28677401988E+03  0.16381415290E+04  0.12699999809E+01 0.  1.
       -4    1    3    3    0  502 -0.40035316966E+03 -0.15623648925E+04  0.51196001039E+03  0.16921499292E+04  0.12699999809E+01 0. -1.
</event>
<event>
 5   0  0.1352708E-06  0.2568577E+04  0.7818609E-02  0.8378954E-01
        1   -1    0    0  501    0  0.00000000000E+00  0.00000000000E+00  0.18477334980E+04  0.18477334980E+04  0.50400001928E-02 0.  1.
       -1   -1    0    0    0  501  0.00000000000E+00  0.00000000000E+00 -0.89265948264E+03  0.89265948266E+03  0.50400001928E-02 0. -1.
    10030    2    1    2    0    0  0.00000000000E+00  0.00000000000E+00  0.95507401535E+03  0.27403929807E+04  0.25685769044E+04 0.  0.
        5    1    3    3  502    0 -0.40444280664E+03  0.79293696909E+03  0.14652341290E+04  0.17144258991E+04  0.46999998093E+01 0.  1.
       -5    1    3    3    0  502  0.40444280664E+03 -0.79293696909E+03 -0.51016011367E+03  0.10259670815E+04  0.46999998093E+01 0. -1.
</event>
<event>
 5   0  0.1391878E-06  0.3005888E+04  0.7818609E-02  0.8242051E-01
       -1   -1    0    0    0  501  0.00000000000E+00  0.00000000000E+00  0.10495956806E+04  0.10495956806E+04  0.50400001928E-02 0. -1.
        1   -1    0    0  501    0  0.00000000000E+00  0.00000000000E+00 -0.21521060650E+04  0.21521060650E+04  0.50400001928E-02 0.  1.
    10030    2    1    2    0    0  0.00000000000E+00  0.00000000000E+00 -0.11025103844E+04  0.32017017456E+04  0.30058883745E+04 0.  0.
        2    1    3    3  502    0  0.12684497529E+04 -0.17203559572E+03 -0.13901393367E+04  0.18897217777E+04  0.25500000920E-02 0.  1.
       -2    1    3    3    0  502 -0.12684497529E+04  0.17203559572E+03  0.28762895226E+03  0.13119799678E+04  0.25500000920E-02 0. -1.
</event>
<event>
 5   0  0.1282578E-06  0.3306318E+04  0.7818609E-02  0.8161290E-01
       -1   -1    0    0    0  501  0.00000000000E+00  0.00000000000E+00  0.13739192899E+04  0.13739192899E+04  0.50400001928E-02 0. -1.
        1   -1    0    0  501    0  0.00000000000E+00  0.00000000000E+00 -0.19891527798E+04  0.19891527798E+04  0.50400001928E-02 0.  1.
    10030    2    1    2    0    0  0.00000000000E+00  0.00000000000E+00 -0.61523348985E+03  0.33630720697E+04  0.33063184207E+04 0.  0.
        4    1    3    3  502    0  0.14113381517E+03 -0.13289844786E+04 -0.12973635826E+04  0.18625982864E+04  0.12699999809E+01 0.  1.
       -4    1    3    3    0  502 -0.14113381517E+03  0.13289844786E+04  0.68213009272E+03  0.15004737833E+04  0.12699999809E+01 0. -1.
</event>
<event>
 5   0  0.1282578E-06  0.3388688E+04  0.7818609E-02  0.8140688E-01
        1   -1    0    0  501    0  0.00000000000E+00  0.00000000000E+00  0.19388057415E+04  0.19388057415E+04  0.50400001928E-02 0. -1.
       -1   -1    0    0    0  501  0.00000000000E+00  0.00000000000E+00 -0.14807064705E+04  0.14807064705E+04  0.50400001928E-02 0.  1.
    10030    2    1    2    0    0  0.00000000000E+00  0.00000000000E+00  0.45809927104E+03  0.34195122120E+04  0.33886883636E+04 0.  0.
        4    1    3    3  502    0  0.50348503144E+03 -0.32378062984E+03 -0.13704455186E+04  0.14954777181E+04  0.12699999809E+01 0.  1.
       -4    1    3    3    0  502 -0.50348503144E+03  0.32378062984E+03  0.18285447896E+04  0.19240344939E+04  0.12699999809E+01 0. -1.
</event>
<event>
 5   0  0.3896210E-06  0.3287293E+04  0.7818609E-02  0.8166136E-01
        2   -1    0    0  501    0  0.00000000000E+00  0.00000000000E+00  0.22801808876E+04  0.22801808876E+04  0.25500000920E-02 0.  1.
       -2   -1    0    0    0  501  0.00000000000E+00  0.00000000000E+00 -0.11848067868E+04  0.11848067868E+04  0.25500000920E-02 0. -1.
    10030    2    1    2    0    0  0.00000000000E+00  0.00000000000E+00  0.10953741008E+04  0.34649876744E+04  0.32872929840E+04 0.  0.
        3    1    3    3  502    0  0.20233454034E+03  0.11241044509E+04 -0.69816126074E+03  0.13386482880E+04  0.10100000352E+00 0. -1.
       -3    1    3    3    0  502 -0.20233454034E+03 -0.11241044509E+04  0.17935353615E+04  0.21263393864E+04  0.10100000352E+00 0.  1.
</event>
<event>
 5   0  0.1391878E-06  0.3505309E+04  0.7818609E-02  0.8112533E-01
       -1   -1    0    0    0  501  0.00000000000E+00  0.00000000000E+00  0.15667112393E+04  0.15667112393E+04  0.50400001928E-02 0. -1.
        1   -1    0    0  501    0  0.00000000000E+00  0.00000000000E+00 -0.19606665118E+04  0.19606665118E+04  0.50400001928E-02 0.  1.
    10030    2    1    2    0    0  0.00000000000E+00  0.00000000000E+00 -0.39395527247E+03  0.35273777512E+04  0.35053092649E+04 0.  0.
        2    1    3    3  502    0  0.23164906816E+03 -0.16839951069E+04 -0.62662873549E+03  0.18116744694E+04  0.25500000920E-02 0. -1.
       -2    1    3    3    0  502 -0.23164906816E+03  0.16839951069E+04  0.23267346302E+03  0.17157032818E+04  0.25500000920E-02 0.  1.
</event>
<event>
 5   0  0.3896210E-06  0.3341925E+04  0.7818609E-02  0.8152309E-01
        2   -1    0    0  501    0  0.00000000000E+00  0.00000000000E+00  0.21901517628E+04  0.21901517628E+04  0.25500000920E-02 0. -1.
       -2   -1    0    0    0  501  0.00000000000E+00  0.00000000000E+00 -0.12748504765E+04  0.12748504765E+04  0.25500000920E-02 0.  1.
    10030    2    1    2    0    0  0.00000000000E+00  0.00000000000E+00  0.91530128637E+03  0.34650022393E+04  0.33419252047E+04 0.  0.
        3    1    3    3  502    0  0.50955746192E+03  0.45479727804E+03 -0.11235128932E+04  0.13148272139E+04  0.10100000352E+00 0.  1.
       -3    1    3    3    0  502 -0.50955746192E+03 -0.45479727804E+03  0.20388141795E+04  0.21501750254E+04  0.10100000352E+00 0. -1.
</event>
<event>
 5   0  0.1352708E-06  0.3383976E+04  0.7818609E-02  0.8141850E-01
        1   -1    0    0  501    0  0.00000000000E+00  0.00000000000E+00  0.11976100099E+04  0.11976100099E+04  0.50400001928E-02 0. -1.
       -1   -1    0    0    0  501  0.00000000000E+00  0.00000000000E+00 -0.23904477611E+04  0.23904477611E+04  0.50400001928E-02 0.  1.
    10030    2    1    2    0    0  0.00000000000E+00  0.00000000000E+00 -0.11928377511E+04  0.35880577710E+04  0.33839764579E+04 0.  0.
        5    1    3    3  502    0  0.47713040791E+02 -0.64330213832E+03 -0.22549414272E+04  0.23453991356E+04  0.46999998093E+01 0.  1.
       -5    1    3    3    0  502 -0.47713040791E+02  0.64330213832E+03  0.10621036760E+04  0.12426586354E+04  0.46999998093E+01 0. -1.
</event>
<event>
 5   0  0.3896210E-06  0.3286934E+04  0.7818609E-02  0.8166228E-01
        2   -1    0    0  501    0  0.00000000000E+00  0.00000000000E+00  0.16231936212E+04  0.16231936212E+04  0.25500000920E-02 0.  1.
       -2   -1    0    0    0  501  0.00000000000E+00  0.00000000000E+00 -0.16639938294E+04  0.16639938294E+04  0.25500000920E-02 0. -1.
    10030    2    1    2    0    0  0.00000000000E+00  0.00000000000E+00 -0.40800208193E+02  0.32871874506E+04  0.32869342370E+04 0.  0.
        3    1    3    3  502    0  0.64760714520E+03  0.69423213777E+03 -0.13620066666E+04  0.16602455980E+04  0.10100000352E+00 0. -1.
       -3    1    3    3    0  502 -0.64760714520E+03 -0.69423213777E+03  0.13212064585E+04  0.16269418526E+04  0.10100000352E+00 0.  1.
</event>
<event>
 5   0  0.1339825E-06  0.3336526E+04  0.7818609E-02  0.8153663E-01
        1   -1    0    0  501    0  0.00000000000E+00  0.00000000000E+00  0.15422424849E+04  0.15422424849E+04  0.50400001928E-02 0. -1.
       -1   -1    0    0    0  501  0.00000000000E+00  0.00000000000E+00 -0.18045813756E+04  0.18045813756E+04  0.50400001928E-02 0.  1.
    10030    2    1    2    0    0  0.00000000000E+00  0.00000000000E+00 -0.26233889074E+03  0.33468238605E+04  0.33365263762E+04 0.  0.
        3    1    3    3  502    0  0.15854823760E+04  0.24866583650E+03 -0.58811129989E+03  0.17092290584E+04  0.10100000352E+00 0.  1.
       -3    1    3    3    0  502 -0.15854823760E+04 -0.24866583650E+03  0.32577240915E+03  0.16375948020E+04  0.10100000352E+00 0. -1.
</event>
<event>
 5   0  0.1352708E-06  0.3364139E+04  0.7818609E-02  0.8146764E-01
        1   -1    0    0  501    0  0.00000000000E+00  0.00000000000E+00  0.19874678887E+04  0.19874678887E+04  0.50400001928E-02 0. -1.
       -1   -1    0    0    0  501  0.00000000000E+00  0.00000000000E+00 -0.14235993198E+04  0.14235993198E+04  0.50400001928E-02 0.  1.
    10030    2    1    2    0    0  0.00000000000E+00  0.00000000000E+00  0.56386856887E+03  0.34110672085E+04  0.33641390782E+04 0.  0.
        5    1    3    3  502    0 -0.14415435537E+04  0.80831127499E+03  0.59922258213E+03  0.17579831420E+04  0.46999998093E+01 0.  1.
       -5    1    3    3    0  502  0.14415435537E+04 -0.80831127499E+03 -0.35354013263E+02  0.16530840665E+04  0.46999998093E+01 0. -1.
</event>
<event>
 5   0  0.3812379E-06  0.3302707E+04  0.7818609E-02  0.8162207E-01
        2   -1    0    0  501    0  0.00000000000E+00  0.00000000000E+00  0.11125394793E+04  0.11125394793E+04  0.25500000920E-02 0.  1.
       -2   -1    0    0    0  501  0.00000000000E+00  0.00000000000E+00 -0.24511201990E+04  0.24511201990E+04  0.25500000920E-02 0. -1.
    10030    2    1    2    0    0  0.00000000000E+00  0.00000000000E+00 -0.13385807197E+04  0.35636596783E+04  0.33027067626E+04 0.  0.
        5    1    3    3  502    0 -0.12453381938E+04  0.78268955069E+03  0.14067010820E+03  0.14775927447E+04  0.46999998093E+01 0. -1.
       -5    1    3    3    0  502  0.12453381938E+04 -0.78268955069E+03 -0.14792508279E+04  0.20860669337E+04  0.46999998093E+01 0.  1.
</event>
<event>
 5   0  0.1339825E-06  0.3026631E+04  0.7818609E-02  0.8236167E-01
       -1   -1    0    0    0  501  0.00000000000E+00  0.00000000000E+00  0.14563699105E+04  0.14563699105E+04  0.50400001928E-02 0. -1.
        1   -1    0    0  501    0  0.00000000000E+00  0.00000000000E+00 -0.15724881653E+04  0.15724881653E+04  0.50400001928E-02 0.  1.
    10030    2    1    2    0    0  0.00000000000E+00  0.00000000000E+00 -0.11611825482E+03  0.30288580758E+04  0.30266314268E+04 0.  0.
        3    1    3    3  502    0  0.10139877869E+04 -0.35470891181E+01 -0.11822468744E+04  0.15575273660E+04  0.10100000352E+00 0.  1.
       -3    1    3    3    0  502 -0.10139877869E+04  0.35470891181E+01  0.10661286195E+04  0.14713307097E+04  0.10100000352E+00 0. -1.
</event>
<event>
 5   0  0.1391878E-06  0.3330914E+04  0.7818609E-02  0.8155073E-01
        1   -1    0    0  501    0  0.00000000000E+00  0.00000000000E+00  0.26573875456E+04  0.26573875456E+04  0.50400001928E-02 0. -1.
       -1   -1    0    0    0  501  0.00000000000E+00  0.00000000000E+00 -0.10437873690E+04  0.10437873690E+04  0.50400001928E-02 0.  1.
    10030    2    1    2    0    0  0.00000000000E+00  0.00000000000E+00  0.16136001767E+04  0.37011749146E+04  0.33309143217E+04 0.  0.
        2    1    3    3  502    0  0.11980390968E+04  0.11183263032E+04  0.11360410797E+04  0.19941265588E+04  0.25500000920E-02 0.  1.
       -2    1    3    3    0  502 -0.11980390968E+04 -0.11183263032E+04  0.47755909699E+03  0.17070483558E+04  0.25500000920E-02 0. -1.
</event>
<event>
 5   0  0.3671997E-06  0.3269930E+04  0.7818609E-02  0.8170589E-01
       -2   -1    0    0    0  501  0.00000000000E+00  0.00000000000E+00  0.17352700042E+04  0.17352700042E+04  0.25500000920E-02 0.  1.
        2   -1    0    0  501    0  0.00000000000E+00  0.00000000000E+00 -0.15404575921E+04  0.15404575921E+04  0.25500000920E-02 0. -1.
    10030    2    1    2    0    0  0.00000000000E+00  0.00000000000E+00  0.19481241209E+03  0.32757275963E+04  0.32699295726E+04 0.  0.
        2    1    3    3  502    0 -0.11147111801E+03 -0.14570728986E+03 -0.15301139740E+04  0.15410727425E+04  0.25500000920E-02 0. -1.
       -2    1    3    3    0  502  0.11147111801E+03  0.14570728986E+03  0.17249263861E+04  0.17346548538E+04  0.25500000920E-02 0.  1.
</event>
<event>
 5   0  0.3671997E-06  0.3196275E+04  0.7818609E-02  0.8189802E-01
       -2   -1    0    0    0  501  0.00000000000E+00  0.00000000000E+00  0.13614682379E+04  0.13614682379E+04  0.25500000920E-02 0. -1.
        2   -1    0    0  501    0  0.00000000000E+00  0.00000000000E+00 -0.18759473601E+04  0.18759473601E+04  0.25500000920E-02 0.  1.
    10030    2    1    2    0    0  0.00000000000E+00  0.00000000000E+00 -0.51447912224E+03  0.32374155980E+04  0.31962745481E+04 0.  0.
        2    1    3    3  502    0  0.10403399030E+04 -0.11272615116E+04 -0.71135984290E+03  0.16908750561E+04  0.25500000920E-02 0. -1.
       -2    1    3    3    0  502 -0.10403399030E+04  0.11272615116E+04  0.19688072066E+03  0.15465405418E+04  0.25500000920E-02 0.  1.
</event>
<event>
 5   0  0.3920487E-06  0.3374632E+04  0.7818609E-02  0.8144161E-01
       -2   -1    0    0    0  501  0.00000000000E+00  0.00000000000E+00  0.12966587004E+04  0.12966587004E+04  0.25500000920E-02 0. -1.
        2   -1    0    0  501    0  0.00000000000E+00  0.00000000000E+00 -0.21956703448E+04  0.21956703448E+04  0.25500000920E-02 0.  1.
    10030    2    1    2    0    0  0.00000000000E+00  0.00000000000E+00 -0.89901164438E+03  0.34923290453E+04  0.33746318649E+04 0.  0.
        4    1    3    3  502    0 -0.12187029082E+04  0.43776796373E+02  0.75730469735E+03  0.14355017255E+04  0.12699999809E+01 0. -1.
       -4    1    3    3    0  502  0.12187029082E+04 -0.43776796373E+02 -0.16563163417E+04  0.20568273197E+04  0.12699999809E+01 0.  1.
</event>
<event>
 5   0  0.4017247E-06  0.3271048E+04  0.7818609E-02  0.8170301E-01
        2   -1    0    0  501    0  0.00000000000E+00  0.00000000000E+00  0.26499160958E+04  0.26499160958E+04  0.25500000920E-02 0.  1.
       -2   -1    0    0    0  501  0.00000000000E+00  0.00000000000E+00 -0.10094430879E+04  0.10094430879E+04  0.25500000920E-02 0. -1.
    10030    2    1    2    0    0  0.00000000000E+00  0.00000000000E+00  0.16404730079E+04  0.36593591838E+04  0.32710484475E+04 0.  0.
        1    1    3    3  502    0  0.12321010460E+04  0.33107468723E+03  0.19650757322E+04  0.23429054760E+04  0.50400001928E-02 0. -1.
       -1    1    3    3    0  502 -0.12321010460E+04 -0.33107468723E+03 -0.32460272431E+03  0.13164537078E+04  0.50400001928E-02 0.  1.
</event>
<event>
 5   0  0.1259875E-06  0.3293494E+04  0.7818609E-02  0.8164553E-01
       -4   -1    0    0    0  501  0.00000000000E+00  0.00000000000E+00  0.12566844583E+04  0.12566851000E+04  0.12699999809E+01 0. -1.
        4   -1    0    0  501    0  0.00000000000E+00  0.00000000000E+00 -0.21578794880E+04  0.21578798618E+04  0.12699999809E+01 0.  1.
    10030    2    1    2    0    0  0.00000000000E+00  0.00000000000E+00 -0.90119502973E+03  0.34145649618E+04  0.32934937979E+04 0.  0.
        1    1    3    3  502    0  0.66360225958E+02 -0.94885287430E+03 -0.18442792274E+04  0.20751123645E+04  0.50400001928E-02 0.  1.
       -1    1    3    3    0  502 -0.66360225958E+02  0.94885287430E+03  0.94308419764E+03  0.13394525973E+04  0.50400001928E-02 0. -1.
</event>
<event>
 5   0  0.3671997E-06  0.3192750E+04  0.7818609E-02  0.8190734E-01
       -2   -1    0    0    0  501  0.00000000000E+00  0.00000000000E+00  0.14325726760E+04  0.14325726760E+04  0.25500000920E-02 0. -1.
        2   -1    0    0  501    0  0.00000000000E+00  0.00000000000E+00 -0.17789070301E+04  0.17789070301E+04  0.25500000920E-02 0.  1.
    10030    2    1    2    0    0  0.00000000000E+00  0.00000000000E+00 -0.34633435416E+03  0.32114797061E+04  0.31927502906E+04 0.  0.
        2    1    3    3  502    0 -0.21235736508E+03 -0.14938533348E+04 -0.69749290231E+03  0.16622845079E+04  0.25500000920E-02 0.  1.
       -2    1    3    3    0  502  0.21235736508E+03  0.14938533348E+04  0.35115854815E+03  0.15491951983E+04  0.25500000920E-02 0. -1.
</event>
<event>
 5   0  0.3896210E-06  0.2894733E+04  0.7818609E-02  0.8274446E-01
       -2   -1    0    0    0  501  0.00000000000E+00  0.00000000000E+00  0.11736501005E+04  0.11736501005E+04  0.25500000920E-02 0.  1.
        2   -1    0    0  501    0  0.00000000000E+00  0.00000000000E+00 -0.17849185853E+04  0.17849185853E+04  0.25500000920E-02 0. -1.
    10030    2    1    2    0    0  0.00000000000E+00  0.00000000000E+00 -0.61126848479E+03  0.29585686858E+04  0.28947330633E+04 0.  0.
        3    1    3    3  502    0  0.14006868792E+04  0.24867523017E+03 -0.33095285736E+02  0.14229751972E+04  0.10100000352E+00 0.  1.
       -3    1    3    3    0  502 -0.14006868792E+04 -0.24867523017E+03 -0.57817319905E+03  0.15355934886E+04  0.10100000352E+00 0. -1.
</event>
<event>
 5   0  0.1339825E-06  0.3319876E+04  0.7818609E-02  0.8157856E-01
        1   -1    0    0  501    0  0.00000000000E+00  0.00000000000E+00  0.18681566538E+04  0.18681566538E+04  0.50400001928E-02 0.  1.
       -1   -1    0    0    0  501  0.00000000000E+00  0.00000000000E+00 -0.14749265564E+04  0.14749265564E+04  0.50400001928E-02 0. -1.
    10030    2    1    2    0    0  0.00000000000E+00  0.00000000000E+00  0.39323009734E+03  0.33430832102E+04  0.33198758171E+04 0.  0.
        3    1    3    3  502    0  0.13875073140E+04  0.76867529697E+03  0.68927486010E+03  0.17294907058E+04  0.10100000352E+00 0.  1.
       -3    1    3    3    0  502 -0.13875073140E+04 -0.76867529697E+03 -0.29604476275E+03  0.16135925044E+04  0.10100000352E+00 0. -1.
</event>
<event>
 5   0  0.3812379E-06  0.3287978E+04  0.7818609E-02  0.8165961E-01
       -2   -1    0    0    0  501  0.00000000000E+00  0.00000000000E+00  0.11170931674E+04  0.11170931674E+04  0.25500000920E-02 0. -1.
        2   -1    0    0  501    0  0.00000000000E+00  0.00000000000E+00 -0.24194043623E+04  0.24194043623E+04  0.25500000920E-02 0.  1.
    10030    2    1    2    0    0  0.00000000000E+00  0.00000000000E+00 -0.13023111949E+04  0.35364975298E+04  0.32879781522E+04 0.  0.
        5    1    3    3  502    0 -0.10521192533E+04 -0.63918798499E+03 -0.18230794421E+04  0.21998083884E+04  0.46999998093E+01 0.  1.
       -5    1    3    3    0  502  0.10521192533E+04  0.63918798499E+03  0.52076824721E+03  0.13366891414E+04  0.46999998093E+01 0. -1.
</event>
<event>
 5   0  0.1282578E-06  0.2451580E+04  0.7818609E-02  0.8420441E-01
        1   -1    0    0  501    0  0.00000000000E+00  0.00000000000E+00  0.18943294774E+04  0.18943294774E+04  0.50400001928E-02 0. -1.
       -1   -1    0    0    0  501  0.00000000000E+00  0.00000000000E+00 -0.79318916981E+03  0.79318916983E+03  0.50400001928E-02 0.  1.
    10030    2    1    2    0    0  0.00000000000E+00  0.00000000000E+00  0.11011403076E+04  0.26875186472E+04  0.24515804091E+04 0.  0.
        4    1    3    3  502    0 -0.68622122720E+03  0.35082928551E+03 -0.49435877264E+03  0.91562709070E+03  0.12699999809E+01 0.  1.
       -4    1    3    3    0  502  0.68622122720E+03 -0.35082928551E+03  0.15954990802E+04  0.17718915565E+04  0.12699999809E+01 0. -1.
</event>
<event>
 5   0  0.4017247E-06  0.2136292E+04  0.7818609E-02  0.8545423E-01
       -2   -1    0    0    0  501  0.00000000000E+00  0.00000000000E+00  0.15048969836E+04  0.15048969837E+04  0.25500000920E-02 0.  1.
        2   -1    0    0  501    0  0.00000000000E+00  0.00000000000E+00 -0.75814862335E+03  0.75814862336E+03  0.25500000920E-02 0. -1.
    10030    2    1    2    0    0  0.00000000000E+00  0.00000000000E+00  0.74674836030E+03  0.22630456070E+04  0.21362917183E+04 0.  0.
        1    1    3    3  502    0 -0.84396929288E+03  0.45465862988E+03  0.87242818577E+03  0.12961981239E+04  0.50400001928E-02 0.  1.
       -1    1    3    3    0  502  0.84396929288E+03 -0.45465862988E+03 -0.12567982547E+03  0.96684748311E+03  0.50400001928E-02 0. -1.
</event>
<event>
 5   0  0.3671997E-06  0.3257871E+04  0.7818609E-02  0.8173699E-01
        2   -1    0    0  501    0  0.00000000000E+00  0.00000000000E+00  0.19724221398E+04  0.19724221398E+04  0.25500000920E-02 0. -1.
       -2   -1    0    0    0  501  0.00000000000E+00  0.00000000000E+00 -0.13452653500E+04  0.13452653500E+04  0.25500000920E-02 0.  1.
    10030    2    1    2    0    0  0.00000000000E+00  0.00000000000E+00  0.62715678979E+03  0.33176874899E+04  0.32578711825E+04 0.  0.
        2    1    3    3  502    0  0.14789352537E+04 -0.37581917859E+03  0.89408108707E+03  0.17685786751E+04  0.25500000920E-02 0.  1.
       -2    1    3    3    0  502 -0.14789352537E+04  0.37581917859E+03 -0.26692429728E+03  0.15491088148E+04  0.25500000920E-02 0. -1.
</event>
<event>
 5   0  0.1352708E-06  0.2114894E+04  0.7818609E-02  0.8554711E-01
       -1   -1    0    0    0  501  0.00000000000E+00  0.00000000000E+00  0.54120819036E+03  0.54120819039E+03  0.50400001928E-02 0. -1.
        1   -1    0    0  501    0  0.00000000000E+00  0.00000000000E+00 -0.20661071392E+04  0.20661071392E+04  0.50400001928E-02 0.  1.
    10030    2    1    2    0    0  0.00000000000E+00  0.00000000000E+00 -0.15248989489E+04  0.26073153296E+04  0.21148939510E+04 0.  0.
        5    1    3    3  502    0 -0.18305129075E+03  0.49357791408E+03 -0.18930641055E+04  0.19649022189E+04  0.46999998093E+01 0.  1.
       -5    1    3    3    0  502  0.18305129075E+03 -0.49357791408E+03  0.36816515661E+03  0.64241311074E+03  0.46999998093E+01 0. -1.
</event>
<event>
 5   0  0.3671997E-06  0.3176385E+04  0.7818609E-02  0.8195082E-01
       -2   -1    0    0    0  501  0.00000000000E+00  0.00000000000E+00  0.13737744212E+04  0.13737744212E+04  0.25500000920E-02 0.  1.
        2   -1    0    0  501    0  0.00000000000E+00  0.00000000000E+00 -0.18360773237E+04  0.18360773238E+04  0.25500000920E-02 0. -1.
    10030    2    1    2    0    0  0.00000000000E+00  0.00000000000E+00 -0.46230290259E+03  0.32098517449E+04  0.31763854065E+04 0.  0.
        2    1    3    3  502    0 -0.71995544511E+03  0.14056295060E+04 -0.61375656949E+02  0.15804737018E+04  0.25500000920E-02 0.  1.
       -2    1    3    3    0  502  0.71995544511E+03 -0.14056295060E+04 -0.40092724564E+03  0.16293780431E+04  0.25500000920E-02 0. -1.
</event>
<event>
 5   0  0.3812379E-06  0.3431081E+04  0.7818609E-02  0.8130320E-01
       -2   -1    0    0    0  501  0.00000000000E+00  0.00000000000E+00  0.22395176847E+04  0.22395176847E+04  0.25500000920E-02 0. -1.
        2   -1    0    0  501    0  0.00000000000E+00  0.00000000000E+00 -0.13141578788E+04  0.13141578788E+04  0.25500000920E-02 0.  1.
    10030    2    1    2    0    0  0.00000000000E+00  0.00000000000E+00  0.92535980599E+03  0.35536755635E+04  0.34310813514E+04 0.  0.
        5    1    3    3  502    0  0.17098163621E+04 -0.12697178919E+03  0.40172214685E+03  0.17609646790E+04  0.46999998093E+01 0.  1.
       -5    1    3    3    0  502 -0.17098163621E+04  0.12697178919E+03  0.52363765913E+03  0.17927108845E+04  0.46999998093E+01 0. -1.
</event>
<event>
 5   0  0.1282578E-06  0.3229772E+04  0.7818609E-02  0.8180999E-01
       -1   -1    0    0    0  501  0.00000000000E+00  0.00000000000E+00  0.10870195222E+04  0.10870195222E+04  0.50400001928E-02 0. -1.
        1   -1    0    0  501    0  0.00000000000E+00  0.00000000000E+00 -0.23990887581E+04  0.23990887582E+04  0.50400001928E-02 0.  1.
    10030    2    1    2    0    0  0.00000000000E+00  0.00000000000E+00 -0.13120692359E+04  0.34861082804E+04  0.32297717044E+04 0.  0.
        4    1    3    3  502    0 -0.26548201440E+03 -0.84484029994E+02  0.10608835688E+04  0.10968563310E+04  0.12699999809E+01 0. -1.
       -4    1    3    3    0  502  0.26548201440E+03  0.84484029994E+02 -0.23729528048E+04  0.23892519494E+04  0.12699999809E+01 0.  1.
</event>
<event>
 5   0  0.3896210E-06  0.3201182E+04  0.7818609E-02  0.8188505E-01
        2   -1    0    0  501    0  0.00000000000E+00  0.00000000000E+00  0.19643597527E+04  0.19643597527E+04  0.25500000920E-02 0. -1.
       -2   -1    0    0    0  501  0.00000000000E+00  0.00000000000E+00 -0.13041868255E+04  0.13041868255E+04  0.25500000920E-02 0.  1.
    10030    2    1    2    0    0  0.00000000000E+00  0.00000000000E+00  0.66017292719E+03  0.32685465782E+04  0.32011823504E+04 0.  0.
        3    1    3    3  502    0 -0.95820760622E+03 -0.76130593895E+03 -0.72319483481E+03  0.14215341461E+04  0.10100000352E+00 0.  1.
       -3    1    3    3    0  502  0.95820760622E+03  0.76130593895E+03  0.13833677620E+04  0.18470124321E+04  0.10100000352E+00 0. -1.
</event>
<event>
 5   0  0.1259875E-06  0.3240583E+04  0.7818609E-02  0.8178181E-01
       -3   -1    0    0    0  501  0.00000000000E+00  0.00000000000E+00  0.10629052144E+04  0.10629052192E+04  0.10100000352E+00 0. -1.
        3   -1    0    0  501    0  0.00000000000E+00  0.00000000000E+00 -0.24699706252E+04  0.24699706273E+04  0.10100000352E+00 0.  1.
    10030    2    1    2    0    0  0.00000000000E+00  0.00000000000E+00 -0.14070654108E+04  0.35328758465E+04  0.32405830766E+04 0.  0.
        2    1    3    3  502    0 -0.11091545770E+04  0.11031937034E+04 -0.24346874785E+03  0.15832047417E+04  0.25500000920E-02 0.  1.
       -2    1    3    3    0  502  0.11091545770E+04 -0.11031937034E+04 -0.11635966630E+04  0.19496711048E+04  0.25500000920E-02 0. -1.
</event>
<event>
 5   0  0.1339825E-06  0.3100984E+04  0.7818609E-02  0.8215468E-01
        1   -1    0    0  501    0  0.00000000000E+00  0.00000000000E+00  0.12952310190E+04  0.12952310190E+04  0.50400001928E-02 0.  1.
       -1   -1    0    0    0  501  0.00000000000E+00  0.00000000000E+00 -0.18560595073E+04  0.18560595073E+04  0.50400001928E-02 0. -1.
    10030    2    1    2    0    0  0.00000000000E+00  0.00000000000E+00 -0.56082848830E+03  0.31512905263E+04  0.31009842611E+04 0.  0.
        3    1    3    3  502    0  0.34665086509E+03  0.12478178530E+04  0.58594739713E+03  0.14214607201E+04  0.10100000352E+00 0.  1.
       -3    1    3    3    0  502 -0.34665086509E+03 -0.12478178530E+04 -0.11467758854E+04  0.17298298061E+04  0.10100000352E+00 0. -1.
</event>
<event>
 5   0  0.1339825E-06  0.3402944E+04  0.7818609E-02  0.8137184E-01
        1   -1    0    0  501    0  0.00000000000E+00  0.00000000000E+00  0.15829987935E+04  0.15829987935E+04  0.50400001928E-02 0. -1.
       -1   -1    0    0    0  501  0.00000000000E+00  0.00000000000E+00 -0.18288121258E+04  0.18288121258E+04  0.50400001928E-02 0.  1.
    10030    2    1    2    0    0  0.00000000000E+00  0.00000000000E+00 -0.24581333235E+03  0.34118109193E+04  0.34029442480E+04 0.  0.
        3    1    3    3  502    0  0.21745342985E+02 -0.16662329392E+04  0.22179477945E+03  0.16810704928E+04  0.10100000352E+00 0. -1.
       -3    1    3    3    0  502 -0.21745342985E+02  0.16662329392E+04 -0.46760811180E+03  0.17307404265E+04  0.10100000352E+00 0.  1.
</event>
<event>
 5   0  0.1405389E-06  0.3360295E+04  0.7818609E-02  0.8147720E-01
        1   -1    0    0  501    0  0.00000000000E+00  0.00000000000E+00  0.21171334383E+04  0.21171334383E+04  0.50400001928E-02 0. -1.
       -1   -1    0    0    0  501  0.00000000000E+00  0.00000000000E+00 -0.13333576218E+04  0.13333576218E+04  0.50400001928E-02 0.  1.
    10030    2    1    2    0    0  0.00000000000E+00  0.00000000000E+00  0.78377581646E+03  0.34504910601E+04  0.33602952289E+04 0.  0.
        1    1    3    3  502    0 -0.73977909272E+03 -0.37827095098E+03 -0.11076292930E+04  0.13846316005E+04  0.50400001928E-02 0.  1.
       -1    1    3    3    0  502  0.73977909272E+03  0.37827095098E+03  0.18914051095E+04  0.20658594595E+04  0.50400001928E-02 0. -1.
</event>
<event>
 5   0  0.3896210E-06  0.3328417E+04  0.7818609E-02  0.8155702E-01
       -2   -1    0    0    0  501  0.00000000000E+00  0.00000000000E+00  0.15507024927E+04  0.15507024927E+04  0.25500000920E-02 0.  1.
        2   -1    0    0  501    0  0.00000000000E+00  0.00000000000E+00 -0.17860224323E+04  0.17860224323E+04  0.25500000920E-02 0. -1.
    10030    2    1    2    0    0  0.00000000000E+00  0.00000000000E+00 -0.23531993955E+03  0.33367249250E+04  0.33284167033E+04 0.  0.
        3    1    3    3  502    0  0.71270503019E+03 -0.10535954235E+04 -0.11934544870E+04  0.17442320371E+04  0.10100000352E+00 0. -1.
       -3    1    3    3    0  502 -0.71270503019E+03  0.10535954235E+04  0.95813454749E+03  0.15924928878E+04  0.10100000352E+00 0.  1.
</event>
<event>
 5   0  0.1259875E-06  0.3288432E+04  0.7818609E-02  0.8165845E-01
       -3   -1    0    0    0  501  0.00000000000E+00  0.00000000000E+00  0.11273935924E+04  0.11273935969E+04  0.10100000352E+00 0. -1.
        3   -1    0    0  501    0  0.00000000000E+00  0.00000000000E+00 -0.23979613866E+04  0.23979613887E+04  0.10100000352E+00 0.  1.
    10030    2    1    2    0    0  0.00000000000E+00  0.00000000000E+00 -0.12705677942E+04  0.35253549857E+04  0.32884320360E+04 0.  0.
        3    1    3    3  502    0 -0.84350627159E+03 -0.12230113445E+04  0.11987188957E+03  0.14905129517E+04  0.10100000352E+00 0. -1.
       -3    1    3    3    0  502  0.84350627159E+03  0.12230113445E+04 -0.13904396838E+04  0.20348420340E+04  0.10100000352E+00 0.  1.
</event>
<event>
 5   0  0.3896210E-06  0.2301277E+04  0.7818609E-02  0.8477418E-01
       -2   -1    0    0    0  501  0.00000000000E+00  0.00000000000E+00  0.82434126100E+03  0.82434126100E+03  0.25500000920E-02 0.  1.
        2   -1    0    0  501    0  0.00000000000E+00  0.00000000000E+00 -0.16060930441E+04  0.16060930441E+04  0.25500000920E-02 0. -1.
    10030    2    1    2    0    0  0.00000000000E+00  0.00000000000E+00 -0.78175178315E+03  0.24304343051E+04  0.23012768328E+04 0.  0.
        3    1    3    3  502    0  0.92655566128E+03  0.68151864649E+03 -0.35755025697E+03  0.12044979267E+04  0.10100000352E+00 0.  1.
       -3    1    3    3    0  502 -0.92655566128E+03 -0.68151864649E+03 -0.42420152618E+03  0.12259363784E+04  0.10100000352E+00 0. -1.
</event>
<event>
 5   0  0.3812379E-06  0.3234552E+04  0.7818609E-02  0.8179751E-01
        2   -1    0    0  501    0  0.00000000000E+00  0.00000000000E+00  0.26189807333E+04  0.26189807333E+04  0.25500000920E-02 0. -1.
       -2   -1    0    0    0  501  0.00000000000E+00  0.00000000000E+00 -0.99870235475E+03  0.99870235475E+03  0.25500000920E-02 0.  1.
    10030    2    1    2    0    0  0.00000000000E+00  0.00000000000E+00  0.16202783785E+04  0.36176830880E+04  0.32345523495E+04 0.  0.
        5    1    3    3  502    0 -0.51844890581E+03 -0.12517310101E+04  0.17978891672E+04  0.22512324040E+04  0.46999998093E+01 0. -1.
       -5    1    3    3    0  502  0.51844890581E+03  0.12517310101E+04 -0.17761078861E+03  0.13664506840E+04  0.46999998093E+01 0.  1.
</event>
<event>
 5   0  0.1391878E-06  0.2967292E+04  0.7818609E-02  0.8253133E-01
       -1   -1    0    0    0  501  0.00000000000E+00  0.00000000000E+00  0.13177244046E+04  0.13177244047E+04  0.50400001928E-02 0. -1.
        1   -1    0    0  501    0  0.00000000000E+00  0.00000000000E+00 -0.16704596667E+04  0.16704596667E+04  0.50400001928E-02 0.  1.
    10030    2    1    2    0    0  0.00000000000E+00  0.00000000000E+00 -0.35273526208E+03  0.29881840714E+04  0.29672920111E+04 0.  0.
        2    1    3    3  502    0 -0.51938534801E+03 -0.15385055681E+03 -0.15673145608E+04  0.16582840728E+04  0.25500000920E-02 0.  1.
       -2    1    3    3    0  502  0.51938534801E+03  0.15385055681E+03  0.12145792987E+04  0.13298999986E+04  0.25500000920E-02 0. -1.
</event>
<event>
 5   0  0.1282578E-06  0.3299638E+04  0.7818609E-02  0.8162987E-01
        1   -1    0    0  501    0  0.00000000000E+00  0.00000000000E+00  0.18245276231E+04  0.18245276231E+04  0.50400001928E-02 0.  1.
       -1   -1    0    0    0  501  0.00000000000E+00  0.00000000000E+00 -0.14918399947E+04  0.14918399947E+04  0.50400001928E-02 0. -1.
    10030    2    1    2    0    0  0.00000000000E+00  0.00000000000E+00  0.33268762837E+03  0.33163676178E+04  0.32996383314E+04 0.  0.
        4    1    3    3  502    0  0.10295474293E+03 -0.89549522300E+03  0.15551565197E+04  0.17975051564E+04  0.12699999809E+01 0.  1.
       -4    1    3    3    0  502 -0.10295474293E+03  0.89549522300E+03 -0.12224688913E+04  0.15188624614E+04  0.12699999809E+01 0. -1.
</event>
<event>
 5   0  0.3671997E-06  0.3361316E+04  0.7818609E-02  0.8147466E-01
       -2   -1    0    0    0  501  0.00000000000E+00  0.00000000000E+00  0.10664405510E+04  0.10664405510E+04  0.25500000920E-02 0.  1.
        2   -1    0    0  501    0  0.00000000000E+00  0.00000000000E+00 -0.26486341517E+04  0.26486341517E+04  0.25500000920E-02 0. -1.
    10030    2    1    2    0    0  0.00000000000E+00  0.00000000000E+00 -0.15821936007E+04  0.37150747027E+04  0.33613157330E+04 0.  0.
        2    1    3    3  502    0 -0.46930035220E+03 -0.98649654573E+02  0.98921670627E+03  0.10993290076E+04  0.25500000920E-02 0.  1.
       -2    1    3    3    0  502  0.46930035220E+03  0.98649654573E+02 -0.25714103070E+04  0.26157456952E+04  0.25500000920E-02 0. -1.
</event>
<event>
 5   0  0.3896210E-06  0.2893382E+04  0.7818609E-02  0.8274849E-01
       -2   -1    0    0    0  501  0.00000000000E+00  0.00000000000E+00  0.17048010460E+04  0.17048010460E+04  0.25500000920E-02 0.  1.
        2   -1    0    0  501    0  0.00000000000E+00  0.00000000000E+00 -0.12276595880E+04  0.12276595880E+04  0.25500000920E-02 0. -1.
    10030    2    1    2    0    0  0.00000000000E+00  0.00000000000E+00  0.47714145803E+03  0.29324606340E+04  0.28933823458E+04 0.  0.
        3    1    3    3  502    0  0.10004610973E+04  0.19479526432E+03 -0.80196381750E+03  0.12969246612E+04  0.10100000352E+00 0. -1.
       -3    1    3    3    0  502 -0.10004610973E+04 -0.19479526432E+03  0.12791052755E+04  0.16355359728E+04  0.10100000352E+00 0.  1.
</event>
<event>
 5   0  0.1405389E-06  0.3337015E+04  0.7818609E-02  0.8153540E-01
        1   -1    0    0  501    0  0.00000000000E+00  0.00000000000E+00  0.22809274030E+04  0.22809274030E+04  0.50400001928E-02 0.  1.
       -1   -1    0    0    0  501  0.00000000000E+00  0.00000000000E+00 -0.12205197446E+04  0.12205197446E+04  0.50400001928E-02 0. -1.
    10030    2    1    2    0    0  0.00000000000E+00  0.00000000000E+00  0.10604076584E+04  0.35014471477E+04  0.33370147926E+04 0.  0.
        1    1    3    3  502    0  0.35527515030E+03 -0.12536061594E+04  0.16237521161E+04  0.20819029204E+04  0.50400001928E-02 0.  1.
       -1    1    3    3    0  502 -0.35527515030E+03  0.12536061594E+04 -0.56334445774E+03  0.14195442273E+04  0.50400001928E-02 0. -1.
</event>
<event>
 5   0  0.3812379E-06  0.3233660E+04  0.7818609E-02  0.8179984E-01
        2   -1    0    0  501    0  0.00000000000E+00  0.00000000000E+00  0.15943664962E+04  0.15943664962E+04  0.25500000920E-02 0. -1.
       -2   -1    0    0    0  501  0.00000000000E+00  0.00000000000E+00 -0.16396096446E+04  0.16396096446E+04  0.25500000920E-02 0.  1.
    10030    2    1    2    0    0  0.00000000000E+00  0.00000000000E+00 -0.45243148398E+02  0.32339761407E+04  0.32336596507E+04 0.  0.
        5    1    3    3  502    0 -0.72121765228E+03 -0.12882769887E+04  0.63646044694E+03  0.16077675491E+04  0.46999998093E+01 0. -1.
       -5    1    3    3    0  502  0.72121765228E+03  0.12882769887E+04 -0.68170359533E+03  0.16262085916E+04  0.46999998093E+01 0.  1.
</event>
<event>
 5   0  0.1282578E-06  0.3245359E+04  0.7818609E-02  0.8176940E-01
       -1   -1    0    0    0  501  0.00000000000E+00  0.00000000000E+00  0.17826988834E+04  0.17826988834E+04  0.50400001928E-02 0.  1.
        1   -1    0    0  501    0  0.00000000000E+00  0.00000000000E+00 -0.14770238777E+04  0.14770238777E+04  0.50400001928E-02 0. -1.
    10030    2    1    2    0    0  0.00000000000E+00  0.00000000000E+00  0.30567500564E+03  0.32597227611E+04  0.32453590356E+04 0.  0.
        4    1    3    3  502    0  0.11005098671E+04  0.26797858110E+03 -0.10142659727E+04  0.15204182200E+04  0.12699999809E+01 0. -1.
       -4    1    3    3    0  502 -0.11005098671E+04 -0.26797858110E+03  0.13199409783E+04  0.17393045411E+04  0.12699999809E+01 0.  1.
</event>
<event>
 5   0  0.1352708E-06  0.3254221E+04  0.7818609E-02  0.8174642E-01
       -1   -1    0    0    0  501  0.00000000000E+00  0.00000000000E+00  0.16168399305E+04  0.16168399305E+04  0.50400001928E-02 0.  1.
        1   -1    0    0  501    0  0.00000000000E+00  0.00000000000E+00 -0.16374464852E+04  0.16374464852E+04  0.50400001928E-02 0. -1.
    10030    2    1    2    0    0  0.00000000000E+00  0.00000000000E+00 -0.20606554709E+02  0.32542864157E+04  0.32542211734E+04 0.  0.
        5    1    3    3  502    0  0.35350995431E+03 -0.93690985712E+03  0.12721799979E+04  0.16190223609E+04  0.46999998093E+01 0.  1.
       -5    1    3    3    0  502 -0.35350995431E+03  0.93690985712E+03 -0.12927865526E+04  0.16352640547E+04  0.46999998093E+01 0. -1.
</event>
<event>
 5   0  0.3671997E-06  0.3474200E+04  0.7818609E-02  0.8119931E-01
        2   -1    0    0  501    0  0.00000000000E+00  0.00000000000E+00  0.25032065526E+04  0.25032065526E+04  0.25500000920E-02 0. -1.
       -2   -1    0    0    0  501  0.00000000000E+00  0.00000000000E+00 -0.12054605934E+04  0.12054605934E+04  0.25500000920E-02 0.  1.
    10030    2    1    2    0    0  0.00000000000E+00  0.00000000000E+00  0.12977459592E+04  0.37086671459E+04  0.34742002568E+04 0.  0.
        2    1    3    3  502    0  0.50949015397E+03 -0.16604613676E+04  0.61859156456E+03  0.18437374255E+04  0.25500000920E-02 0. -1.
       -2    1    3    3    0  502 -0.50949015397E+03  0.16604613676E+04  0.67915439468E+03  0.18649297205E+04  0.25500000920E-02 0.  1.
</event>
<event>
 5   0  0.1405389E-06  0.3310895E+04  0.7818609E-02  0.8160129E-01
        1   -1    0    0  501    0  0.00000000000E+00  0.00000000000E+00  0.10894199042E+04  0.10894199042E+04  0.50400001928E-02 0. -1.
       -1   -1    0    0    0  501  0.00000000000E+00  0.00000000000E+00 -0.25155648185E+04  0.25155648185E+04  0.50400001928E-02 0.  1.
    10030    2    1    2    0    0  0.00000000000E+00  0.00000000000E+00 -0.14261449144E+04  0.36049847227E+04  0.33108949748E+04 0.  0.
        1    1    3    3  502    0  0.49427704780E+03 -0.18284656921E+03  0.99564161908E+03  0.11265189308E+04  0.50400001928E-02 0. -1.
       -1    1    3    3    0  502 -0.49427704780E+03  0.18284656921E+03 -0.24217865334E+04  0.24784657919E+04  0.50400001928E-02 0.  1.
</event>
<event>
 5   0  0.1391878E-06  0.3250218E+04  0.7818609E-02  0.8175679E-01
       -1   -1    0    0    0  501  0.00000000000E+00  0.00000000000E+00  0.14094906762E+04  0.14094906762E+04  0.50400001928E-02 0.  1.
        1   -1    0    0  501    0  0.00000000000E+00  0.00000000000E+00 -0.18737112733E+04  0.18737112733E+04  0.50400001928E-02 0. -1.
    10030    2    1    2    0    0  0.00000000000E+00  0.00000000000E+00 -0.46422059703E+03  0.32832019495E+04  0.32502175740E+04 0.  0.
        2    1    3    3  502    0  0.12926391925E+04  0.45567028820E+03 -0.11141422512E+04  0.17663138026E+04  0.25500000920E-02 0. -1.
       -2    1    3    3    0  502 -0.12926391925E+04 -0.45567028820E+03  0.64992165413E+03  0.15168881469E+04  0.25500000920E-02 0.  1.
</event>
<event>
 5   0  0.3812379E-06  0.3348618E+04  0.7818609E-02  0.8150633E-01
       -2   -1    0    0    0  501  0.00000000000E+00  0.00000000000E+00  0.87680753876E+03  0.87680753876E+03  0.25500000920E-02 0. -1.
        2   -1    0    0  501    0  0.00000000000E+00  0.00000000000E+00 -0.31971797384E+04  0.31971797384E+04  0.25500000920E-02 0.  1.
    10030    2    1    2    0    0  0.00000000000E+00  0.00000000000E+00 -0.23203721997E+04  0.40739872772E+04  0.33486184001E+04 0.  0.
        5    1    3    3  502    0 -0.82317902967E+03  0.19421755147E+03  0.59779232171E+03  0.10357228983E+04  0.46999998093E+01 0. -1.
       -5    1    3    3    0  502  0.82317902967E+03 -0.19421755147E+03 -0.29181645214E+04  0.30382643789E+04  0.46999998093E+01 0.  1.
</event>
<event>
 5   0  0.3920487E-06  0.3324176E+04  0.7818609E-02  0.8156771E-01
        2   -1    0    0  501    0  0.00000000000E+00  0.00000000000E+00  0.22045669538E+04  0.22045669538E+04  0.25500000920E-02 0. -1.
       -2   -1    0    0    0  501  0.00000000000E+00  0.00000000000E+00 -0.12530970590E+04  0.12530970590E+04  0.25500000920E-02 0.  1.
    10030    2    1    2    0    0  0.00000000000E+00  0.00000000000E+00  0.95146989481E+03  0.34576640128E+04  0.33241759076E+04 0.  0.
        4    1    3    3  502    0 -0.13772957266E+04  0.48053274481E+03 -0.35292439916E+03  0.15008039452E+04  0.12699999809E+01 0. -1.
       -4    1    3    3    0  502  0.13772957266E+04 -0.48053274481E+03  0.13043942940E+04  0.19568600677E+04  0.12699999809E+01 0.  1.
</event>
<event>
 5   0  0.1391878E-06  0.3263091E+04  0.7818609E-02  0.8172351E-01
       -1   -1    0    0    0  501  0.00000000000E+00  0.00000000000E+00  0.20275319398E+04  0.20275319398E+04  0.50400001928E-02 0. -1.
        1   -1    0    0  501    0  0.00000000000E+00  0.00000000000E+00 -0.13128966802E+04  0.13128966802E+04  0.50400001928E-02 0.  1.
    10030    2    1    2    0    0  0.00000000000E+00  0.00000000000E+00  0.71463525968E+03  0.33404286200E+04  0.32630905306E+04 0.  0.
        2    1    3    3  502    0  0.16039660345E+04  0.24023200285E+03  0.53906849857E+03  0.17090972182E+04  0.25500000920E-02 0.  1.
       -2    1    3    3    0  502 -0.16039660345E+04 -0.24023200285E+03  0.17556676111E+03  0.16313314018E+04  0.25500000920E-02 0. -1.
</event>
<event>
 5   0  0.1339825E-06  0.3228778E+04  0.7818609E-02  0.8181258E-01
       -1   -1    0    0    0  501  0.00000000000E+00  0.00000000000E+00  0.25784483775E+04  0.25784483775E+04  0.50400001928E-02 0.  1.
        1   -1    0    0  501    0  0.00000000000E+00  0.00000000000E+00 -0.10107828086E+04  0.10107828086E+04  0.50400001928E-02 0. -1.
    10030    2    1    2    0    0  0.00000000000E+00  0.00000000000E+00  0.15676655689E+04  0.35892311862E+04  0.32287776591E+04 0.  0.
        3    1    3    3  502    0  0.10990987034E+03  0.11968747305E+04 -0.41429511534E+03  0.12713102504E+04  0.10100000352E+00 0. -1.
       -3    1    3    3    0  502 -0.10990987034E+03 -0.11968747305E+04  0.19819606843E+04  0.23179209357E+04  0.10100000352E+00 0.  1.
</event>
<event>
 5   0  0.1391878E-06  0.3322249E+04  0.7818609E-02  0.8157257E-01
        1   -1    0    0  501    0  0.00000000000E+00  0.00000000000E+00  0.21977397651E+04  0.21977397651E+04  0.50400001928E-02 0.  1.
       -1   -1    0    0    0  501  0.00000000000E+00  0.00000000000E+00 -0.12555331298E+04  0.12555331298E+04  0.50400001928E-02 0. -1.
    10030    2    1    2    0    0  0.00000000000E+00  0.00000000000E+00  0.94220663532E+03  0.34532728950E+04  0.33222492898E+04 0.  0.
        2    1    3    3  502    0 -0.62458556101E+03 -0.15380572412E+04  0.40866875709E+03  0.17096015189E+04  0.25500000920E-02 0.  1.
       -2    1    3    3    0  502  0.62458556101E+03  0.15380572412E+04  0.53353787823E+03  0.17436713761E+04  0.25500000920E-02 0. -1.
</event>
<event>
 5   0  0.3896210E-06  0.3350831E+04  0.7818609E-02  0.8150081E-01
       -2   -1    0    0    0  501  0.00000000000E+00  0.00000000000E+00  0.99619209955E+03  0.99619209955E+03  0.25500000920E-02 0. -1.
        2   -1    0    0  501    0  0.00000000000E+00  0.00000000000E+00 -0.28177459646E+04  0.28177459646E+04  0.25500000920E-02 0.  1.
    10030    2    1    2    0    0  0.00000000000E+00  0.00000000000E+00 -0.18215538650E+04  0.38139380641E+04  0.33508305051E+04 0.  0.
        3    1    3    3  502    0  0.40596150469E+03 -0.11826720196E+04 -0.21800170558E+04  0.25131637876E+04  0.10100000352E+00 0.  1.
       -3    1    3    3    0  502 -0.40596150469E+03  0.11826720196E+04  0.35846319083E+03  0.13007742765E+04  0.10100000352E+00 0. -1.
</event>
<event>
 5   0  0.1259875E-06  0.2975634E+04  0.7818609E-02  0.8250723E-01
        3   -1    0    0  501    0  0.00000000000E+00  0.00000000000E+00  0.18843942800E+04  0.18843942827E+04  0.10100000352E+00 0.  1.
       -3   -1    0    0    0  501  0.00000000000E+00  0.00000000000E+00 -0.11747007164E+04  0.11747007207E+04  0.10100000352E+00 0. -1.
    10030    2    1    2    0    0  0.00000000000E+00  0.00000000000E+00  0.70969356358E+03  0.30590950034E+04  0.29756339301E+04 0.  0.
        2    1    3    3  502    0  0.13985191632E+04 -0.12456054185E+03 -0.15112437757E+03  0.14121649181E+04  0.25500000920E-02 0.  1.
       -2    1    3    3    0  502 -0.13985191632E+04  0.12456054185E+03  0.86081794115E+03  0.16469300854E+04  0.25500000920E-02 0. -1.
</event>
<event>
 5   0  0.1282578E-06  0.2626920E+04  0.7818609E-02  0.8359114E-01
        1   -1    0    0  501    0  0.00000000000E+00  0.00000000000E+00  0.14739036133E+04  0.14739036134E+04  0.50400001928E-02 0. -1.
       -1   -1    0    0    0  501  0.00000000000E+00  0.00000000000E+00 -0.11704819833E+04  0.11704819833E+04  0.50400001928E-02 0.  1.
    10030    2    1    2    0    0  0.00000000000E+00  0.00000000000E+00  0.30342163003E+03  0.26443855967E+04  0.26269203449E+04 0.  0.
        4    1    3    3  502    0  0.11134682481E+03 -0.62614796261E+03 -0.10051542364E+04  0.11894519908E+04  0.12699999809E+01 0.  1.
       -4    1    3    3    0  502 -0.11134682481E+03  0.62614796261E+03  0.13085758664E+04  0.14549336059E+04  0.12699999809E+01 0. -1.
</event>
<event>
 5   0  0.1339825E-06  0.2941261E+04  0.7818609E-02  0.8260706E-01
       -1   -1    0    0    0  501  0.00000000000E+00  0.00000000000E+00  0.11143688799E+04  0.11143688799E+04  0.50400001928E-02 0.  1.
        1   -1    0    0  501    0  0.00000000000E+00  0.00000000000E+00 -0.19407876950E+04  0.19407876950E+04  0.50400001928E-02 0. -1.
    10030    2    1    2    0    0  0.00000000000E+00  0.00000000000E+00 -0.82641881506E+03  0.30551565749E+04  0.29412605528E+04 0.  0.
        3    1    3    3  502    0  0.11294516652E+04 -0.76469079575E+03 -0.98435655250E+03  0.16820733961E+04  0.10100000352E+00 0. -1.
       -3    1    3    3    0  502 -0.11294516652E+04  0.76469079575E+03  0.15793773744E+03  0.13730831789E+04  0.10100000352E+00 0.  1.
</event>
<event>
 5   0  0.4017247E-06  0.3504896E+04  0.7818609E-02  0.8112631E-01
       -2   -1    0    0    0  501  0.00000000000E+00  0.00000000000E+00  0.11981583228E+04  0.11981583228E+04  0.25500000920E-02 0.  1.
        2   -1    0    0  501    0  0.00000000000E+00  0.00000000000E+00 -0.25631617116E+04  0.25631617116E+04  0.25500000920E-02 0. -1.
    10030    2    1    2    0    0  0.00000000000E+00  0.00000000000E+00 -0.13650033888E+04  0.37613200345E+04  0.35048957403E+04 0.  0.
        1    1    3    3  502    0 -0.54548729739E+03 -0.23219258362E+03  0.10872730749E+04  0.12383991792E+04  0.50400001928E-02 0.  1.
       -1    1    3    3    0  502  0.54548729739E+03  0.23219258362E+03 -0.24522764637E+04  0.25229208553E+04  0.50400001928E-02 0. -1.
</event>
<event>
 5   0  0.1405389E-06  0.2072985E+04  0.7818609E-02  0.8573238E-01
       -1   -1    0    0    0  501  0.00000000000E+00  0.00000000000E+00  0.95895915010E+03  0.95895915011E+03  0.50400001928E-02 0. -1.
        1   -1    0    0  501    0  0.00000000000E+00  0.00000000000E+00 -0.11202947161E+04  0.11202947161E+04  0.50400001928E-02 0.  1.
    10030    2    1    2    0    0  0.00000000000E+00  0.00000000000E+00 -0.16133556602E+03  0.20792538662E+04  0.20729851604E+04 0.  0.
        1    1    3    3  502    0  0.77452377593E+03  0.57879047918E+03 -0.45520206228E+03  0.10686881752E+04  0.50400001928E-02 0.  1.
       -1    1    3    3    0  502 -0.77452377593E+03 -0.57879047918E+03  0.29386649626E+03  0.10105656910E+04  0.50400001928E-02 0. -1.
</event>
<event>
 5   0  0.3896210E-06  0.3363889E+04  0.7818609E-02  0.8146826E-01
       -2   -1    0    0    0  501  0.00000000000E+00  0.00000000000E+00  0.31340351722E+04  0.31340351722E+04  0.25500000920E-02 0. -1.
        2   -1    0    0  501    0  0.00000000000E+00  0.00000000000E+00 -0.90265005572E+03  0.90265005572E+03  0.25500000920E-02 0.  1.
    10030    2    1    2    0    0  0.00000000000E+00  0.00000000000E+00  0.22313851165E+04  0.40366852279E+04  0.33638888346E+04 0.  0.
        3    1    3    3  502    0 -0.37497686682E+03 -0.29662414634E+03  0.30507711522E+04  0.30880087707E+04  0.10100000352E+00 0. -1.
       -3    1    3    3    0  502  0.37497686682E+03  0.29662414634E+03 -0.81938603567E+03  0.94867645723E+03  0.10100000352E+00 0.  1.
</event>
<event>
 5   0  0.3896210E-06  0.3221805E+04  0.7818609E-02  0.8183082E-01
       -2   -1    0    0    0  501  0.00000000000E+00  0.00000000000E+00  0.17518814976E+04  0.17518814976E+04  0.25500000920E-02 0.  1.
        2   -1    0    0  501    0  0.00000000000E+00  0.00000000000E+00 -0.14812683626E+04  0.14812683626E+04  0.25500000920E-02 0. -1.
    10030    2    1    2    0    0  0.00000000000E+00  0.00000000000E+00  0.27061313498E+03  0.32331498602E+04  0.32218048591E+04 0.  0.
        3    1    3    3  502    0  0.53990201984E+03  0.13875793851E+04  0.75239946891E+03  0.16682253181E+04  0.10100000352E+00 0.  1.
       -3    1    3    3    0  502 -0.53990201984E+03 -0.13875793851E+04 -0.48178633393E+03  0.15649245422E+04  0.10100000352E+00 0. -1.
</event>
<event>
 5   0  0.3920487E-06  0.3272234E+04  0.7818609E-02  0.8169997E-01
       -2   -1    0    0    0  501  0.00000000000E+00  0.00000000000E+00  0.11102236241E+04  0.11102236241E+04  0.25500000920E-02 0.  1.
        2   -1    0    0  501    0  0.00000000000E+00  0.00000000000E+00 -0.24111169450E+04  0.24111169450E+04  0.25500000920E-02 0. -1.
    10030    2    1    2    0    0  0.00000000000E+00  0.00000000000E+00 -0.13008933209E+04  0.35213405690E+04  0.32722340948E+04 0.  0.
        4    1    3    3  502    0 -0.82903443951E+03 -0.56432875549E+03  0.74067940185E+03  0.12467448157E+04  0.12699999809E+01 0.  1.
       -4    1    3    3    0  502  0.82903443951E+03  0.56432875549E+03 -0.20415727227E+04  0.22745957534E+04  0.12699999809E+01 0. -1.
</event>
<event>
 5   0  0.1339825E-06  0.3293033E+04  0.7818609E-02  0.8164670E-01
       -1   -1    0    0    0  501  0.00000000000E+00  0.00000000000E+00  0.11121551839E+04  0.11121551839E+04  0.50400001928E-02 0.  1.
        1   -1    0    0  501    0  0.00000000000E+00  0.00000000000E+00 -0.24376243830E+04  0.24376243830E+04  0.50400001928E-02 0. -1.
    10030    2    1    2    0    0  0.00000000000E+00  0.00000000000E+00 -0.13254691991E+04  0.35497795670E+04  0.32930330056E+04 0.  0.
        3    1    3    3  502    0 -0.13653535140E+04  0.49636227175E+03  0.17256839340E+03  0.14629919971E+04  0.10100000352E+00 0.  1.
       -3    1    3    3    0  502  0.13653535140E+04 -0.49636227175E+03 -0.14980375925E+04  0.20867875698E+04  0.10100000352E+00 0. -1.
</event>
<event>
 5   0  0.3920487E-06  0.3437997E+04  0.7818609E-02  0.8128643E-01
       -2   -1    0    0    0  501  0.00000000000E+00  0.00000000000E+00  0.16554751608E+04  0.16554751608E+04  0.25500000920E-02 0.  1.
        2   -1    0    0  501    0  0.00000000000E+00  0.00000000000E+00 -0.17849591774E+04  0.17849591774E+04  0.25500000920E-02 0. -1.
    10030    2    1    2    0    0  0.00000000000E+00  0.00000000000E+00 -0.12948401658E+03  0.34404343382E+04  0.34379968477E+04 0.  0.
        4    1    3    3  502    0  0.96795510770E+03  0.10718882190E+04  0.86815953026E+03  0.16851065330E+04  0.12699999809E+01 0. -1.
       -4    1    3    3    0  502 -0.96795510770E+03 -0.10718882190E+04 -0.99764354684E+03  0.17553278053E+04  0.12699999809E+01 0.  1.
</event>
<event>
 5   0  0.1352708E-06  0.3327163E+04  0.7818609E-02  0.8156018E-01
        1   -1    0    0  501    0  0.00000000000E+00  0.00000000000E+00  0.20828034176E+04  0.20828034176E+04  0.50400001928E-02 0.  1.
       -1   -1    0    0    0  501  0.00000000000E+00  0.00000000000E+00 -0.13287397923E+04  0.13287397923E+04  0.50400001928E-02 0. -1.
    10030    2    1    2    0    0  0.00000000000E+00  0.00000000000E+00  0.75406362526E+03  0.34115432099E+04  0.33271632245E+04 0.  0.
        5    1    3    3  502    0 -0.12310461073E+04 -0.76743853605E+03 -0.45789490464E+03  0.15212252491E+04  0.46999998093E+01 0. -1.
       -5    1    3    3    0  502  0.12310461073E+04  0.76743853605E+03  0.12119585299E+04  0.18903179608E+04  0.46999998093E+01 0.  1.
</event>
<event>
 5   0  0.4017247E-06  0.3198269E+04  0.7818609E-02  0.8189274E-01
        2   -1    0    0  501    0  0.00000000000E+00  0.00000000000E+00  0.30782815550E+04  0.30782815550E+04  0.25500000920E-02 0. -1.
       -2   -1    0    0    0  501  0.00000000000E+00  0.00000000000E+00 -0.83073337981E+03  0.83073337982E+03  0.25500000920E-02 0.  1.
    10030    2    1    2    0    0  0.00000000000E+00  0.00000000000E+00  0.22475481752E+04  0.39090149348E+04  0.31982690570E+04 0.  0.
        1    1    3    3  502    0 -0.28540832741E+03 -0.12123704814E+04 -0.10207345343E+03  0.12496875960E+04  0.50400001928E-02 0.  1.
       -1    1    3    3    0  502  0.28540832741E+03  0.12123704814E+04  0.23496216286E+04  0.26593273389E+04  0.50400001928E-02 0. -1.
</event>
<event>
 5   0  0.1391878E-06  0.3207484E+04  0.7818609E-02  0.8186843E-01
       -1   -1    0    0    0  501  0.00000000000E+00  0.00000000000E+00  0.13396772026E+04  0.13396772026E+04  0.50400001928E-02 0.  1.
        1   -1    0    0  501    0  0.00000000000E+00  0.00000000000E+00 -0.19198567135E+04  0.19198567135E+04  0.50400001928E-02 0. -1.
    10030    2    1    2    0    0  0.00000000000E+00  0.00000000000E+00 -0.58017951094E+03  0.32595339162E+04  0.32074839182E+04 0.  0.
        2    1    3    3  502    0 -0.10168829714E+03  0.59859233081E+03  0.12183615032E+04  0.13612707448E+04  0.25500000920E-02 0.  1.
       -2    1    3    3    0  502  0.10168829714E+03 -0.59859233081E+03 -0.17985410141E+04  0.18982631713E+04  0.25500000920E-02 0. -1.
</event>
<event>
 5   0  0.3812379E-06  0.2410405E+04  0.7818609E-02  0.8435618E-01
       -2   -1    0    0    0  501  0.00000000000E+00  0.00000000000E+00  0.87700792667E+03  0.87700792667E+03  0.25500000920E-02 0.  1.
        2   -1    0    0  501    0  0.00000000000E+00  0.00000000000E+00 -0.16562144588E+04  0.16562144588E+04  0.25500000920E-02 0. -1.
    10030    2    1    2    0    0  0.00000000000E+00  0.00000000000E+00 -0.77920653217E+03  0.25332223855E+04  0.24104051184E+04 0.  0.
        5    1    3    3  502    0 -0.24763857809E+03  0.38439740778E+03  0.78229405400E+03  0.90614144006E+03  0.46999998093E+01 0.  1.
       -5    1    3    3    0  502  0.24763857809E+03 -0.38439740778E+03 -0.15615005862E+04  0.16270809455E+04  0.46999998093E+01 0. -1.
</event>
<event>
 5   0  0.1339825E-06  0.2810376E+04  0.7818609E-02  0.8300054E-01
        1   -1    0    0  501    0  0.00000000000E+00  0.00000000000E+00  0.17983306667E+04  0.17983306667E+04  0.50400001928E-02 0.  1.
       -1   -1    0    0    0  501  0.00000000000E+00  0.00000000000E+00 -0.10979922428E+04  0.10979922428E+04  0.50400001928E-02 0. -1.
    10030    2    1    2    0    0  0.00000000000E+00  0.00000000000E+00  0.70033842391E+03  0.28963229096E+04  0.28103758625E+04 0.  0.
        3    1    3    3  502    0  0.65252076220E+02  0.89102946197E+03  0.14679406935E+04  0.17184415106E+04  0.10100000352E+00 0.  1.
       -3    1    3    3    0  502 -0.65252076220E+02 -0.89102946197E+03 -0.76760226958E+03  0.11778813990E+04  0.10100000352E+00 0. -1.
</event>
<event>
 5   0  0.1339825E-06  0.3148462E+04  0.7818609E-02  0.8202562E-01
       -1   -1    0    0    0  501  0.00000000000E+00  0.00000000000E+00  0.14417234407E+04  0.14417234407E+04  0.50400001928E-02 0. -1.
        1   -1    0    0  501    0  0.00000000000E+00  0.00000000000E+00 -0.17189177441E+04  0.17189177441E+04  0.50400001928E-02 0.  1.
    10030    2    1    2    0    0  0.00000000000E+00  0.00000000000E+00 -0.27719430341E+03  0.31606411847E+04  0.31484624846E+04 0.  0.
        3    1    3    3  502    0 -0.49952526759E+03 -0.12629870309E+04 -0.93762969376E+03  0.16503972812E+04  0.10100000352E+00 0.  1.
       -3    1    3    3    0  502  0.49952526759E+03  0.12629870309E+04  0.66043539035E+03  0.15102439035E+04  0.10100000352E+00 0. -1.
</event>
<event>
 5   0  0.1259875E-06  0.3327018E+04  0.7818609E-02  0.8156055E-01
        3   -1    0    0  501    0  0.00000000000E+00  0.00000000000E+00  0.20198831604E+04  0.20198831629E+04  0.10100000352E+00 0. -1.
       -3   -1    0    0    0  501  0.00000000000E+00  0.00000000000E+00 -0.13700108053E+04  0.13700108091E+04  0.10100000352E+00 0.  1.
    10030    2    1    2    0    0  0.00000000000E+00  0.00000000000E+00  0.64987235508E+03  0.33898939720E+04  0.33270177432E+04 0.  0.
        5    1    3    3  502    0 -0.91167826826E+03  0.24106144812E+03 -0.10713535075E+04  0.14272660280E+04  0.46999998093E+01 0.  1.
       -5    1    3    3    0  502  0.91167826826E+03 -0.24106144812E+03  0.17212258626E+04  0.19626279440E+04  0.46999998093E+01 0. -1.
</event>
<event>
 5   0  0.1339825E-06  0.3261936E+04  0.7818609E-02  0.8172649E-01
        1   -1    0    0  501    0  0.00000000000E+00  0.00000000000E+00  0.13606906557E+04  0.13606906557E+04  0.50400001928E-02 0.  1.
       -1   -1    0    0    0  501  0.00000000000E+00  0.00000000000E+00 -0.19549311104E+04  0.19549311104E+04  0.50400001928E-02 0. -1.
    10030    2    1    2    0    0  0.00000000000E+00  0.00000000000E+00 -0.59424045466E+03  0.33156217661E+04  0.32619359249E+04 0.  0.
        3    1    3    3  502    0  0.63498805275E+03  0.11881746519E+04  0.63729613497E+03  0.14903406337E+04  0.10100000352E+00 0.  1.
       -3    1    3    3    0  502 -0.63498805275E+03 -0.11881746519E+04 -0.12315365896E+04  0.18252811324E+04  0.10100000352E+00 0. -1.
</event>
<event>
 5   0  0.1391878E-06  0.3313102E+04  0.7818609E-02  0.8159570E-01
        1   -1    0    0  501    0  0.00000000000E+00  0.00000000000E+00  0.16558643535E+04  0.16558643535E+04  0.50400001928E-02 0. -1.
       -1   -1    0    0    0  501  0.00000000000E+00  0.00000000000E+00 -0.16572381719E+04  0.16572381719E+04  0.50400001928E-02 0.  1.
    10030    2    1    2    0    0  0.00000000000E+00  0.00000000000E+00 -0.13738184185E+01  0.33131025254E+04  0.33131022406E+04 0.  0.
        2    1    3    3  502    0 -0.13831151356E+04 -0.90862896521E+03  0.73794902927E+02  0.16565203779E+04  0.25500000920E-02 0. -1.
       -2    1    3    3    0  502  0.13831151356E+04  0.90862896521E+03 -0.75168721345E+02  0.16565821475E+04  0.25500000920E-02 0.  1.
</event>
<event>
 5   0  0.1352708E-06  0.3287298E+04  0.7818609E-02  0.8166135E-01
        1   -1    0    0  501    0  0.00000000000E+00  0.00000000000E+00  0.16630336039E+04  0.16630336039E+04  0.50400001928E-02 0. -1.
       -1   -1    0    0    0  501  0.00000000000E+00  0.00000000000E+00 -0.16244906456E+04  0.16244906456E+04  0.50400001928E-02 0.  1.
    10030    2    1    2    0    0  0.00000000000E+00  0.00000000000E+00  0.38542958278E+02  0.32875242495E+04  0.32872983028E+04 0.  0.
        5    1    3    3  502    0  0.35551977701E+02 -0.16410708348E+04  0.10402997396E+03  0.16447558340E+04  0.46999998093E+01 0.  1.
       -5    1    3    3    0  502 -0.35551977701E+02  0.16410708348E+04 -0.65487015686E+02  0.16427684156E+04  0.46999998093E+01 0. -1.
</event>
<event>
 5   0  0.3812379E-06  0.3293829E+04  0.7818609E-02  0.8164467E-01
       -2   -1    0    0    0  501  0.00000000000E+00  0.00000000000E+00  0.93214859839E+03  0.93214859840E+03  0.25500000920E-02 0.  1.
        2   -1    0    0  501    0  0.00000000000E+00  0.00000000000E+00 -0.29097594138E+04  0.29097594138E+04  0.25500000920E-02 0. -1.
    10030    2    1    2    0    0  0.00000000000E+00  0.00000000000E+00 -0.19776108154E+04  0.38419080122E+04  0.32938294791E+04 0.  0.
        5    1    3    3  502    0 -0.34040049916E+03  0.13667362026E+04 -0.19843263731E+04  0.24333954862E+04  0.46999998093E+01 0. -1.
       -5    1    3    3    0  502  0.34040049916E+03 -0.13667362026E+04  0.67155577092E+01  0.14085125260E+04  0.46999998093E+01 0.  1.
</event>
<event>
 5   0  0.1259875E-06  0.3301526E+04  0.7818609E-02  0.8162507E-01
       -3   -1    0    0    0  501  0.00000000000E+00  0.00000000000E+00  0.15698889439E+04  0.15698889471E+04  0.10100000352E+00 0. -1.
        3   -1    0    0  501    0  0.00000000000E+00  0.00000000000E+00 -0.17358030555E+04  0.17358030584E+04  0.10100000352E+00 0.  1.
    10030    2    1    2    0    0  0.00000000000E+00  0.00000000000E+00 -0.16591411159E+03  0.33056920055E+04  0.33015257296E+04 0.  0.
        2    1    3    3  502    0  0.23951854207E+03 -0.13567084847E+04 -0.99349508817E+03  0.16985463004E+04  0.25500000920E-02 0.  1.
       -2    1    3    3    0  502 -0.23951854207E+03  0.13567084847E+04  0.82758097658E+03  0.16071457051E+04  0.25500000920E-02 0. -1.
</event>
<event>
 5   0  0.4017247E-06  0.3298978E+04  0.7818609E-02  0.8163155E-01
       -2   -1    0    0    0  501  0.00000000000E+00  0.00000000000E+00  0.14593564751E+04  0.14593564751E+04  0.25500000920E-02 0.  1.
        2   -1    0    0  501    0  0.00000000000E+00  0.00000000000E+00 -0.18643929417E+04  0.18643929417E+04  0.25500000920E-02 0. -1.
    10030    2    1    2    0    0  0.00000000000E+00  0.00000000000E+00 -0.40503646661E+03  0.33237494169E+04  0.32989779700E+04 0.  0.
        1    1    3    3  502    0 -0.72116059338E+02 -0.12441328987E+04  0.88621918406E+03  0.15291997377E+04  0.50400001928E-02 0.  1.
       -1    1    3    3    0  502  0.72116059338E+02  0.12441328987E+04 -0.12912556507E+04  0.17945496792E+04  0.50400001928E-02 0. -1.
</event>
<event>
 5   0  0.1405389E-06  0.3269600E+04  0.7818609E-02  0.8170674E-01
       -1   -1    0    0    0  501  0.00000000000E+00  0.00000000000E+00  0.19529436223E+04  0.19529436223E+04  0.50400001928E-02 0. -1.
        1   -1    0    0  501    0  0.00000000000E+00  0.00000000000E+00 -0.13684832895E+04  0.13684832895E+04  0.50400001928E-02 0.  1.
    10030    2    1    2    0    0  0.00000000000E+00  0.00000000000E+00  0.58446033278E+03  0.33214269119E+04  0.32695997997E+04 0.  0.
        1    1    3    3  502    0  0.21709689142E+03 -0.73264606983E+03 -0.11759013204E+04  0.14023712915E+04  0.50400001928E-02 0.  1.
       -1    1    3    3    0  502 -0.21709689142E+03  0.73264606983E+03  0.17603616532E+04  0.19190556203E+04  0.50400001928E-02 0. -1.
</event>
<event>
 5   0  0.3920487E-06  0.3164555E+04  0.7818609E-02  0.8198241E-01
        2   -1    0    0  501    0  0.00000000000E+00  0.00000000000E+00  0.12556299247E+04  0.12556299247E+04  0.25500000920E-02 0. -1.
       -2   -1    0    0    0  501  0.00000000000E+00  0.00000000000E+00 -0.19939009880E+04  0.19939009880E+04  0.25500000920E-02 0.  1.
    10030    2    1    2    0    0  0.00000000000E+00  0.00000000000E+00 -0.73827106325E+03  0.32495309127E+04  0.31645547854E+04 0.  0.
        4    1    3    3  502    0  0.10437610733E+04  0.79825421760E+03 -0.12742540967E+04  0.18304021662E+04  0.12699999809E+01 0.  1.
       -4    1    3    3    0  502 -0.10437610733E+04 -0.79825421760E+03  0.53598303348E+03  0.14191287465E+04  0.12699999809E+01 0. -1.
</event>
<event>
 5   0  0.3896210E-06  0.3280002E+04  0.7818609E-02  0.8168003E-01
        2   -1    0    0  501    0  0.00000000000E+00  0.00000000000E+00  0.19615018203E+04  0.19615018203E+04  0.25500000920E-02 0. -1.
       -2   -1    0    0    0  501  0.00000000000E+00  0.00000000000E+00 -0.13711959863E+04  0.13711959863E+04  0.25500000920E-02 0.  1.
    10030    2    1    2    0    0  0.00000000000E+00  0.00000000000E+00  0.59030583396E+03  0.33326978066E+04  0.32800020873E+04 0.  0.
        3    1    3    3  502    0  0.16383846025E+04  0.52220035722E+02  0.34668633665E+03  0.16754767871E+04  0.10100000352E+00 0. -1.
       -3    1    3    3    0  502 -0.16383846025E+04 -0.52220035722E+02  0.24361949731E+03  0.16572210195E+04  0.10100000352E+00 0.  1.
</event>
<event>
 5   0  0.1339825E-06  0.3308118E+04  0.7818609E-02  0.8160833E-01
        1   -1    0    0  501    0  0.00000000000E+00  0.00000000000E+00  0.22956216667E+04  0.22956216667E+04  0.50400001928E-02 0.  1.
       -1   -1    0    0    0  501  0.00000000000E+00  0.00000000000E+00 -0.11917956161E+04  0.11917956161E+04  0.50400001928E-02 0. -1.
    10030    2    1    2    0    0  0.00000000000E+00  0.00000000000E+00  0.11038260506E+04  0.34874172828E+04  0.33081184009E+04 0.  0.
        3    1    3    3  502    0  0.10841883559E+04  0.51706476681E+02 -0.76384212577E+03  0.13272500722E+04  0.10100000352E+00 0. -1.
       -3    1    3    3    0  502 -0.10841883559E+04 -0.51706476681E+02  0.18676681763E+04  0.21601672106E+04  0.10100000352E+00 0.  1.
</event>
<event>
 5   0  0.1352708E-06  0.3146463E+04  0.7818609E-02  0.8203101E-01
       -1   -1    0    0    0  501  0.00000000000E+00  0.00000000000E+00  0.12508745590E+04  0.12508745591E+04  0.50400001928E-02 0.  1.
        1   -1    0    0  501    0  0.00000000000E+00  0.00000000000E+00 -0.19786621423E+04  0.19786621423E+04  0.50400001928E-02 0. -1.
    10030    2    1    2    0    0  0.00000000000E+00  0.00000000000E+00 -0.72778758321E+03  0.32295367013E+04  0.31464634972E+04 0.  0.
        5    1    3    3  502    0 -0.14392466484E+04  0.40238552316E+03  0.14070683380E+03  0.15010548048E+04  0.46999998093E+01 0.  1.
       -5    1    3    3    0  502  0.14392466484E+04 -0.40238552316E+03 -0.86849441701E+03  0.17284818965E+04  0.46999998093E+01 0. -1.
</event>
<event>
 5   0  0.1282578E-06  0.2701193E+04  0.7818609E-02  0.8334618E-01
       -1   -1    0    0    0  501  0.00000000000E+00  0.00000000000E+00  0.74883847463E+03  0.74883847465E+03  0.50400001928E-02 0. -1.
        1   -1    0    0  501    0  0.00000000000E+00  0.00000000000E+00 -0.24359202654E+04  0.24359202654E+04  0.50400001928E-02 0.  1.
    10030    2    1    2    0    0  0.00000000000E+00  0.00000000000E+00 -0.16870817908E+04  0.31847587401E+04  0.27011929334E+04 0.  0.
        4    1    3    3  502    0  0.74376991969E+03  0.62612940980E+03  0.26177165024E+03  0.10068553724E+04  0.12699999809E+01 0. -1.
       -4    1    3    3    0  502 -0.74376991969E+03 -0.62612940980E+03 -0.19488534410E+04  0.21779033676E+04  0.12699999809E+01 0.  1.
</event>
<event>
 5   0  0.3896210E-06  0.3296101E+04  0.7818609E-02  0.8163888E-01
       -2   -1    0    0    0  501  0.00000000000E+00  0.00000000000E+00  0.12341722713E+04  0.12341722713E+04  0.25500000920E-02 0. -1.
        2   -1    0    0  501    0  0.00000000000E+00  0.00000000000E+00 -0.22007216497E+04  0.22007216497E+04  0.25500000920E-02 0.  1.
    10030    2    1    2    0    0  0.00000000000E+00  0.00000000000E+00 -0.96654937836E+03  0.34348939210E+04  0.32961005063E+04 0.  0.
        3    1    3    3  502    0 -0.33059922894E+03 -0.14747263791E+04  0.20163384901E+03  0.15247196341E+04  0.10100000352E+00 0. -1.
       -3    1    3    3    0  502  0.33059922894E+03  0.14747263791E+04 -0.11681832274E+04  0.19101742869E+04  0.10100000352E+00 0.  1.
</event>
<event>
 5   0  0.3671997E-06  0.2424505E+04  0.7818609E-02  0.8430386E-01
       -2   -1    0    0    0  501  0.00000000000E+00  0.00000000000E+00  0.59458772259E+03  0.59458772259E+03  0.25500000920E-02 0. -1.
        2   -1    0    0  501    0  0.00000000000E+00  0.00000000000E+00 -0.24715543264E+04  0.24715543264E+04  0.25500000920E-02 0.  1.
    10030    2    1    2    0    0  0.00000000000E+00  0.00000000000E+00 -0.18769666038E+04  0.30661420490E+04  0.24245047809E+04 0.  0.
        2    1    3    3  502    0  0.10106899786E+04 -0.53943010745E+03 -0.14396996495E+04  0.18398951476E+04  0.25500000920E-02 0.  1.
       -2    1    3    3    0  502 -0.10106899786E+04  0.53943010745E+03 -0.43726695432E+03  0.12262469013E+04  0.25500000920E-02 0. -1.
</event>
<event>
 5   0  0.3896210E-06  0.3143555E+04  0.7818609E-02  0.8203885E-01
        2   -1    0    0  501    0  0.00000000000E+00  0.00000000000E+00  0.13342936586E+04  0.13342936586E+04  0.25500000920E-02 0.  1.
       -2   -1    0    0    0  501  0.00000000000E+00  0.00000000000E+00 -0.18515297867E+04  0.18515297867E+04  0.25500000920E-02 0. -1.
    10030    2    1    2    0    0  0.00000000000E+00  0.00000000000E+00 -0.51723612812E+03  0.31858234453E+04  0.31435549641E+04 0.  0.
        3    1    3    3  502    0  0.74128923772E+03 -0.11687277802E+04 -0.10136524528E+04  0.17154957486E+04  0.10100000352E+00 0. -1.
       -3    1    3    3    0  502 -0.74128923772E+03  0.11687277802E+04  0.49641632465E+03  0.14703276967E+04  0.10100000352E+00 0.  1.
</event>
<event>
 5   0  0.3671997E-06  0.3498071E+04  0.7818609E-02  0.8114247E-01
       -2   -1    0    0    0  501  0.00000000000E+00  0.00000000000E+00  0.12727914036E+04  0.12727914036E+04  0.25500000920E-02 0. -1.
        2   -1    0    0  501    0  0.00000000000E+00  0.00000000000E+00 -0.24034770775E+04  0.24034770775E+04  0.25500000920E-02 0.  1.
    10030    2    1    2    0    0  0.00000000000E+00  0.00000000000E+00 -0.11306856739E+04  0.36762684811E+04  0.34980708758E+04 0.  0.
        2    1    3    3  502    0  0.76698325245E+03  0.96626975356E+03 -0.18683343972E+04  0.22388867693E+04  0.25500000920E-02 0.  1.
       -2    1    3    3    0  502 -0.76698325245E+03 -0.96626975356E+03  0.73764872331E+03  0.14373817117E+04  0.25500000920E-02 0. -1.
</event>
<event>
 5   0  0.3896210E-06  0.2769715E+04  0.7818609E-02  0.8312733E-01
        2   -1    0    0  501    0  0.00000000000E+00  0.00000000000E+00  0.24190443280E+04  0.24190443280E+04  0.25500000920E-02 0. -1.
       -2   -1    0    0    0  501  0.00000000000E+00  0.00000000000E+00 -0.79280486489E+03  0.79280486489E+03  0.25500000920E-02 0.  1.
    10030    2    1    2    0    0  0.00000000000E+00  0.00000000000E+00  0.16262394631E+04  0.32118491929E+04  0.27697148673E+04 0.  0.
        3    1    3    3  502    0  0.73709850060E+02  0.31883319607E+03 -0.74732507847E+03  0.81583241662E+03  0.10100000352E+00 0.  1.
       -3    1    3    3    0  502 -0.73709850060E+02 -0.31883319607E+03  0.23735645416E+04  0.23960167762E+04  0.10100000352E+00 0. -1.
</event>
<event>
 5   0  0.3812379E-06  0.3439133E+04  0.7818609E-02  0.8128368E-01
       -2   -1    0    0    0  501  0.00000000000E+00  0.00000000000E+00  0.11323711207E+04  0.11323711207E+04  0.25500000920E-02 0. -1.
        2   -1    0    0  501    0  0.00000000000E+00  0.00000000000E+00 -0.26112544685E+04  0.26112544685E+04  0.25500000920E-02 0.  1.
    10030    2    1    2    0    0  0.00000000000E+00  0.00000000000E+00 -0.14788833478E+04  0.37436255891E+04  0.34391331168E+04 0.  0.
        5    1    3    3  502    0  0.16204742996E+04  0.18312824100E+03 -0.13330831482E+04  0.21063251597E+04  0.46999998093E+01 0.  1.
       -5    1    3    3    0  502 -0.16204742996E+04 -0.18312824100E+03 -0.14580019961E+03  0.16373004295E+04  0.46999998093E+01 0. -1.
</event>
<event>
 5   0  0.3920487E-06  0.3350739E+04  0.7818609E-02  0.8150104E-01
        2   -1    0    0  501    0  0.00000000000E+00  0.00000000000E+00  0.16184525623E+04  0.16184525623E+04  0.25500000920E-02 0.  1.
       -2   -1    0    0    0  501  0.00000000000E+00  0.00000000000E+00 -0.17342879725E+04  0.17342879725E+04  0.25500000920E-02 0. -1.
    10030    2    1    2    0    0  0.00000000000E+00  0.00000000000E+00 -0.11583541018E+03  0.33527405348E+04  0.33507389112E+04 0.  0.
        4    1    3    3  502    0 -0.15853979664E+03  0.16672443285E+04 -0.12916604391E+02  0.16748155032E+04  0.12699999809E+01 0.  1.
       -4    1    3    3    0  502  0.15853979664E+03 -0.16672443285E+04 -0.10291880579E+03  0.16779250316E+04  0.12699999809E+01 0. -1.
</event>
<event>
 5   0  0.3920487E-06  0.3291723E+04  0.7818609E-02  0.8165005E-01
        2   -1    0    0  501    0  0.00000000000E+00  0.00000000000E+00  0.28694557293E+04  0.28694557293E+04  0.25500000920E-02 0. -1.
       -2   -1    0    0    0  501  0.00000000000E+00  0.00000000000E+00 -0.94403258867E+03  0.94403258867E+03  0.25500000920E-02 0.  1.
    10030    2    1    2    0    0  0.00000000000E+00  0.00000000000E+00  0.19254231406E+04  0.38134883179E+04  0.32917227831E+04 0.  0.
        4    1    3    3  502    0 -0.12792363718E+04 -0.62043317758E+03  0.19232785393E+04  0.23917326304E+04  0.12699999809E+01 0. -1.
       -4    1    3    3    0  502  0.12792363718E+04  0.62043317758E+03  0.21446013211E+01  0.14217556875E+04  0.12699999809E+01 0.  1.
</event>
<event>
 5   0  0.1405389E-06  0.3158717E+04  0.7818609E-02  0.8199806E-01
       -1   -1    0    0    0  501  0.00000000000E+00  0.00000000000E+00  0.14011552672E+04  0.14011552672E+04  0.50400001928E-02 0.  1.
        1   -1    0    0  501    0  0.00000000000E+00  0.00000000000E+00 -0.17802259105E+04  0.17802259105E+04  0.50400001928E-02 0. -1.
    10030    2    1    2    0    0  0.00000000000E+00  0.00000000000E+00 -0.37907064333E+03  0.31813811778E+04  0.31587167720E+04 0.  0.
        1    1    3    3  502    0  0.10373676049E+04 -0.81350331657E+03  0.68644873460E+03  0.14863145895E+04  0.50400001928E-02 0.  1.
       -1    1    3    3    0  502 -0.10373676049E+04  0.81350331657E+03 -0.10655193779E+04  0.16950665882E+04  0.50400001928E-02 0. -1.
</event>
<event>
 5   0  0.3671997E-06  0.3281247E+04  0.7818609E-02  0.8167684E-01
       -2   -1    0    0    0  501  0.00000000000E+00  0.00000000000E+00  0.13377729495E+04  0.13377729495E+04  0.25500000920E-02 0.  1.
        2   -1    0    0  501    0  0.00000000000E+00  0.00000000000E+00 -0.20120347661E+04  0.20120347661E+04  0.25500000920E-02 0. -1.
    10030    2    1    2    0    0  0.00000000000E+00  0.00000000000E+00 -0.67426181661E+03  0.33498077157E+04  0.32812471310E+04 0.  0.
        2    1    3    3  502    0 -0.32057673166E+03 -0.13099468241E+04 -0.12909522932E+04  0.18668925910E+04  0.25500000920E-02 0. -1.
       -2    1    3    3    0  502  0.32057673166E+03  0.13099468241E+04  0.61669047664E+03  0.14829151247E+04  0.25500000920E-02 0.  1.
</event>
<event>
 5   0  0.1352708E-06  0.3288844E+04  0.7818609E-02  0.8165740E-01
       -1   -1    0    0    0  501  0.00000000000E+00  0.00000000000E+00  0.14627965352E+04  0.14627965352E+04  0.50400001928E-02 0.  1.
        1   -1    0    0  501    0  0.00000000000E+00  0.00000000000E+00 -0.18485983531E+04  0.18485983531E+04  0.50400001928E-02 0. -1.
    10030    2    1    2    0    0  0.00000000000E+00  0.00000000000E+00 -0.38580181786E+03  0.33113948883E+04  0.32888437274E+04 0.  0.
        5    1    3    3  502    0 -0.12096637383E+04  0.91083013552E+03 -0.83854922290E+03  0.17309202133E+04  0.46999998093E+01 0. -1.
       -5    1    3    3    0  502  0.12096637383E+04 -0.91083013552E+03  0.45274740504E+03  0.15804746750E+04  0.46999998093E+01 0.  1.
</event>
<event>
 5   0  0.1282578E-06  0.3282038E+04  0.7818609E-02  0.8167481E-01
        1   -1    0    0  501    0  0.00000000000E+00  0.00000000000E+00  0.22282630679E+04  0.22282630679E+04  0.50400001928E-02 0.  1.
       -1   -1    0    0    0  501  0.00000000000E+00  0.00000000000E+00 -0.12085391390E+04  0.12085391391E+04  0.50400001928E-02 0. -1.
    10030    2    1    2    0    0  0.00000000000E+00  0.00000000000E+00  0.10197239288E+04  0.34368022069E+04  0.32820378606E+04 0.  0.
        4    1    3    3  502    0 -0.13304341050E+04  0.88485891527E+03  0.11817658409E+03  0.16021852345E+04  0.12699999809E+01 0. -1.
       -4    1    3    3    0  502  0.13304341050E+04 -0.88485891527E+03  0.90154734474E+03  0.18346169724E+04  0.12699999809E+01 0.  1.
</event>
<event>
 5   0  0.1352708E-06  0.2933644E+04  0.7818609E-02  0.8262937E-01
       -1   -1    0    0    0  501  0.00000000000E+00  0.00000000000E+00  0.12226976680E+04  0.12226976680E+04  0.50400001928E-02 0.  1.
        1   -1    0    0  501    0  0.00000000000E+00  0.00000000000E+00 -0.17596877660E+04  0.17596877660E+04  0.50400001928E-02 0. -1.
    10030    2    1    2    0    0  0.00000000000E+00  0.00000000000E+00 -0.53699009804E+03  0.29823854341E+04  0.29336435557E+04 0.  0.
        5    1    3    3  502    0  0.12189463192E+04  0.81327875896E+03 -0.20189654338E+03  0.14792013970E+04  0.46999998093E+01 0.  1.
       -5    1    3    3    0  502 -0.12189463192E+04 -0.81327875896E+03 -0.33509355466E+03  0.15031840370E+04  0.46999998093E+01 0. -1.
</event>
<event>
 5   0  0.4017247E-06  0.2150355E+04  0.7818609E-02  0.8539380E-01
       -2   -1    0    0    0  501  0.00000000000E+00  0.00000000000E+00  0.11438559132E+04  0.11438559132E+04  0.25500000920E-02 0. -1.
        2   -1    0    0  501    0  0.00000000000E+00  0.00000000000E+00 -0.10106227896E+04  0.10106227896E+04  0.25500000920E-02 0.  1.
    10030    2    1    2    0    0  0.00000000000E+00  0.00000000000E+00  0.13323312363E+03  0.21544787029E+04  0.21503551836E+04 0.  0.
        1    1    3    3  502    0 -0.17389824480E+03 -0.38625122827E+03 -0.92349716781E+03  0.10160106446E+04  0.50400001928E-02 0.  1.
       -1    1    3    3    0  502  0.17389824480E+03  0.38625122827E+03  0.10567302914E+04  0.11384680583E+04  0.50400001928E-02 0. -1.
</event>
<event>
 5   0  0.3896210E-06  0.2851619E+04  0.7818609E-02  0.8287420E-01
       -2   -1    0    0    0  501  0.00000000000E+00  0.00000000000E+00  0.86861797041E+03  0.86861797041E+03  0.25500000920E-02 0.  1.
        2   -1    0    0  501    0  0.00000000000E+00  0.00000000000E+00 -0.23404213416E+04  0.23404213416E+04  0.25500000920E-02 0. -1.
    10030    2    1    2    0    0  0.00000000000E+00  0.00000000000E+00 -0.14718033711E+04  0.32090393120E+04  0.28516185128E+04 0.  0.
        3    1    3    3  502    0 -0.11227270093E+04 -0.80568715621E+03 -0.34077397441E+03  0.14232971028E+04  0.10100000352E+00 0.  1.
       -3    1    3    3    0  502  0.11227270093E+04  0.80568715621E+03 -0.11310293967E+04  0.17857422091E+04  0.10100000352E+00 0. -1.
</event>
<event>
 5   0  0.3812379E-06  0.3346569E+04  0.7818609E-02  0.8151146E-01
        2   -1    0    0  501    0  0.00000000000E+00  0.00000000000E+00  0.16631655243E+04  0.16631655243E+04  0.25500000920E-02 0.  1.
       -2   -1    0    0    0  501  0.00000000000E+00  0.00000000000E+00 -0.16834653457E+04  0.16834653457E+04  0.25500000920E-02 0. -1.
    10030    2    1    2    0    0  0.00000000000E+00  0.00000000000E+00 -0.20299821361E+02  0.33466308700E+04  0.33465693026E+04 0.  0.
        5    1    3    3  502    0  0.13339368783E+04 -0.14513952000E+03 -0.10098714377E+04  0.16793794944E+04  0.46999998093E+01 0. -1.
       -5    1    3    3    0  502 -0.13339368783E+04  0.14513952000E+03  0.98957161631E+03  0.16672513756E+04  0.46999998093E+01 0.  1.
</event>
<event>
 5   0  0.1352708E-06  0.3335233E+04  0.7818609E-02  0.8153988E-01
       -1   -1    0    0    0  501  0.00000000000E+00  0.00000000000E+00  0.16428246659E+04  0.16428246659E+04  0.50400001928E-02 0. -1.
        1   -1    0    0  501    0  0.00000000000E+00  0.00000000000E+00 -0.16927824542E+04  0.16927824542E+04  0.50400001928E-02 0.  1.
    10030    2    1    2    0    0  0.00000000000E+00  0.00000000000E+00 -0.49957788295E+02  0.33356071202E+04  0.33352329873E+04 0.  0.
        5    1    3    3  502    0 -0.86627518630E+03  0.11671173047E+04  0.79262561135E+03  0.16555581993E+04  0.46999998093E+01 0.  1.
       -5    1    3    3    0  502  0.86627518630E+03 -0.11671173047E+04 -0.84258339965E+03  0.16800489209E+04  0.46999998093E+01 0. -1.
</event>
<event>
 5   0  0.3896210E-06  0.3254151E+04  0.7818609E-02  0.8174661E-01
       -2   -1    0    0    0  501  0.00000000000E+00  0.00000000000E+00  0.21160741625E+04  0.21160741625E+04  0.25500000920E-02 0.  1.
        2   -1    0    0  501    0  0.00000000000E+00  0.00000000000E+00 -0.12510780239E+04  0.12510780239E+04  0.25500000920E-02 0. -1.
    10030    2    1    2    0    0  0.00000000000E+00  0.00000000000E+00  0.86499613861E+03  0.33671521864E+04  0.32541505077E+04 0.  0.
        3    1    3    3  502    0 -0.41949855055E+03 -0.88218659390E+03  0.17788907961E+04  0.20294542850E+04  0.10100000352E+00 0.  1.
       -3    1    3    3    0  502  0.41949855055E+03  0.88218659390E+03 -0.91389465746E+03  0.13376979014E+04  0.10100000352E+00 0. -1.
</event>
<event>
 5   0  0.3920487E-06  0.3094781E+04  0.7818609E-02  0.8217172E-01
        2   -1    0    0  501    0  0.00000000000E+00  0.00000000000E+00  0.18899811313E+04  0.18899811313E+04  0.25500000920E-02 0.  1.
       -2   -1    0    0    0  501  0.00000000000E+00  0.00000000000E+00 -0.12669001400E+04  0.12669001400E+04  0.25500000920E-02 0. -1.
    10030    2    1    2    0    0  0.00000000000E+00  0.00000000000E+00  0.62308099127E+03  0.31568812713E+04  0.30947810003E+04 0.  0.
        4    1    3    3  502    0  0.22976835122E+03  0.10025451507E+04 -0.86773954140E+03  0.13456833948E+04  0.12699999809E+01 0. -1.
       -4    1    3    3    0  502 -0.22976835122E+03 -0.10025451507E+04  0.14908205327E+04  0.18111978765E+04  0.12699999809E+01 0.  1.
</event>
<event>
 5   0  0.3812379E-06  0.3132689E+04  0.7818609E-02  0.8206824E-01
        2   -1    0    0  501    0  0.00000000000E+00  0.00000000000E+00  0.17833659882E+04  0.17833659882E+04  0.25500000920E-02 0. -1.
       -2   -1    0    0    0  501  0.00000000000E+00  0.00000000000E+00 -0.13757327606E+04  0.13757327606E+04  0.25500000920E-02 0.  1.
    10030    2    1    2    0    0  0.00000000000E+00  0.00000000000E+00  0.40763322762E+03  0.31590987488E+04  0.31326889498E+04 0.  0.
        5    1    3    3  502    0 -0.10165404999E+04  0.89630466247E+03 -0.58810390110E+03  0.14773641813E+04  0.46999998093E+01 0.  1.
       -5    1    3    3    0  502  0.10165404999E+04 -0.89630466247E+03  0.99573712872E+03  0.16817345674E+04  0.46999998093E+01 0. -1.
</event>
<event>
 5   0  0.1352708E-06  0.3329192E+04  0.7818609E-02  0.8155507E-01
       -1   -1    0    0    0  501  0.00000000000E+00  0.00000000000E+00  0.10209227439E+04  0.10209227439E+04  0.50400001928E-02 0.  1.
        1   -1    0    0  501    0  0.00000000000E+00  0.00000000000E+00 -0.27140930495E+04  0.27140930495E+04  0.50400001928E-02 0. -1.
    10030    2    1    2    0    0  0.00000000000E+00  0.00000000000E+00 -0.16931703056E+04  0.37350157934E+04  0.33291916877E+04 0.  0.
        5    1    3    3  502    0  0.15862257692E+04 -0.28575200086E+03 -0.37982832546E+03  0.16559160739E+04  0.46999998093E+01 0.  1.
       -5    1    3    3    0  502 -0.15862257692E+04  0.28575200086E+03 -0.13133419801E+04  0.20790997195E+04  0.46999998093E+01 0. -1.
</event>
<event>
 5   0  0.3896210E-06  0.3358667E+04  0.7818609E-02  0.8148126E-01
        2   -1    0    0  501    0  0.00000000000E+00  0.00000000000E+00  0.24246381172E+04  0.24246381172E+04  0.25500000920E-02 0. -1.
       -2   -1    0    0    0  501  0.00000000000E+00  0.00000000000E+00 -0.11631263584E+04  0.11631263584E+04  0.25500000920E-02 0.  1.
    10030    2    1    2    0    0  0.00000000000E+00  0.00000000000E+00  0.12615117587E+04  0.35877644756E+04  0.33586667020E+04 0.  0.
        3    1    3    3  502    0  0.66022925975E+03  0.15369292590E+04  0.78957937926E+03  0.18497269606E+04  0.10100000352E+00 0. -1.
       -3    1    3    3    0  502 -0.66022925975E+03 -0.15369292590E+04  0.47193237946E+03  0.17380375150E+04  0.10100000352E+00 0.  1.
</event>
<event>
 5   0  0.4017247E-06  0.3320500E+04  0.7818609E-02  0.8157699E-01
       -2   -1    0    0    0  501  0.00000000000E+00  0.00000000000E+00  0.13826322741E+04  0.13826322741E+04  0.25500000920E-02 0.  1.
        2   -1    0    0  501    0  0.00000000000E+00  0.00000000000E+00 -0.19936107372E+04  0.19936107372E+04  0.25500000920E-02 0. -1.
    10030    2    1    2    0    0  0.00000000000E+00  0.00000000000E+00 -0.61097846307E+03  0.33762430114E+04  0.33205002920E+04 0.  0.
        1    1    3    3  502    0 -0.59401982827E+03  0.10390445801E+04  0.86446042215E+03  0.14764027287E+04  0.50400001928E-02 0.  1.
       -1    1    3    3    0  502  0.59401982827E+03 -0.10390445801E+04 -0.14754388852E+04  0.18998402827E+04  0.50400001928E-02 0. -1.
</event>
<event>
 5   0  0.3920487E-06  0.3297999E+04  0.7818609E-02  0.8163405E-01
        2   -1    0    0  501    0  0.00000000000E+00  0.00000000000E+00  0.20935104432E+04  0.20935104432E+04  0.25500000920E-02 0.  1.
       -2   -1    0    0    0  501  0.00000000000E+00  0.00000000000E+00 -0.12988707656E+04  0.12988707656E+04  0.25500000920E-02 0. -1.
    10030    2    1    2    0    0  0.00000000000E+00  0.00000000000E+00  0.79463967762E+03  0.33923812088E+04  0.32979990977E+04 0.  0.
        4    1    3    3  502    0 -0.78393518729E+03 -0.44847187454E+03  0.18164833594E+04  0.20286189410E+04  0.12699999809E+01 0.  1.
       -4    1    3    3    0  502  0.78393518729E+03  0.44847187454E+03 -0.10218436817E+04  0.13637622677E+04  0.12699999809E+01 0. -1.
</event>
<event>
 5   0  0.4017247E-06  0.3335699E+04  0.7818609E-02  0.8153871E-01
       -2   -1    0    0    0  501  0.00000000000E+00  0.00000000000E+00  0.17963671622E+04  0.17963671622E+04  0.25500000920E-02 0. -1.
        2   -1    0    0  501    0  0.00000000000E+00  0.00000000000E+00 -0.15485266871E+04  0.15485266871E+04  0.25500000920E-02 0.  1.
    10030    2    1    2    0    0  0.00000000000E+00  0.00000000000E+00  0.24784047510E+03  0.33448938492E+04  0.33356993212E+04 0.  0.
        1    1    3    3  502    0  0.14070138536E+04 -0.17537298654E+03  0.10045657909E+04  0.17376985057E+04  0.50400001928E-02 0. -1.
       -1    1    3    3    0  502 -0.14070138536E+04  0.17537298654E+03 -0.75672531580E+03  0.16071953435E+04  0.50400001928E-02 0.  1.
</event>
<event>
 5   0  0.3896210E-06  0.2054658E+04  0.7818609E-02  0.8581484E-01
       -2   -1    0    0    0  501  0.00000000000E+00  0.00000000000E+00  0.11073134022E+04  0.11073134022E+04  0.25500000920E-02 0. -1.
        2   -1    0    0  501    0  0.00000000000E+00  0.00000000000E+00 -0.95312255966E+03  0.95312255966E+03  0.25500000920E-02 0.  1.
    10030    2    1    2    0    0  0.00000000000E+00  0.00000000000E+00  0.15419084250E+03  0.20604359618E+04  0.20546584964E+04 0.  0.
        3    1    3    3  502    0  0.72899637243E+03  0.59987940177E+03 -0.32915401654E+03  0.99981667544E+03  0.10100000352E+00 0.  1.
       -3    1    3    3    0  502 -0.72899637243E+03 -0.59987940177E+03  0.48334485905E+03  0.10606192864E+04  0.10100000352E+00 0. -1.
</event>
<event>
 5   0  0.3671997E-06  0.3283502E+04  0.7818609E-02  0.8167106E-01
       -2   -1    0    0    0  501  0.00000000000E+00  0.00000000000E+00  0.11802379803E+04  0.11802379803E+04  0.25500000920E-02 0.  1.
        2   -1    0    0  501    0  0.00000000000E+00  0.00000000000E+00 -0.22837317313E+04  0.22837317313E+04  0.25500000920E-02 0. -1.
    10030    2    1    2    0    0  0.00000000000E+00  0.00000000000E+00 -0.11034937510E+04  0.34639697116E+04  0.32835023534E+04 0.  0.
        2    1    3    3  502    0 -0.11962141842E+04  0.86325215904E+03  0.20842195936E+03  0.14898229350E+04  0.25500000920E-02 0.  1.
       -2    1    3    3    0  502  0.11962141842E+04 -0.86325215904E+03 -0.13119157103E+04  0.19741467766E+04  0.25500000920E-02 0. -1.
</event>
<event>
 5   0  0.4017247E-06  0.2949297E+04  0.7818609E-02  0.8258359E-01
       -2   -1    0    0    0  501  0.00000000000E+00  0.00000000000E+00  0.78550356538E+03  0.78550356539E+03  0.25500000920E-02 0. -1.
        2   -1    0    0  501    0  0.00000000000E+00  0.00000000000E+00 -0.27684004092E+04  0.27684004092E+04  0.25500000920E-02 0.  1.
    10030    2    1    2    0    0  0.00000000000E+00  0.00000000000E+00 -0.19828968438E+04  0.35539039746E+04  0.29492971311E+04 0.  0.
        1    1    3    3  502    0  0.87402117901E+03 -0.14295547213E+03  0.42934818301E+03  0.98422007227E+03  0.50400001928E-02 0. -1.
       -1    1    3    3    0  502 -0.87402117901E+03  0.14295547213E+03 -0.24122450268E+04  0.25696839023E+04  0.50400001928E-02 0.  1.
</event>
<event>
 5   0  0.3671997E-06  0.3286896E+04  0.7818609E-02  0.8166238E-01
        2   -1    0    0  501    0  0.00000000000E+00  0.00000000000E+00  0.16494338635E+04  0.16494338635E+04  0.25500000920E-02 0.  1.
       -2   -1    0    0    0  501  0.00000000000E+00  0.00000000000E+00 -0.16374841391E+04  0.16374841391E+04  0.25500000920E-02 0. -1.
    10030    2    1    2    0    0  0.00000000000E+00  0.00000000000E+00  0.11949724449E+02  0.32869180026E+04  0.32868962807E+04 0.  0.
        2    1    3    3  502    0 -0.27184861362E+03 -0.15446156423E+04  0.49708159855E+03  0.16452444399E+04  0.25500000920E-02 0.  1.
       -2    1    3    3    0  502  0.27184861362E+03  0.15446156423E+04 -0.48513187410E+03  0.16416735627E+04  0.25500000920E-02 0. -1.
</event>
<event>
 5   0  0.1405389E-06  0.3129101E+04  0.7818609E-02  0.8207797E-01
        1   -1    0    0  501    0  0.00000000000E+00  0.00000000000E+00  0.21681205457E+04  0.21681205457E+04  0.50400001928E-02 0. -1.
       -1   -1    0    0    0  501  0.00000000000E+00  0.00000000000E+00 -0.11290045859E+04  0.11290045859E+04  0.50400001928E-02 0.  1.
    10030    2    1    2    0    0  0.00000000000E+00  0.00000000000E+00  0.10391159597E+04  0.32971251316E+04  0.31291008542E+04 0.  0.
        1    1    3    3  502    0  0.77973753191E+03  0.13234811236E+04  0.83253470064E+03  0.17471997399E+04  0.50400001928E-02 0. -1.
       -1    1    3    3    0  502 -0.77973753191E+03 -0.13234811236E+04  0.20658125909E+03  0.15499253917E+04  0.50400001928E-02 0.  1.
</event>
<event>
 5   0  0.1391878E-06  0.3265610E+04  0.7818609E-02  0.8171701E-01
       -1   -1    0    0    0  501  0.00000000000E+00  0.00000000000E+00  0.13690591220E+04  0.13690591220E+04  0.50400001928E-02 0. -1.
        1   -1    0    0  501    0  0.00000000000E+00  0.00000000000E+00 -0.19473607426E+04  0.19473607426E+04  0.50400001928E-02 0.  1.
    10030    2    1    2    0    0  0.00000000000E+00  0.00000000000E+00 -0.57830162067E+03  0.33164198646E+04  0.32656098901E+04 0.  0.
        2    1    3    3  502    0 -0.47137197029E+03  0.15154961433E+03  0.12909799138E+04  0.13826742052E+04  0.25500000920E-02 0. -1.
       -2    1    3    3    0  502  0.47137197029E+03 -0.15154961433E+03 -0.18692815345E+04  0.19337456594E+04  0.25500000920E-02 0.  1.
</event>
<event>
 5   0  0.1282578E-06  0.3238892E+04  0.7818609E-02  0.8178621E-01
       -1   -1    0    0    0  501  0.00000000000E+00  0.00000000000E+00  0.10439960778E+04  0.10439960778E+04  0.50400001928E-02 0. -1.
        1   -1    0    0  501    0  0.00000000000E+00  0.00000000000E+00 -0.25120839330E+04  0.25120839330E+04  0.50400001928E-02 0.  1.
    10030    2    1    2    0    0  0.00000000000E+00  0.00000000000E+00 -0.14680878552E+04  0.35560800108E+04  0.32388922632E+04 0.  0.
        4    1    3    3  502    0  0.15916371101E+03  0.18491675062E+03 -0.24917887907E+04  0.25037053105E+04  0.12699999809E+01 0.  1.
       -4    1    3    3    0  502 -0.15916371101E+03 -0.18491675062E+03  0.10237009355E+04  0.10523747003E+04  0.12699999809E+01 0. -1.
</event>
<event>
 5   0  0.1352708E-06  0.3354563E+04  0.7818609E-02  0.8149149E-01
        1   -1    0    0  501    0  0.00000000000E+00  0.00000000000E+00  0.23262129706E+04  0.23262129706E+04  0.50400001928E-02 0.  1.
       -1   -1    0    0    0  501  0.00000000000E+00  0.00000000000E+00 -0.12093788131E+04  0.12093788131E+04  0.50400001928E-02 0. -1.
    10030    2    1    2    0    0  0.00000000000E+00  0.00000000000E+00  0.11168341575E+04  0.35355917837E+04  0.33545626727E+04 0.  0.
        5    1    3    3  502    0  0.71432845160E+03 -0.89453999751E+03 -0.73361839042E+03  0.13596635527E+04  0.46999998093E+01 0. -1.
       -5    1    3    3    0  502 -0.71432845160E+03  0.89453999751E+03  0.18504525479E+04  0.21759282309E+04  0.46999998093E+01 0.  1.
</event>
<event>
 5   0  0.3896210E-06  0.3308734E+04  0.7818609E-02  0.8160677E-01
        2   -1    0    0  501    0  0.00000000000E+00  0.00000000000E+00  0.33651062179E+04  0.33651062179E+04  0.25500000920E-02 0. -1.
       -2   -1    0    0    0  501  0.00000000000E+00  0.00000000000E+00 -0.81332666860E+03  0.81332666860E+03  0.25500000920E-02 0.  1.
    10030    2    1    2    0    0  0.00000000000E+00  0.00000000000E+00  0.25517795494E+04  0.41784328865E+04  0.33087342775E+04 0.  0.
        3    1    3    3  502    0  0.36407451019E+03 -0.10346916261E+04  0.28398834855E+04  0.30443513647E+04  0.10100000352E+00 0. -1.
       -3    1    3    3    0  502 -0.36407451019E+03  0.10346916261E+04 -0.28810393619E+03  0.11340815219E+04  0.10100000352E+00 0.  1.
</event>
<event>
 5   0  0.3896210E-06  0.3268677E+04  0.7818609E-02  0.8170912E-01
       -2   -1    0    0    0  501  0.00000000000E+00  0.00000000000E+00  0.14152728221E+04  0.14152728221E+04  0.25500000920E-02 0. -1.
        2   -1    0    0  501    0  0.00000000000E+00  0.00000000000E+00 -0.18873128310E+04  0.18873128310E+04  0.25500000920E-02 0.  1.
    10030    2    1    2    0    0  0.00000000000E+00  0.00000000000E+00 -0.47204000896E+03  0.33025856531E+04  0.32686771370E+04 0.  0.
        3    1    3    3  502    0  0.13947833057E+04  0.72567497809E+03 -0.68678476613E+03  0.17157208307E+04  0.10100000352E+00 0. -1.
       -3    1    3    3    0  502 -0.13947833057E+04 -0.72567497809E+03  0.21474475717E+03  0.15868648224E+04  0.10100000352E+00 0.  1.
</event>
<event>
 5   0  0.1339825E-06  0.3429215E+04  0.7818609E-02  0.8130773E-01
        1   -1    0    0  501    0  0.00000000000E+00  0.00000000000E+00  0.22002071508E+04  0.22002071508E+04  0.50400001928E-02 0. -1.
       -1   -1    0    0    0  501  0.00000000000E+00  0.00000000000E+00 -0.13361826995E+04  0.13361826995E+04  0.50400001928E-02 0.  1.
    10030    2    1    2    0    0  0.00000000000E+00  0.00000000000E+00  0.86402445131E+03  0.35363898503E+04  0.34292149132E+04 0.  0.
        3    1    3    3  502    0 -0.53206739830E+03 -0.16296596652E+04  0.39952562492E+03  0.17602576732E+04  0.10100000352E+00 0. -1.
       -3    1    3    3    0  502  0.53206739830E+03  0.16296596652E+04  0.46449882639E+03  0.17761321772E+04  0.10100000352E+00 0.  1.
</event>
<event>
 5   0  0.1282578E-06  0.2351857E+04  0.7818609E-02  0.8457751E-01
       -1   -1    0    0    0  501  0.00000000000E+00  0.00000000000E+00  0.93716127453E+03  0.93716127454E+03  0.50400001928E-02 0.  1.
        1   -1    0    0  501    0  0.00000000000E+00  0.00000000000E+00 -0.14755284344E+04  0.14755284344E+04  0.50400001928E-02 0. -1.
    10030    2    1    2    0    0  0.00000000000E+00  0.00000000000E+00 -0.53836715983E+03  0.24126897089E+04  0.23518572305E+04 0.  0.
        4    1    3    3  502    0  0.10448828168E+04  0.49841826083E+03 -0.57433286059E+02  0.11590949309E+04  0.12699999809E+01 0.  1.
       -4    1    3    3    0  502 -0.10448828168E+04 -0.49841826083E+03 -0.48093387377E+03  0.12535947780E+04  0.12699999809E+01 0. -1.
</event>
<event>
 5   0  0.1352708E-06  0.3145362E+04  0.7818609E-02  0.8203398E-01
       -1   -1    0    0    0  501  0.00000000000E+00  0.00000000000E+00  0.22205873361E+04  0.22205873361E+04  0.50400001928E-02 0.  1.
        1   -1    0    0  501    0  0.00000000000E+00  0.00000000000E+00 -0.11138158270E+04  0.11138158271E+04  0.50400001928E-02 0. -1.
    10030    2    1    2    0    0  0.00000000000E+00  0.00000000000E+00  0.11067715091E+04  0.33344031632E+04  0.31453618681E+04 0.  0.
        5    1    3    3  502    0 -0.58977582240E+03 -0.97484411160E+03  0.17025802274E+04  0.20486478671E+04  0.46999998093E+01 0.  1.
       -5    1    3    3    0  502  0.58977582240E+03  0.97484411160E+03 -0.59580871832E+03  0.12857552961E+04  0.46999998093E+01 0. -1.
</event>
<event>
 5   0  0.3920487E-06  0.3284520E+04  0.7818609E-02  0.8166845E-01
        2   -1    0    0  501    0  0.00000000000E+00  0.00000000000E+00  0.84931156721E+03  0.84931156721E+03  0.25500000920E-02 0.  1.
       -2   -1    0    0    0  501  0.00000000000E+00  0.00000000000E+00 -0.31755347232E+04  0.31755347232E+04  0.25500000920E-02 0. -1.
    10030    2    1    2    0    0  0.00000000000E+00  0.00000000000E+00 -0.23262231560E+04  0.40248462905E+04  0.32845202831E+04 0.  0.
        4    1    3    3  502    0 -0.92478822387E+03 -0.34713114765E+03 -0.27708061659E+04  0.29416154940E+04  0.12699999809E+01 0. -1.
       -4    1    3    3    0  502  0.92478822387E+03  0.34713114765E+03  0.44458300991E+03  0.10832307964E+04  0.12699999809E+01 0.  1.
</event>
<event>
 5   0  0.3920487E-06  0.3326650E+04  0.7818609E-02  0.8156147E-01
       -2   -1    0    0    0  501  0.00000000000E+00  0.00000000000E+00  0.14419623265E+04  0.14419623265E+04  0.25500000920E-02 0. -1.
        2   -1    0    0  501    0  0.00000000000E+00  0.00000000000E+00 -0.19186706888E+04  0.19186706888E+04  0.25500000920E-02 0.  1.
    10030    2    1    2    0    0  0.00000000000E+00  0.00000000000E+00 -0.47670836229E+03  0.33606330153E+04  0.33266504777E+04 0.  0.
        4    1    3    3  502    0 -0.66006122301E+03 -0.67469712204E+03  0.11452174552E+04  0.14840558134E+04  0.12699999809E+01 0. -1.
       -4    1    3    3    0  502  0.66006122301E+03  0.67469712204E+03 -0.16219258175E+04  0.18765772020E+04  0.12699999809E+01 0.  1.
</event>
<event>
 5   0  0.3896210E-06  0.3172317E+04  0.7818609E-02  0.8196167E-01
        2   -1    0    0  501    0  0.00000000000E+00  0.00000000000E+00  0.11938187538E+04  0.11938187538E+04  0.25500000920E-02 0. -1.
       -2   -1    0    0    0  501  0.00000000000E+00  0.00000000000E+00 -0.21074373211E+04  0.21074373211E+04  0.25500000920E-02 0.  1.
    10030    2    1    2    0    0  0.00000000000E+00  0.00000000000E+00 -0.91361856723E+03  0.33012560749E+04  0.31723166276E+04 0.  0.
        3    1    3    3  502    0 -0.49554981917E+03 -0.11333813493E+04 -0.14900265317E+04  0.19365696428E+04  0.10100000352E+00 0.  1.
       -3    1    3    3    0  502  0.49554981917E+03  0.11333813493E+04  0.57640796448E+03  0.13646864321E+04  0.10100000352E+00 0. -1.
</event>
<event>
 5   0  0.1405389E-06  0.3282476E+04  0.7818609E-02  0.8167369E-01
        1   -1    0    0  501    0  0.00000000000E+00  0.00000000000E+00  0.25389261004E+04  0.25389261004E+04  0.50400001928E-02 0.  1.
       -1   -1    0    0    0  501  0.00000000000E+00  0.00000000000E+00 -0.10609455701E+04  0.10609455701E+04  0.50400001928E-02 0. -1.
    10030    2    1    2    0    0  0.00000000000E+00  0.00000000000E+00  0.14779805303E+04  0.35998716705E+04  0.32824761380E+04 0.  0.
        1    1    3    3  502    0 -0.47915587753E+03  0.35725327157E+03 -0.93735301232E+03  0.11116883218E+04  0.50400001928E-02 0. -1.
       -1    1    3    3    0  502  0.47915587753E+03 -0.35725327157E+03  0.24153335426E+04  0.24881833488E+04  0.50400001928E-02 0.  1.
</event>
<event>
 5   0  0.3920487E-06  0.3277136E+04  0.7818609E-02  0.8168738E-01
       -2   -1    0    0    0  501  0.00000000000E+00  0.00000000000E+00  0.94960083404E+03  0.94960083404E+03  0.25500000920E-02 0.  1.
        2   -1    0    0  501    0  0.00000000000E+00  0.00000000000E+00 -0.28274034304E+04  0.28274034304E+04  0.25500000920E-02 0. -1.
    10030    2    1    2    0    0  0.00000000000E+00  0.00000000000E+00 -0.18778025964E+04  0.37770042645E+04  0.32771357346E+04 0.  0.
        4    1    3    3  502    0  0.12876926649E+03 -0.15111712984E+04 -0.16537340528E+04  0.22438935241E+04  0.12699999809E+01 0. -1.
       -4    1    3    3    0  502 -0.12876926649E+03  0.15111712984E+04 -0.22406854360E+03  0.15331107404E+04  0.12699999809E+01 0.  1.
</event>
<event>
 5   0  0.1282578E-06  0.3306863E+04  0.7818609E-02  0.8161151E-01
       -1   -1    0    0    0  501  0.00000000000E+00  0.00000000000E+00  0.17155143566E+04  0.17155143566E+04  0.50400001928E-02 0. -1.
        1   -1    0    0  501    0  0.00000000000E+00  0.00000000000E+00 -0.15935949711E+04  0.15935949711E+04  0.50400001928E-02 0.  1.
    10030    2    1    2    0    0  0.00000000000E+00  0.00000000000E+00  0.12191938549E+03  0.33091093277E+04  0.33068625925E+04 0.  0.
        4    1    3    3  502    0  0.67161051809E+03 -0.14475325392E+04 -0.37225741253E+03  0.16385934011E+04  0.12699999809E+01 0.  1.
       -4    1    3    3    0  502 -0.67161051809E+03  0.14475325392E+04  0.49417679802E+03  0.16705159265E+04  0.12699999809E+01 0. -1.
</event>
<event>
 5   0  0.4017247E-06  0.3295913E+04  0.7818609E-02  0.8163936E-01
       -2   -1    0    0    0  501  0.00000000000E+00  0.00000000000E+00  0.11922711268E+04  0.11922711268E+04  0.25500000920E-02 0.  1.
        2   -1    0    0  501    0  0.00000000000E+00  0.00000000000E+00 -0.22778046166E+04  0.22778046166E+04  0.25500000920E-02 0. -1.
    10030    2    1    2    0    0  0.00000000000E+00  0.00000000000E+00 -0.10855334897E+04  0.34700757434E+04  0.32959130310E+04 0.  0.
        1    1    3    3  502    0  0.36290066776E+03 -0.13059584936E+04 -0.15295983280E+04  0.20437454653E+04  0.50400001928E-02 0. -1.
       -1    1    3    3    0  502 -0.36290066776E+03  0.13059584936E+04  0.44406483829E+03  0.14263302781E+04  0.50400001928E-02 0.  1.
</event>
<event>
 5   0  0.3812379E-06  0.3205021E+04  0.7818609E-02  0.8187492E-01
        2   -1    0    0  501    0  0.00000000000E+00  0.00000000000E+00  0.21865114570E+04  0.21865114570E+04  0.25500000920E-02 0. -1.
       -2   -1    0    0    0  501  0.00000000000E+00  0.00000000000E+00 -0.11744917053E+04  0.11744917053E+04  0.25500000920E-02 0.  1.
    10030    2    1    2    0    0  0.00000000000E+00  0.00000000000E+00  0.10120197517E+04  0.33610031624E+04  0.32050207924E+04 0.  0.
        5    1    3    3  502    0  0.33232530542E+03 -0.26069108494E+03 -0.11150619861E+04  0.11923863775E+04  0.46999998093E+01 0.  1.
       -5    1    3    3    0  502 -0.33232530542E+03  0.26069108494E+03  0.21270817378E+04  0.21686167849E+04  0.46999998093E+01 0. -1.
</event>
<event>
 5   0  0.1405389E-06  0.3291650E+04  0.7818609E-02  0.8165023E-01
       -1   -1    0    0    0  501  0.00000000000E+00  0.00000000000E+00  0.10740744455E+04  0.10740744455E+04  0.50400001928E-02 0. -1.
        1   -1    0    0  501    0  0.00000000000E+00  0.00000000000E+00 -0.25219295223E+04  0.25219295223E+04  0.50400001928E-02 0.  1.
    10030    2    1    2    0    0  0.00000000000E+00  0.00000000000E+00 -0.14478550769E+04  0.35960039678E+04  0.32916500745E+04 0.  0.
        1    1    3    3  502    0 -0.10823291150E+04 -0.11763956967E+03  0.62448473113E+03  0.12550922520E+04  0.50400001928E-02 0. -1.
       -1    1    3    3    0  502  0.10823291150E+04  0.11763956967E+03 -0.20723398080E+04  0.23409117158E+04  0.50400001928E-02 0.  1.
</event>
<event>
 5   0  0.1405389E-06  0.3300626E+04  0.7818609E-02  0.8162736E-01
       -1   -1    0    0    0  501  0.00000000000E+00  0.00000000000E+00  0.15853367865E+04  0.15853367865E+04  0.50400001928E-02 0. -1.
        1   -1    0    0  501    0  0.00000000000E+00  0.00000000000E+00 -0.17179526457E+04  0.17179526457E+04  0.50400001928E-02 0.  1.
    10030    2    1    2    0    0  0.00000000000E+00  0.00000000000E+00 -0.13261585925E+03  0.33032894322E+04  0.33006263204E+04 0.  0.
        1    1    3    3  502    0 -0.91155684359E+03  0.13495906680E+04  0.20074566530E+03  0.16409234207E+04  0.50400001928E-02 0. -1.
       -1    1    3    3    0  502  0.91155684359E+03 -0.13495906680E+04 -0.33336152455E+03  0.16623660116E+04  0.50400001928E-02 0.  1.
</event>
<event>
 5   0  0.1282578E-06  0.2446792E+04  0.7818609E-02  0.8422190E-01
        1   -1    0    0  501    0  0.00000000000E+00  0.00000000000E+00  0.11656640097E+04  0.11656640098E+04  0.50400001928E-02 0.  1.
       -1   -1    0    0    0  501  0.00000000000E+00  0.00000000000E+00 -0.12839876081E+04  0.12839876081E+04  0.50400001928E-02 0. -1.
    10030    2    1    2    0    0  0.00000000000E+00  0.00000000000E+00 -0.11832359833E+03  0.24496516178E+04  0.24467923032E+04 0.  0.
        4    1    3    3  502    0 -0.10999016909E+04  0.53558057793E+03 -0.67310451944E+02  0.12252194069E+04  0.12699999809E+01 0.  1.
       -4    1    3    3    0  502  0.10999016909E+04 -0.53558057793E+03 -0.51013146387E+02  0.12244322109E+04  0.12699999809E+01 0. -1.
</event>
<event>
 5   0  0.3920487E-06  0.3199494E+04  0.7818609E-02  0.8188951E-01
       -2   -1    0    0    0  501  0.00000000000E+00  0.00000000000E+00  0.14926532800E+04  0.14926532800E+04  0.25500000920E-02 0. -1.
        2   -1    0    0  501    0  0.00000000000E+00  0.00000000000E+00 -0.17145241752E+04  0.17145241752E+04  0.25500000920E-02 0.  1.
    10030    2    1    2    0    0  0.00000000000E+00  0.00000000000E+00 -0.22187089521E+03  0.32071774551E+04  0.31994937935E+04 0.  0.
        4    1    3    3  502    0 -0.61532126674E+03 -0.55886478164E+03  0.12591822223E+04  0.15088046883E+04  0.12699999809E+01 0. -1.
       -4    1    3    3    0  502  0.61532126674E+03  0.55886478164E+03 -0.14810531175E+04  0.16983727669E+04  0.12699999809E+01 0.  1.
</event>
<event>
 5   0  0.1405389E-06  0.2636944E+04  0.7818609E-02  0.8355760E-01
       -1   -1    0    0    0  501  0.00000000000E+00  0.00000000000E+00  0.91462332204E+03  0.91462332205E+03  0.50400001928E-02 0. -1.
        1   -1    0    0  501    0  0.00000000000E+00  0.00000000000E+00 -0.19006380620E+04  0.19006380620E+04  0.50400001928E-02 0.  1.
    10030    2    1    2    0    0  0.00000000000E+00  0.00000000000E+00 -0.98601474000E+03  0.28152613841E+04  0.26369436083E+04 0.  0.
        1    1    3    3  502    0  0.96479215840E+03 -0.15026743510E+03  0.45288705158E+03  0.10763414386E+04  0.50400001928E-02 0. -1.
       -1    1    3    3    0  502 -0.96479215840E+03  0.15026743510E+03 -0.14389017916E+04  0.17389199455E+04  0.50400001928E-02 0.  1.
</event>
<event>
 5   0  0.4017247E-06  0.3320965E+04  0.7818609E-02  0.8157581E-01
       -2   -1    0    0    0  501  0.00000000000E+00  0.00000000000E+00  0.11225263698E+04  0.11225263698E+04  0.25500000920E-02 0. -1.
        2   -1    0    0  501    0  0.00000000000E+00  0.00000000000E+00 -0.24562469768E+04  0.24562469768E+04  0.25500000920E-02 0.  1.
    10030    2    1    2    0    0  0.00000000000E+00  0.00000000000E+00 -0.13337206070E+04  0.35787733466E+04  0.33209649214E+04 0.  0.
        1    1    3    3  502    0 -0.26192033313E+03 -0.16012980452E+04 -0.10470124361E+04  0.19310600021E+04  0.50400001928E-02 0. -1.
       -1    1    3    3    0  502  0.26192033313E+03  0.16012980452E+04 -0.28670817087E+03  0.16477133445E+04  0.50400001928E-02 0.  1.
</event>
<event>
 5   0  0.1352708E-06  0.3311444E+04  0.7818609E-02  0.8159990E-01
       -1   -1    0    0    0  501  0.00000000000E+00  0.00000000000E+00  0.19861910307E+04  0.19861910307E+04  0.50400001928E-02 0.  1.
        1   -1    0    0  501    0  0.00000000000E+00  0.00000000000E+00 -0.13802374154E+04  0.13802374154E+04  0.50400001928E-02 0. -1.
    10030    2    1    2    0    0  0.00000000000E+00  0.00000000000E+00  0.60595361533E+03  0.33664284461E+04  0.33114438994E+04 0.  0.
        5    1    3    3  502    0 -0.29914991130E+03  0.12790930945E+04 -0.72163903072E+03  0.14987844389E+04  0.46999998093E+01 0. -1.
       -5    1    3    3    0  502  0.29914991130E+03 -0.12790930945E+04  0.13275926461E+04  0.18676440072E+04  0.46999998093E+01 0.  1.
</event>
<event>
 5   0  0.3896210E-06  0.3272804E+04  0.7818609E-02  0.8169850E-01
        2   -1    0    0  501    0  0.00000000000E+00  0.00000000000E+00  0.20373705548E+04  0.20373705548E+04  0.25500000920E-02 0.  1.
       -2   -1    0    0    0  501  0.00000000000E+00  0.00000000000E+00 -0.13143470132E+04  0.13143470132E+04  0.25500000920E-02 0. -1.
    10030    2    1    2    0    0  0.00000000000E+00  0.00000000000E+00  0.72302354162E+03  0.33517175680E+04  0.32728042431E+04 0.  0.
        3    1    3    3  502    0  0.12398926563E+04  0.59324556578E+03 -0.54789596168E+03  0.14796837823E+04  0.10100000352E+00 0. -1.
       -3    1    3    3    0  502 -0.12398926563E+04 -0.59324556578E+03  0.12709195033E+04  0.18720337857E+04  0.10100000352E+00 0.  1.
</event>
<event>
 5   0  0.1405389E-06  0.2974699E+04  0.7818609E-02  0.8250993E-01
        1   -1    0    0  501    0  0.00000000000E+00  0.00000000000E+00  0.13424651215E+04  0.13424651215E+04  0.50400001928E-02 0. -1.
       -1   -1    0    0    0  501  0.00000000000E+00  0.00000000000E+00 -0.16478698800E+04  0.16478698800E+04  0.50400001928E-02 0.  1.
    10030    2    1    2    0    0  0.00000000000E+00  0.00000000000E+00 -0.30540475851E+03  0.29903350016E+04  0.29746985318E+04 0.  0.
        1    1    3    3  502    0  0.11016064959E+04  0.84320899985E+03  0.38646527714E+03  0.14401019754E+04  0.50400001928E-02 0.  1.
       -1    1    3    3    0  502 -0.11016064959E+04 -0.84320899985E+03 -0.69187003565E+03  0.15502330262E+04  0.50400001928E-02 0. -1.
</event>
<event>
 5   0  0.1352708E-06  0.3279605E+04  0.7818609E-02  0.8168104E-01
        1   -1    0    0  501    0  0.00000000000E+00  0.00000000000E+00  0.30171238002E+04  0.30171238002E+04  0.50400001928E-02 0. -1.
       -1   -1    0    0    0  501  0.00000000000E+00  0.00000000000E+00 -0.89123043291E+03  0.89123043293E+03  0.50400001928E-02 0.  1.
    10030    2    1    2    0    0  0.00000000000E+00  0.00000000000E+00  0.21258933672E+04  0.39083542331E+04  0.32796051900E+04 0.  0.
        5    1    3    3  502    0  0.13190145754E+04  0.97297570557E+03  0.10039683945E+04  0.19220967200E+04  0.46999998093E+01 0. -1.
       -5    1    3    3    0  502 -0.13190145754E+04 -0.97297570557E+03  0.11219249728E+04  0.19862575131E+04  0.46999998093E+01 0.  1.
</event>
<event>
 5   0  0.3812379E-06  0.3257632E+04  0.7818609E-02  0.8173760E-01
       -2   -1    0    0    0  501  0.00000000000E+00  0.00000000000E+00  0.12124767938E+04  0.12124767938E+04  0.25500000920E-02 0. -1.
        2   -1    0    0  501    0  0.00000000000E+00  0.00000000000E+00 -0.21881169604E+04  0.21881169604E+04  0.25500000920E-02 0.  1.
    10030    2    1    2    0    0  0.00000000000E+00  0.00000000000E+00 -0.97564016660E+03  0.34005937543E+04  0.32576316776E+04 0.  0.
        5    1    3    3  502    0  0.13402275801E+03 -0.58472028884E+03 -0.20685943609E+04  0.21538255815E+04  0.46999998093E+01 0.  1.
       -5    1    3    3    0  502 -0.13402275801E+03  0.58472028884E+03  0.10929541943E+04  0.12467681728E+04  0.46999998093E+01 0. -1.
</event>
<event>
 5   0  0.1405389E-06  0.3310350E+04  0.7818609E-02  0.8160267E-01
        1   -1    0    0  501    0  0.00000000000E+00  0.00000000000E+00  0.27125526370E+04  0.27125526370E+04  0.50400001928E-02 0.  1.
       -1   -1    0    0    0  501  0.00000000000E+00  0.00000000000E+00 -0.10099728243E+04  0.10099728243E+04  0.50400001928E-02 0. -1.
    10030    2    1    2    0    0  0.00000000000E+00  0.00000000000E+00  0.17025798127E+04  0.37225254613E+04  0.33103501011E+04 0.  0.
        1    1    3    3  502    0 -0.14732348736E+04  0.68151633853E+03  0.48739467935E+03  0.16948271552E+04  0.50400001928E-02 0. -1.
       -1    1    3    3    0  502  0.14732348736E+04 -0.68151633853E+03  0.12151851333E+04  0.20276983061E+04  0.50400001928E-02 0.  1.
</event>
<event>
 5   0  0.1352708E-06  0.3293408E+04  0.7818609E-02  0.8164575E-01
       -1   -1    0    0    0  501  0.00000000000E+00  0.00000000000E+00  0.13313151720E+04  0.13313151720E+04  0.50400001928E-02 0.  1.
        1   -1    0    0  501    0  0.00000000000E+00  0.00000000000E+00 -0.20368084577E+04  0.20368084577E+04  0.50400001928E-02 0. -1.
    10030    2    1    2    0    0  0.00000000000E+00  0.00000000000E+00 -0.70549328570E+03  0.33681236297E+04  0.32934079627E+04 0.  0.
        5    1    3    3  502    0  0.19441266050E+03 -0.39981985610E+03  0.12687708936E+04  0.13444158100E+04  0.46999998093E+01 0.  1.
       -5    1    3    3    0  502 -0.19441266050E+03  0.39981985610E+03 -0.19742641793E+04  0.20237078197E+04  0.46999998093E+01 0. -1.
</event>
<event>
 5   0  0.1339825E-06  0.3172556E+04  0.7818609E-02  0.8196103E-01
       -1   -1    0    0    0  501  0.00000000000E+00  0.00000000000E+00  0.13605645995E+04  0.13605645995E+04  0.50400001928E-02 0. -1.
        1   -1    0    0  501    0  0.00000000000E+00  0.00000000000E+00 -0.18494361462E+04  0.18494361462E+04  0.50400001928E-02 0.  1.
    10030    2    1    2    0    0  0.00000000000E+00  0.00000000000E+00 -0.48887154668E+03  0.32100007458E+04  0.31725556573E+04 0.  0.
        3    1    3    3  502    0 -0.10648785405E+04  0.22293580121E+03  0.92357682001E+03  0.14271162637E+04  0.10100000352E+00 0. -1.
       -3    1    3    3    0  502  0.10648785405E+04 -0.22293580121E+03 -0.14124483667E+04  0.17828844820E+04  0.10100000352E+00 0.  1.
</event>
<event>
 5   0  0.3920487E-06  0.3291167E+04  0.7818609E-02  0.8165147E-01
        2   -1    0    0  501    0  0.00000000000E+00  0.00000000000E+00  0.87532504574E+03  0.87532504574E+03  0.25500000920E-02 0.  1.
       -2   -1    0    0    0  501  0.00000000000E+00  0.00000000000E+00 -0.30936443900E+04  0.30936443900E+04  0.25500000920E-02 0. -1.
    10030    2    1    2    0    0  0.00000000000E+00  0.00000000000E+00 -0.22183193442E+04  0.39689694357E+04  0.32911666121E+04 0.  0.
        4    1    3    3  502    0 -0.63117509912E+02 -0.14005958224E+04 -0.21481578509E+04  0.25651971159E+04  0.12699999809E+01 0. -1.
       -4    1    3    3    0  502  0.63117509912E+02  0.14005958224E+04 -0.70161493278E+02  0.14037723198E+04  0.12699999809E+01 0.  1.
</event>
<event>
 5   0  0.1391878E-06  0.2190389E+04  0.7818609E-02  0.8522439E-01
        1   -1    0    0  501    0  0.00000000000E+00  0.00000000000E+00  0.13470638728E+04  0.13470638728E+04  0.50400001928E-02 0.  1.
       -1   -1    0    0    0  501  0.00000000000E+00  0.00000000000E+00 -0.89041898800E+03  0.89041898802E+03  0.50400001928E-02 0. -1.
    10030    2    1    2    0    0  0.00000000000E+00  0.00000000000E+00  0.45664488476E+03  0.22374828608E+04  0.21903892352E+04 0.  0.
        2    1    3    3  502    0  0.47296953211E+03 -0.14459582811E+03  0.12264922565E+04  0.13224565729E+04  0.25500000920E-02 0.  1.
       -2    1    3    3    0  502 -0.47296953211E+03  0.14459582811E+03 -0.76984737175E+03  0.91502628793E+03  0.25500000920E-02 0. -1.
</event>
<event>
 5   0  0.1259875E-06  0.2412381E+04  0.7818609E-02  0.8434883E-01
        3   -1    0    0  501    0  0.00000000000E+00  0.00000000000E+00  0.10433142533E+04  0.10433142582E+04  0.10100000352E+00 0. -1.
       -3   -1    0    0    0  501  0.00000000000E+00  0.00000000000E+00 -0.13944940421E+04  0.13944940458E+04  0.10100000352E+00 0.  1.
    10030    2    1    2    0    0  0.00000000000E+00  0.00000000000E+00 -0.35117978879E+03  0.24378083040E+04  0.24123809987E+04 0.  0.
        5    1    3    3  502    0  0.23907686340E+03  0.11483423153E+04  0.10848809414E+03  0.11779811443E+04  0.46999998093E+01 0.  1.
       -5    1    3    3    0  502 -0.23907686340E+03 -0.11483423153E+04 -0.45966788294E+03  0.12598271597E+04  0.46999998093E+01 0. -1.
</event>
<event>
 5   0  0.4017247E-06  0.3227194E+04  0.7818609E-02  0.8181672E-01
        2   -1    0    0  501    0  0.00000000000E+00  0.00000000000E+00  0.24210019934E+04  0.24210019934E+04  0.25500000920E-02 0.  1.
       -2   -1    0    0    0  501  0.00000000000E+00  0.00000000000E+00 -0.10754615399E+04  0.10754615400E+04  0.25500000920E-02 0. -1.
    10030    2    1    2    0    0  0.00000000000E+00  0.00000000000E+00  0.13455404534E+04  0.34964635334E+04  0.32271935375E+04 0.  0.
        1    1    3    3  502    0 -0.28870768888E+03  0.14333879218E+04 -0.66624664933E+02  0.14636911935E+04  0.50400001928E-02 0. -1.
       -1    1    3    3    0  502  0.28870768888E+03 -0.14333879218E+04  0.14121651184E+04  0.20327723398E+04  0.50400001928E-02 0.  1.
</event>
<event>
 5   0  0.3920487E-06  0.3613299E+04  0.7818609E-02  0.8087452E-01
        2   -1    0    0  501    0  0.00000000000E+00  0.00000000000E+00  0.16727760049E+04  0.16727760049E+04  0.25500000920E-02 0. -1.
       -2   -1    0    0    0  501  0.00000000000E+00  0.00000000000E+00 -0.19512374599E+04  0.19512374599E+04  0.25500000920E-02 0.  1.
    10030    2    1    2    0    0  0.00000000000E+00  0.00000000000E+00 -0.27846145502E+03  0.36240134648E+04  0.36132994356E+04 0.  0.
        4    1    3    3  502    0 -0.17962732612E+04 -0.23112511351E-01 -0.33315336258E+03  0.18269073335E+04  0.12699999809E+01 0. -1.
       -4    1    3    3    0  502  0.17962732612E+04  0.23112511351E-01  0.54691907557E+02  0.17971061313E+04  0.12699999809E+01 0.  1.
</event>
<event>
 5   0  0.3920487E-06  0.3130919E+04  0.7818609E-02  0.8207303E-01
       -2   -1    0    0    0  501  0.00000000000E+00  0.00000000000E+00  0.10044627395E+04  0.10044627395E+04  0.25500000920E-02 0.  1.
        2   -1    0    0  501    0  0.00000000000E+00  0.00000000000E+00 -0.24397760827E+04  0.24397760827E+04  0.25500000920E-02 0. -1.
    10030    2    1    2    0    0  0.00000000000E+00  0.00000000000E+00 -0.14353133432E+04  0.34442388223E+04  0.31309194611E+04 0.  0.
        4    1    3    3  502    0 -0.86779474755E+03  0.74016212018E+03  0.46191406520E+03  0.12305583711E+04  0.12699999809E+01 0.  1.
       -4    1    3    3    0  502  0.86779474755E+03 -0.74016212018E+03 -0.18972274084E+04  0.22136804512E+04  0.12699999809E+01 0. -1.
</event>
<event>
 5   0  0.3671997E-06  0.3292149E+04  0.7818609E-02  0.8164896E-01
       -2   -1    0    0    0  501  0.00000000000E+00  0.00000000000E+00  0.16259103975E+04  0.16259103975E+04  0.25500000920E-02 0.  1.
        2   -1    0    0  501    0  0.00000000000E+00  0.00000000000E+00 -0.16664891687E+04  0.16664891687E+04  0.25500000920E-02 0. -1.
    10030    2    1    2    0    0  0.00000000000E+00  0.00000000000E+00 -0.40578771188E+02  0.32923995661E+04  0.32921494903E+04 0.  0.
        2    1    3    3  502    0 -0.11374384438E+03 -0.10220897992E+04  0.12650929800E+04  0.16303574663E+04  0.25500000920E-02 0.  1.
       -2    1    3    3    0  502  0.11374384438E+03  0.10220897992E+04 -0.13056717512E+04  0.16620420998E+04  0.25500000920E-02 0. -1.
</event>
<event>
 5   0  0.3896210E-06  0.3366763E+04  0.7818609E-02  0.8146112E-01
        2   -1    0    0  501    0  0.00000000000E+00  0.00000000000E+00  0.16862803094E+04  0.16862803094E+04  0.25500000920E-02 0. -1.
       -2   -1    0    0    0  501  0.00000000000E+00  0.00000000000E+00 -0.16804875396E+04  0.16804875396E+04  0.25500000920E-02 0.  1.
    10030    2    1    2    0    0  0.00000000000E+00  0.00000000000E+00  0.57927697218E+01  0.33667678490E+04  0.33667628656E+04 0.  0.
        3    1    3    3  502    0 -0.92446481524E+03 -0.60306011134E+03  0.12739043030E+04  0.16855707864E+04  0.10100000352E+00 0. -1.
       -3    1    3    3    0  502  0.92446481524E+03  0.60306011134E+03 -0.12681115333E+04  0.16811970626E+04  0.10100000352E+00 0.  1.
</event>
<event>
 5   0  0.1339825E-06  0.2875628E+04  0.7818609E-02  0.8280166E-01
       -1   -1    0    0    0  501  0.00000000000E+00  0.00000000000E+00  0.15274278806E+04  0.15274278806E+04  0.50400001928E-02 0. -1.
        1   -1    0    0  501    0  0.00000000000E+00  0.00000000000E+00 -0.13534575365E+04  0.13534575365E+04  0.50400001928E-02 0.  1.
    10030    2    1    2    0    0  0.00000000000E+00  0.00000000000E+00  0.17397034407E+03  0.28808854172E+04  0.28756277760E+04 0.  0.
        3    1    3    3  502    0 -0.12244174871E+03  0.12300358120E+04 -0.64874755587E+03  0.13960134248E+04  0.10100000352E+00 0.  1.
       -3    1    3    3    0  502  0.12244174871E+03 -0.12300358120E+04  0.82271789994E+03  0.14848719924E+04  0.10100000352E+00 0. -1.
</event>
<event>
 5   0  0.1282578E-06  0.2597183E+04  0.7818609E-02  0.8369159E-01
        1   -1    0    0  501    0  0.00000000000E+00  0.00000000000E+00  0.15406363046E+04  0.15406363047E+04  0.50400001928E-02 0.  1.
       -1   -1    0    0    0  501  0.00000000000E+00  0.00000000000E+00 -0.10945735914E+04  0.10945735914E+04  0.50400001928E-02 0. -1.
    10030    2    1    2    0    0  0.00000000000E+00  0.00000000000E+00  0.44606271322E+03  0.26352098961E+04  0.25971829455E+04 0.  0.
        4    1    3    3  502    0 -0.11833295941E+04 -0.14727093383E+03 -0.29867654707E+03  0.12292953059E+04  0.12699999809E+01 0. -1.
       -4    1    3    3    0  502  0.11833295941E+04  0.14727093383E+03  0.74473926029E+03  0.14059145902E+04  0.12699999809E+01 0.  1.
</event>
<event>
 5   0  0.3896210E-06  0.3351852E+04  0.7818609E-02  0.8149825E-01
        2   -1    0    0  501    0  0.00000000000E+00  0.00000000000E+00  0.28639298019E+04  0.28639298019E+04  0.25500000920E-02 0.  1.
       -2   -1    0    0    0  501  0.00000000000E+00  0.00000000000E+00 -0.98072537605E+03  0.98072537606E+03  0.25500000920E-02 0. -1.
    10030    2    1    2    0    0  0.00000000000E+00  0.00000000000E+00  0.18832044259E+04  0.38446551780E+04  0.33518524025E+04 0.  0.
        3    1    3    3  502    0  0.11697218464E+04  0.84801478884E+03 -0.32592187926E+02  0.14451437786E+04  0.10100000352E+00 0. -1.
       -3    1    3    3    0  502 -0.11697218464E+04 -0.84801478884E+03  0.19157966138E+04  0.23995113994E+04  0.10100000352E+00 0.  1.
</event>
<event>
 5   0  0.3671997E-06  0.3114632E+04  0.7818609E-02  0.8211734E-01
       -2   -1    0    0    0  501  0.00000000000E+00  0.00000000000E+00  0.20614115673E+04  0.20614115673E+04  0.25500000920E-02 0.  1.
        2   -1    0    0  501    0  0.00000000000E+00  0.00000000000E+00 -0.11764916659E+04  0.11764916660E+04  0.25500000920E-02 0. -1.
    10030    2    1    2    0    0  0.00000000000E+00  0.00000000000E+00  0.88491990135E+03  0.32379032333E+04  0.31146322602E+04 0.  0.
        2    1    3    3  502    0  0.14712783312E+04  0.19064084789E+03  0.93473024018E+03  0.17534892308E+04  0.25500000920E-02 0. -1.
       -2    1    3    3    0  502 -0.14712783312E+04 -0.19064084789E+03 -0.49810338828E+02  0.14844140024E+04  0.25500000920E-02 0.  1.
</event>
<event>
 5   0  0.1405389E-06  0.3272171E+04  0.7818609E-02  0.8170013E-01
        1   -1    0    0  501    0  0.00000000000E+00  0.00000000000E+00  0.27319192492E+04  0.27319192492E+04  0.50400001928E-02 0.  1.
       -1   -1    0    0    0  501  0.00000000000E+00  0.00000000000E+00 -0.97981485351E+03  0.97981485352E+03  0.50400001928E-02 0. -1.
    10030    2    1    2    0    0  0.00000000000E+00  0.00000000000E+00  0.17521043956E+04  0.37117341027E+04  0.32721705695E+04 0.  0.
        1    1    3    3  502    0 -0.64886557241E+03 -0.69973583300E+02 -0.82577090321E+03  0.10525304832E+04  0.50400001928E-02 0. -1.
       -1    1    3    3    0  502  0.64886557241E+03  0.69973583300E+02  0.25778752989E+04  0.26592036195E+04  0.50400001928E-02 0.  1.
</event>
<event>
 5   0  0.4017247E-06  0.2932077E+04  0.7818609E-02  0.8263397E-01
        2   -1    0    0  501    0  0.00000000000E+00  0.00000000000E+00  0.14604893796E+04  0.14604893796E+04  0.25500000920E-02 0.  1.
       -2   -1    0    0    0  501  0.00000000000E+00  0.00000000000E+00 -0.14716083159E+04  0.14716083159E+04  0.25500000920E-02 0. -1.
    10030    2    1    2    0    0  0.00000000000E+00  0.00000000000E+00 -0.11118936302E+02  0.29320976955E+04  0.29320766132E+04 0.  0.
        1    1    3    3  502    0  0.80657761634E+03 -0.95846688824E+02  0.12149058929E+04  0.14614206675E+04  0.50400001928E-02 0.  1.
       -1    1    3    3    0  502 -0.80657761634E+03  0.95846688824E+02 -0.12260248292E+04  0.14706770280E+04  0.50400001928E-02 0. -1.
</event>
<event>
 5   0  0.1391878E-06  0.3293179E+04  0.7818609E-02  0.8164633E-01
       -1   -1    0    0    0  501  0.00000000000E+00  0.00000000000E+00  0.16012154989E+04  0.16012154989E+04  0.50400001928E-02 0.  1.
        1   -1    0    0  501    0  0.00000000000E+00  0.00000000000E+00 -0.16932493985E+04  0.16932493986E+04  0.50400001928E-02 0. -1.
    10030    2    1    2    0    0  0.00000000000E+00  0.00000000000E+00 -0.92033899682E+02  0.32944648974E+04  0.32931791208E+04 0.  0.
        2    1    3    3  502    0 -0.12717462853E+04  0.21334405088E+02  0.10000793324E+04  0.16180087892E+04  0.25500000920E-02 0.  1.
       -2    1    3    3    0  502  0.12717462853E+04 -0.21334405088E+02 -0.10921132321E+04  0.16764561082E+04  0.25500000920E-02 0. -1.
</event>
<event>
 5   0  0.3812379E-06  0.3047311E+04  0.7818609E-02  0.8230348E-01
       -2   -1    0    0    0  501  0.00000000000E+00  0.00000000000E+00  0.83598721539E+03  0.83598721539E+03  0.25500000920E-02 0. -1.
        2   -1    0    0  501    0  0.00000000000E+00  0.00000000000E+00 -0.27769880256E+04  0.27769880256E+04  0.25500000920E-02 0.  1.
    10030    2    1    2    0    0  0.00000000000E+00  0.00000000000E+00 -0.19410008102E+04  0.36129752410E+04  0.30473112652E+04 0.  0.
        5    1    3    3  502    0  0.12722874351E+04 -0.58680233332E+03 -0.16803457412E+04  0.21878382472E+04  0.46999998093E+01 0.  1.
       -5    1    3    3    0  502 -0.12722874351E+04  0.58680233332E+03 -0.26065506900E+03  0.14251369938E+04  0.46999998093E+01 0. -1.
</event>
<event>
 5   0  0.1391878E-06  0.3259697E+04  0.7818609E-02  0.8173227E-01
       -1   -1    0    0    0  501  0.00000000000E+00  0.00000000000E+00  0.17805672328E+04  0.17805672328E+04  0.50400001928E-02 0. -1.
        1   -1    0    0  501    0  0.00000000000E+00  0.00000000000E+00 -0.14918877048E+04  0.14918877048E+04  0.50400001928E-02 0.  1.
    10030    2    1    2    0    0  0.00000000000E+00  0.00000000000E+00  0.28867952799E+03  0.32724549376E+04  0.32596971407E+04 0.  0.
        2    1    3    3  502    0 -0.20292556164E+03 -0.28356346005E+03  0.17426825663E+04  0.17772252379E+04  0.25500000920E-02 0. -1.
       -2    1    3    3    0  502  0.20292556164E+03  0.28356346005E+03 -0.14540030383E+04  0.14952296997E+04  0.25500000920E-02 0.  1.
</event>
<event>
 5   0  0.1339825E-06  0.3259617E+04  0.7818609E-02  0.8173247E-01
        1   -1    0    0  501    0  0.00000000000E+00  0.00000000000E+00  0.22450151352E+04  0.22450151352E+04  0.50400001928E-02 0. -1.
       -1   -1    0    0    0  501  0.00000000000E+00  0.00000000000E+00 -0.11831885339E+04  0.11831885339E+04  0.50400001928E-02 0.  1.
    10030    2    1    2    0    0  0.00000000000E+00  0.00000000000E+00  0.10618266013E+04  0.34282036691E+04  0.32596172575E+04 0.  0.
        3    1    3    3  502    0  0.71178350046E+02 -0.16210748397E+04  0.37028515039E+03  0.16643500522E+04  0.10100000352E+00 0.  1.
       -3    1    3    3    0  502 -0.71178350046E+02  0.16210748397E+04  0.69154145090E+03  0.17638536169E+04  0.10100000352E+00 0. -1.
</event>
<event>
 5   0  0.1352708E-06  0.2888102E+04  0.7818609E-02  0.8276426E-01
        1   -1    0    0  501    0  0.00000000000E+00  0.00000000000E+00  0.20993104768E+04  0.20993104769E+04  0.50400001928E-02 0. -1.
       -1   -1    0    0    0  501  0.00000000000E+00  0.00000000000E+00 -0.99331789798E+03  0.99331789799E+03  0.50400001928E-02 0.  1.
    10030    2    1    2    0    0  0.00000000000E+00  0.00000000000E+00  0.11059925789E+04  0.30926283748E+04  0.28881015703E+04 0.  0.
        5    1    3    3  502    0 -0.21118881567E+03 -0.71484057292E+03 -0.77138528178E+03  0.10726859296E+04  0.46999998093E+01 0.  1.
       -5    1    3    3    0  502  0.21118881567E+03  0.71484057292E+03  0.18773778606E+04  0.20199424453E+04  0.46999998093E+01 0. -1.
</event>
<event>
 5   0  0.4017247E-06  0.3288154E+04  0.7818609E-02  0.8165916E-01
        2   -1    0    0  501    0  0.00000000000E+00  0.00000000000E+00  0.17005886785E+04  0.17005886785E+04  0.25500000920E-02 0.  1.
       -2   -1    0    0    0  501  0.00000000000E+00  0.00000000000E+00 -0.15894433948E+04  0.15894433948E+04  0.25500000920E-02 0. -1.
    10030    2    1    2    0    0  0.00000000000E+00  0.00000000000E+00  0.11114528371E+03  0.32900320732E+04  0.32881541583E+04 0.  0.
        1    1    3    3  502    0  0.25064764390E+03 -0.15757389684E+04 -0.34115336902E+03  0.16316136673E+04  0.50400001928E-02 0. -1.
       -1    1    3    3    0  502 -0.25064764390E+03  0.15757389684E+04  0.45229865273E+03  0.16584184060E+04  0.50400001928E-02 0.  1.
</event>
<event>
 5   0  0.1339825E-06  0.3455097E+04  0.7818609E-02  0.8124515E-01
        1   -1    0    0  501    0  0.00000000000E+00  0.00000000000E+00  0.11579642881E+04  0.11579642881E+04  0.50400001928E-02 0.  1.
       -1   -1    0    0    0  501  0.00000000000E+00  0.00000000000E+00 -0.25773024882E+04  0.25773024882E+04  0.50400001928E-02 0. -1.
    10030    2    1    2    0    0  0.00000000000E+00  0.00000000000E+00 -0.14193382001E+04  0.37352667763E+04  0.34550972438E+04 0.  0.
        3    1    3    3  502    0 -0.99475813234E+03  0.20696575664E+03 -0.22201190404E+04  0.24415788191E+04  0.10100000352E+00 0. -1.
       -3    1    3    3    0  502  0.99475813234E+03 -0.20696575664E+03  0.80078084032E+03  0.12936879572E+04  0.10100000352E+00 0.  1.
</event>
<event>
 5   0  0.3671997E-06  0.3455526E+04  0.7818609E-02  0.8124411E-01
        2   -1    0    0  501    0  0.00000000000E+00  0.00000000000E+00  0.24749613239E+04  0.24749613239E+04  0.25500000920E-02 0.  1.
       -2   -1    0    0    0  501  0.00000000000E+00  0.00000000000E+00 -0.12061464048E+04  0.12061464048E+04  0.25500000920E-02 0. -1.
    10030    2    1    2    0    0  0.00000000000E+00  0.00000000000E+00  0.12688149191E+04  0.36811077287E+04  0.34555264159E+04 0.  0.
        2    1    3    3  502    0  0.77079006415E+03  0.61862879429E+03  0.21440831568E+04  0.23609132748E+04  0.25500000920E-02 0.  1.
       -2    1    3    3    0  502 -0.77079006415E+03 -0.61862879429E+03 -0.87526823764E+03  0.13201944538E+04  0.25500000920E-02 0. -1.
</event>
<event>
 5   0  0.1282578E-06  0.3341653E+04  0.7818609E-02  0.8152377E-01
       -1   -1    0    0    0  501  0.00000000000E+00  0.00000000000E+00  0.24173870944E+04  0.24173870944E+04  0.50400001928E-02 0. -1.
        1   -1    0    0  501    0  0.00000000000E+00  0.00000000000E+00 -0.11548262230E+04  0.11548262230E+04  0.50400001928E-02 0.  1.
    10030    2    1    2    0    0  0.00000000000E+00  0.00000000000E+00  0.12625608714E+04  0.35722133175E+04  0.33416534876E+04 0.  0.
        4    1    3    3  502    0 -0.64483805024E+02  0.15319310101E+04 -0.78366577432E+02  0.15352894562E+04  0.12699999809E+01 0.  1.
       -4    1    3    3    0  502  0.64483805024E+02 -0.15319310101E+04  0.13409274488E+04  0.20369238613E+04  0.12699999809E+01 0. -1.
</event>
<event>
 5   0  0.1352708E-06  0.3316167E+04  0.7818609E-02  0.8158794E-01
        1   -1    0    0  501    0  0.00000000000E+00  0.00000000000E+00  0.25047434797E+04  0.25047434797E+04  0.50400001928E-02 0.  1.
       -1   -1    0    0    0  501  0.00000000000E+00  0.00000000000E+00 -0.10976135262E+04  0.10976135262E+04  0.50400001928E-02 0. -1.
    10030    2    1    2    0    0  0.00000000000E+00  0.00000000000E+00  0.14071299535E+04  0.36023570060E+04  0.33161666563E+04 0.  0.
        5    1    3    3  502    0 -0.10936339888E+04  0.39587889333E+03 -0.58013961091E+03  0.12997459204E+04  0.46999998093E+01 0. -1.
       -5    1    3    3    0  502  0.10936339888E+04 -0.39587889333E+03  0.19872695644E+04  0.23026110855E+04  0.46999998093E+01 0.  1.
</event>
<event>
 5   0  0.3812379E-06  0.3372409E+04  0.7818609E-02  0.8144711E-01
       -2   -1    0    0    0  501  0.00000000000E+00  0.00000000000E+00  0.14972809936E+04  0.14972809936E+04  0.25500000920E-02 0. -1.
        2   -1    0    0  501    0  0.00000000000E+00  0.00000000000E+00 -0.18989656645E+04  0.18989656645E+04  0.25500000920E-02 0.  1.
    10030    2    1    2    0    0  0.00000000000E+00  0.00000000000E+00 -0.40168467084E+03  0.33962466581E+04  0.33724087516E+04 0.  0.
        5    1    3    3  502    0  0.81906934345E+03 -0.14484047016E+04 -0.47574130493E+03  0.17306364864E+04  0.46999998093E+01 0.  1.
       -5    1    3    3    0  502 -0.81906934345E+03  0.14484047016E+04  0.74056634095E+02  0.16656101717E+04  0.46999998093E+01 0. -1.
</event>
<event>
 5   0  0.1352708E-06  0.3265467E+04  0.7818609E-02  0.8171738E-01
       -1   -1    0    0    0  501  0.00000000000E+00  0.00000000000E+00  0.14393128137E+04  0.14393128137E+04  0.50400001928E-02 0. -1.
        1   -1    0    0  501    0  0.00000000000E+00  0.00000000000E+00 -0.18521474019E+04  0.18521474019E+04  0.50400001928E-02 0.  1.
    10030    2    1    2    0    0  0.00000000000E+00  0.00000000000E+00 -0.41283458822E+03  0.32914602156E+04  0.32654674938E+04 0.  0.
        5    1    3    3  502    0  0.92287413634E+03 -0.13733554635E+03 -0.15569480033E+04  0.18151217312E+04  0.46999998093E+01 0.  1.
       -5    1    3    3    0  502 -0.92287413634E+03  0.13733554635E+03  0.11441134151E+04  0.14763384844E+04  0.46999998093E+01 0. -1.
</event>
<event>
 5   0  0.1391878E-06  0.3291285E+04  0.7818609E-02  0.8165116E-01
       -1   -1    0    0    0  501  0.00000000000E+00  0.00000000000E+00  0.19945909009E+04  0.19945909009E+04  0.50400001928E-02 0. -1.
        1   -1    0    0  501    0  0.00000000000E+00  0.00000000000E+00 -0.13577419001E+04  0.13577419001E+04  0.50400001928E-02 0.  1.
    10030    2    1    2    0    0  0.00000000000E+00  0.00000000000E+00  0.63684900078E+03  0.33523328011E+04  0.32912852443E+04 0.  0.
        2    1    3    3  502    0 -0.55755915373E+03  0.15390712899E+04  0.49045664885E+03  0.17088476730E+04  0.25500000920E-02 0. -1.
       -2    1    3    3    0  502  0.55755915373E+03 -0.15390712899E+04  0.14639235192E+03  0.16434851280E+04  0.25500000920E-02 0.  1.
</event>
<event>
 5   0  0.4017247E-06  0.3367901E+04  0.7818609E-02  0.8145830E-01
        2   -1    0    0  501    0  0.00000000000E+00  0.00000000000E+00  0.18649976192E+04  0.18649976192E+04  0.25500000920E-02 0.  1.
       -2   -1    0    0    0  501  0.00000000000E+00  0.00000000000E+00 -0.15204786748E+04  0.15204786748E+04  0.25500000920E-02 0. -1.
    10030    2    1    2    0    0  0.00000000000E+00  0.00000000000E+00  0.34451894441E+03  0.33854762939E+04  0.33679008943E+04 0.  0.
        1    1    3    3  502    0  0.11242877848E+04  0.10930189368E+04 -0.44492806206E+03  0.16299307960E+04  0.50400001928E-02 0. -1.
       -1    1    3    3    0  502 -0.11242877848E+04 -0.10930189368E+04  0.78944700647E+03  0.17555454979E+04  0.50400001928E-02 0.  1.
</event>
<event>
 5   0  0.1282578E-06  0.3272389E+04  0.7818609E-02  0.8169957E-01
       -1   -1    0    0    0  501  0.00000000000E+00  0.00000000000E+00  0.13657414049E+04  0.13657414049E+04  0.50400001928E-02 0.  1.
        1   -1    0    0  501    0  0.00000000000E+00  0.00000000000E+00 -0.19602045603E+04  0.19602045603E+04  0.50400001928E-02 0. -1.
    10030    2    1    2    0    0  0.00000000000E+00  0.00000000000E+00 -0.59446315538E+03  0.33259459653E+04  0.32723890540E+04 0.  0.
        4    1    3    3  502    0  0.21426711784E+03 -0.61889692695E+03 -0.18211667230E+04  0.19353536240E+04  0.12699999809E+01 0. -1.
       -4    1    3    3    0  502 -0.21426711784E+03  0.61889692695E+03  0.12267035676E+04  0.13905923413E+04  0.12699999809E+01 0.  1.
</event>
<event>
 5   0  0.4017247E-06  0.2354199E+04  0.7818609E-02  0.8456852E-01
       -2   -1    0    0    0  501  0.00000000000E+00  0.00000000000E+00  0.62019461271E+03  0.62019461271E+03  0.25500000920E-02 0.  1.
        2   -1    0    0  501    0  0.00000000000E+00  0.00000000000E+00 -0.22340790455E+04  0.22340790455E+04  0.25500000920E-02 0. -1.
    10030    2    1    2    0    0  0.00000000000E+00  0.00000000000E+00 -0.16138844328E+04  0.28542736583E+04  0.23541994719E+04 0.  0.
        1    1    3    3  502    0  0.50243296984E+03 -0.47670876510E+03 -0.19608900222E+04  0.20796104960E+04  0.50400001928E-02 0. -1.
       -1    1    3    3    0  502 -0.50243296984E+03  0.47670876510E+03  0.34700558935E+03  0.77466316227E+03  0.50400001928E-02 0.  1.
</event>
<event>
 5   0  0.4017247E-06  0.3286763E+04  0.7818609E-02  0.8166272E-01
        2   -1    0    0  501    0  0.00000000000E+00  0.00000000000E+00  0.19402792335E+04  0.19402792335E+04  0.25500000920E-02 0.  1.
       -2   -1    0    0    0  501  0.00000000000E+00  0.00000000000E+00 -0.13919142721E+04  0.13919142721E+04  0.25500000920E-02 0. -1.
    10030    2    1    2    0    0  0.00000000000E+00  0.00000000000E+00  0.54836496136E+03  0.33321935056E+04  0.32867627581E+04 0.  0.
        1    1    3    3  502    0 -0.84563495007E+03 -0.97310895943E+03 -0.75905262515E+03  0.14960616309E+04  0.50400001928E-02 0. -1.
       -1    1    3    3    0  502  0.84563495007E+03  0.97310895943E+03  0.13074175865E+04  0.18361318747E+04  0.50400001928E-02 0.  1.
</event>
<event>
 5   0  0.1282578E-06  0.3283026E+04  0.7818609E-02  0.8167228E-01
        1   -1    0    0  501    0  0.00000000000E+00  0.00000000000E+00  0.20258275629E+04  0.20258275629E+04  0.50400001928E-02 0. -1.
       -1   -1    0    0    0  501  0.00000000000E+00  0.00000000000E+00 -0.13301056051E+04  0.13301056051E+04  0.50400001928E-02 0.  1.
    10030    2    1    2    0    0  0.00000000000E+00  0.00000000000E+00  0.69572195778E+03  0.33559331681E+04  0.32830257973E+04 0.  0.
        4    1    3    3  502    0 -0.17222687481E+03 -0.81961431781E+03 -0.10952747401E+04  0.13787886334E+04  0.12699999809E+01 0.  1.
       -4    1    3    3    0  502  0.17222687481E+03  0.81961431781E+03  0.17909966979E+04  0.19771445347E+04  0.12699999809E+01 0. -1.
</event>
<event>
 5   0  0.1339825E-06  0.3220426E+04  0.7818609E-02  0.8183443E-01
        1   -1    0    0  501    0  0.00000000000E+00  0.00000000000E+00  0.31852519188E+04  0.31852519188E+04  0.50400001928E-02 0.  1.
       -1   -1    0    0    0  501  0.00000000000E+00  0.00000000000E+00 -0.81399727113E+03  0.81399727114E+03  0.50400001928E-02 0. -1.
    10030    2    1    2    0    0  0.00000000000E+00  0.00000000000E+00  0.23712546476E+04  0.39992491899E+04  0.32204262884E+04 0.  0.
        3    1    3    3  502    0 -0.57413140081E+03  0.14495622047E+04  0.16853479749E+04  0.22959214397E+04  0.10100000352E+00 0.  1.
       -3    1    3    3    0  502  0.57413140081E+03 -0.14495622047E+04  0.68590667272E+03  0.17033277502E+04  0.10100000352E+00 0. -1.
</event>
<event>
 5   0  0.3920487E-06  0.3267446E+04  0.7818609E-02  0.8171228E-01
        2   -1    0    0  501    0  0.00000000000E+00  0.00000000000E+00  0.16315971625E+04  0.16315971625E+04  0.25500000920E-02 0. -1.
       -2   -1    0    0    0  501  0.00000000000E+00  0.00000000000E+00 -0.16358519595E+04  0.16358519595E+04  0.25500000920E-02 0.  1.
    10030    2    1    2    0    0  0.00000000000E+00  0.00000000000E+00 -0.42547970241E+01  0.32674491220E+04  0.32674463518E+04 0.  0.
        4    1    3    3  502    0  0.13925729584E+04 -0.34322207588E+03  0.78017050021E+03  0.16327058707E+04  0.12699999809E+01 0. -1.
       -4    1    3    3    0  502 -0.13925729584E+04  0.34322207588E+03 -0.78442529723E+03  0.16347432513E+04  0.12699999809E+01 0.  1.
</event>
<event>
 5   0  0.1282578E-06  0.3288247E+04  0.7818609E-02  0.8165893E-01
       -1   -1    0    0    0  501  0.00000000000E+00  0.00000000000E+00  0.13539394955E+04  0.13539394955E+04  0.50400001928E-02 0. -1.
        1   -1    0    0  501    0  0.00000000000E+00  0.00000000000E+00 -0.19965008026E+04  0.19965008026E+04  0.50400001928E-02 0.  1.
    10030    2    1    2    0    0  0.00000000000E+00  0.00000000000E+00 -0.64256130705E+03  0.33504402981E+04  0.32882465172E+04 0.  0.
        4    1    3    3  502    0  0.85299888502E+03 -0.42790951266E+03  0.10428568082E+04  0.14136002208E+04  0.12699999809E+01 0. -1.
       -4    1    3    3    0  502 -0.85299888502E+03  0.42790951266E+03 -0.16854181153E+04  0.19368400773E+04  0.12699999809E+01 0.  1.
</event>
<event>
 5   0  0.1405389E-06  0.3298473E+04  0.7818609E-02  0.8163284E-01
        1   -1    0    0  501    0  0.00000000000E+00  0.00000000000E+00  0.23462674908E+04  0.23462674908E+04  0.50400001928E-02 0. -1.
       -1   -1    0    0    0  501  0.00000000000E+00  0.00000000000E+00 -0.11592797210E+04  0.11592797210E+04  0.50400001928E-02 0.  1.
    10030    2    1    2    0    0  0.00000000000E+00  0.00000000000E+00  0.11869877698E+04  0.35055472118E+04  0.32984725690E+04 0.  0.
        1    1    3    3  502    0  0.11160188548E+04  0.54243225138E+03  0.17480893691E+04  0.21437227605E+04  0.50400001928E-02 0. -1.
       -1    1    3    3    0  502 -0.11160188548E+04 -0.54243225138E+03 -0.56110159922E+03  0.13618244513E+04  0.50400001928E-02 0.  1.
</event>
<event>
 5   0  0.1352708E-06  0.3247450E+04  0.7818609E-02  0.8176397E-01
        1   -1    0    0  501    0  0.00000000000E+00  0.00000000000E+00  0.15665171126E+04  0.15665171126E+04  0.50400001928E-02 0.  1.
       -1   -1    0    0    0  501  0.00000000000E+00  0.00000000000E+00 -0.16830223476E+04  0.16830223476E+04  0.50400001928E-02 0. -1.
    10030    2    1    2    0    0  0.00000000000E+00  0.00000000000E+00 -0.11650523499E+03  0.32495394603E+04  0.32474502666E+04 0.  0.
        5    1    3    3  502    0 -0.12324971910E+04 -0.57028591998E+03 -0.94887345129E+03  0.16567010209E+04  0.46999998093E+01 0. -1.
       -5    1    3    3    0  502  0.12324971910E+04  0.57028591998E+03  0.83236821630E+03  0.15928384393E+04  0.46999998093E+01 0.  1.
</event>
<event>
 5   0  0.3920487E-06  0.3310347E+04  0.7818609E-02  0.8160268E-01
        2   -1    0    0  501    0  0.00000000000E+00  0.00000000000E+00  0.22141479392E+04  0.22141479392E+04  0.25500000920E-02 0. -1.
       -2   -1    0    0    0  501  0.00000000000E+00  0.00000000000E+00 -0.12373153923E+04  0.12373153923E+04  0.25500000920E-02 0.  1.
    10030    2    1    2    0    0  0.00000000000E+00  0.00000000000E+00  0.97683254694E+03  0.34514633315E+04  0.33103470066E+04 0.  0.
        4    1    3    3  502    0 -0.12486425799E+04  0.10282403622E+04  0.85439412084E+03  0.18293106520E+04  0.12699999809E+01 0. -1.
       -4    1    3    3    0  502  0.12486425799E+04 -0.10282403622E+04  0.12243842610E+03  0.16221526796E+04  0.12699999809E+01 0.  1.
</event>
<event>
 5   0  0.3671997E-06  0.3260562E+04  0.7818609E-02  0.8173003E-01
        2   -1    0    0  501    0  0.00000000000E+00  0.00000000000E+00  0.14027466947E+04  0.14027466947E+04  0.25500000920E-02 0.  1.
       -2   -1    0    0    0  501  0.00000000000E+00  0.00000000000E+00 -0.18947230009E+04  0.18947230009E+04  0.25500000920E-02 0. -1.
    10030    2    1    2    0    0  0.00000000000E+00  0.00000000000E+00 -0.49197630620E+03  0.32974696957E+04  0.32605621767E+04 0.  0.
        2    1    3    3  502    0  0.83043040430E+03  0.12909341455E+04 -0.80146934915E+03  0.17316116025E+04  0.25500000920E-02 0. -1.
       -2    1    3    3    0  502 -0.83043040430E+03 -0.12909341455E+04  0.30949304295E+03  0.15658580932E+04  0.25500000920E-02 0.  1.
</event>
<event>
 5   0  0.1352708E-06  0.3305331E+04  0.7818609E-02  0.8161540E-01
        1   -1    0    0  501    0  0.00000000000E+00  0.00000000000E+00  0.23349716708E+04  0.23349716708E+04  0.50400001928E-02 0. -1.
       -1   -1    0    0    0  501  0.00000000000E+00  0.00000000000E+00 -0.11697371421E+04  0.11697371421E+04  0.50400001928E-02 0.  1.
    10030    2    1    2    0    0  0.00000000000E+00  0.00000000000E+00  0.11652345287E+04  0.35047088128E+04  0.33053308996E+04 0.  0.
        5    1    3    3  502    0 -0.63020483199E+03  0.13608326367E+04 -0.15371943911E+03  0.15075395024E+04  0.46999998093E+01 0.  1.
       -5    1    3    3    0  502  0.63020483199E+03 -0.13608326367E+04  0.13189539678E+04  0.19971693104E+04  0.46999998093E+01 0. -1.
</event>
<event>
 5   0  0.1405389E-06  0.3106009E+04  0.7818609E-02  0.8214091E-01
        1   -1    0    0  501    0  0.00000000000E+00  0.00000000000E+00  0.22685025874E+04  0.22685025874E+04  0.50400001928E-02 0. -1.
       -1   -1    0    0    0  501  0.00000000000E+00  0.00000000000E+00 -0.10631782800E+04  0.10631782800E+04  0.50400001928E-02 0.  1.
    10030    2    1    2    0    0  0.00000000000E+00  0.00000000000E+00  0.12053243074E+04  0.33316808674E+04  0.31060088081E+04 0.  0.
        1    1    3    3  502    0  0.12318312700E+04 -0.22376752553E+03 -0.38298174018E+03  0.13092574982E+04  0.50400001928E-02 0.  1.
       -1    1    3    3    0  502 -0.12318312700E+04  0.22376752553E+03  0.15883060476E+04  0.20224233692E+04  0.50400001928E-02 0. -1.
</event>
<event>
 5   0  0.3896210E-06  0.3251996E+04  0.7818609E-02  0.8175218E-01
        2   -1    0    0  501    0  0.00000000000E+00  0.00000000000E+00  0.17789938762E+04  0.17789938762E+04  0.25500000920E-02 0. -1.
       -2   -1    0    0    0  501  0.00000000000E+00  0.00000000000E+00 -0.14861603787E+04  0.14861603787E+04  0.25500000920E-02 0.  1.
    10030    2    1    2    0    0  0.00000000000E+00  0.00000000000E+00  0.29283349752E+03  0.32651542549E+04  0.32519964408E+04 0.  0.
        3    1    3    3  502    0 -0.59560749692E+03 -0.92486316049E+03  0.13486545089E+04  0.17403991355E+04  0.10100000352E+00 0. -1.
       -3    1    3    3    0  502  0.59560749692E+03  0.92486316049E+03 -0.10558210114E+04  0.15247551195E+04  0.10100000352E+00 0.  1.
</event>
<event>
 5   0  0.3920487E-06  0.3361855E+04  0.7818609E-02  0.8147332E-01
        2   -1    0    0  501    0  0.00000000000E+00  0.00000000000E+00  0.25806504276E+04  0.25806504276E+04  0.25500000920E-02 0. -1.
       -2   -1    0    0    0  501  0.00000000000E+00  0.00000000000E+00 -0.10948856330E+04  0.10948856330E+04  0.25500000920E-02 0.  1.
    10030    2    1    2    0    0  0.00000000000E+00  0.00000000000E+00  0.14857647946E+04  0.36755360606E+04  0.33618548909E+04 0.  0.
        4    1    3    3  502    0 -0.30203926985E+02 -0.10438525819E+04 -0.69720328137E+03  0.12556410786E+04  0.12699999809E+01 0.  1.
       -4    1    3    3    0  502  0.30203926985E+02  0.10438525819E+04  0.21829680760E+04  0.24198949819E+04  0.12699999809E+01 0. -1.
</event>
<event>
 5   0  0.3920487E-06  0.3249113E+04  0.7818609E-02  0.8175966E-01
        2   -1    0    0  501    0  0.00000000000E+00  0.00000000000E+00  0.17204910664E+04  0.17204910664E+04  0.25500000920E-02 0.  1.
       -2   -1    0    0    0  501  0.00000000000E+00  0.00000000000E+00 -0.15339716734E+04  0.15339716734E+04  0.25500000920E-02 0. -1.
    10030    2    1    2    0    0  0.00000000000E+00  0.00000000000E+00  0.18651939296E+03  0.32544627398E+04  0.32491134546E+04 0.  0.
        4    1    3    3  502    0  0.71825671609E+03 -0.47731456913E+03  0.14722838031E+04  0.17062658404E+04  0.12699999809E+01 0.  1.
       -4    1    3    3    0  502 -0.71825671609E+03  0.47731456913E+03 -0.12857644102E+04  0.15481968995E+04  0.12699999809E+01 0. -1.
</event>
<event>
 5   0  0.1339825E-06  0.3239308E+04  0.7818609E-02  0.8178513E-01
       -1   -1    0    0    0  501  0.00000000000E+00  0.00000000000E+00  0.12341568437E+04  0.12341568437E+04  0.50400001928E-02 0.  1.
        1   -1    0    0  501    0  0.00000000000E+00  0.00000000000E+00 -0.21255631770E+04  0.21255631770E+04  0.50400001928E-02 0. -1.
    10030    2    1    2    0    0  0.00000000000E+00  0.00000000000E+00 -0.89140633324E+03  0.33597200207E+04  0.32393075443E+04 0.  0.
        3    1    3    3  502    0  0.52460950918E+03 -0.14238583110E+04  0.14164293510E+03  0.15240243956E+04  0.10100000352E+00 0.  1.
       -3    1    3    3    0  502 -0.52460950918E+03  0.14238583110E+04 -0.10330492683E+04  0.18356956251E+04  0.10100000352E+00 0. -1.
</event>
<event>
 5   0  0.1339825E-06  0.3268178E+04  0.7818609E-02  0.8171040E-01
       -1   -1    0    0    0  501  0.00000000000E+00  0.00000000000E+00  0.95259669350E+03  0.95259669351E+03  0.50400001928E-02 0.  1.
        1   -1    0    0  501    0  0.00000000000E+00  0.00000000000E+00 -0.28031247008E+04  0.28031247008E+04  0.50400001928E-02 0. -1.
    10030    2    1    2    0    0  0.00000000000E+00  0.00000000000E+00 -0.18505280073E+04  0.37557213943E+04  0.32681782825E+04 0.  0.
        3    1    3    3  502    0 -0.25142205212E+03  0.10583140752E+04 -0.23266053232E+04  0.25683329360E+04  0.10100000352E+00 0. -1.
       -3    1    3    3    0  502  0.25142205212E+03 -0.10583140752E+04  0.47607731592E+03  0.11873884583E+04  0.10100000352E+00 0.  1.
</event>
<event>
 5   0  0.1405389E-06  0.3304182E+04  0.7818609E-02  0.8161832E-01
       -1   -1    0    0    0  501  0.00000000000E+00  0.00000000000E+00  0.23078995129E+04  0.23078995129E+04  0.50400001928E-02 0. -1.
        1   -1    0    0  501    0  0.00000000000E+00  0.00000000000E+00 -0.11826355562E+04  0.11826355562E+04  0.50400001928E-02 0.  1.
    10030    2    1    2    0    0  0.00000000000E+00  0.00000000000E+00  0.11252639567E+04  0.34905350690E+04  0.33041816076E+04 0.  0.
        1    1    3    3  502    0  0.14140944740E+04 -0.63065784969E+03 -0.46069942381E+02  0.15490367796E+04  0.50400001928E-02 0.  1.
       -1    1    3    3    0  502 -0.14140944740E+04  0.63065784969E+03  0.11713338991E+04  0.19414982895E+04  0.50400001928E-02 0. -1.
</event>
<event>
 5   0  0.1391878E-06  0.3284239E+04  0.7818609E-02  0.8166917E-01
        1   -1    0    0  501    0  0.00000000000E+00  0.00000000000E+00  0.16212589902E+04  0.16212589902E+04  0.50400001928E-02 0. -1.
       -1   -1    0    0    0  501  0.00000000000E+00  0.00000000000E+00 -0.16632485900E+04  0.16632485900E+04  0.50400001928E-02 0.  1.
    10030    2    1    2    0    0  0.00000000000E+00  0.00000000000E+00 -0.41989599815E+02  0.32845075802E+04  0.32842391688E+04 0.  0.
        2    1    3    3  502    0 -0.97552743293E+02  0.10244854316E+04 -0.13007359669E+04  0.16586141784E+04  0.25500000920E-02 0.  1.
       -2    1    3    3    0  502  0.97552743293E+02 -0.10244854316E+04  0.12587463670E+04  0.16258934018E+04  0.25500000920E-02 0. -1.
</event>
<event>
 5   0  0.3896210E-06  0.3416835E+04  0.7818609E-02  0.8133787E-01
       -2   -1    0    0    0  501  0.00000000000E+00  0.00000000000E+00  0.12058930269E+04  0.12058930269E+04  0.25500000920E-02 0.  1.
        2   -1    0    0  501    0  0.00000000000E+00  0.00000000000E+00 -0.24203562996E+04  0.24203562996E+04  0.25500000920E-02 0. -1.
    10030    2    1    2    0    0  0.00000000000E+00  0.00000000000E+00 -0.12144632727E+04  0.36262493265E+04  0.34168352517E+04 0.  0.
        3    1    3    3  502    0 -0.11765132536E+04  0.20018664340E+03  0.69016209479E+03  0.13786159202E+04  0.10100000352E+00 0.  1.
       -3    1    3    3    0  502  0.11765132536E+04 -0.20018664340E+03 -0.19046253675E+04  0.22476334063E+04  0.10100000352E+00 0. -1.
</event>
<event>
 5   0  0.3896210E-06  0.3294492E+04  0.7818609E-02  0.8164298E-01
        2   -1    0    0  501    0  0.00000000000E+00  0.00000000000E+00  0.17526022361E+04  0.17526022361E+04  0.25500000920E-02 0.  1.
       -2   -1    0    0    0  501  0.00000000000E+00  0.00000000000E+00 -0.15482233882E+04  0.15482233882E+04  0.25500000920E-02 0. -1.
    10030    2    1    2    0    0  0.00000000000E+00  0.00000000000E+00  0.20437884782E+03  0.33008256243E+04  0.32944922353E+04 0.  0.
        3    1    3    3  502    0  0.44265090911E+03  0.49357462614E+03 -0.14086431471E+04  0.15568658469E+04  0.10100000352E+00 0. -1.
       -3    1    3    3    0  502 -0.44265090911E+03 -0.49357462614E+03  0.16130219950E+04  0.17439597774E+04  0.10100000352E+00 0.  1.
</event>
<event>
 5   0  0.1339825E-06  0.3270723E+04  0.7818609E-02  0.8170385E-01
       -1   -1    0    0    0  501  0.00000000000E+00  0.00000000000E+00  0.19391021514E+04  0.19391021514E+04  0.50400001928E-02 0.  1.
        1   -1    0    0  501    0  0.00000000000E+00  0.00000000000E+00 -0.13791987841E+04  0.13791987841E+04  0.50400001928E-02 0. -1.
    10030    2    1    2    0    0  0.00000000000E+00  0.00000000000E+00  0.55990336727E+03  0.33183009354E+04  0.32707230573E+04 0.  0.
        3    1    3    3  502    0 -0.73864940623E+03  0.10711067512E+04 -0.72518431197E+03  0.14895519173E+04  0.10100000352E+00 0. -1.
       -3    1    3    3    0  502  0.73864940623E+03 -0.10711067512E+04  0.12850876792E+04  0.18287490181E+04  0.10100000352E+00 0.  1.
</event>
<event>
 5   0  0.3671997E-06  0.3328341E+04  0.7818609E-02  0.8155721E-01
        2   -1    0    0  501    0  0.00000000000E+00  0.00000000000E+00  0.14323355964E+04  0.14323355964E+04  0.25500000920E-02 0. -1.
       -2   -1    0    0    0  501  0.00000000000E+00  0.00000000000E+00 -0.19335302858E+04  0.19335302858E+04  0.25500000920E-02 0.  1.
    10030    2    1    2    0    0  0.00000000000E+00  0.00000000000E+00 -0.50119468936E+03  0.33658658821E+04  0.33283414819E+04 0.  0.
        2    1    3    3  502    0  0.92622512230E+03 -0.10037293287E+04 -0.12121583759E+04  0.18261143093E+04  0.25500000920E-02 0.  1.
       -2    1    3    3    0  502 -0.92622512230E+03  0.10037293287E+04  0.71096368654E+03  0.15397515728E+04  0.25500000920E-02 0. -1.
</event>
<event>
 5   0  0.4017247E-06  0.3326706E+04  0.7818609E-02  0.8156133E-01
        2   -1    0    0  501    0  0.00000000000E+00  0.00000000000E+00  0.88147082785E+03  0.88147082785E+03  0.25500000920E-02 0.  1.
       -2   -1    0    0    0  501  0.00000000000E+00  0.00000000000E+00 -0.31387794646E+04  0.31387794646E+04  0.25500000920E-02 0. -1.
    10030    2    1    2    0    0  0.00000000000E+00  0.00000000000E+00 -0.22573086367E+04  0.40202502924E+04  0.33267055975E+04 0.  0.
        1    1    3    3  502    0  0.11912499610E+03  0.21955269178E+03 -0.31159845648E+04  0.31259804793E+04  0.50400001928E-02 0. -1.
       -1    1    3    3    0  502 -0.11912499610E+03 -0.21955269178E+03  0.85867592806E+03  0.89426981310E+03  0.50400001928E-02 0.  1.
</event>
<event>
 5   0  0.3920487E-06  0.3246526E+04  0.7818609E-02  0.8176637E-01
       -2   -1    0    0    0  501  0.00000000000E+00  0.00000000000E+00  0.24856962789E+04  0.24856962789E+04  0.25500000920E-02 0.  1.
        2   -1    0    0  501    0  0.00000000000E+00  0.00000000000E+00 -0.10600583759E+04  0.10600583759E+04  0.25500000920E-02 0. -1.
    10030    2    1    2    0    0  0.00000000000E+00  0.00000000000E+00  0.14256379030E+04  0.35457546548E+04  0.32465262423E+04 0.  0.
        4    1    3    3  502    0  0.10690490347E+04 -0.82272377202E+03  0.16989459551E+04  0.21693683908E+04  0.12699999809E+01 0.  1.
       -4    1    3    3    0  502 -0.10690490347E+04  0.82272377202E+03 -0.27330805210E+03  0.13763862640E+04  0.12699999809E+01 0. -1.
</event>
<event>
 5   0  0.1352708E-06  0.3354795E+04  0.7818609E-02  0.8149091E-01
        1   -1    0    0  501    0  0.00000000000E+00  0.00000000000E+00  0.11583660525E+04  0.11583660525E+04  0.50400001928E-02 0. -1.
       -1   -1    0    0    0  501  0.00000000000E+00  0.00000000000E+00 -0.24289918839E+04  0.24289918839E+04  0.50400001928E-02 0.  1.
    10030    2    1    2    0    0  0.00000000000E+00  0.00000000000E+00 -0.12706258314E+04  0.35873579365E+04  0.33547946228E+04 0.  0.
        5    1    3    3  502    0 -0.15274267246E+04 -0.25472733527E+03  0.54148359228E+02  0.15494749269E+04  0.46999998093E+01 0.  1.
       -5    1    3    3    0  502  0.15274267246E+04  0.25472733527E+03 -0.13247741906E+04  0.20378830095E+04  0.46999998093E+01 0. -1.
</event>
<event>
 5   0  0.4017247E-06  0.2262499E+04  0.7818609E-02  0.8492856E-01
       -2   -1    0    0    0  501  0.00000000000E+00  0.00000000000E+00  0.63956405452E+03  0.63956405452E+03  0.25500000920E-02 0.  1.
        2   -1    0    0  501    0  0.00000000000E+00  0.00000000000E+00 -0.20009342976E+04  0.20009342976E+04  0.25500000920E-02 0. -1.
    10030    2    1    2    0    0  0.00000000000E+00  0.00000000000E+00 -0.13613702431E+04  0.26404983521E+04  0.22624991953E+04 0.  0.
        1    1    3    3  502    0 -0.37410502040E+03  0.18500841142E+03  0.54642992612E+03  0.68758151718E+03  0.50400001928E-02 0.  1.
       -1    1    3    3    0  502  0.37410502040E+03 -0.18500841142E+03 -0.19078001692E+04  0.19529168349E+04  0.50400001928E-02 0. -1.
</event>
<event>
 5   0  0.3896210E-06  0.3338975E+04  0.7818609E-02  0.8153048E-01
       -2   -1    0    0    0  501  0.00000000000E+00  0.00000000000E+00  0.13106939439E+04  0.13106939439E+04  0.25500000920E-02 0.  1.
        2   -1    0    0  501    0  0.00000000000E+00  0.00000000000E+00 -0.21264979226E+04  0.21264979226E+04  0.25500000920E-02 0. -1.
    10030    2    1    2    0    0  0.00000000000E+00  0.00000000000E+00 -0.81580397872E+03  0.34371918666E+04  0.33389746624E+04 0.  0.
        3    1    3    3  502    0 -0.66033960977E+03  0.93633011320E+03 -0.16578791060E+04  0.20152730885E+04  0.10100000352E+00 0. -1.
       -3    1    3    3    0  502  0.66033960977E+03 -0.93633011320E+03  0.84207512728E+03  0.14219187780E+04  0.10100000352E+00 0.  1.
</event>
<event>
 5   0  0.1282578E-06  0.3284256E+04  0.7818609E-02  0.8166913E-01
        1   -1    0    0  501    0  0.00000000000E+00  0.00000000000E+00  0.23747211850E+04  0.23747211850E+04  0.50400001928E-02 0.  1.
       -1   -1    0    0    0  501  0.00000000000E+00  0.00000000000E+00 -0.11355373762E+04  0.11355373762E+04  0.50400001928E-02 0. -1.
    10030    2    1    2    0    0  0.00000000000E+00  0.00000000000E+00  0.12391838089E+04  0.35102585612E+04  0.32842561798E+04 0.  0.
        4    1    3    3  502    0  0.12422277577E+04 -0.18437953343E+03 -0.51126036593E+03  0.13559182826E+04  0.12699999809E+01 0. -1.
       -4    1    3    3    0  502 -0.12422277577E+04  0.18437953343E+03  0.17504441748E+04  0.21543402787E+04  0.12699999809E+01 0.  1.
</event>
<event>
 5   0  0.3812379E-06  0.3293286E+04  0.7818609E-02  0.8164606E-01
       -2   -1    0    0    0  501  0.00000000000E+00  0.00000000000E+00  0.13125454137E+04  0.13125454137E+04  0.25500000920E-02 0. -1.
        2   -1    0    0  501    0  0.00000000000E+00  0.00000000000E+00 -0.20657821343E+04  0.20657821343E+04  0.25500000920E-02 0.  1.
    10030    2    1    2    0    0  0.00000000000E+00  0.00000000000E+00 -0.75323672069E+03  0.33783275480E+04  0.32932858157E+04 0.  0.
        5    1    3    3  502    0 -0.77661389026E+03 -0.95511222283E+03 -0.14984962726E+04  0.19392992708E+04  0.46999998093E+01 0.  1.
       -5    1    3    3    0  502  0.77661389026E+03  0.95511222283E+03  0.74525955195E+03  0.14390282772E+04  0.46999998093E+01 0. -1.
</event>
<event>
 5   0  0.3671997E-06  0.2281575E+04  0.7818609E-02  0.8485221E-01
       -2   -1    0    0    0  501  0.00000000000E+00  0.00000000000E+00  0.96428595141E+03  0.96428595141E+03  0.25500000920E-02 0. -1.
        2   -1    0    0  501    0  0.00000000000E+00  0.00000000000E+00 -0.13495954870E+04  0.13495954870E+04  0.25500000920E-02 0.  1.
    10030    2    1    2    0    0  0.00000000000E+00  0.00000000000E+00 -0.38530953558E+03  0.23138814384E+04  0.22815748668E+04 0.  0.
        2    1    3    3  502    0  0.57003514591E+03 -0.37170642116E+03 -0.11212011073E+04  0.13115630576E+04  0.25500000920E-02 0.  1.
       -2    1    3    3    0  502 -0.57003514591E+03  0.37170642116E+03  0.73589157172E+03  0.10023183808E+04  0.25500000920E-02 0. -1.
</event>
<event>
 5   0  0.3671997E-06  0.2282065E+04  0.7818609E-02  0.8485026E-01
       -2   -1    0    0    0  501  0.00000000000E+00  0.00000000000E+00  0.98266427878E+03  0.98266427879E+03  0.25500000920E-02 0. -1.
        2   -1    0    0  501    0  0.00000000000E+00  0.00000000000E+00 -0.13249238052E+04  0.13249238052E+04  0.25500000920E-02 0.  1.
    10030    2    1    2    0    0  0.00000000000E+00  0.00000000000E+00 -0.34225952644E+03  0.23075880840E+04  0.22820651135E+04 0.  0.
        2    1    3    3  502    0 -0.80251225061E+03  0.35510994155E+03  0.56629066795E+03  0.10444204630E+04  0.25500000920E-02 0. -1.
       -2    1    3    3    0  502  0.80251225061E+03 -0.35510994155E+03 -0.90855019439E+03  0.12631676210E+04  0.25500000920E-02 0.  1.
</event>
<event>
 5   0  0.1339825E-06  0.3330798E+04  0.7818609E-02  0.8155103E-01
       -1   -1    0    0    0  501  0.00000000000E+00  0.00000000000E+00  0.10347143834E+04  0.10347143834E+04  0.50400001928E-02 0. -1.
        1   -1    0    0  501    0  0.00000000000E+00  0.00000000000E+00 -0.26805022647E+04  0.26805022647E+04  0.50400001928E-02 0.  1.
    10030    2    1    2    0    0  0.00000000000E+00  0.00000000000E+00 -0.16457878812E+04  0.37152166481E+04  0.33307982515E+04 0.  0.
        3    1    3    3  502    0  0.63660949004E+03  0.10490281775E+04  0.43303491824E+03  0.13012497880E+04  0.10100000352E+00 0. -1.
       -3    1    3    3    0  502 -0.63660949004E+03 -0.10490281775E+04 -0.20788227995E+04  0.24139668602E+04  0.10100000352E+00 0.  1.
</event>
<event>
 5   0  0.1391878E-06  0.3282899E+04  0.7818609E-02  0.8167260E-01
        1   -1    0    0  501    0  0.00000000000E+00  0.00000000000E+00  0.12875784424E+04  0.12875784424E+04  0.50400001928E-02 0.  1.
       -1   -1    0    0    0  501  0.00000000000E+00  0.00000000000E+00 -0.20925763431E+04  0.20925763431E+04  0.50400001928E-02 0. -1.
    10030    2    1    2    0    0  0.00000000000E+00  0.00000000000E+00 -0.80499790075E+03  0.33801547855E+04  0.32828988339E+04 0.  0.
        2    1    3    3  502    0  0.12492991827E+04 -0.24202137995E+03 -0.14700534751E+04  0.19443199366E+04  0.25500000920E-02 0. -1.
       -2    1    3    3    0  502 -0.12492991827E+04  0.24202137995E+03  0.66505557440E+03  0.14358348489E+04  0.25500000920E-02 0.  1.
</event>
<event>
 5   0  0.4017247E-06  0.2914880E+04  0.7818609E-02  0.8268464E-01
       -2   -1    0    0    0  501  0.00000000000E+00  0.00000000000E+00  0.14807262625E+04  0.14807262625E+04  0.25500000920E-02 0. -1.
        2   -1    0    0  501    0  0.00000000000E+00  0.00000000000E+00 -0.14345202593E+04  0.14345202593E+04  0.25500000920E-02 0.  1.
    10030    2    1    2    0    0  0.00000000000E+00  0.00000000000E+00  0.46206003234E+02  0.29152465218E+04  0.29148803215E+04 0.  0.
        1    1    3    3  502    0  0.13879008122E+04  0.12420469449E+02  0.46780354066E+03  0.14646716647E+04  0.50400001928E-02 0. -1.
       -1    1    3    3    0  502 -0.13879008122E+04 -0.12420469449E+02 -0.42159753743E+03  0.14505748572E+04  0.50400001928E-02 0.  1.
</event>
<event>
 5   0  0.1391878E-06  0.3155233E+04  0.7818609E-02  0.8200741E-01
       -1   -1    0    0    0  501  0.00000000000E+00  0.00000000000E+00  0.14877354345E+04  0.14877354345E+04  0.50400001928E-02 0.  1.
        1   -1    0    0  501    0  0.00000000000E+00  0.00000000000E+00 -0.16729275573E+04  0.16729275573E+04  0.50400001928E-02 0. -1.
    10030    2    1    2    0    0  0.00000000000E+00  0.00000000000E+00 -0.18519212272E+03  0.31606629918E+04  0.31552328639E+04 0.  0.
        2    1    3    3  502    0 -0.13816948920E+04  0.41396489326E+03 -0.73277799117E+03  0.16178415534E+04  0.25500000920E-02 0. -1.
       -2    1    3    3    0  502  0.13816948920E+04 -0.41396489326E+03  0.54758586845E+03  0.15428214384E+04  0.25500000920E-02 0.  1.
</event>
<event>
 5   0  0.1352708E-06  0.3427947E+04  0.7818609E-02  0.8131081E-01
       -1   -1    0    0    0  501  0.00000000000E+00  0.00000000000E+00  0.11409216378E+04  0.11409216378E+04  0.50400001928E-02 0.  1.
        1   -1    0    0  501    0  0.00000000000E+00  0.00000000000E+00 -0.25748521770E+04  0.25748521770E+04  0.50400001928E-02 0. -1.
    10030    2    1    2    0    0  0.00000000000E+00  0.00000000000E+00 -0.14339305392E+04  0.37157738148E+04  0.34279466523E+04 0.  0.
        5    1    3    3  502    0  0.11068849268E+04 -0.87621285146E+03  0.33662366187E+03  0.14513031324E+04  0.46999998093E+01 0.  1.
       -5    1    3    3    0  502 -0.11068849268E+04  0.87621285146E+03 -0.17705542011E+04  0.22644706824E+04  0.46999998093E+01 0. -1.
</event>
<event>
 5   0  0.3812379E-06  0.3226881E+04  0.7818609E-02  0.8181754E-01
        2   -1    0    0  501    0  0.00000000000E+00  0.00000000000E+00  0.23580681670E+04  0.23580681670E+04  0.25500000920E-02 0.  1.
       -2   -1    0    0    0  501  0.00000000000E+00  0.00000000000E+00 -0.11039500851E+04  0.11039500851E+04  0.25500000920E-02 0. -1.
    10030    2    1    2    0    0  0.00000000000E+00  0.00000000000E+00  0.12541180819E+04  0.34620182521E+04  0.32268805702E+04 0.  0.
        5    1    3    3  502    0  0.53974724166E+03  0.14821315133E+04  0.26303152049E+03  0.15991399496E+04  0.46999998093E+01 0.  1.
       -5    1    3    3    0  502 -0.53974724166E+03 -0.14821315133E+04  0.99108656142E+03  0.18628783025E+04  0.46999998093E+01 0. -1.
</event>
<event>
 5   0  0.1391878E-06  0.2112973E+04  0.7818609E-02  0.8555550E-01
        1   -1    0    0  501    0  0.00000000000E+00  0.00000000000E+00  0.12122764480E+04  0.12122764480E+04  0.50400001928E-02 0. -1.
       -1   -1    0    0    0  501  0.00000000000E+00  0.00000000000E+00 -0.92071717106E+03  0.92071717108E+03  0.50400001928E-02 0.  1.
    10030    2    1    2    0    0  0.00000000000E+00  0.00000000000E+00  0.29155927692E+03  0.21329936191E+04  0.21129730162E+04 0.  0.
        2    1    3    3  502    0 -0.86451724709E+02  0.37169673004E+03 -0.84871030714E+03  0.93055980210E+03  0.25500000920E-02 0.  1.
       -2    1    3    3    0  502  0.86451724709E+02 -0.37169673004E+03  0.11402695841E+04  0.12024338170E+04  0.25500000920E-02 0. -1.
</event>
<event>
 5   0  0.1339825E-06  0.2487092E+04  0.7818609E-02  0.8407599E-01
       -1   -1    0    0    0  501  0.00000000000E+00  0.00000000000E+00  0.96139604541E+03  0.96139604542E+03  0.50400001928E-02 0.  1.
        1   -1    0    0  501    0  0.00000000000E+00  0.00000000000E+00 -0.16085011155E+04  0.16085011155E+04  0.50400001928E-02 0. -1.
    10030    2    1    2    0    0  0.00000000000E+00  0.00000000000E+00 -0.64710507008E+03  0.25698971609E+04  0.24870919657E+04 0.  0.
        3    1    3    3  502    0 -0.72028672043E+03  0.80705573221E+03  0.31026588895E+03  0.11253518768E+04  0.10100000352E+00 0.  1.
       -3    1    3    3    0  502  0.72028672043E+03 -0.80705573221E+03 -0.95737095903E+03  0.14445452841E+04  0.10100000352E+00 0. -1.
</event>
<event>
 5   0  0.1352708E-06  0.3303992E+04  0.7818609E-02  0.8161880E-01
       -1   -1    0    0    0  501  0.00000000000E+00  0.00000000000E+00  0.94246024066E+03  0.94246024068E+03  0.50400001928E-02 0.  1.
        1   -1    0    0  501    0  0.00000000000E+00  0.00000000000E+00 -0.28957086099E+04  0.28957086100E+04  0.50400001928E-02 0. -1.
    10030    2    1    2    0    0  0.00000000000E+00  0.00000000000E+00 -0.19532483693E+04  0.38381688506E+04  0.33039916667E+04 0.  0.
        5    1    3    3  502    0 -0.14213709149E+03  0.11401360210E+04  0.40227876734E+03  0.12173591894E+04  0.46999998093E+01 0.  1.
       -5    1    3    3    0  502  0.14213709149E+03 -0.11401360210E+04 -0.23555271366E+04  0.26208096613E+04  0.46999998093E+01 0. -1.
</event>
<event>
 5   0  0.3671997E-06  0.2110758E+04  0.7818609E-02  0.8556519E-01
       -2   -1    0    0    0  501  0.00000000000E+00  0.00000000000E+00  0.91640897068E+03  0.91640897068E+03  0.25500000920E-02 0. -1.
        2   -1    0    0  501    0  0.00000000000E+00  0.00000000000E+00 -0.12154234010E+04  0.12154234010E+04  0.25500000920E-02 0.  1.
    10030    2    1    2    0    0  0.00000000000E+00  0.00000000000E+00 -0.29901443030E+03  0.21318323717E+04  0.21107580703E+04 0.  0.
        2    1    3    3  502    0  0.16360128643E+03  0.92071976661E+02  0.89941005087E+03  0.91879326805E+03  0.25500000920E-02 0. -1.
       -2    1    3    3    0  502 -0.16360128643E+03 -0.92071976661E+02 -0.11984244812E+04  0.12130391036E+04  0.25500000920E-02 0.  1.
</event>
<event>
 5   0  0.4017247E-06  0.2061079E+04  0.7818609E-02  0.8578585E-01
        2   -1    0    0  501    0  0.00000000000E+00  0.00000000000E+00  0.10052907609E+04  0.10052907609E+04  0.25500000920E-02 0. -1.
       -2   -1    0    0    0  501  0.00000000000E+00  0.00000000000E+00 -0.10564228423E+04  0.10564228423E+04  0.25500000920E-02 0.  1.
    10030    2    1    2    0    0  0.00000000000E+00  0.00000000000E+00 -0.51132081413E+02  0.20617136033E+04  0.20610794483E+04 0.  0.
        1    1    3    3  502    0  0.49361752248E+03  0.19866057016E+03  0.85725172876E+03  0.10089622427E+04  0.50400001928E-02 0. -1.
       -1    1    3    3    0  502 -0.49361752248E+03 -0.19866057016E+03 -0.90838381017E+03  0.10527513606E+04  0.50400001928E-02 0.  1.
</event>
<event>
 5   0  0.1339825E-06  0.3684369E+04  0.7818609E-02  0.8071435E-01
        1   -1    0    0  501    0  0.00000000000E+00  0.00000000000E+00  0.14039463789E+04  0.14039463789E+04  0.50400001928E-02 0.  1.
       -1   -1    0    0    0  501  0.00000000000E+00  0.00000000000E+00 -0.24172175897E+04  0.24172175897E+04  0.50400001928E-02 0. -1.
    10030    2    1    2    0    0  0.00000000000E+00  0.00000000000E+00 -0.10132712108E+04  0.38211639685E+04  0.36843690814E+04 0.  0.
        3    1    3    3  502    0 -0.61528969392E+03  0.97252032579E+03  0.98526804699E+03  0.15149687542E+04  0.10100000352E+00 0.  1.
       -3    1    3    3    0  502  0.61528969392E+03 -0.97252032579E+03 -0.19985392578E+04  0.23061952143E+04  0.10100000352E+00 0. -1.
</event>
<event>
 5   0  0.4017247E-06  0.3317056E+04  0.7818609E-02  0.8158569E-01
       -2   -1    0    0    0  501  0.00000000000E+00  0.00000000000E+00  0.18429825070E+04  0.18429825070E+04  0.25500000920E-02 0.  1.
        2   -1    0    0  501    0  0.00000000000E+00  0.00000000000E+00 -0.14925349318E+04  0.14925349318E+04  0.25500000920E-02 0. -1.
    10030    2    1    2    0    0  0.00000000000E+00  0.00000000000E+00  0.35044757517E+03  0.33355174388E+04  0.33170563880E+04 0.  0.
        1    1    3    3  502    0 -0.29031291885E+02  0.15493056120E+04 -0.41927302439E+03  0.16052976560E+04  0.50400001928E-02 0. -1.
       -1    1    3    3    0  502  0.29031291885E+02 -0.15493056120E+04  0.76972059956E+03  0.17302197828E+04  0.50400001928E-02 0.  1.
</event>
<event>
 5   0  0.4017247E-06  0.2500229E+04  0.7818609E-02  0.8402904E-01
       -2   -1    0    0    0  501  0.00000000000E+00  0.00000000000E+00  0.50421622535E+03  0.50421622536E+03  0.25500000920E-02 0. -1.
        2   -1    0    0  501    0  0.00000000000E+00  0.00000000000E+00 -0.30994358616E+04  0.30994358616E+04  0.25500000920E-02 0.  1.
    10030    2    1    2    0    0  0.00000000000E+00  0.00000000000E+00 -0.25952196362E+04  0.36036520869E+04  0.25002286702E+04 0.  0.
        1    1    3    3  502    0  0.11286760034E+04  0.16912933340E+03 -0.56228958794E+03  0.12722750618E+04  0.50400001928E-02 0.  1.
       -1    1    3    3    0  502 -0.11286760034E+04 -0.16912933340E+03 -0.20329300483E+04  0.23313770251E+04  0.50400001928E-02 0. -1.
</event>
<event>
 5   0  0.3812379E-06  0.3274710E+04  0.7818609E-02  0.8169360E-01
        2   -1    0    0  501    0  0.00000000000E+00  0.00000000000E+00  0.32313713516E+04  0.32313713516E+04  0.25500000920E-02 0.  1.
       -2   -1    0    0    0  501  0.00000000000E+00  0.00000000000E+00 -0.82965768396E+03  0.82965768396E+03  0.25500000920E-02 0. -1.
    10030    2    1    2    0    0  0.00000000000E+00  0.00000000000E+00  0.24017136676E+04  0.40610290355E+04  0.32747104126E+04 0.  0.
        5    1    3    3  502    0  0.11456061159E+04  0.98457358500E+03  0.19843050489E+04  0.24938498620E+04  0.46999998093E+01 0.  1.
       -5    1    3    3    0  502 -0.11456061159E+04 -0.98457358500E+03  0.41740861867E+03  0.15671791735E+04  0.46999998093E+01 0. -1.
</event>
<event>
 5   0  0.3896210E-06  0.3056987E+04  0.7818609E-02  0.8227643E-01
        2   -1    0    0  501    0  0.00000000000E+00  0.00000000000E+00  0.22899135336E+04  0.22899135336E+04  0.25500000920E-02 0. -1.
       -2   -1    0    0    0  501  0.00000000000E+00  0.00000000000E+00 -0.10202532362E+04  0.10202532362E+04  0.25500000920E-02 0.  1.
    10030    2    1    2    0    0  0.00000000000E+00  0.00000000000E+00  0.12696602974E+04  0.33101667699E+04  0.30569865511E+04 0.  0.
        3    1    3    3  502    0  0.11864762499E+04  0.67590501729E+03 -0.10886964749E+03  0.13698270308E+04  0.10100000352E+00 0.  1.
       -3    1    3    3    0  502 -0.11864762499E+04 -0.67590501729E+03  0.13785299449E+04  0.19403397391E+04  0.10100000352E+00 0. -1.
</event>
<event>
 5   0  0.1405389E-06  0.3149719E+04  0.7818609E-02  0.8202224E-01
        1   -1    0    0  501    0  0.00000000000E+00  0.00000000000E+00  0.12668555945E+04  0.12668555945E+04  0.50400001928E-02 0.  1.
       -1   -1    0    0    0  501  0.00000000000E+00  0.00000000000E+00 -0.19577461487E+04  0.19577461487E+04  0.50400001928E-02 0. -1.
    10030    2    1    2    0    0  0.00000000000E+00  0.00000000000E+00 -0.69089055424E+03  0.32246017432E+04  0.31497185024E+04 0.  0.
        1    1    3    3  502    0  0.12987058858E+04  0.87056776366E+03 -0.15212678196E+03  0.15708812071E+04  0.50400001928E-02 0.  1.
       -1    1    3    3    0  502 -0.12987058858E+04 -0.87056776366E+03 -0.53876377228E+03  0.16537205361E+04  0.50400001928E-02 0. -1.
</event>
<event>
 5   0  0.1405389E-06  0.3285191E+04  0.7818609E-02  0.8166674E-01
       -1   -1    0    0    0  501  0.00000000000E+00  0.00000000000E+00  0.21393389431E+04  0.21393389431E+04  0.50400001928E-02 0.  1.
        1   -1    0    0  501    0  0.00000000000E+00  0.00000000000E+00 -0.12611935741E+04  0.12611935741E+04  0.50400001928E-02 0. -1.
    10030    2    1    2    0    0  0.00000000000E+00  0.00000000000E+00  0.87814536900E+03  0.34005325173E+04  0.32851913357E+04 0.  0.
        1    1    3    3  502    0 -0.97439376420E+03 -0.48077362838E+03 -0.83606031150E+03  0.13709789692E+04  0.50400001928E-02 0. -1.
       -1    1    3    3    0  502  0.97439376420E+03  0.48077362838E+03  0.17142056805E+04  0.20295535481E+04  0.50400001928E-02 0.  1.
</event>
<event>
 5   0  0.1405389E-06  0.3263762E+04  0.7818609E-02  0.8172178E-01
       -1   -1    0    0    0  501  0.00000000000E+00  0.00000000000E+00  0.11849036787E+04  0.11849036787E+04  0.50400001928E-02 0. -1.
        1   -1    0    0  501    0  0.00000000000E+00  0.00000000000E+00 -0.22474704870E+04  0.22474704870E+04  0.50400001928E-02 0.  1.
    10030    2    1    2    0    0  0.00000000000E+00  0.00000000000E+00 -0.10625668083E+04  0.34323741657E+04  0.32637622756E+04 0.  0.
        1    1    3    3  502    0 -0.76196441171E+03  0.57964816244E+03  0.85852431037E+03  0.12859415805E+04  0.50400001928E-02 0. -1.
       -1    1    3    3    0  502  0.76196441171E+03 -0.57964816244E+03 -0.19210911186E+04  0.21464325852E+04  0.50400001928E-02 0.  1.
</event>
<event>
 5   0  0.3812379E-06  0.2568472E+04  0.7818609E-02  0.8378990E-01
        2   -1    0    0  501    0  0.00000000000E+00  0.00000000000E+00  0.12127139877E+04  0.12127139877E+04  0.25500000920E-02 0. -1.
       -2   -1    0    0    0  501  0.00000000000E+00  0.00000000000E+00 -0.13599758721E+04  0.13599758721E+04  0.25500000920E-02 0.  1.
    10030    2    1    2    0    0  0.00000000000E+00  0.00000000000E+00 -0.14726188436E+03  0.25726898598E+04  0.25684717347E+04 0.  0.
        5    1    3    3  502    0  0.58331308232E+02 -0.88641446865E+03 -0.10025732956E+04  0.13395179935E+04  0.46999998093E+01 0.  1.
       -5    1    3    3    0  502 -0.58331308232E+02  0.88641446865E+03  0.85531141125E+03  0.12331718664E+04  0.46999998093E+01 0. -1.
</event>
<event>
 5   0  0.4017247E-06  0.3267586E+04  0.7818609E-02  0.8171192E-01
       -2   -1    0    0    0  501  0.00000000000E+00  0.00000000000E+00  0.16398390290E+04  0.16398390290E+04  0.25500000920E-02 0.  1.
        2   -1    0    0  501    0  0.00000000000E+00  0.00000000000E+00 -0.16277697595E+04  0.16277697595E+04  0.25500000920E-02 0. -1.
    10030    2    1    2    0    0  0.00000000000E+00  0.00000000000E+00  0.12069269567E+02  0.32676087885E+04  0.32675864989E+04 0.  0.
        1    1    3    3  502    0 -0.27127971149E+03 -0.11547703703E+03 -0.16009463809E+04  0.16278688346E+04  0.50400001928E-02 0. -1.
       -1    1    3    3    0  502  0.27127971149E+03  0.11547703703E+03  0.16130156505E+04  0.16397399540E+04  0.50400001928E-02 0.  1.
</event>
<event>
 5   0  0.1352708E-06  0.3316779E+04  0.7818609E-02  0.8158639E-01
       -1   -1    0    0    0  501  0.00000000000E+00  0.00000000000E+00  0.11350903367E+04  0.11350903368E+04  0.50400001928E-02 0.  1.
        1   -1    0    0  501    0  0.00000000000E+00  0.00000000000E+00 -0.24229395421E+04  0.24229395421E+04  0.50400001928E-02 0. -1.
    10030    2    1    2    0    0  0.00000000000E+00  0.00000000000E+00 -0.12878492054E+04  0.35580298789E+04  0.33167787149E+04 0.  0.
        5    1    3    3  502    0  0.11342003168E+04 -0.93238849814E+03  0.18317861138E+03  0.14796402143E+04  0.46999998093E+01 0.  1.
       -5    1    3    3    0  502 -0.11342003168E+04  0.93238849814E+03 -0.14710278168E+04  0.20783896646E+04  0.46999998093E+01 0. -1.
</event>
<event>
 5   0  0.1352708E-06  0.3418086E+04  0.7818609E-02  0.8133482E-01
        1   -1    0    0  501    0  0.00000000000E+00  0.00000000000E+00  0.17539578912E+04  0.17539578912E+04  0.50400001928E-02 0.  1.
       -1   -1    0    0    0  501  0.00000000000E+00  0.00000000000E+00 -0.16652778777E+04  0.16652778777E+04  0.50400001928E-02 0. -1.
    10030    2    1    2    0    0  0.00000000000E+00  0.00000000000E+00  0.88680013481E+02  0.34192357689E+04  0.34180855897E+04 0.  0.
        5    1    3    3  502    0  0.13289776675E+04 -0.92237027414E+03  0.59575740757E+03  0.17239192388E+04  0.46999998093E+01 0.  1.
       -5    1    3    3    0  502 -0.13289776675E+04  0.92237027414E+03 -0.50707739409E+03  0.16953165300E+04  0.46999998093E+01 0. -1.
</event>
<event>
 5   0  0.4017247E-06  0.3375864E+04  0.7818609E-02  0.8143856E-01
       -2   -1    0    0    0  501  0.00000000000E+00  0.00000000000E+00  0.12879585640E+04  0.12879585640E+04  0.25500000920E-02 0. -1.
        2   -1    0    0  501    0  0.00000000000E+00  0.00000000000E+00 -0.22121165243E+04  0.22121165243E+04  0.25500000920E-02 0.  1.
    10030    2    1    2    0    0  0.00000000000E+00  0.00000000000E+00 -0.92415796035E+03  0.35000750883E+04  0.33758639914E+04 0.  0.
        1    1    3    3  502    0 -0.12731805184E+04 -0.55420025544E+03  0.53291252883E+03  0.14873205166E+04  0.50400001928E-02 0. -1.
       -1    1    3    3    0  502  0.12731805184E+04  0.55420025544E+03 -0.14570704892E+04  0.20127545717E+04  0.50400001928E-02 0.  1.
</event>
<event>
 5   0  0.1401686E-06  0.2080367E+04  0.7818609E-02  0.8569941E-01
       -1   -1    0    0    0  501  0.00000000000E+00  0.00000000000E+00  0.84730611180E+03  0.84730611182E+03  0.50400001928E-02 0. -1.
        1   -1    0    0  501    0  0.00000000000E+00  0.00000000000E+00 -0.12769671615E+04  0.12769671615E+04  0.50400001928E-02 0.  1.
    10030    2    1    2    0    0  0.00000000000E+00  0.00000000000E+00 -0.42966104973E+03  0.21242732734E+04  0.20803673527E+04 0.  0.
        3    1    3    3  502    0  0.25384393786E+03  0.94566360198E+03 -0.57333240593E+03  0.11346481617E+04  0.10100000352E+00 0.  1.
       -3    1    3    3    0  502 -0.25384393786E+03 -0.94566360198E+03  0.14367135620E+03  0.98962511169E+03  0.10100000352E+00 0. -1.
</event>
<event>
 5   0  0.1391878E-06  0.2701486E+04  0.7818609E-02  0.8334523E-01
        1   -1    0    0  501    0  0.00000000000E+00  0.00000000000E+00  0.67258600734E+03  0.67258600736E+03  0.50400001928E-02 0.  1.
       -1   -1    0    0    0  501  0.00000000000E+00  0.00000000000E+00 -0.27126733546E+04  0.27126733546E+04  0.50400001928E-02 0. -1.
    10030    2    1    2    0    0  0.00000000000E+00  0.00000000000E+00 -0.20400873472E+04  0.33852593619E+04  0.27014856215E+04 0.  0.
        2    1    3    3  502    0 -0.67929901991E+03  0.96439215987E+03 -0.18446309283E+04  0.21895576399E+04  0.25500000920E-02 0. -1.
       -2    1    3    3    0  502  0.67929901991E+03 -0.96439215987E+03 -0.19545641888E+03  0.11957017221E+04  0.25500000920E-02 0.  1.
</event>
<event>
 5   0  0.1282578E-06  0.3443168E+04  0.7818609E-02  0.8127392E-01
       -1   -1    0    0    0  501  0.00000000000E+00  0.00000000000E+00  0.23451525578E+04  0.23451525578E+04  0.50400001928E-02 0.  1.
        1   -1    0    0  501    0  0.00000000000E+00  0.00000000000E+00 -0.12638203919E+04  0.12638203919E+04  0.50400001928E-02 0. -1.
    10030    2    1    2    0    0  0.00000000000E+00  0.00000000000E+00  0.10813321659E+04  0.36089729497E+04  0.34431680904E+04 0.  0.
        4    1    3    3  502    0  0.11780674252E+04  0.46341212033E+03 -0.68224635750E+03  0.14380734880E+04  0.12699999809E+01 0. -1.
       -4    1    3    3    0  502 -0.11780674252E+04 -0.46341212033E+03  0.17635785234E+04  0.21708994617E+04  0.12699999809E+01 0.  1.
</event>
<event>
 5   0  0.1282578E-06  0.2250459E+04  0.7818609E-02  0.8497715E-01
       -1   -1    0    0    0  501  0.00000000000E+00  0.00000000000E+00  0.90860088773E+03  0.90860088774E+03  0.50400001928E-02 0. -1.
        1   -1    0    0  501    0  0.00000000000E+00  0.00000000000E+00 -0.13935065338E+04  0.13935065338E+04  0.50400001928E-02 0.  1.
    10030    2    1    2    0    0  0.00000000000E+00  0.00000000000E+00 -0.48490564603E+03  0.23021074215E+04  0.22504588631E+04 0.  0.
        4    1    3    3  502    0 -0.60462272210E+03  0.44011986577E+03 -0.11025012536E+04  0.13322104787E+04  0.12699999809E+01 0.  1.
       -4    1    3    3    0  502  0.60462272210E+03 -0.44011986577E+03  0.61759560760E+03  0.96989694285E+03  0.12699999809E+01 0. -1.
</event>
<event>
 5   0  0.1405389E-06  0.3268574E+04  0.7818609E-02  0.8170938E-01
        1   -1    0    0  501    0  0.00000000000E+00  0.00000000000E+00  0.17107056762E+04  0.17107056762E+04  0.50400001928E-02 0. -1.
       -1   -1    0    0    0  501  0.00000000000E+00  0.00000000000E+00 -0.15612824274E+04  0.15612824274E+04  0.50400001928E-02 0.  1.
    10030    2    1    2    0    0  0.00000000000E+00  0.00000000000E+00  0.14942324873E+03  0.32719881036E+04  0.32685744359E+04 0.  0.
        1    1    3    3  502    0  0.66403766625E+03  0.28769570196E+03 -0.13921446064E+04  0.15690065150E+04  0.50400001928E-02 0.  1.
       -1    1    3    3    0  502 -0.66403766625E+03 -0.28769570196E+03  0.15415678551E+04  0.17029815886E+04  0.50400001928E-02 0. -1.
</event>
<event>
 5   0  0.1339825E-06  0.3037706E+04  0.7818609E-02  0.8233045E-01
        1   -1    0    0  501    0  0.00000000000E+00  0.00000000000E+00  0.26385568681E+04  0.26385568682E+04  0.50400001928E-02 0.  1.
       -1   -1    0    0    0  501  0.00000000000E+00  0.00000000000E+00 -0.87430907905E+03  0.87430907906E+03  0.50400001928E-02 0. -1.
    10030    2    1    2    0    0  0.00000000000E+00  0.00000000000E+00  0.17642477891E+04  0.35128659472E+04  0.30377058616E+04 0.  0.
        3    1    3    3  502    0 -0.13792370602E+04  0.13627598724E+03  0.16360759389E+03  0.13955763927E+04  0.10100000352E+00 0. -1.
       -3    1    3    3    0  502  0.13792370602E+04 -0.13627598724E+03  0.16006401952E+04  0.21172895545E+04  0.10100000352E+00 0.  1.
</event>
<event>
 5   0  0.1282578E-06  0.3317915E+04  0.7818609E-02  0.8158352E-01
        1   -1    0    0  501    0  0.00000000000E+00  0.00000000000E+00  0.23387460207E+04  0.23387460207E+04  0.50400001928E-02 0.  1.
       -1   -1    0    0    0  501  0.00000000000E+00  0.00000000000E+00 -0.11767584645E+04  0.11767584645E+04  0.50400001928E-02 0. -1.
    10030    2    1    2    0    0  0.00000000000E+00  0.00000000000E+00  0.11619875562E+04  0.35155044852E+04  0.33179145113E+04 0.  0.
        4    1    3    3  502    0  0.91119196909E+03  0.13690960031E+04  0.35020852905E+03  0.16814702783E+04  0.12699999809E+01 0.  1.
       -4    1    3    3    0  502 -0.91119196909E+03 -0.13690960031E+04  0.81177902712E+03  0.18340342069E+04  0.12699999809E+01 0. -1.
</event>
<event>
 5   0  0.3896210E-06  0.2511404E+04  0.7818609E-02  0.8398934E-01
       -2   -1    0    0    0  501  0.00000000000E+00  0.00000000000E+00  0.68548458038E+03  0.68548458039E+03  0.25500000920E-02 0.  1.
        2   -1    0    0  501    0  0.00000000000E+00  0.00000000000E+00 -0.23002526475E+04  0.23002526475E+04  0.25500000920E-02 0. -1.
    10030    2    1    2    0    0  0.00000000000E+00  0.00000000000E+00 -0.16147680672E+04  0.29857372279E+04  0.25114041657E+04 0.  0.
        3    1    3    3  502    0  0.77741966495E+03  0.98597606109E+03 -0.82646467134E+03  0.15031879429E+04  0.10100000352E+00 0.  1.
       -3    1    3    3    0  502 -0.77741966495E+03 -0.98597606109E+03 -0.78830339582E+03  0.14825492850E+04  0.10100000352E+00 0. -1.
</event>
<event>
 5   0  0.1391878E-06  0.3351437E+04  0.7818609E-02  0.8149929E-01
        1   -1    0    0  501    0  0.00000000000E+00  0.00000000000E+00  0.15885947052E+04  0.15885947052E+04  0.50400001928E-02 0. -1.
       -1   -1    0    0    0  501  0.00000000000E+00  0.00000000000E+00 -0.17676202947E+04  0.17676202947E+04  0.50400001928E-02 0.  1.
    10030    2    1    2    0    0  0.00000000000E+00  0.00000000000E+00 -0.17902558951E+03  0.33562150000E+04  0.33514368507E+04 0.  0.
        2    1    3    3  502    0 -0.23428171339E+03  0.15953856951E+04 -0.54611108760E+03  0.17024631442E+04  0.25500000920E-02 0.  1.
       -2    1    3    3    0  502  0.23428171339E+03 -0.15953856951E+04  0.36708549810E+03  0.16537518557E+04  0.25500000920E-02 0. -1.
</event>
<event>
 5   0  0.1339825E-06  0.3131551E+04  0.7818609E-02  0.8207132E-01
       -1   -1    0    0    0  501  0.00000000000E+00  0.00000000000E+00  0.14862060474E+04  0.14862060474E+04  0.50400001928E-02 0.  1.
        1   -1    0    0  501    0  0.00000000000E+00  0.00000000000E+00 -0.16496054675E+04  0.16496054675E+04  0.50400001928E-02 0. -1.
    10030    2    1    2    0    0  0.00000000000E+00  0.00000000000E+00 -0.16339942012E+03  0.31358115149E+04  0.31315514503E+04 0.  0.
        3    1    3    3  502    0  0.10247686018E+04  0.11081819017E+04  0.33532306057E+03  0.15461757272E+04  0.10100000352E+00 0.  1.
       -3    1    3    3    0  502 -0.10247686018E+04 -0.11081819017E+04 -0.49872248068E+03  0.15896357876E+04  0.10100000352E+00 0. -1.
</event>
<event>
 5   0  0.1391878E-06  0.3219064E+04  0.7818609E-02  0.8183800E-01
        1   -1    0    0  501    0  0.00000000000E+00  0.00000000000E+00  0.10789412415E+04  0.10789412415E+04  0.50400001928E-02 0.  1.
       -1   -1    0    0    0  501  0.00000000000E+00  0.00000000000E+00 -0.24010516004E+04  0.24010516004E+04  0.50400001928E-02 0. -1.
    10030    2    1    2    0    0  0.00000000000E+00  0.00000000000E+00 -0.13221103589E+04  0.34799928419E+04  0.32190642085E+04 0.  0.
        2    1    3    3  502    0  0.84861249489E+03 -0.26043654545E+03  0.79039185863E+03  0.11885662165E+04  0.25500000920E-02 0.  1.
       -2    1    3    3    0  502 -0.84861249489E+03  0.26043654545E+03 -0.21125022176E+04  0.22914266255E+04  0.25500000920E-02 0. -1.
</event>
<event>
 5   0  0.4017247E-06  0.3175178E+04  0.7818609E-02  0.8195404E-01
       -2   -1    0    0    0  501  0.00000000000E+00  0.00000000000E+00  0.16047287404E+04  0.16047287404E+04  0.25500000920E-02 0.  1.
        2   -1    0    0  501    0  0.00000000000E+00  0.00000000000E+00 -0.15706318668E+04  0.15706318668E+04  0.25500000920E-02 0. -1.
    10030    2    1    2    0    0  0.00000000000E+00  0.00000000000E+00  0.34096873544E+02  0.31753606072E+04  0.31751775366E+04 0.  0.
        1    1    3    3  502    0 -0.18582937366E+03 -0.14674958439E+04 -0.55949281606E+03  0.15814894306E+04  0.50400001928E-02 0. -1.
       -1    1    3    3    0  502  0.18582937366E+03  0.14674958439E+04  0.59358968961E+03  0.15938711766E+04  0.50400001928E-02 0.  1.
</event>
<event>
 5   0  0.1405389E-06  0.3242760E+04  0.7818609E-02  0.8177615E-01
       -1   -1    0    0    0  501  0.00000000000E+00  0.00000000000E+00  0.14718990538E+04  0.14718990538E+04  0.50400001928E-02 0.  1.
        1   -1    0    0  501    0  0.00000000000E+00  0.00000000000E+00 -0.17860421344E+04  0.17860421344E+04  0.50400001928E-02 0. -1.
    10030    2    1    2    0    0  0.00000000000E+00  0.00000000000E+00 -0.31414308062E+03  0.32579411881E+04  0.32427603843E+04 0.  0.
        1    1    3    3  502    0 -0.11744941617E+04  0.52068187522E+03 -0.11508064096E+04  0.17247902897E+04  0.50400001928E-02 0. -1.
       -1    1    3    3    0  502  0.11744941617E+04 -0.52068187522E+03  0.83666332901E+03  0.15331508984E+04  0.50400001928E-02 0.  1.
</event>
<event>
 5   0  0.3671997E-06  0.3286025E+04  0.7818609E-02  0.8166461E-01
        2   -1    0    0  501    0  0.00000000000E+00  0.00000000000E+00  0.19336473526E+04  0.19336473526E+04  0.25500000920E-02 0.  1.
       -2   -1    0    0    0  501  0.00000000000E+00  0.00000000000E+00 -0.13960609846E+04  0.13960609846E+04  0.25500000920E-02 0. -1.
    10030    2    1    2    0    0  0.00000000000E+00  0.00000000000E+00  0.53758636801E+03  0.33297083371E+04  0.32860247271E+04 0.  0.
        2    1    3    3  502    0  0.68209328375E+03 -0.83836301359E+03  0.15227358492E+04  0.18673050786E+04  0.25500000920E-02 0.  1.
       -2    1    3    3    0  502 -0.68209328375E+03  0.83836301359E+03 -0.98514948117E+03  0.14624032585E+04  0.25500000920E-02 0. -1.
</event>
<event>
 5   0  0.1259875E-06  0.3460356E+04  0.7818609E-02  0.8123250E-01
       -3   -1    0    0    0  501  0.00000000000E+00  0.00000000000E+00  0.15549543886E+04  0.15549543919E+04  0.10100000352E+00 0.  1.
        3   -1    0    0  501    0  0.00000000000E+00  0.00000000000E+00 -0.19251476140E+04  0.19251476166E+04  0.10100000352E+00 0. -1.
    10030    2    1    2    0    0  0.00000000000E+00  0.00000000000E+00 -0.37019322539E+03  0.34801020085E+04  0.34603564795E+04 0.  0.
        4    1    3    3  502    0  0.14831362892E+04  0.88938182361E+03 -0.23852080174E+03  0.17457339620E+04  0.12699999809E+01 0.  1.
       -4    1    3    3    0  502 -0.14831362892E+04 -0.88938182361E+03 -0.13167242365E+03  0.17343680464E+04  0.12699999809E+01 0. -1.
</event>
<event>
 5   0  0.1405389E-06  0.3327232E+04  0.7818609E-02  0.8156001E-01
        1   -1    0    0  501    0  0.00000000000E+00  0.00000000000E+00  0.13507643539E+04  0.13507643539E+04  0.50400001928E-02 0. -1.
       -1   -1    0    0    0  501  0.00000000000E+00  0.00000000000E+00 -0.20489276449E+04  0.20489276449E+04  0.50400001928E-02 0.  1.
    10030    2    1    2    0    0  0.00000000000E+00  0.00000000000E+00 -0.69816329101E+03  0.33996919988E+04  0.33272321389E+04 0.  0.
        1    1    3    3  502    0 -0.15397327269E+03 -0.16292355190E+04 -0.65476621967E+03  0.17626216121E+04  0.50400001928E-02 0.  1.
       -1    1    3    3    0  502  0.15397327269E+03  0.16292355190E+04 -0.43397071343E+02  0.16370703867E+04  0.50400001928E-02 0. -1.
</event>
<event>
 5   0  0.1339825E-06  0.3200406E+04  0.7818609E-02  0.8188710E-01
       -1   -1    0    0    0  501  0.00000000000E+00  0.00000000000E+00  0.15106924153E+04  0.15106924153E+04  0.50400001928E-02 0.  1.
        1   -1    0    0  501    0  0.00000000000E+00  0.00000000000E+00 -0.16950167694E+04  0.16950167694E+04  0.50400001928E-02 0. -1.
    10030    2    1    2    0    0  0.00000000000E+00  0.00000000000E+00 -0.18432435416E+03  0.32057091847E+04  0.32004055851E+04 0.  0.
        3    1    3    3  502    0  0.59175970194E+03 -0.14789970114E+04  0.59869658532E+02  0.15941129479E+04  0.10100000352E+00 0.  1.
       -3    1    3    3    0  502 -0.59175970194E+03  0.14789970114E+04 -0.24419401269E+03  0.16115962368E+04  0.10100000352E+00 0. -1.
</event>
<event>
 5   0  0.3896210E-06  0.2515559E+04  0.7818609E-02  0.8397464E-01
       -2   -1    0    0    0  501  0.00000000000E+00  0.00000000000E+00  0.94296163700E+03  0.94296163700E+03  0.25500000920E-02 0.  1.
        2   -1    0    0  501    0  0.00000000000E+00  0.00000000000E+00 -0.16777024931E+04  0.16777024931E+04  0.25500000920E-02 0. -1.
    10030    2    1    2    0    0  0.00000000000E+00  0.00000000000E+00 -0.73474085614E+03  0.26206641301E+04  0.25155588559E+04 0.  0.
        3    1    3    3  502    0 -0.72281059317E+03  0.10096708226E+04 -0.57603590764E+03  0.13688344315E+04  0.10100000352E+00 0. -1.
       -3    1    3    3    0  502  0.72281059317E+03 -0.10096708226E+04 -0.15870494850E+03  0.12518296987E+04  0.10100000352E+00 0.  1.
</event>
<event>
 5   0  0.3920487E-06  0.3235843E+04  0.7818609E-02  0.8179415E-01
        2   -1    0    0  501    0  0.00000000000E+00  0.00000000000E+00  0.18777194364E+04  0.18777194364E+04  0.25500000920E-02 0.  1.
       -2   -1    0    0    0  501  0.00000000000E+00  0.00000000000E+00 -0.13940690891E+04  0.13940690891E+04  0.25500000920E-02 0. -1.
    10030    2    1    2    0    0  0.00000000000E+00  0.00000000000E+00  0.48365034727E+03  0.32717885255E+04  0.32358433981E+04 0.  0.
        4    1    3    3  502    0 -0.38362887189E+03  0.83259389858E+03  0.15897829982E+04  0.18351553901E+04  0.12699999809E+01 0.  1.
       -4    1    3    3    0  502  0.38362887189E+03 -0.83259389858E+03 -0.11061326510E+04  0.14366331354E+04  0.12699999809E+01 0. -1.
</event>
<event>
 5   0  0.1405389E-06  0.3194560E+04  0.7818609E-02  0.8190255E-01
       -1   -1    0    0    0  501  0.00000000000E+00  0.00000000000E+00  0.13937718975E+04  0.13937718975E+04  0.50400001928E-02 0.  1.
        1   -1    0    0  501    0  0.00000000000E+00  0.00000000000E+00 -0.18305028530E+04  0.18305028530E+04  0.50400001928E-02 0. -1.
    10030    2    1    2    0    0  0.00000000000E+00  0.00000000000E+00 -0.43673095551E+03  0.32242747505E+04  0.31945600228E+04 0.  0.
        1    1    3    3  502    0  0.12750564128E+04 -0.71878258758E+03 -0.86375543151E+03  0.16995560331E+04  0.50400001928E-02 0. -1.
       -1    1    3    3    0  502 -0.12750564128E+04  0.71878258758E+03  0.42702447600E+03  0.15247187174E+04  0.50400001928E-02 0.  1.
</event>
<event>
 5   0  0.1352708E-06  0.3324630E+04  0.7818609E-02  0.8156656E-01
        1   -1    0    0  501    0  0.00000000000E+00  0.00000000000E+00  0.12653856240E+04  0.12653856240E+04  0.50400001928E-02 0. -1.
       -1   -1    0    0    0  501  0.00000000000E+00  0.00000000000E+00 -0.21837546248E+04  0.21837546248E+04  0.50400001928E-02 0.  1.
    10030    2    1    2    0    0  0.00000000000E+00  0.00000000000E+00 -0.91836900086E+03  0.34491402488E+04  0.33246303304E+04 0.  0.
        5    1    3    3  502    0  0.47156264172E+03  0.14772879924E+04 -0.10803727976E+04  0.18899678858E+04  0.46999998093E+01 0.  1.
       -5    1    3    3    0  502 -0.47156264172E+03 -0.14772879924E+04  0.16200379670E+03  0.15591723630E+04  0.46999998093E+01 0. -1.
</event>
<event>
 5   0  0.3896210E-06  0.3306745E+04  0.7818609E-02  0.8161181E-01
        2   -1    0    0  501    0  0.00000000000E+00  0.00000000000E+00  0.12536168345E+04  0.12536168345E+04  0.25500000920E-02 0. -1.
       -2   -1    0    0    0  501  0.00000000000E+00  0.00000000000E+00 -0.21806034865E+04  0.21806034865E+04  0.25500000920E-02 0.  1.
    10030    2    1    2    0    0  0.00000000000E+00  0.00000000000E+00 -0.92698665199E+03  0.34342203210E+04  0.33067453728E+04 0.  0.
        3    1    3    3  502    0 -0.34714357783E+03 -0.89552468339E+03 -0.18611702030E+04  0.20943800173E+04  0.10100000352E+00 0.  1.
       -3    1    3    3    0  502  0.34714357783E+03  0.89552468339E+03  0.93418355104E+03  0.13398403037E+04  0.10100000352E+00 0. -1.
</event>
<event>
 5   0  0.1282578E-06  0.3278390E+04  0.7818609E-02  0.8168416E-01
        1   -1    0    0  501    0  0.00000000000E+00  0.00000000000E+00  0.19192903142E+04  0.19192903142E+04  0.50400001928E-02 0. -1.
       -1   -1    0    0    0  501  0.00000000000E+00  0.00000000000E+00 -0.13999757501E+04  0.13999757501E+04  0.50400001928E-02 0.  1.
    10030    2    1    2    0    0  0.00000000000E+00  0.00000000000E+00  0.51931456416E+03  0.33192660643E+04  0.32783897861E+04 0.  0.
        4    1    3    3  502    0 -0.15970244510E+04 -0.18726163205E+03  0.58206809328E+03  0.17100756983E+04  0.12699999809E+01 0.  1.
       -4    1    3    3    0  502  0.15970244510E+04  0.18726163205E+03 -0.62753529122E+02  0.16091903660E+04  0.12699999809E+01 0. -1.
</event>
<event>
 5   0  0.3896210E-06  0.3141922E+04  0.7818609E-02  0.8204326E-01
        2   -1    0    0  501    0  0.00000000000E+00  0.00000000000E+00  0.20480805065E+04  0.20480805065E+04  0.25500000920E-02 0. -1.
       -2   -1    0    0    0  501  0.00000000000E+00  0.00000000000E+00 -0.12049908509E+04  0.12049908509E+04  0.25500000920E-02 0.  1.
    10030    2    1    2    0    0  0.00000000000E+00  0.00000000000E+00  0.84308965556E+03  0.32530713574E+04  0.31419218783E+04 0.  0.
        3    1    3    3  502    0  0.19755064624E+03  0.35553707106E+03 -0.11495292012E+04  0.12193646958E+04  0.10100000352E+00 0.  1.
       -3    1    3    3    0  502 -0.19755064624E+03 -0.35553707106E+03  0.19926188568E+04  0.20337066616E+04  0.10100000352E+00 0. -1.
</event>
<event>
 5   0  0.1259875E-06  0.3315179E+04  0.7818609E-02  0.8159044E-01
        3   -1    0    0  501    0  0.00000000000E+00  0.00000000000E+00  0.14470901280E+04  0.14470901316E+04  0.10100000352E+00 0.  1.
       -3   -1    0    0    0  501  0.00000000000E+00  0.00000000000E+00 -0.18987086753E+04  0.18987086779E+04  0.10100000352E+00 0. -1.
    10030    2    1    2    0    0  0.00000000000E+00  0.00000000000E+00 -0.45161854722E+03  0.33457988095E+04  0.33151787827E+04 0.  0.
        2    1    3    3  502    0 -0.13115349561E+04 -0.86514115906E+03  0.30728289743E+03  0.16009422054E+04  0.25500000920E-02 0.  1.
       -2    1    3    3    0  502  0.13115349561E+04  0.86514115906E+03 -0.75890144465E+03  0.17448566041E+04  0.25500000920E-02 0. -1.
</event>
<event>
 5   0  0.1391878E-06  0.3273565E+04  0.7818609E-02  0.8169654E-01
        1   -1    0    0  501    0  0.00000000000E+00  0.00000000000E+00  0.24288507710E+04  0.24288507710E+04  0.50400001928E-02 0.  1.
       -1   -1    0    0    0  501  0.00000000000E+00  0.00000000000E+00 -0.11030145505E+04  0.11030145505E+04  0.50400001928E-02 0. -1.
    10030    2    1    2    0    0  0.00000000000E+00  0.00000000000E+00  0.13258362205E+04  0.35318653216E+04  0.32735654822E+04 0.  0.
        2    1    3    3  502    0  0.44849903554E+03 -0.11163619147E+04  0.18602799782E+04  0.22154134844E+04  0.25500000920E-02 0.  1.
       -2    1    3    3    0  502 -0.44849903554E+03  0.11163619147E+04 -0.53444375767E+03  0.13164518372E+04  0.25500000920E-02 0. -1.
</event>
<event>
 5   0  0.3812379E-06  0.3201663E+04  0.7818609E-02  0.8188378E-01
       -2   -1    0    0    0  501  0.00000000000E+00  0.00000000000E+00  0.15413419747E+04  0.15413419747E+04  0.25500000920E-02 0.  1.
        2   -1    0    0  501    0  0.00000000000E+00  0.00000000000E+00 -0.16626170029E+04  0.16626170029E+04  0.25500000920E-02 0. -1.
    10030    2    1    2    0    0  0.00000000000E+00  0.00000000000E+00 -0.12127502823E+03  0.32039589777E+04  0.32016629270E+04 0.  0.
        5    1    3    3  502    0 -0.25346331198E+03  0.12352838246E+04 -0.10474834020E+04  0.16393332015E+04  0.46999998093E+01 0. -1.
       -5    1    3    3    0  502  0.25346331198E+03 -0.12352838246E+04  0.92620837381E+03  0.15646257762E+04  0.46999998093E+01 0.  1.
</event>
<event>
 5   0  0.1405389E-06  0.3090568E+04  0.7818609E-02  0.8218331E-01
       -1   -1    0    0    0  501  0.00000000000E+00  0.00000000000E+00  0.96173907404E+03  0.96173907405E+03  0.50400001928E-02 0.  1.
        1   -1    0    0  501    0  0.00000000000E+00  0.00000000000E+00 -0.24829001177E+04  0.24829001177E+04  0.50400001928E-02 0. -1.
    10030    2    1    2    0    0  0.00000000000E+00  0.00000000000E+00 -0.15211610436E+04  0.34446391917E+04  0.30905676243E+04 0.  0.
        1    1    3    3  502    0  0.13116925274E+04 -0.81521160534E+03 -0.81950310742E+03  0.17483399529E+04  0.50400001928E-02 0. -1.
       -1    1    3    3    0  502 -0.13116925274E+04  0.81521160534E+03 -0.70165793619E+03  0.16962992388E+04  0.50400001928E-02 0.  1.
</event>
<event>
 5   0  0.1405389E-06  0.3342156E+04  0.7818609E-02  0.8152251E-01
       -1   -1    0    0    0  501  0.00000000000E+00  0.00000000000E+00  0.20543200738E+04  0.20543200738E+04  0.50400001928E-02 0. -1.
        1   -1    0    0  501    0  0.00000000000E+00  0.00000000000E+00 -0.13593316332E+04  0.13593316332E+04  0.50400001928E-02 0.  1.
    10030    2    1    2    0    0  0.00000000000E+00  0.00000000000E+00  0.69498844066E+03  0.34136517070E+04  0.33421563465E+04 0.  0.
        1    1    3    3  502    0  0.10159557471E+04  0.47645074880E+03 -0.91727236960E+03  0.14493308788E+04  0.50400001928E-02 0.  1.
       -1    1    3    3    0  502 -0.10159557471E+04 -0.47645074880E+03  0.16122608103E+04  0.19643208283E+04  0.50400001928E-02 0. -1.
</event>
<event>
 5   0  0.3896210E-06  0.3303198E+04  0.7818609E-02  0.8162082E-01
       -2   -1    0    0    0  501  0.00000000000E+00  0.00000000000E+00  0.12510736969E+04  0.12510736969E+04  0.25500000920E-02 0. -1.
        2   -1    0    0  501    0  0.00000000000E+00  0.00000000000E+00 -0.21803510926E+04  0.21803510926E+04  0.25500000920E-02 0.  1.
    10030    2    1    2    0    0  0.00000000000E+00  0.00000000000E+00 -0.92927739567E+03  0.34314247895E+04  0.33031983906E+04 0.  0.
        3    1    3    3  502    0 -0.31374631819E+02 -0.44655672709E+03  0.11868489239E+04  0.12684666557E+04  0.10100000352E+00 0. -1.
       -3    1    3    3    0  502  0.31374631819E+02  0.44655672709E+03 -0.21161263196E+04  0.21629581339E+04  0.10100000352E+00 0.  1.
</event>
<event>
 5   0  0.1282578E-06  0.3291823E+04  0.7818609E-02  0.8164979E-01
       -1   -1    0    0    0  501  0.00000000000E+00  0.00000000000E+00  0.10823910320E+04  0.10823910320E+04  0.50400001928E-02 0.  1.
        1   -1    0    0  501    0  0.00000000000E+00  0.00000000000E+00 -0.25028151075E+04  0.25028151075E+04  0.50400001928E-02 0. -1.
    10030    2    1    2    0    0  0.00000000000E+00  0.00000000000E+00 -0.14204240755E+04  0.35852061394E+04  0.32918229764E+04 0.  0.
        4    1    3    3  502    0  0.64289070348E+03  0.42641732661E+03  0.87328813077E+03  0.11652355836E+04  0.12699999809E+01 0.  1.
       -4    1    3    3    0  502 -0.64289070348E+03 -0.42641732661E+03 -0.22937122063E+04  0.24199705558E+04  0.12699999809E+01 0. -1.
</event>
<event>
 5   0  0.1405389E-06  0.3339965E+04  0.7818609E-02  0.8152800E-01
       -1   -1    0    0    0  501  0.00000000000E+00  0.00000000000E+00  0.32492425469E+04  0.32492425469E+04  0.50400001928E-02 0. -1.
        1   -1    0    0  501    0  0.00000000000E+00  0.00000000000E+00 -0.85830532984E+03  0.85830532985E+03  0.50400001928E-02 0.  1.
    10030    2    1    2    0    0  0.00000000000E+00  0.00000000000E+00  0.23909372170E+04  0.41075478767E+04  0.33399653866E+04 0.  0.
        1    1    3    3  502    0  0.33458760134E+03 -0.11135019519E+04  0.26697149887E+04  0.29119089238E+04  0.50400001928E-02 0. -1.
       -1    1    3    3    0  502 -0.33458760134E+03  0.11135019519E+04 -0.27877777163E+03  0.11956389529E+04  0.50400001928E-02 0.  1.
</event>
<event>
 5   0  0.3812379E-06  0.3129579E+04  0.7818609E-02  0.8207667E-01
        2   -1    0    0  501    0  0.00000000000E+00  0.00000000000E+00  0.24762412972E+04  0.24762412972E+04  0.25500000920E-02 0. -1.
       -2   -1    0    0    0  501  0.00000000000E+00  0.00000000000E+00 -0.98882373560E+03  0.98882373561E+03  0.25500000920E-02 0.  1.
    10030    2    1    2    0    0  0.00000000000E+00  0.00000000000E+00  0.14874175616E+04  0.34650650328E+04  0.31295789939E+04 0.  0.
        5    1    3    3  502    0 -0.13859510179E+04  0.42454915136E+03  0.91079505534E+02  0.14523841682E+04  0.46999998093E+01 0. -1.
       -5    1    3    3    0  502  0.13859510179E+04 -0.42454915136E+03  0.13963380561E+04  0.20126808646E+04  0.46999998093E+01 0.  1.
</event>
<event>
 5   0  0.1352708E-06  0.3344744E+04  0.7818609E-02  0.8151603E-01
        1   -1    0    0  501    0  0.00000000000E+00  0.00000000000E+00  0.13581852389E+04  0.13581852389E+04  0.50400001928E-02 0. -1.
       -1   -1    0    0    0  501  0.00000000000E+00  0.00000000000E+00 -0.20592391873E+04  0.20592391873E+04  0.50400001928E-02 0.  1.
    10030    2    1    2    0    0  0.00000000000E+00  0.00000000000E+00 -0.70105394841E+03  0.34174244262E+04  0.33447440963E+04 0.  0.
        5    1    3    3  502    0 -0.61730439724E+03 -0.34670881457E+03  0.11974978879E+04  0.13911488067E+04  0.46999998093E+01 0. -1.
       -5    1    3    3    0  502  0.61730439724E+03  0.34670881457E+03 -0.18985518363E+04  0.20262756195E+04  0.46999998093E+01 0.  1.
</event>
<event>
 5   0  0.3896210E-06  0.3316698E+04  0.7818609E-02  0.8158659E-01
       -2   -1    0    0    0  501  0.00000000000E+00  0.00000000000E+00  0.15309581988E+04  0.15309581988E+04  0.25500000920E-02 0.  1.
        2   -1    0    0  501    0  0.00000000000E+00  0.00000000000E+00 -0.17963402862E+04  0.17963402862E+04  0.25500000920E-02 0. -1.
    10030    2    1    2    0    0  0.00000000000E+00  0.00000000000E+00 -0.26538208739E+03  0.33272984849E+04  0.33166982913E+04 0.  0.
        3    1    3    3  502    0  0.83551960117E+03  0.48866126458E+03 -0.14835603256E+04  0.17713932611E+04  0.10100000352E+00 0. -1.
       -3    1    3    3    0  502 -0.83551960117E+03 -0.48866126458E+03  0.12181782382E+04  0.15559052239E+04  0.10100000352E+00 0.  1.
</event>
<event>
 5   0  0.1391878E-06  0.2436119E+04  0.7818609E-02  0.8426104E-01
        1   -1    0    0  501    0  0.00000000000E+00  0.00000000000E+00  0.16374181832E+04  0.16374181832E+04  0.50400001928E-02 0.  1.
       -1   -1    0    0    0  501  0.00000000000E+00  0.00000000000E+00 -0.90610241162E+03  0.90610241164E+03  0.50400001928E-02 0. -1.
    10030    2    1    2    0    0  0.00000000000E+00  0.00000000000E+00  0.73131577161E+03  0.25435205949E+04  0.24361186873E+04 0.  0.
        2    1    3    3  502    0 -0.23280606349E+03 -0.11419336221E+04 -0.41576375218E+01  0.11654305412E+04  0.25500000920E-02 0. -1.
       -2    1    3    3    0  502  0.23280606349E+03  0.11419336221E+04  0.73547340913E+03  0.13780900537E+04  0.25500000920E-02 0.  1.
</event>
<event>
 5   0  0.1282578E-06  0.3215223E+04  0.7818609E-02  0.8184808E-01
        1   -1    0    0  501    0  0.00000000000E+00  0.00000000000E+00  0.13681100994E+04  0.13681100994E+04  0.50400001928E-02 0. -1.
       -1   -1    0    0    0  501  0.00000000000E+00  0.00000000000E+00 -0.18890403840E+04  0.18890403840E+04  0.50400001928E-02 0.  1.
    10030    2    1    2    0    0  0.00000000000E+00  0.00000000000E+00 -0.52093028454E+03  0.32571504834E+04  0.32152233064E+04 0.  0.
        4    1    3    3  502    0 -0.79861959552E+03  0.11387172512E+04  0.55623840934E+03  0.14979562802E+04  0.12699999809E+01 0. -1.
       -4    1    3    3    0  502  0.79861959552E+03 -0.11387172512E+04 -0.10771686939E+04  0.17591942032E+04  0.12699999809E+01 0.  1.
</event>
<event>
 5   0  0.1405389E-06  0.3261178E+04  0.7818609E-02  0.8172844E-01
        1   -1    0    0  501    0  0.00000000000E+00  0.00000000000E+00  0.13192737730E+04  0.13192737730E+04  0.50400001928E-02 0. -1.
       -1   -1    0    0    0  501  0.00000000000E+00  0.00000000000E+00 -0.20153671852E+04  0.20153671852E+04  0.50400001928E-02 0.  1.
    10030    2    1    2    0    0  0.00000000000E+00  0.00000000000E+00 -0.69609341221E+03  0.33346409581E+04  0.32611783578E+04 0.  0.
        1    1    3    3  502    0  0.51148592569E+03 -0.51785580618E+03  0.11439411029E+04  0.13558737902E+04  0.50400001928E-02 0. -1.
       -1    1    3    3    0  502 -0.51148592569E+03  0.51785580618E+03 -0.18400345151E+04  0.19787671679E+04  0.50400001928E-02 0.  1.
</event>
<event>
 5   0  0.1282578E-06  0.3280996E+04  0.7818609E-02  0.8167748E-01
       -1   -1    0    0    0  501  0.00000000000E+00  0.00000000000E+00  0.16919165584E+04  0.16919165584E+04  0.50400001928E-02 0. -1.
        1   -1    0    0  501    0  0.00000000000E+00  0.00000000000E+00 -0.15906422060E+04  0.15906422060E+04  0.50400001928E-02 0.  1.
    10030    2    1    2    0    0  0.00000000000E+00  0.00000000000E+00  0.10127435242E+03  0.32825587645E+04  0.32809961212E+04 0.  0.
        4    1    3    3  502    0 -0.43273059502E+03  0.71042579111E+03 -0.13639922965E+04  0.15976348677E+04  0.12699999809E+01 0.  1.
       -4    1    3    3    0  502  0.43273059502E+03 -0.71042579111E+03  0.14652666489E+04  0.16849238968E+04  0.12699999809E+01 0. -1.
</event>
<event>
 5   0  0.3671997E-06  0.3341964E+04  0.7818609E-02  0.8152299E-01
        2   -1    0    0  501    0  0.00000000000E+00  0.00000000000E+00  0.17995759023E+04  0.17995759023E+04  0.25500000920E-02 0. -1.
       -2   -1    0    0    0  501  0.00000000000E+00  0.00000000000E+00 -0.15515774830E+04  0.15515774830E+04  0.25500000920E-02 0.  1.
    10030    2    1    2    0    0  0.00000000000E+00  0.00000000000E+00  0.24799841927E+03  0.33511533853E+04  0.33419643618E+04 0.  0.
        2    1    3    3  502    0  0.84148003849E+03 -0.14324067773E+04  0.30422547157E+03  0.16889141389E+04  0.25500000920E-02 0. -1.
       -2    1    3    3    0  502 -0.84148003849E+03  0.14324067773E+04 -0.56227052298E+02  0.16622392464E+04  0.25500000920E-02 0.  1.
</event>
<event>
 5   0  0.4017247E-06  0.3343124E+04  0.7818609E-02  0.8152008E-01
        2   -1    0    0  501    0  0.00000000000E+00  0.00000000000E+00  0.19528062461E+04  0.19528062461E+04  0.25500000920E-02 0.  1.
       -2   -1    0    0    0  501  0.00000000000E+00  0.00000000000E+00 -0.14308223492E+04  0.14308223492E+04  0.25500000920E-02 0. -1.
    10030    2    1    2    0    0  0.00000000000E+00  0.00000000000E+00  0.52198389681E+03  0.33836285953E+04  0.33431235817E+04 0.  0.
        1    1    3    3  502    0 -0.12816923472E+04  0.10717258200E+04  0.31442663199E+03  0.17000575323E+04  0.50400001928E-02 0. -1.
       -1    1    3    3    0  502  0.12816923472E+04 -0.10717258200E+04  0.20755726482E+03  0.16835710630E+04  0.50400001928E-02 0.  1.
</event>
<event>
 5   0  0.3896210E-06  0.3328348E+04  0.7818609E-02  0.8155719E-01
       -2   -1    0    0    0  501  0.00000000000E+00  0.00000000000E+00  0.13436786680E+04  0.13436786681E+04  0.25500000920E-02 0.  1.
        2   -1    0    0  501    0  0.00000000000E+00  0.00000000000E+00 -0.20611141166E+04  0.20611141166E+04  0.25500000920E-02 0. -1.
    10030    2    1    2    0    0  0.00000000000E+00  0.00000000000E+00 -0.71743544857E+03  0.34047927847E+04  0.33283479812E+04 0.  0.
        3    1    3    3  502    0  0.84298979131E+02  0.94166924179E+02 -0.20561974884E+04  0.20600781172E+04  0.10100000352E+00 0. -1.
       -3    1    3    3    0  502 -0.84298979131E+02 -0.94166924179E+02  0.13387620398E+04  0.13447146675E+04  0.10100000352E+00 0.  1.
</event>
<event>
 5   0  0.4017247E-06  0.3284529E+04  0.7818609E-02  0.8166843E-01
       -2   -1    0    0    0  501  0.00000000000E+00  0.00000000000E+00  0.15032025209E+04  0.15032025209E+04  0.25500000920E-02 0. -1.
        2   -1    0    0  501    0  0.00000000000E+00  0.00000000000E+00 -0.17941908009E+04  0.17941908009E+04  0.25500000920E-02 0.  1.
    10030    2    1    2    0    0  0.00000000000E+00  0.00000000000E+00 -0.29098827995E+03  0.32973933218E+04  0.32845286632E+04 0.  0.
        1    1    3    3  502    0  0.81593768539E+03  0.55358867822E+03 -0.14639611290E+04  0.17650487014E+04  0.50400001928E-02 0.  1.
       -1    1    3    3    0  502 -0.81593768539E+03 -0.55358867822E+03  0.11729728490E+04  0.15323446204E+04  0.50400001928E-02 0. -1.
</event>
<event>
 5   0  0.3920487E-06  0.3280052E+04  0.7818609E-02  0.8167990E-01
        2   -1    0    0  501    0  0.00000000000E+00  0.00000000000E+00  0.22444703781E+04  0.22444703781E+04  0.25500000920E-02 0. -1.
       -2   -1    0    0    0  501  0.00000000000E+00  0.00000000000E+00 -0.11983607204E+04  0.11983607204E+04  0.25500000920E-02 0.  1.
    10030    2    1    2    0    0  0.00000000000E+00  0.00000000000E+00  0.10461096577E+04  0.34428310985E+04  0.32800519138E+04 0.  0.
        4    1    3    3  502    0  0.15656924246E+04  0.45418303707E+03  0.71084283106E+03  0.17784752298E+04  0.12699999809E+01 0.  1.
       -4    1    3    3    0  502 -0.15656924246E+04 -0.45418303707E+03  0.33526682664E+03  0.16643558687E+04  0.12699999809E+01 0. -1.
</event>
<event>
 5   0  0.1339825E-06  0.3245160E+04  0.7818609E-02  0.8176991E-01
       -1   -1    0    0    0  501  0.00000000000E+00  0.00000000000E+00  0.14808378512E+04  0.14808378512E+04  0.50400001928E-02 0.  1.
        1   -1    0    0  501    0  0.00000000000E+00  0.00000000000E+00 -0.17778895606E+04  0.17778895606E+04  0.50400001928E-02 0. -1.
    10030    2    1    2    0    0  0.00000000000E+00  0.00000000000E+00 -0.29705170940E+03  0.32587274118E+04  0.32451601850E+04 0.  0.
        3    1    3    3  502    0 -0.13075071054E+04  0.91279279788E+03 -0.44978112581E+03  0.16568248531E+04  0.10100000352E+00 0. -1.
       -3    1    3    3    0  502  0.13075071054E+04 -0.91279279788E+03  0.15272941641E+03  0.16019025587E+04  0.10100000352E+00 0.  1.
</event>
<event>
 5   0  0.1405389E-06  0.3331527E+04  0.7818609E-02  0.8154919E-01
       -1   -1    0    0    0  501  0.00000000000E+00  0.00000000000E+00  0.14495563444E+04  0.14495563444E+04  0.50400001928E-02 0.  1.
        1   -1    0    0  501    0  0.00000000000E+00  0.00000000000E+00 -0.19142189513E+04  0.19142189513E+04  0.50400001928E-02 0. -1.
    10030    2    1    2    0    0  0.00000000000E+00  0.00000000000E+00 -0.46466260696E+03  0.33637752957E+04  0.33315271125E+04 0.  0.
        1    1    3    3  502    0 -0.16246759668E+04 -0.24438519377E+03 -0.50971239805E+03  0.17202043043E+04  0.50400001928E-02 0.  1.
       -1    1    3    3    0  502  0.16246759668E+04  0.24438519377E+03  0.45049791094E+02  0.16435709913E+04  0.50400001928E-02 0. -1.
</event>
<event>
 5   0  0.1259875E-06  0.2142802E+04  0.7818609E-02  0.8542620E-01
       -3   -1    0    0    0  501  0.00000000000E+00  0.00000000000E+00  0.11551882894E+04  0.11551882938E+04  0.10100000352E+00 0.  1.
        3   -1    0    0  501    0  0.00000000000E+00  0.00000000000E+00 -0.99369098872E+03  0.99369099386E+03  0.10100000352E+00 0. -1.
    10030    2    1    2    0    0  0.00000000000E+00  0.00000000000E+00  0.16149730070E+03  0.21488792877E+04  0.21428020942E+04 0.  0.
        4    1    3    3  502    0 -0.31361321391E+02  0.10468883640E+04  0.30708725058E+03  0.10914499400E+04  0.12699999809E+01 0.  1.
       -4    1    3    3    0  502  0.31361321391E+02 -0.10468883640E+04 -0.14558994987E+03  0.10574293477E+04  0.12699999809E+01 0. -1.
</event>
<event>
 5   0  0.1405389E-06  0.3309656E+04  0.7818609E-02  0.8160443E-01
       -1   -1    0    0    0  501  0.00000000000E+00  0.00000000000E+00  0.14089929269E+04  0.14089929269E+04  0.50400001928E-02 0. -1.
        1   -1    0    0  501    0  0.00000000000E+00  0.00000000000E+00 -0.19435548107E+04  0.19435548107E+04  0.50400001928E-02 0.  1.
    10030    2    1    2    0    0  0.00000000000E+00  0.00000000000E+00 -0.53456188384E+03  0.33525477376E+04  0.33096555599E+04 0.  0.
        1    1    3    3  502    0 -0.12871189472E+04  0.91486579139E+03 -0.76846611739E+03  0.17561875680E+04  0.50400001928E-02 0.  1.
       -1    1    3    3    0  502  0.12871189472E+04 -0.91486579139E+03  0.23390423355E+03  0.15963601696E+04  0.50400001928E-02 0. -1.
</event>
<event>
 5   0  0.1282578E-06  0.3283851E+04  0.7818609E-02  0.8167017E-01
        1   -1    0    0  501    0  0.00000000000E+00  0.00000000000E+00  0.11984913340E+04  0.11984913340E+04  0.50400001928E-02 0.  1.
       -1   -1    0    0    0  501  0.00000000000E+00  0.00000000000E+00 -0.22494273987E+04  0.22494273988E+04  0.50400001928E-02 0. -1.
    10030    2    1    2    0    0  0.00000000000E+00  0.00000000000E+00 -0.10509360647E+04  0.34479187328E+04  0.32838509369E+04 0.  0.
        4    1    3    3  502    0  0.56053030179E+03 -0.57832627458E+03 -0.20277806424E+04  0.21818687966E+04  0.12699999809E+01 0. -1.
       -4    1    3    3    0  502 -0.56053030179E+03  0.57832627458E+03  0.97684457766E+03  0.12660499362E+04  0.12699999809E+01 0.  1.
</event>
<event>
 5   0  0.1339825E-06  0.3269545E+04  0.7818609E-02  0.8170688E-01
       -1   -1    0    0    0  501  0.00000000000E+00  0.00000000000E+00  0.11396712987E+04  0.11396712987E+04  0.50400001928E-02 0. -1.
        1   -1    0    0  501    0  0.00000000000E+00  0.00000000000E+00 -0.23449579406E+04  0.23449579406E+04  0.50400001928E-02 0.  1.
    10030    2    1    2    0    0  0.00000000000E+00  0.00000000000E+00 -0.12052866419E+04  0.34846292393E+04  0.32695450825E+04 0.  0.
        3    1    3    3  502    0  0.24708872018E+02  0.12652171530E+04 -0.17056636117E+04  0.21238345837E+04  0.10100000352E+00 0.  1.
       -3    1    3    3    0  502 -0.24708872018E+02 -0.12652171530E+04  0.50037696982E+03  0.13607946556E+04  0.10100000352E+00 0. -1.
</event>
<event>
 5   0  0.3920487E-06  0.3283741E+04  0.7818609E-02  0.8167045E-01
        2   -1    0    0  501    0  0.00000000000E+00  0.00000000000E+00  0.17686160530E+04  0.17686160530E+04  0.25500000920E-02 0.  1.
       -2   -1    0    0    0  501  0.00000000000E+00  0.00000000000E+00 -0.15242078843E+04  0.15242078843E+04  0.25500000920E-02 0. -1.
    10030    2    1    2    0    0  0.00000000000E+00  0.00000000000E+00  0.24440816872E+03  0.32928239373E+04  0.32837408742E+04 0.  0.
        4    1    3    3  502    0 -0.63630847963E+03  0.12422466817E+04  0.98927591943E+03  0.17107699311E+04  0.12699999809E+01 0.  1.
       -4    1    3    3    0  502  0.63630847963E+03 -0.12422466817E+04 -0.74486775072E+03  0.15820540062E+04  0.12699999809E+01 0. -1.
</event>
<event>
 5   0  0.1391878E-06  0.3146874E+04  0.7818609E-02  0.8202990E-01
        1   -1    0    0  501    0  0.00000000000E+00  0.00000000000E+00  0.22027851581E+04  0.22027851581E+04  0.50400001928E-02 0. -1.
       -1   -1    0    0    0  501  0.00000000000E+00  0.00000000000E+00 -0.11238973948E+04  0.11238973949E+04  0.50400001928E-02 0.  1.
    10030    2    1    2    0    0  0.00000000000E+00  0.00000000000E+00  0.10788877633E+04  0.33266825530E+04  0.31468743226E+04 0.  0.
        2    1    3    3  502    0  0.65315297696E+03 -0.67284235118E+03 -0.79622849936E+03  0.12301648117E+04  0.25500000920E-02 0.  1.
       -2    1    3    3    0  502 -0.65315297696E+03  0.67284235118E+03  0.18751162626E+04  0.20965177412E+04  0.25500000920E-02 0. -1.
</event>
<event>
 5   0  0.1339825E-06  0.3283812E+04  0.7818609E-02  0.8167027E-01
        1   -1    0    0  501    0  0.00000000000E+00  0.00000000000E+00  0.13810850784E+04  0.13810850784E+04  0.50400001928E-02 0.  1.
       -1   -1    0    0    0  501  0.00000000000E+00  0.00000000000E+00 -0.19519837834E+04  0.19519837834E+04  0.50400001928E-02 0. -1.
    10030    2    1    2    0    0  0.00000000000E+00  0.00000000000E+00 -0.57089870502E+03  0.33330688618E+04  0.32838122216E+04 0.  0.
        3    1    3    3  502    0 -0.39261567614E+03 -0.12428066025E+04 -0.12989968740E+04  0.18401380951E+04  0.10100000352E+00 0. -1.
       -3    1    3    3    0  502  0.39261567614E+03  0.12428066025E+04  0.72809816901E+03  0.14929307667E+04  0.10100000352E+00 0.  1.
</event>
<event>
 5   0  0.3812379E-06  0.3322672E+04  0.7818609E-02  0.8157150E-01
       -2   -1    0    0    0  501  0.00000000000E+00  0.00000000000E+00  0.18647946940E+04  0.18647946940E+04  0.25500000920E-02 0.  1.
        2   -1    0    0  501    0  0.00000000000E+00  0.00000000000E+00 -0.14800757062E+04  0.14800757062E+04  0.25500000920E-02 0. -1.
    10030    2    1    2    0    0  0.00000000000E+00  0.00000000000E+00  0.38471898778E+03  0.33448704001E+04  0.33226720112E+04 0.  0.
        5    1    3    3  502    0  0.13682235280E+04  0.43606119884E+03  0.10333027951E+04  0.17691584859E+04  0.46999998093E+01 0.  1.
       -5    1    3    3    0  502 -0.13682235280E+04 -0.43606119884E+03 -0.64858380733E+03  0.15757119143E+04  0.46999998093E+01 0. -1.
</event>
<event>
 5   0  0.1391878E-06  0.3386032E+04  0.7818609E-02  0.8141343E-01
        1   -1    0    0  501    0  0.00000000000E+00  0.00000000000E+00  0.21874263101E+04  0.21874263101E+04  0.50400001928E-02 0.  1.
       -1   -1    0    0    0  501  0.00000000000E+00  0.00000000000E+00 -0.13103542238E+04  0.13103542238E+04  0.50400001928E-02 0. -1.
    10030    2    1    2    0    0  0.00000000000E+00  0.00000000000E+00  0.87707208634E+03  0.34977805339E+04  0.33860320758E+04 0.  0.
        2    1    3    3  502    0 -0.14464996763E+04  0.59239988560E+03  0.11103885067E+04  0.19173579670E+04  0.25500000920E-02 0.  1.
       -2    1    3    3    0  502  0.14464996763E+04 -0.59239988560E+03 -0.23331642032E+03  0.15804225669E+04  0.25500000920E-02 0. -1.
</event>
<event>
 5   0  0.1352708E-06  0.3386256E+04  0.7818609E-02  0.8141288E-01
       -1   -1    0    0    0  501  0.00000000000E+00  0.00000000000E+00  0.11327969113E+04  0.11327969114E+04  0.50400001928E-02 0.  1.
        1   -1    0    0  501    0  0.00000000000E+00  0.00000000000E+00 -0.25306236687E+04  0.25306236687E+04  0.50400001928E-02 0. -1.
    10030    2    1    2    0    0  0.00000000000E+00  0.00000000000E+00 -0.13978267573E+04  0.36634205800E+04  0.33862561484E+04 0.  0.
        5    1    3    3  502    0  0.13401429596E+04 -0.73658721980E+03 -0.14851113613E+04  0.21316945677E+04  0.46999998093E+01 0. -1.
       -5    1    3    3    0  502 -0.13401429596E+04  0.73658721980E+03  0.87284604008E+02  0.15317260123E+04  0.46999998093E+01 0.  1.
</event>
<event>
 5   0  0.1352708E-06  0.3264131E+04  0.7818609E-02  0.8172083E-01
       -1   -1    0    0    0  501  0.00000000000E+00  0.00000000000E+00  0.12962977074E+04  0.12962977075E+04  0.50400001928E-02 0.  1.
        1   -1    0    0  501    0  0.00000000000E+00  0.00000000000E+00 -0.20548042853E+04  0.20548042853E+04  0.50400001928E-02 0. -1.
    10030    2    1    2    0    0  0.00000000000E+00  0.00000000000E+00 -0.75850657789E+03  0.33511019928E+04  0.32641311765E+04 0.  0.
        5    1    3    3  502    0 -0.54330576776E+02 -0.14559470800E+04  0.37578925017E+03  0.15046505780E+04  0.46999998093E+01 0.  1.
       -5    1    3    3    0  502  0.54330576776E+02  0.14559470800E+04 -0.11342958281E+04  0.18464514147E+04  0.46999998093E+01 0. -1.
</event>
<event>
 5   0  0.3671997E-06  0.3283554E+04  0.7818609E-02  0.8167093E-01
       -2   -1    0    0    0  501  0.00000000000E+00  0.00000000000E+00  0.13078029268E+04  0.13078029268E+04  0.25500000920E-02 0.  1.
        2   -1    0    0  501    0  0.00000000000E+00  0.00000000000E+00 -0.20610377378E+04  0.20610377378E+04  0.25500000920E-02 0. -1.
    10030    2    1    2    0    0  0.00000000000E+00  0.00000000000E+00 -0.75323481099E+03  0.33688406647E+04  0.32835536760E+04 0.  0.
        2    1    3    3  502    0  0.26423011103E+03 -0.13892548996E+04  0.47906240600E+03  0.14930999687E+04  0.25500000920E-02 0.  1.
       -2    1    3    3    0  502 -0.26423011103E+03  0.13892548996E+04 -0.12322972170E+04  0.18757406960E+04  0.25500000920E-02 0. -1.
</event>
<event>
 5   0  0.3671997E-06  0.3304502E+04  0.7818609E-02  0.8161751E-01
       -2   -1    0    0    0  501  0.00000000000E+00  0.00000000000E+00  0.10563427499E+04  0.10563427499E+04  0.25500000920E-02 0.  1.
        2   -1    0    0  501    0  0.00000000000E+00  0.00000000000E+00 -0.25843249953E+04  0.25843249953E+04  0.25500000920E-02 0. -1.
    10030    2    1    2    0    0  0.00000000000E+00  0.00000000000E+00 -0.15279822454E+04  0.36406677452E+04  0.33045017610E+04 0.  0.
        2    1    3    3  502    0 -0.21076170480E+03  0.95089040421E+03  0.70644451617E+03  0.12031944612E+04  0.25500000920E-02 0.  1.
       -2    1    3    3    0  502  0.21076170480E+03 -0.95089040421E+03 -0.22344267616E+04  0.24374732840E+04  0.25500000920E-02 0. -1.
</event>
<event>
 5   0  0.3812379E-06  0.3323707E+04  0.7818609E-02  0.8156889E-01
        2   -1    0    0  501    0  0.00000000000E+00  0.00000000000E+00  0.18525899303E+04  0.18525899303E+04  0.25500000920E-02 0. -1.
       -2   -1    0    0    0  501  0.00000000000E+00  0.00000000000E+00 -0.14907543857E+04  0.14907543857E+04  0.25500000920E-02 0.  1.
    10030    2    1    2    0    0  0.00000000000E+00  0.00000000000E+00  0.36183554462E+03  0.33433443160E+04  0.33237067040E+04 0.  0.
        5    1    3    3  502    0  0.46801100629E+03 -0.12357596292E+04  0.11946409976E+04  0.17813829926E+04  0.46999998093E+01 0. -1.
       -5    1    3    3    0  502 -0.46801100629E+03  0.12357596292E+04 -0.83280545297E+03  0.15619613234E+04  0.46999998093E+01 0.  1.
</event>
<event>
 5   0  0.3920487E-06  0.3342945E+04  0.7818609E-02  0.8152053E-01
       -2   -1    0    0    0  501  0.00000000000E+00  0.00000000000E+00  0.27800761420E+04  0.27800761420E+04  0.25500000920E-02 0.  1.
        2   -1    0    0  501    0  0.00000000000E+00  0.00000000000E+00 -0.10049439048E+04  0.10049439048E+04  0.25500000920E-02 0. -1.
    10030    2    1    2    0    0  0.00000000000E+00  0.00000000000E+00  0.17751322372E+04  0.37850200469E+04  0.33429451530E+04 0.  0.
        4    1    3    3  502    0  0.31086439319E+03  0.49999179296E+03  0.26587873995E+04  0.27231930729E+04  0.12699999809E+01 0.  1.
       -4    1    3    3    0  502 -0.31086439319E+03 -0.49999179296E+03 -0.88365516224E+03  0.10618269740E+04  0.12699999809E+01 0. -1.
</event>
<event>
 5   0  0.1405389E-06  0.3359183E+04  0.7818609E-02  0.8147997E-01
       -1   -1    0    0    0  501  0.00000000000E+00  0.00000000000E+00  0.16387638025E+04  0.16387638025E+04  0.50400001928E-02 0.  1.
        1   -1    0    0  501    0  0.00000000000E+00  0.00000000000E+00 -0.17214367193E+04  0.17214367193E+04  0.50400001928E-02 0. -1.
    10030    2    1    2    0    0  0.00000000000E+00  0.00000000000E+00 -0.82672916784E+02  0.33602005218E+04  0.33591833435E+04 0.  0.
        1    1    3    3  502    0  0.13785749447E+04  0.67338985139E+03  0.64232159971E+03  0.16632798344E+04  0.50400001928E-02 0.  1.
       -1    1    3    3    0  502 -0.13785749447E+04 -0.67338985139E+03 -0.72499451650E+03  0.16969206873E+04  0.50400001928E-02 0. -1.
</event>
<event>
 5   0  0.3920487E-06  0.3300605E+04  0.7818609E-02  0.8162742E-01
        2   -1    0    0  501    0  0.00000000000E+00  0.00000000000E+00  0.25446426049E+04  0.25446426049E+04  0.25500000920E-02 0.  1.
       -2   -1    0    0    0  501  0.00000000000E+00  0.00000000000E+00 -0.10702870386E+04  0.10702870386E+04  0.25500000920E-02 0. -1.
    10030    2    1    2    0    0  0.00000000000E+00  0.00000000000E+00  0.14743555664E+04  0.36149296435E+04  0.33006047918E+04 0.  0.
        4    1    3    3  502    0  0.15308042291E+04 -0.34065563983E+03  0.17434278524E+03  0.15779115541E+04  0.12699999809E+01 0. -1.
       -4    1    3    3    0  502 -0.15308042291E+04  0.34065563983E+03  0.13000127811E+04  0.20370180895E+04  0.12699999809E+01 0.  1.
</event>
<event>
 5   0  0.1282578E-06  0.3222634E+04  0.7818609E-02  0.8182865E-01
        1   -1    0    0  501    0  0.00000000000E+00  0.00000000000E+00  0.21240062398E+04  0.21240062398E+04  0.50400001928E-02 0.  1.
       -1   -1    0    0    0  501  0.00000000000E+00  0.00000000000E+00 -0.12223801397E+04  0.12223801397E+04  0.50400001928E-02 0. -1.
    10030    2    1    2    0    0  0.00000000000E+00  0.00000000000E+00  0.90162610012E+03  0.33463863795E+04  0.32226343536E+04 0.  0.
        4    1    3    3  502    0  0.76500068390E+03  0.54674975262E+03 -0.90793762595E+03  0.13071012523E+04  0.12699999809E+01 0. -1.
       -4    1    3    3    0  502 -0.76500068390E+03 -0.54674975262E+03  0.18095637261E+04  0.20392851272E+04  0.12699999809E+01 0.  1.
</event>
<event>
 5   0  0.4017247E-06  0.2015741E+04  0.7818609E-02  0.8599297E-01
        2   -1    0    0  501    0  0.00000000000E+00  0.00000000000E+00  0.19724604089E+04  0.19724604090E+04  0.25500000920E-02 0.  1.
       -2   -1    0    0    0  501  0.00000000000E+00  0.00000000000E+00 -0.51499264879E+03  0.51499264880E+03  0.25500000920E-02 0. -1.
    10030    2    1    2    0    0  0.00000000000E+00  0.00000000000E+00  0.14574677602E+04  0.24874530578E+04  0.20157406685E+04 0.  0.
        1    1    3    3  502    0  0.58187063805E+03 -0.81523710055E+03  0.59011917015E+03  0.11625083245E+04  0.50400001928E-02 0.  1.
       -1    1    3    3    0  502 -0.58187063805E+03  0.81523710055E+03  0.86734859001E+03  0.13249447332E+04  0.50400001928E-02 0. -1.
</event>
<event>
 5   0  0.1339825E-06  0.3286983E+04  0.7818609E-02  0.8166216E-01
       -1   -1    0    0    0  501  0.00000000000E+00  0.00000000000E+00  0.10983682410E+04  0.10983682410E+04  0.50400001928E-02 0.  1.
        1   -1    0    0  501    0  0.00000000000E+00  0.00000000000E+00 -0.24591602563E+04  0.24591602563E+04  0.50400001928E-02 0. -1.
    10030    2    1    2    0    0  0.00000000000E+00  0.00000000000E+00 -0.13607920153E+04  0.35575284973E+04  0.32869825220E+04 0.  0.
        3    1    3    3  502    0 -0.59999452147E+03  0.10405625038E+04  0.53367209934E+03  0.13143704462E+04  0.10100000352E+00 0.  1.
       -3    1    3    3    0  502  0.59999452147E+03 -0.10405625038E+04 -0.18944641147E+04  0.22431580511E+04  0.10100000352E+00 0. -1.
</event>
<event>
 5   0  0.3896210E-06  0.3287103E+04  0.7818609E-02  0.8166185E-01
       -2   -1    0    0    0  501  0.00000000000E+00  0.00000000000E+00  0.14700007461E+04  0.14700007461E+04  0.25500000920E-02 0.  1.
        2   -1    0    0  501    0  0.00000000000E+00  0.00000000000E+00 -0.18375917558E+04  0.18375917558E+04  0.25500000920E-02 0. -1.
    10030    2    1    2    0    0  0.00000000000E+00  0.00000000000E+00 -0.36759100966E+03  0.33075925018E+04  0.32871028289E+04 0.  0.
        3    1    3    3  502    0  0.13918774983E+04 -0.31511943386E+03 -0.10041306103E+04  0.17449646187E+04  0.10100000352E+00 0. -1.
       -3    1    3    3    0  502 -0.13918774983E+04  0.31511943386E+03  0.63653960064E+03  0.15626278831E+04  0.10100000352E+00 0.  1.
</event>
<event>
 5   0  0.1352708E-06  0.3325101E+04  0.7818609E-02  0.8156538E-01
       -1   -1    0    0    0  501  0.00000000000E+00  0.00000000000E+00  0.10875554460E+04  0.10875554460E+04  0.50400001928E-02 0.  1.
        1   -1    0    0  501    0  0.00000000000E+00  0.00000000000E+00 -0.25415478468E+04  0.25415478468E+04  0.50400001928E-02 0. -1.
    10030    2    1    2    0    0  0.00000000000E+00  0.00000000000E+00 -0.14539924008E+04  0.36291032929E+04  0.33251010224E+04 0.  0.
        5    1    3    3  502    0 -0.38545375516E+03 -0.14968581778E+04 -0.58731971534E+02  0.15468130256E+04  0.46999998093E+01 0.  1.
       -5    1    3    3    0  502  0.38545375516E+03  0.14968581778E+04 -0.13952604293E+04  0.20822902673E+04  0.46999998093E+01 0. -1.
</event>
<event>
 5   0  0.4017247E-06  0.3296175E+04  0.7818609E-02  0.8163869E-01
       -2   -1    0    0    0  501  0.00000000000E+00  0.00000000000E+00  0.15355221057E+04  0.15355221057E+04  0.25500000920E-02 0.  1.
        2   -1    0    0  501    0  0.00000000000E+00  0.00000000000E+00 -0.17689044451E+04  0.17689044451E+04  0.25500000920E-02 0. -1.
    10030    2    1    2    0    0  0.00000000000E+00  0.00000000000E+00 -0.23338233939E+03  0.33044265508E+04  0.32961746788E+04 0.  0.
        1    1    3    3  502    0 -0.14960031565E+04  0.68156775606E+03 -0.23373888282E+03  0.16604800257E+04  0.50400001928E-02 0. -1.
       -1    1    3    3    0  502  0.14960031565E+04 -0.68156775606E+03  0.35654342827E+00  0.16439465251E+04  0.50400001928E-02 0.  1.
</event>
<event>
 5   0  0.3896210E-06  0.3249525E+04  0.7818609E-02  0.8175859E-01
        2   -1    0    0  501    0  0.00000000000E+00  0.00000000000E+00  0.22479856306E+04  0.22479856306E+04  0.25500000920E-02 0. -1.
       -2   -1    0    0    0  501  0.00000000000E+00  0.00000000000E+00 -0.11743192178E+04  0.11743192178E+04  0.25500000920E-02 0.  1.
    10030    2    1    2    0    0  0.00000000000E+00  0.00000000000E+00  0.10736664128E+04  0.34223048484E+04  0.32495247206E+04 0.  0.
        3    1    3    3  502    0 -0.16081081918E+03 -0.15326518661E+04  0.10789562913E+04  0.18812305948E+04  0.10100000352E+00 0. -1.
       -3    1    3    3    0  502  0.16081081918E+03  0.15326518661E+04 -0.52898784238E+01  0.15410742536E+04  0.10100000352E+00 0.  1.
</event>
<event>
 5   0  0.1259875E-06  0.2433975E+04  0.7818609E-02  0.8426892E-01
       -3   -1    0    0    0  501  0.00000000000E+00  0.00000000000E+00  0.12616316487E+04  0.12616316527E+04  0.10100000352E+00 0. -1.
        3   -1    0    0  501    0  0.00000000000E+00  0.00000000000E+00 -0.11739234592E+04  0.11739234636E+04  0.10100000352E+00 0.  1.
    10030    2    1    2    0    0  0.00000000000E+00  0.00000000000E+00  0.87708189439E+02  0.24355551163E+04  0.24339753487E+04 0.  0.
        4    1    3    3  502    0 -0.49885014246E+02  0.70269265189E+03  0.10368650105E+04  0.12535374508E+04  0.12699999809E+01 0. -1.
       -4    1    3    3    0  502  0.49885014246E+02 -0.70269265189E+03 -0.94915682107E+03  0.11820176655E+04  0.12699999809E+01 0.  1.
</event>
<event>
 5   0  0.1282578E-06  0.3390154E+04  0.7818609E-02  0.8140327E-01
       -1   -1    0    0    0  501  0.00000000000E+00  0.00000000000E+00  0.16217454100E+04  0.16217454100E+04  0.50400001928E-02 0. -1.
        1   -1    0    0  501    0  0.00000000000E+00  0.00000000000E+00 -0.17717240764E+04  0.17717240764E+04  0.50400001928E-02 0.  1.
    10030    2    1    2    0    0  0.00000000000E+00  0.00000000000E+00 -0.14997866649E+03  0.33934694864E+04  0.33901536182E+04 0.  0.
        4    1    3    3  502    0  0.68079233953E+03 -0.69039397959E+03  0.13167524434E+04  0.16352249590E+04  0.12699999809E+01 0. -1.
       -4    1    3    3    0  502 -0.68079233953E+03  0.69039397959E+03 -0.14667311098E+04  0.17582445274E+04  0.12699999809E+01 0.  1.
</event>
<event>
 5   0  0.1391878E-06  0.3254863E+04  0.7818609E-02  0.8174476E-01
       -1   -1    0    0    0  501  0.00000000000E+00  0.00000000000E+00  0.10124061729E+04  0.10124061729E+04  0.50400001928E-02 0. -1.
        1   -1    0    0  501    0  0.00000000000E+00  0.00000000000E+00 -0.26160785044E+04  0.26160785044E+04  0.50400001928E-02 0.  1.
    10030    2    1    2    0    0  0.00000000000E+00  0.00000000000E+00 -0.16036723315E+04  0.36284846773E+04  0.32548634544E+04 0.  0.
        2    1    3    3  502    0 -0.50280708421E+03 -0.14992899960E+04 -0.37318788676E+03  0.16247937269E+04  0.25500000920E-02 0. -1.
       -2    1    3    3    0  502  0.50280708421E+03  0.14992899960E+04 -0.12304844447E+04  0.20036909504E+04  0.25500000920E-02 0.  1.
</event>
<event>
 5   0  0.3920487E-06  0.3330469E+04  0.7818609E-02  0.8155186E-01
        2   -1    0    0  501    0  0.00000000000E+00  0.00000000000E+00  0.26948944062E+04  0.26948944062E+04  0.25500000920E-02 0. -1.
       -2   -1    0    0    0  501  0.00000000000E+00  0.00000000000E+00 -0.10289849215E+04  0.10289849215E+04  0.25500000920E-02 0.  1.
    10030    2    1    2    0    0  0.00000000000E+00  0.00000000000E+00  0.16659094847E+04  0.37238793277E+04  0.33304688613E+04 0.  0.
        4    1    3    3  502    0  0.16469460205E+03  0.15318729303E+04  0.15394512580E+04  0.21779969640E+04  0.12699999809E+01 0.  1.
       -4    1    3    3    0  502 -0.16469460205E+03 -0.15318729303E+04  0.12645822665E+03  0.15458823637E+04  0.12699999809E+01 0. -1.
</event>
<event>
 5   0  0.4017247E-06  0.3322763E+04  0.7818609E-02  0.8157127E-01
       -2   -1    0    0    0  501  0.00000000000E+00  0.00000000000E+00  0.13761043359E+04  0.13761043359E+04  0.25500000920E-02 0. -1.
        2   -1    0    0  501    0  0.00000000000E+00  0.00000000000E+00 -0.20057989525E+04  0.20057989525E+04  0.25500000920E-02 0.  1.
    10030    2    1    2    0    0  0.00000000000E+00  0.00000000000E+00 -0.62969461653E+03  0.33819032884E+04  0.33227630884E+04 0.  0.
        1    1    3    3  502    0  0.16124821215E+04 -0.21981117344E+03 -0.65512261796E+03  0.17543093196E+04  0.50400001928E-02 0.  1.
       -1    1    3    3    0  502 -0.16124821215E+04  0.21981117344E+03  0.25428001430E+02  0.16275939688E+04  0.50400001928E-02 0. -1.
</event>
<event>
 5   0  0.1405389E-06  0.3082323E+04  0.7818609E-02  0.8220606E-01
        1   -1    0    0  501    0  0.00000000000E+00  0.00000000000E+00  0.15888323441E+04  0.15888323441E+04  0.50400001928E-02 0.  1.
       -1   -1    0    0    0  501  0.00000000000E+00  0.00000000000E+00 -0.14949211200E+04  0.14949211200E+04  0.50400001928E-02 0. -1.
    10030    2    1    2    0    0  0.00000000000E+00  0.00000000000E+00  0.93911224130E+02  0.30837534641E+04  0.30823231676E+04 0.  0.
        1    1    3    3  502    0  0.80946886854E+03 -0.72799028331E+03  0.11383189565E+04  0.15751126145E+04  0.50400001928E-02 0.  1.
       -1    1    3    3    0  502 -0.80946886854E+03  0.72799028331E+03 -0.10444077323E+04  0.15086408496E+04  0.50400001928E-02 0. -1.
</event>
<event>
 5   0  0.3812379E-06  0.3312469E+04  0.7818609E-02  0.8159730E-01
        2   -1    0    0  501    0  0.00000000000E+00  0.00000000000E+00  0.20289294698E+04  0.20289294698E+04  0.25500000920E-02 0.  1.
       -2   -1    0    0    0  501  0.00000000000E+00  0.00000000000E+00 -0.13520002139E+04  0.13520002139E+04  0.25500000920E-02 0. -1.
    10030    2    1    2    0    0  0.00000000000E+00  0.00000000000E+00  0.67692925590E+03  0.33809296837E+04  0.33124692163E+04 0.  0.
        5    1    3    3  502    0 -0.77051453854E+03 -0.91513301079E+03  0.15075321715E+04  0.19245353776E+04  0.46999998093E+01 0.  1.
       -5    1    3    3    0  502  0.77051453854E+03  0.91513301079E+03 -0.83060291560E+03  0.14563943061E+04  0.46999998093E+01 0. -1.
</event>
<event>
 5   0  0.1282578E-06  0.3131723E+04  0.7818609E-02  0.8207085E-01
        1   -1    0    0  501    0  0.00000000000E+00  0.00000000000E+00  0.13232792728E+04  0.13232792728E+04  0.50400001928E-02 0. -1.
       -1   -1    0    0    0  501  0.00000000000E+00  0.00000000000E+00 -0.18529140467E+04  0.18529140467E+04  0.50400001928E-02 0.  1.
    10030    2    1    2    0    0  0.00000000000E+00  0.00000000000E+00 -0.52963477387E+03  0.31761933195E+04  0.31317233290E+04 0.  0.
        4    1    3    3  502    0  0.15152882783E+04  0.25676778332E+03 -0.56889621577E+03  0.16388022389E+04  0.12699999809E+01 0.  1.
       -4    1    3    3    0  502 -0.15152882783E+04 -0.25676778332E+03  0.39261441901E+02  0.15373910806E+04  0.12699999809E+01 0. -1.
</event>
<event>
 5   0  0.1339825E-06  0.3084684E+04  0.7818609E-02  0.8219954E-01
        1   -1    0    0  501    0  0.00000000000E+00  0.00000000000E+00  0.19586269815E+04  0.19586269815E+04  0.50400001928E-02 0. -1.
       -1   -1    0    0    0  501  0.00000000000E+00  0.00000000000E+00 -0.12145341713E+04  0.12145341713E+04  0.50400001928E-02 0.  1.
    10030    2    1    2    0    0  0.00000000000E+00  0.00000000000E+00  0.74409281013E+03  0.31731611528E+04  0.30846843585E+04 0.  0.
        3    1    3    3  502    0 -0.37417659668E+03 -0.14871288866E+04  0.54188479112E+03  0.16264069564E+04  0.10100000352E+00 0.  1.
       -3    1    3    3    0  502  0.37417659668E+03  0.14871288866E+04  0.20220801901E+03  0.15467541964E+04  0.10100000352E+00 0. -1.
</event>
<event>
 5   0  0.1391878E-06  0.3067484E+04  0.7818609E-02  0.8224719E-01
        1   -1    0    0  501    0  0.00000000000E+00  0.00000000000E+00  0.10673371832E+04  0.10673371832E+04  0.50400001928E-02 0.  1.
       -1   -1    0    0    0  501  0.00000000000E+00  0.00000000000E+00 -0.22039564244E+04  0.22039564244E+04  0.50400001928E-02 0. -1.
    10030    2    1    2    0    0  0.00000000000E+00  0.00000000000E+00 -0.11366192412E+04  0.32712936075E+04  0.30674840778E+04 0.  0.
        2    1    3    3  502    0  0.13481894005E+04  0.43334835505E+03  0.59859238214E+02  0.14173879443E+04  0.25500000920E-02 0.  1.
       -2    1    3    3    0  502 -0.13481894005E+04 -0.43334835505E+03 -0.11964784794E+04  0.18539056632E+04  0.25500000920E-02 0. -1.
</event>
<event>
 5   0  0.3920487E-06  0.2801095E+04  0.7818609E-02  0.8302929E-01
        2   -1    0    0  501    0  0.00000000000E+00  0.00000000000E+00  0.10579544680E+04  0.10579544680E+04  0.25500000920E-02 0. -1.
       -2   -1    0    0    0  501  0.00000000000E+00  0.00000000000E+00 -0.18540809355E+04  0.18540809355E+04  0.25500000920E-02 0.  1.
    10030    2    1    2    0    0  0.00000000000E+00  0.00000000000E+00 -0.79612646752E+03  0.29120354035E+04  0.28010949357E+04 0.  0.
        4    1    3    3  502    0 -0.12526707346E+04 -0.36049904466E+03 -0.93058928912E+03  0.16016059342E+04  0.12699999809E+01 0. -1.
       -4    1    3    3    0  502  0.12526707346E+04  0.36049904466E+03  0.13446282160E+03  0.13104294693E+04  0.12699999809E+01 0.  1.
</event>
<event>
 5   0  0.1405389E-06  0.3346782E+04  0.7818609E-02  0.8151093E-01
        1   -1    0    0  501    0  0.00000000000E+00  0.00000000000E+00  0.22678546601E+04  0.22678546601E+04  0.50400001928E-02 0. -1.
       -1   -1    0    0    0  501  0.00000000000E+00  0.00000000000E+00 -0.12347513676E+04  0.12347513676E+04  0.50400001928E-02 0.  1.
    10030    2    1    2    0    0  0.00000000000E+00  0.00000000000E+00  0.10331032925E+04  0.35026060277E+04  0.33467815244E+04 0.  0.
        1    1    3    3  502    0  0.16015132394E+04 -0.11995888699E+03  0.24555291763E+02  0.16061873343E+04  0.50400001928E-02 0.  1.
       -1    1    3    3    0  502 -0.16015132394E+04  0.11995888699E+03  0.10085480007E+04  0.18964186933E+04  0.50400001928E-02 0. -1.
</event>
<event>
 5   0  0.1339825E-06  0.3376976E+04  0.7818609E-02  0.8143580E-01
        1   -1    0    0  501    0  0.00000000000E+00  0.00000000000E+00  0.17677775115E+04  0.17677775115E+04  0.50400001928E-02 0.  1.
       -1   -1    0    0    0  501  0.00000000000E+00  0.00000000000E+00 -0.16127544396E+04  0.16127544396E+04  0.50400001928E-02 0. -1.
    10030    2    1    2    0    0  0.00000000000E+00  0.00000000000E+00  0.15502307194E+03  0.33805319511E+04  0.33769755877E+04 0.  0.
        3    1    3    3  502    0 -0.77696626530E+03 -0.36821628543E+03  0.15322215992E+04  0.17569754834E+04  0.10100000352E+00 0.  1.
       -3    1    3    3    0  502  0.77696626530E+03  0.36821628543E+03 -0.13771985272E+04  0.16235564677E+04  0.10100000352E+00 0. -1.
</event>
<event>
 5   0  0.3671997E-06  0.3406085E+04  0.7818609E-02  0.8136415E-01
       -2   -1    0    0    0  501  0.00000000000E+00  0.00000000000E+00  0.14915746740E+04  0.14915746740E+04  0.25500000920E-02 0.  1.
        2   -1    0    0  501    0  0.00000000000E+00  0.00000000000E+00 -0.19444909521E+04  0.19444909521E+04  0.25500000920E-02 0. -1.
    10030    2    1    2    0    0  0.00000000000E+00  0.00000000000E+00 -0.45291627808E+03  0.34360656261E+04  0.34060848245E+04 0.  0.
        2    1    3    3  502    0 -0.33538030540E+02  0.10846850435E+04  0.10976064797E+04  0.15435045926E+04  0.25500000920E-02 0.  1.
       -2    1    3    3    0  502  0.33538030540E+02 -0.10846850435E+04 -0.15505227578E+04  0.18925610335E+04  0.25500000920E-02 0. -1.
</event>
<event>
 5   0  0.3920487E-06  0.2444698E+04  0.7818609E-02  0.8422957E-01
        2   -1    0    0  501    0  0.00000000000E+00  0.00000000000E+00  0.17971828955E+04  0.17971828955E+04  0.25500000920E-02 0. -1.
       -2   -1    0    0    0  501  0.00000000000E+00  0.00000000000E+00 -0.83137701130E+03  0.83137701131E+03  0.25500000920E-02 0.  1.
    10030    2    1    2    0    0  0.00000000000E+00  0.00000000000E+00  0.96580588422E+03  0.26285599068E+04  0.24446975637E+04 0.  0.
        4    1    3    3  502    0 -0.75537430126E+03 -0.91820137602E+03  0.17793232178E+03  0.12022252809E+04  0.12699999809E+01 0.  1.
       -4    1    3    3    0  502  0.75537430126E+03  0.91820137602E+03  0.78787356243E+03  0.14263346260E+04  0.12699999809E+01 0. -1.
</event>
<event>
 5   0  0.1352708E-06  0.3089710E+04  0.7818609E-02  0.8218568E-01
       -1   -1    0    0    0  501  0.00000000000E+00  0.00000000000E+00  0.11052591663E+04  0.11052591663E+04  0.50400001928E-02 0.  1.
        1   -1    0    0  501    0  0.00000000000E+00  0.00000000000E+00 -0.21592915507E+04  0.21592915507E+04  0.50400001928E-02 0. -1.
    10030    2    1    2    0    0  0.00000000000E+00  0.00000000000E+00 -0.10540323844E+04  0.32645507170E+04  0.30897098758E+04 0.  0.
        5    1    3    3  502    0  0.13989027718E+04  0.14877923779E+03  0.14745661239E+03  0.14145068997E+04  0.46999998093E+01 0.  1.
       -5    1    3    3    0  502 -0.13989027718E+04 -0.14877923779E+03 -0.12014889968E+04  0.18500438174E+04  0.46999998093E+01 0. -1.
</event>
<event>
 5   0  0.3920487E-06  0.3305083E+04  0.7818609E-02  0.8161603E-01
        2   -1    0    0  501    0  0.00000000000E+00  0.00000000000E+00  0.12152976562E+04  0.12152976562E+04  0.25500000920E-02 0. -1.
       -2   -1    0    0    0  501  0.00000000000E+00  0.00000000000E+00 -0.22470979975E+04  0.22470979975E+04  0.25500000920E-02 0.  1.
    10030    2    1    2    0    0  0.00000000000E+00  0.00000000000E+00 -0.10318003413E+04  0.34623956537E+04  0.33050827097E+04 0.  0.
        4    1    3    3  502    0  0.14318107877E+04  0.17715898313E+02  0.34828525337E+03  0.14736689640E+04  0.12699999809E+01 0.  1.
       -4    1    3    3    0  502 -0.14318107877E+04 -0.17715898313E+02 -0.13800855947E+04  0.19887266897E+04  0.12699999809E+01 0. -1.
</event>
<event>
 5   0  0.1391878E-06  0.3289975E+04  0.7818609E-02  0.8165451E-01
       -1   -1    0    0    0  501  0.00000000000E+00  0.00000000000E+00  0.14851921191E+04  0.14851921191E+04  0.50400001928E-02 0.  1.
        1   -1    0    0  501    0  0.00000000000E+00  0.00000000000E+00 -0.18219757832E+04  0.18219757832E+04  0.50400001928E-02 0. -1.
    10030    2    1    2    0    0  0.00000000000E+00  0.00000000000E+00 -0.33678366411E+03  0.33071679024E+04  0.32899751212E+04 0.  0.
        2    1    3    3  502    0  0.96243321410E+02 -0.75814449605E+03 -0.16326916156E+04  0.18027001319E+04  0.25500000920E-02 0. -1.
       -2    1    3    3    0  502 -0.96243321410E+02  0.75814449605E+03  0.12959079515E+04  0.15044677705E+04  0.25500000920E-02 0.  1.
</event>
<event>
 5   0  0.3812379E-06  0.3100295E+04  0.7818609E-02  0.8215657E-01
        2   -1    0    0  501    0  0.00000000000E+00  0.00000000000E+00  0.19685424458E+04  0.19685424458E+04  0.25500000920E-02 0. -1.
       -2   -1    0    0    0  501  0.00000000000E+00  0.00000000000E+00 -0.12206785906E+04  0.12206785906E+04  0.25500000920E-02 0.  1.
    10030    2    1    2    0    0  0.00000000000E+00  0.00000000000E+00  0.74786385514E+03  0.31892210364E+04  0.31002952235E+04 0.  0.
        5    1    3    3  502    0 -0.45599064753E+03  0.89782402072E+03 -0.83839624632E+03  0.13103227841E+04  0.46999998093E+01 0.  1.
       -5    1    3    3    0  502  0.45599064753E+03 -0.89782402072E+03  0.15862601015E+04  0.18788982522E+04  0.46999998093E+01 0. -1.
</event>
<event>
 5   0  0.1282578E-06  0.3236869E+04  0.7818609E-02  0.8179147E-01
       -1   -1    0    0    0  501  0.00000000000E+00  0.00000000000E+00  0.16791277669E+04  0.16791277669E+04  0.50400001928E-02 0. -1.
        1   -1    0    0  501    0  0.00000000000E+00  0.00000000000E+00 -0.15599351935E+04  0.15599351935E+04  0.50400001928E-02 0.  1.
    10030    2    1    2    0    0  0.00000000000E+00  0.00000000000E+00  0.11919257341E+03  0.32390629605E+04  0.32368691651E+04 0.  0.
        4    1    3    3  502    0 -0.13228968118E+04 -0.85538568847E+03 -0.31158399178E+03  0.16058726125E+04  0.12699999809E+01 0. -1.
       -4    1    3    3    0  502  0.13228968118E+04  0.85538568847E+03  0.43077656519E+03  0.16331903480E+04  0.12699999809E+01 0.  1.
</event>
<event>
 5   0  0.3896210E-06  0.3090901E+04  0.7818609E-02  0.8218240E-01
       -2   -1    0    0    0  501  0.00000000000E+00  0.00000000000E+00  0.10833496370E+04  0.10833496370E+04  0.25500000920E-02 0. -1.
        2   -1    0    0  501    0  0.00000000000E+00  0.00000000000E+00 -0.22046593357E+04  0.22046593357E+04  0.25500000920E-02 0.  1.
    10030    2    1    2    0    0  0.00000000000E+00  0.00000000000E+00 -0.11213096987E+04  0.32880089726E+04  0.30909007690E+04 0.  0.
        3    1    3    3  502    0 -0.97002627034E+03 -0.50880896580E+03 -0.17203985496E+04  0.20395118800E+04  0.10100000352E+00 0.  1.
       -3    1    3    3    0  502  0.97002627034E+03  0.50880896580E+03  0.59908885094E+03  0.12484970926E+04  0.10100000352E+00 0. -1.
</event>
<event>
 5   0  0.1391878E-06  0.3264460E+04  0.7818609E-02  0.8171998E-01
       -1   -1    0    0    0  501  0.00000000000E+00  0.00000000000E+00  0.13262528164E+04  0.13262528165E+04  0.50400001928E-02 0.  1.
        1   -1    0    0  501    0  0.00000000000E+00  0.00000000000E+00 -0.20087985923E+04  0.20087985923E+04  0.50400001928E-02 0. -1.
    10030    2    1    2    0    0  0.00000000000E+00  0.00000000000E+00 -0.68254577582E+03  0.33350514087E+04  0.32644600109E+04 0.  0.
        2    1    3    3  502    0  0.65150740729E+03  0.14914742569E+04 -0.46729937668E+03  0.16933180647E+04  0.25500000920E-02 0.  1.
       -2    1    3    3    0  502 -0.65150740729E+03 -0.14914742569E+04 -0.21524639914E+03  0.16417333441E+04  0.25500000920E-02 0. -1.
</event>
<event>
 5   0  0.3671997E-06  0.2704045E+04  0.7818609E-02  0.8333694E-01
        2   -1    0    0  501    0  0.00000000000E+00  0.00000000000E+00  0.14829574751E+04  0.14829574751E+04  0.25500000920E-02 0.  1.
       -2   -1    0    0    0  501  0.00000000000E+00  0.00000000000E+00 -0.12326477822E+04  0.12326477822E+04  0.25500000920E-02 0. -1.
    10030    2    1    2    0    0  0.00000000000E+00  0.00000000000E+00  0.25030969295E+03  0.27156052573E+04  0.27040445579E+04 0.  0.
        2    1    3    3  502    0  0.45181005837E+03  0.20415922651E+03  0.13883683271E+04  0.14742387630E+04  0.25500000920E-02 0.  1.
       -2    1    3    3    0  502 -0.45181005837E+03 -0.20415922651E+03 -0.11380586341E+04  0.12413664943E+04  0.25500000920E-02 0. -1.
</event>
<event>
 5   0  0.1259875E-06  0.3308796E+04  0.7818609E-02  0.8160661E-01
       -3   -1    0    0    0  501  0.00000000000E+00  0.00000000000E+00  0.83386434682E+03  0.83386435294E+03  0.10100000352E+00 0.  1.
        3   -1    0    0  501    0  0.00000000000E+00  0.00000000000E+00 -0.32823483240E+04  0.32823483256E+04  0.10100000352E+00 0. -1.
    10030    2    1    2    0    0  0.00000000000E+00  0.00000000000E+00 -0.24484839772E+04  0.41162126785E+04  0.33087963111E+04 0.  0.
        5    1    3    3  502    0  0.16384152172E+04  0.92652763913E+02 -0.14852559188E+04  0.22133676136E+04  0.46999998093E+01 0.  1.
       -5    1    3    3    0  502 -0.16384152172E+04 -0.92652763913E+02 -0.96322805844E+03  0.19028450649E+04  0.46999998093E+01 0. -1.
</event>
<event>
 5   0  0.3920487E-06  0.3274174E+04  0.7818609E-02  0.8169498E-01
        2   -1    0    0  501    0  0.00000000000E+00  0.00000000000E+00  0.17194405485E+04  0.17194405485E+04  0.25500000920E-02 0.  1.
       -2   -1    0    0    0  501  0.00000000000E+00  0.00000000000E+00 -0.15586778824E+04  0.15586778824E+04  0.25500000920E-02 0. -1.
    10030    2    1    2    0    0  0.00000000000E+00  0.00000000000E+00  0.16076266617E+03  0.32781184309E+04  0.32741740656E+04 0.  0.
        4    1    3    3  502    0 -0.15885333662E+04 -0.27853428725E+03 -0.20108495254E+03  0.16252557878E+04  0.12699999809E+01 0. -1.
       -4    1    3    3    0  502  0.15885333662E+04  0.27853428725E+03  0.36184761871E+03  0.16528626431E+04  0.12699999809E+01 0.  1.
</event>
<event>
 5   0  0.3812379E-06  0.3167156E+04  0.7818609E-02  0.8197546E-01
       -2   -1    0    0    0  501  0.00000000000E+00  0.00000000000E+00  0.81674882255E+03  0.81674882255E+03  0.25500000920E-02 0. -1.
        2   -1    0    0  501    0  0.00000000000E+00  0.00000000000E+00 -0.30703668348E+04  0.30703668348E+04  0.25500000920E-02 0.  1.
    10030    2    1    2    0    0  0.00000000000E+00  0.00000000000E+00 -0.22536180122E+04  0.38871156573E+04  0.31671555043E+04 0.  0.
        5    1    3    3  502    0  0.12355384987E+04  0.69609930147E+03 -0.26192940168E+03  0.14421299251E+04  0.46999998093E+01 0. -1.
       -5    1    3    3    0  502 -0.12355384987E+04 -0.69609930147E+03 -0.19916886105E+04  0.24449857322E+04  0.46999998093E+01 0.  1.
</event>
<event>
 5   0  0.1282578E-06  0.3045573E+04  0.7818609E-02  0.8230836E-01
       -1   -1    0    0    0  501  0.00000000000E+00  0.00000000000E+00  0.10476389567E+04  0.10476389567E+04  0.50400001928E-02 0.  1.
        1   -1    0    0  501    0  0.00000000000E+00  0.00000000000E+00 -0.22134335890E+04  0.22134335890E+04  0.50400001928E-02 0. -1.
    10030    2    1    2    0    0  0.00000000000E+00  0.00000000000E+00 -0.11657946323E+04  0.32610725456E+04  0.30455733488E+04 0.  0.
        4    1    3    3  502    0 -0.20063900023E+03  0.28303664086E+01 -0.21992150637E+04  0.22083506354E+04  0.12699999809E+01 0. -1.
       -4    1    3    3    0  502  0.20063900023E+03 -0.28303664086E+01  0.10334204314E+04  0.10527219103E+04  0.12699999809E+01 0.  1.
</event>
<event>
 5   0  0.1391878E-06  0.3181557E+04  0.7818609E-02  0.8193705E-01
       -1   -1    0    0    0  501  0.00000000000E+00  0.00000000000E+00  0.12635703495E+04  0.12635703495E+04  0.50400001928E-02 0.  1.
        1   -1    0    0  501    0  0.00000000000E+00  0.00000000000E+00 -0.20027188751E+04  0.20027188752E+04  0.50400001928E-02 0. -1.
    10030    2    1    2    0    0  0.00000000000E+00  0.00000000000E+00 -0.73914852563E+03  0.32662892247E+04  0.31815569705E+04 0.  0.
        2    1    3    3  502    0 -0.31116427931E+03  0.26884928023E+03  0.12080603653E+04  0.12761320427E+04  0.25500000920E-02 0.  1.
       -2    1    3    3    0  502  0.31116427931E+03 -0.26884928023E+03 -0.19472088909E+04  0.19901571820E+04  0.25500000920E-02 0. -1.
</event>
<event>
 5   0  0.3812379E-06  0.3203723E+04  0.7818609E-02  0.8187835E-01
       -2   -1    0    0    0  501  0.00000000000E+00  0.00000000000E+00  0.97868430015E+03  0.97868430016E+03  0.25500000920E-02 0. -1.
        2   -1    0    0  501    0  0.00000000000E+00  0.00000000000E+00 -0.26218463591E+04  0.26218463591E+04  0.25500000920E-02 0.  1.
    10030    2    1    2    0    0  0.00000000000E+00  0.00000000000E+00 -0.16431620589E+04  0.36005306592E+04  0.32037227527E+04 0.  0.
        5    1    3    3  502    0 -0.99177133911E+03  0.34984857571E+03 -0.21795132856E+04  0.24199803031E+04  0.46999998093E+01 0.  1.
       -5    1    3    3    0  502  0.99177133911E+03 -0.34984857571E+03  0.53635122672E+03  0.11805503562E+04  0.46999998093E+01 0. -1.
</event>
<event>
 5   0  0.1339825E-06  0.3286977E+04  0.7818609E-02  0.8166217E-01
        1   -1    0    0  501    0  0.00000000000E+00  0.00000000000E+00  0.16815568334E+04  0.16815568334E+04  0.50400001928E-02 0. -1.
       -1   -1    0    0    0  501  0.00000000000E+00  0.00000000000E+00 -0.16062818418E+04  0.16062818419E+04  0.50400001928E-02 0.  1.
    10030    2    1    2    0    0  0.00000000000E+00  0.00000000000E+00  0.75274991540E+02  0.32878386752E+04  0.32869768527E+04 0.  0.
        3    1    3    3  502    0  0.79872619219E+02  0.28030028324E+03  0.16554997714E+04  0.16809602576E+04  0.10100000352E+00 0. -1.
       -3    1    3    3    0  502 -0.79872619219E+02 -0.28030028324E+03 -0.15802247799E+04  0.16068784177E+04  0.10100000352E+00 0.  1.
</event>
<event>
 5   0  0.4017247E-06  0.3170076E+04  0.7818609E-02  0.8196765E-01
       -2   -1    0    0    0  501  0.00000000000E+00  0.00000000000E+00  0.15432267425E+04  0.15432267425E+04  0.25500000920E-02 0.  1.
        2   -1    0    0  501    0  0.00000000000E+00  0.00000000000E+00 -0.16279825075E+04  0.16279825075E+04  0.25500000920E-02 0. -1.
    10030    2    1    2    0    0  0.00000000000E+00  0.00000000000E+00 -0.84755764986E+02  0.31712092499E+04  0.31700764292E+04 0.  0.
        1    1    3    3  502    0 -0.21178067403E+03 -0.14652831278E+04 -0.60865475970E+03  0.16007393027E+04  0.50400001928E-02 0. -1.
       -1    1    3    3    0  502  0.21178067403E+03  0.14652831278E+04  0.52389899471E+03  0.15704699473E+04  0.50400001928E-02 0.  1.
</event>
<event>
 5   0  0.1405389E-06  0.3390613E+04  0.7818609E-02  0.8140214E-01
        1   -1    0    0  501    0  0.00000000000E+00  0.00000000000E+00  0.22894124908E+04  0.22894124908E+04  0.50400001928E-02 0. -1.
       -1   -1    0    0    0  501  0.00000000000E+00  0.00000000000E+00 -0.12553722394E+04  0.12553722394E+04  0.50400001928E-02 0.  1.
    10030    2    1    2    0    0  0.00000000000E+00  0.00000000000E+00  0.10340402514E+04  0.35447847301E+04  0.33906134462E+04 0.  0.
        1    1    3    3  502    0 -0.32863945708E+03 -0.11944533649E+04 -0.69290182212E+03  0.14194490722E+04  0.50400001928E-02 0.  1.
       -1    1    3    3    0  502  0.32863945708E+03  0.11944533649E+04  0.17269420735E+04  0.21253356579E+04  0.50400001928E-02 0. -1.
</event>
<event>
 5   0  0.4017247E-06  0.3325444E+04  0.7818609E-02  0.8156451E-01
        2   -1    0    0  501    0  0.00000000000E+00  0.00000000000E+00  0.22689281391E+04  0.22689281391E+04  0.25500000920E-02 0.  1.
       -2   -1    0    0    0  501  0.00000000000E+00  0.00000000000E+00 -0.12184801745E+04  0.12184801745E+04  0.25500000920E-02 0. -1.
    10030    2    1    2    0    0  0.00000000000E+00  0.00000000000E+00  0.10504479646E+04  0.34874083136E+04  0.33254437027E+04 0.  0.
        1    1    3    3  502    0  0.90178888440E+03  0.37213899336E+03 -0.88680664105E+03  0.13183841022E+04  0.50400001928E-02 0. -1.
       -1    1    3    3    0  502 -0.90178888440E+03 -0.37213899336E+03  0.19372546057E+04  0.21690242114E+04  0.50400001928E-02 0.  1.
</event>
<event>
 5   0  0.4017247E-06  0.3286274E+04  0.7818609E-02  0.8166397E-01
        2   -1    0    0  501    0  0.00000000000E+00  0.00000000000E+00  0.17618678182E+04  0.17618678182E+04  0.25500000920E-02 0.  1.
       -2   -1    0    0    0  501  0.00000000000E+00  0.00000000000E+00 -0.15324070491E+04  0.15324070491E+04  0.25500000920E-02 0. -1.
    10030    2    1    2    0    0  0.00000000000E+00  0.00000000000E+00  0.22946076903E+03  0.32942748673E+04  0.32862736735E+04 0.  0.
        1    1    3    3  502    0  0.43731032955E+03  0.51645277205E+02  0.17016168931E+04  0.17576710756E+04  0.50400001928E-02 0.  1.
       -1    1    3    3    0  502 -0.43731032955E+03 -0.51645277205E+02 -0.14721561241E+04  0.15366037917E+04  0.50400001928E-02 0. -1.
</event>
<event>
 5   0  0.3812379E-06  0.3359081E+04  0.7818609E-02  0.8148023E-01
        2   -1    0    0  501    0  0.00000000000E+00  0.00000000000E+00  0.19149436123E+04  0.19149436123E+04  0.25500000920E-02 0. -1.
       -2   -1    0    0    0  501  0.00000000000E+00  0.00000000000E+00 -0.14730755859E+04  0.14730755859E+04  0.25500000920E-02 0.  1.
    10030    2    1    2    0    0  0.00000000000E+00  0.00000000000E+00  0.44186802640E+03  0.33880191981E+04  0.33590812337E+04 0.  0.
        5    1    3    3  502    0  0.99117641272E+02  0.14514379129E+04  0.10674126454E+04  0.18044079825E+04  0.46999998093E+01 0. -1.
       -5    1    3    3    0  502 -0.99117641272E+02 -0.14514379129E+04 -0.62554461900E+03  0.15836112156E+04  0.46999998093E+01 0.  1.
</event>
<event>
 5   0  0.3896210E-06  0.3302588E+04  0.7818609E-02  0.8162237E-01
        2   -1    0    0  501    0  0.00000000000E+00  0.00000000000E+00  0.15229936223E+04  0.15229936223E+04  0.25500000920E-02 0.  1.
       -2   -1    0    0    0  501  0.00000000000E+00  0.00000000000E+00 -0.17904022984E+04  0.17904022984E+04  0.25500000920E-02 0. -1.
    10030    2    1    2    0    0  0.00000000000E+00  0.00000000000E+00 -0.26740867609E+03  0.33133959207E+04  0.33025876411E+04 0.  0.
        3    1    3    3  502    0  0.29856611749E+02 -0.30637584542E+03 -0.17613619526E+04  0.17880585880E+04  0.10100000352E+00 0. -1.
       -3    1    3    3    0  502 -0.29856611749E+02  0.30637584542E+03  0.14939532765E+04  0.15253373327E+04  0.10100000352E+00 0.  1.
</event>
<event>
 5   0  0.1391878E-06  0.3335461E+04  0.7818609E-02  0.8153931E-01
       -1   -1    0    0    0  501  0.00000000000E+00  0.00000000000E+00  0.24136625840E+04  0.24136625840E+04  0.50400001928E-02 0.  1.
        1   -1    0    0  501    0  0.00000000000E+00  0.00000000000E+00 -0.11523255249E+04  0.11523255249E+04  0.50400001928E-02 0. -1.
    10030    2    1    2    0    0  0.00000000000E+00  0.00000000000E+00  0.12613370590E+04  0.35659881089E+04  0.33354609901E+04 0.  0.
        2    1    3    3  502    0  0.11911612522E+04  0.81716978264E+03 -0.26041951756E+03  0.14678044514E+04  0.25500000920E-02 0. -1.
       -2    1    3    3    0  502 -0.11911612522E+04 -0.81716978264E+03  0.15217565766E+04  0.20981836575E+04  0.25500000920E-02 0.  1.
</event>
<event>
 5   0  0.1339825E-06  0.2791324E+04  0.7818609E-02  0.8305967E-01
        1   -1    0    0  501    0  0.00000000000E+00  0.00000000000E+00  0.12943785693E+04  0.12943785693E+04  0.50400001928E-02 0. -1.
       -1   -1    0    0    0  501  0.00000000000E+00  0.00000000000E+00 -0.15048710586E+04  0.15048710586E+04  0.50400001928E-02 0.  1.
    10030    2    1    2    0    0  0.00000000000E+00  0.00000000000E+00 -0.21049248930E+03  0.27992496278E+04  0.27913243077E+04 0.  0.
        3    1    3    3  502    0 -0.44381735875E+02 -0.13878906553E+04 -0.24586786936E+03  0.14101990034E+04  0.10100000352E+00 0.  1.
       -3    1    3    3    0  502  0.44381735875E+02  0.13878906553E+04  0.35375380065E+02  0.13890506245E+04  0.10100000352E+00 0. -1.
</event>
<event>
 5   0  0.1391878E-06  0.3326441E+04  0.7818609E-02  0.8156200E-01
        1   -1    0    0  501    0  0.00000000000E+00  0.00000000000E+00  0.86109880899E+03  0.86109880901E+03  0.50400001928E-02 0.  1.
       -1   -1    0    0    0  501  0.00000000000E+00  0.00000000000E+00 -0.32125261155E+04  0.32125261155E+04  0.50400001928E-02 0. -1.
    10030    2    1    2    0    0  0.00000000000E+00  0.00000000000E+00 -0.23514273065E+04  0.40736249245E+04  0.33264409882E+04 0.  0.
        2    1    3    3  502    0 -0.11598056904E+03 -0.15923180465E+04 -0.60475432516E+03  0.17072363771E+04  0.25500000920E-02 0.  1.
       -2    1    3    3    0  502  0.11598056904E+03  0.15923180465E+04 -0.17466729813E+04  0.23663885474E+04  0.25500000920E-02 0. -1.
</event>
<event>
 5   0  0.1405389E-06  0.2813754E+04  0.7818609E-02  0.8299011E-01
        1   -1    0    0  501    0  0.00000000000E+00  0.00000000000E+00  0.22184694512E+04  0.22184694512E+04  0.50400001928E-02 0. -1.
       -1   -1    0    0    0  501  0.00000000000E+00  0.00000000000E+00 -0.89219311807E+03  0.89219311808E+03  0.50400001928E-02 0.  1.
    10030    2    1    2    0    0  0.00000000000E+00  0.00000000000E+00  0.13262763331E+04  0.31106625693E+04  0.28137542018E+04 0.  0.
        1    1    3    3  502    0 -0.62408567386E+03  0.27794868570E+03 -0.69650122396E+03  0.97562920990E+03  0.50400001928E-02 0.  1.
       -1    1    3    3    0  502  0.62408567386E+03 -0.27794868570E+03  0.20227775571E+04  0.21350333594E+04  0.50400001928E-02 0. -1.
</event>
<event>
 5   0  0.3920487E-06  0.3371993E+04  0.7818609E-02  0.8144815E-01
        2   -1    0    0  501    0  0.00000000000E+00  0.00000000000E+00  0.16890822724E+04  0.16890822724E+04  0.25500000920E-02 0.  1.
       -2   -1    0    0    0  501  0.00000000000E+00  0.00000000000E+00 -0.16829164953E+04  0.16829164953E+04  0.25500000920E-02 0. -1.
    10030    2    1    2    0    0  0.00000000000E+00  0.00000000000E+00  0.61657770636E+01  0.33719987677E+04  0.33719931306E+04 0.  0.
        4    1    3    3  502    0  0.16045362971E+04  0.50643190237E+02 -0.51216679022E+03  0.16850572380E+04  0.12699999809E+01 0. -1.
       -4    1    3    3    0  502 -0.16045362971E+04 -0.50643190237E+02  0.51833256728E+03  0.16869415297E+04  0.12699999809E+01 0.  1.
</event>
<event>
 5   0  0.1339825E-06  0.3331629E+04  0.7818609E-02  0.8154894E-01
       -1   -1    0    0    0  501  0.00000000000E+00  0.00000000000E+00  0.98643003592E+03  0.98643003594E+03  0.50400001928E-02 0. -1.
        1   -1    0    0  501    0  0.00000000000E+00  0.00000000000E+00 -0.28131110338E+04  0.28131110338E+04  0.50400001928E-02 0.  1.
    10030    2    1    2    0    0  0.00000000000E+00  0.00000000000E+00 -0.18266809979E+04  0.37995410698E+04  0.33316285616E+04 0.  0.
        3    1    3    3  502    0  0.82002586888E+03 -0.72773938821E+03  0.51694839074E+03  0.12121397162E+04  0.10100000352E+00 0. -1.
       -3    1    3    3    0  502 -0.82002586888E+03  0.72773938821E+03 -0.23436293886E+04  0.25874013535E+04  0.10100000352E+00 0.  1.
</event>
<event>
 5   0  0.3671997E-06  0.3318013E+04  0.7818609E-02  0.8158327E-01
        2   -1    0    0  501    0  0.00000000000E+00  0.00000000000E+00  0.17963549340E+04  0.17963549340E+04  0.25500000920E-02 0.  1.
       -2   -1    0    0    0  501  0.00000000000E+00  0.00000000000E+00 -0.15321600766E+04  0.15321600766E+04  0.25500000920E-02 0. -1.
    10030    2    1    2    0    0  0.00000000000E+00  0.00000000000E+00  0.26419485738E+03  0.33285150106E+04  0.33180134498E+04 0.  0.
        2    1    3    3  502    0  0.74790844151E+02 -0.13181033278E+04  0.11399229855E+04  0.17442518356E+04  0.25500000920E-02 0.  1.
       -2    1    3    3    0  502 -0.74790844151E+02  0.13181033278E+04 -0.87572812809E+03  0.15842631750E+04  0.25500000920E-02 0. -1.
</event>
<event>
 5   0  0.1352708E-06  0.2955208E+04  0.7818609E-02  0.8256638E-01
        1   -1    0    0  501    0  0.00000000000E+00  0.00000000000E+00  0.15551803671E+04  0.15551803671E+04  0.50400001928E-02 0. -1.
       -1   -1    0    0    0  501  0.00000000000E+00  0.00000000000E+00 -0.14038972695E+04  0.14038972695E+04  0.50400001928E-02 0.  1.
    10030    2    1    2    0    0  0.00000000000E+00  0.00000000000E+00  0.15128309759E+03  0.29590776367E+04  0.29552079257E+04 0.  0.
        5    1    3    3  502    0 -0.49611802493E+03 -0.13804388111E+04  0.25348880916E+03  0.14886312748E+04  0.46999998093E+01 0. -1.
       -5    1    3    3    0  502  0.49611802493E+03  0.13804388111E+04 -0.10220571156E+03  0.14704463619E+04  0.46999998093E+01 0.  1.
</event>
<event>
 5   0  0.3920487E-06  0.2358682E+04  0.7818609E-02  0.8455137E-01
       -2   -1    0    0    0  501  0.00000000000E+00  0.00000000000E+00  0.86916867142E+03  0.86916867143E+03  0.25500000920E-02 0.  1.
        2   -1    0    0  501    0  0.00000000000E+00  0.00000000000E+00 -0.16002011965E+04  0.16002011965E+04  0.25500000920E-02 0. -1.
    10030    2    1    2    0    0  0.00000000000E+00  0.00000000000E+00 -0.73103252512E+03  0.24693698680E+04  0.23586816216E+04 0.  0.
        4    1    3    3  502    0 -0.64169776943E+03  0.92315072660E+02  0.66587789620E+03  0.92935089470E+03  0.12699999809E+01 0.  1.
       -4    1    3    3    0  502  0.64169776943E+03 -0.92315072660E+02 -0.13969104213E+04  0.15400189733E+04  0.12699999809E+01 0. -1.
</event>
<event>
 5   0  0.4017247E-06  0.3299307E+04  0.7818609E-02  0.8163072E-01
        2   -1    0    0  501    0  0.00000000000E+00  0.00000000000E+00  0.22123515577E+04  0.22123515577E+04  0.25500000920E-02 0. -1.
       -2   -1    0    0    0  501  0.00000000000E+00  0.00000000000E+00 -0.12300744254E+04  0.12300744254E+04  0.25500000920E-02 0.  1.
    10030    2    1    2    0    0  0.00000000000E+00  0.00000000000E+00  0.98227713230E+03  0.34424259830E+04  0.32993072431E+04 0.  0.
        1    1    3    3  502    0 -0.87728503012E+03  0.13970416000E+04  0.49288906834E+03  0.17217124876E+04  0.50400001928E-02 0.  1.
       -1    1    3    3    0  502  0.87728503012E+03 -0.13970416000E+04  0.48938806396E+03  0.17207134954E+04  0.50400001928E-02 0. -1.
</event>
<event>
 5   0  0.4017247E-06  0.3358391E+04  0.7818609E-02  0.8148195E-01
       -2   -1    0    0    0  501  0.00000000000E+00  0.00000000000E+00  0.16528929395E+04  0.16528929395E+04  0.25500000920E-02 0.  1.
        2   -1    0    0  501    0  0.00000000000E+00  0.00000000000E+00 -0.17059167253E+04  0.17059167253E+04  0.25500000920E-02 0. -1.
    10030    2    1    2    0    0  0.00000000000E+00  0.00000000000E+00 -0.53023785721E+02  0.33588096648E+04  0.33583911092E+04 0.  0.
        1    1    3    3  502    0 -0.20201264181E+03 -0.84079602676E+03  0.14130946958E+04  0.16566785100E+04  0.50400001928E-02 0.  1.
       -1    1    3    3    0  502  0.20201264181E+03  0.84079602676E+03 -0.14661184816E+04  0.17021311548E+04  0.50400001928E-02 0. -1.
</event>
<event>
 5   0  0.1282578E-06  0.3345493E+04  0.7818609E-02  0.8151415E-01
        1   -1    0    0  501    0  0.00000000000E+00  0.00000000000E+00  0.14118776163E+04  0.14118776163E+04  0.50400001928E-02 0. -1.
       -1   -1    0    0    0  501  0.00000000000E+00  0.00000000000E+00 -0.19818149644E+04  0.19818149644E+04  0.50400001928E-02 0.  1.
    10030    2    1    2    0    0  0.00000000000E+00  0.00000000000E+00 -0.56993734814E+03  0.33936925807E+04  0.33454926022E+04 0.  0.
        4    1    3    3  502    0  0.11849970885E+04  0.93583266492E+03  0.44517760102E+03  0.15742253924E+04  0.12699999809E+01 0.  1.
       -4    1    3    3    0  502 -0.11849970885E+04 -0.93583266492E+03 -0.10151149492E+04  0.18194671884E+04  0.12699999809E+01 0. -1.
</event>
<event>
 5   0  0.3920487E-06  0.3285103E+04  0.7818609E-02  0.8166696E-01
        2   -1    0    0  501    0  0.00000000000E+00  0.00000000000E+00  0.18275950755E+04  0.18275950756E+04  0.25500000920E-02 0. -1.
       -2   -1    0    0    0  501  0.00000000000E+00  0.00000000000E+00 -0.14762433869E+04  0.14762433869E+04  0.25500000920E-02 0.  1.
    10030    2    1    2    0    0  0.00000000000E+00  0.00000000000E+00  0.35135168868E+03  0.33038384624E+04  0.32851028259E+04 0.  0.
        4    1    3    3  502    0 -0.40890392631E+02 -0.15417603589E+04 -0.39259230584E+03  0.15914858969E+04  0.12699999809E+01 0.  1.
       -4    1    3    3    0  502  0.40890392631E+02  0.15417603589E+04  0.74394399453E+03  0.17123525655E+04  0.12699999809E+01 0. -1.
</event>
<event>
 5   0  0.3920487E-06  0.2175195E+04  0.7818609E-02  0.8528824E-01
       -2   -1    0    0    0  501  0.00000000000E+00  0.00000000000E+00  0.10349627941E+04  0.10349627941E+04  0.25500000920E-02 0.  1.
        2   -1    0    0  501    0  0.00000000000E+00  0.00000000000E+00 -0.11429086540E+04  0.11429086540E+04  0.25500000920E-02 0. -1.
    10030    2    1    2    0    0  0.00000000000E+00  0.00000000000E+00 -0.10794585995E+03  0.21778714481E+04  0.21751946432E+04 0.  0.
        4    1    3    3  502    0  0.19697553278E+03  0.65223347487E+03 -0.90275341521E+03  0.11310053969E+04  0.12699999809E+01 0. -1.
       -4    1    3    3    0  502 -0.19697553278E+03 -0.65223347487E+03  0.79480755526E+03  0.10468660512E+04  0.12699999809E+01 0.  1.
</event>
<event>
 5   0  0.1391878E-06  0.3347873E+04  0.7818609E-02  0.8150820E-01
       -1   -1    0    0    0  501  0.00000000000E+00  0.00000000000E+00  0.20943441599E+04  0.20943441600E+04  0.50400001928E-02 0.  1.
        1   -1    0    0  501    0  0.00000000000E+00  0.00000000000E+00 -0.13379193781E+04  0.13379193781E+04  0.50400001928E-02 0. -1.
    10030    2    1    2    0    0  0.00000000000E+00  0.00000000000E+00  0.75642478183E+03  0.34322635381E+04  0.33478731374E+04 0.  0.
        2    1    3    3  502    0  0.67774937835E+03  0.10383085747E+04  0.15311191479E+04  0.19702169325E+04  0.25500000920E-02 0.  1.
       -2    1    3    3    0  502 -0.67774937835E+03 -0.10383085747E+04 -0.77469436605E+03  0.14620466056E+04  0.25500000920E-02 0. -1.
</event>
<event>
 5   0  0.3920487E-06  0.3350860E+04  0.7818609E-02  0.8150073E-01
       -2   -1    0    0    0  501  0.00000000000E+00  0.00000000000E+00  0.12290948087E+04  0.12290948087E+04  0.25500000920E-02 0. -1.
        2   -1    0    0  501    0  0.00000000000E+00  0.00000000000E+00 -0.22838474253E+04  0.22838474253E+04  0.25500000920E-02 0.  1.
    10030    2    1    2    0    0  0.00000000000E+00  0.00000000000E+00 -0.10547526166E+04  0.35129422340E+04  0.33508595997E+04 0.  0.
        4    1    3    3  502    0 -0.97789149675E+03 -0.13346228766E+04 -0.25085004291E+03  0.16734447583E+04  0.12699999809E+01 0.  1.
       -4    1    3    3    0  502  0.97789149675E+03  0.13346228766E+04 -0.80390257365E+03  0.18394974757E+04  0.12699999809E+01 0. -1.
</event>
<event>
 5   0  0.1352708E-06  0.3391032E+04  0.7818609E-02  0.8140111E-01
        1   -1    0    0  501    0  0.00000000000E+00  0.00000000000E+00  0.20461454284E+04  0.20461454284E+04  0.50400001928E-02 0. -1.
       -1   -1    0    0    0  501  0.00000000000E+00  0.00000000000E+00 -0.14049706048E+04  0.14049706048E+04  0.50400001928E-02 0.  1.
    10030    2    1    2    0    0  0.00000000000E+00  0.00000000000E+00  0.64117482355E+03  0.34511160332E+04  0.33910318077E+04 0.  0.
        5    1    3    3  502    0 -0.11400653406E+04 -0.34191715793E+03  0.15494992347E+04  0.19538746868E+04  0.46999998093E+01 0. -1.
       -5    1    3    3    0  502  0.11400653406E+04  0.34191715793E+03 -0.90832441110E+03  0.14972413464E+04  0.46999998093E+01 0.  1.
</event>
<event>
 5   0  0.1352708E-06  0.2232116E+04  0.7818609E-02  0.8505178E-01
       -1   -1    0    0    0  501  0.00000000000E+00  0.00000000000E+00  0.87549026658E+03  0.87549026660E+03  0.50400001928E-02 0.  1.
        1   -1    0    0  501    0  0.00000000000E+00  0.00000000000E+00 -0.14227292880E+04  0.14227292880E+04  0.50400001928E-02 0. -1.
    10030    2    1    2    0    0  0.00000000000E+00  0.00000000000E+00 -0.54723902142E+03  0.22982195546E+04  0.22321161651E+04 0.  0.
        5    1    3    3  502    0  0.50557761976E+03 -0.80087585125E+03  0.33424801894E+03  0.10043678046E+04  0.46999998093E+01 0.  1.
       -5    1    3    3    0  502 -0.50557761976E+03  0.80087585125E+03 -0.88148704036E+03  0.12938517500E+04  0.46999998093E+01 0. -1.
</event>
<event>
 5   0  0.1352708E-06  0.3247744E+04  0.7818609E-02  0.8176321E-01
       -1   -1    0    0    0  501  0.00000000000E+00  0.00000000000E+00  0.14084567715E+04  0.14084567715E+04  0.50400001928E-02 0. -1.
        1   -1    0    0  501    0  0.00000000000E+00  0.00000000000E+00 -0.18722342069E+04  0.18722342069E+04  0.50400001928E-02 0.  1.
    10030    2    1    2    0    0  0.00000000000E+00  0.00000000000E+00 -0.46377743542E+03  0.32806909784E+04  0.32477444152E+04 0.  0.
        5    1    3    3  502    0 -0.12375163210E+03  0.77745004679E+03  0.12027994248E+04  0.14375296825E+04  0.46999998093E+01 0. -1.
       -5    1    3    3    0  502  0.12375163210E+03 -0.77745004679E+03 -0.16665768602E+04  0.18431612959E+04  0.46999998093E+01 0.  1.
</event>
<event>
 5   0  0.1391878E-06  0.3534994E+04  0.7818609E-02  0.8105547E-01
       -1   -1    0    0    0  501  0.00000000000E+00  0.00000000000E+00  0.19624064718E+04  0.19624064718E+04  0.50400001928E-02 0.  1.
        1   -1    0    0  501    0  0.00000000000E+00  0.00000000000E+00 -0.15919458202E+04  0.15919458202E+04  0.50400001928E-02 0. -1.
    10030    2    1    2    0    0  0.00000000000E+00  0.00000000000E+00  0.37046065159E+03  0.35543522920E+04  0.35349935108E+04 0.  0.
        2    1    3    3  502    0  0.23073809678E+03  0.15159264978E+04 -0.69865803813E+03  0.16850508212E+04  0.25500000920E-02 0. -1.
       -2    1    3    3    0  502 -0.23073809678E+03 -0.15159264978E+04  0.10691186897E+04  0.18693014708E+04  0.25500000920E-02 0.  1.
</event>
<event>
 5   0  0.3896210E-06  0.3311490E+04  0.7818609E-02  0.8159978E-01
        2   -1    0    0  501    0  0.00000000000E+00  0.00000000000E+00  0.17898917418E+04  0.17898917418E+04  0.25500000920E-02 0.  1.
       -2   -1    0    0    0  501  0.00000000000E+00  0.00000000000E+00 -0.15316517188E+04  0.15316517188E+04  0.25500000920E-02 0. -1.
    10030    2    1    2    0    0  0.00000000000E+00  0.00000000000E+00  0.25824002298E+03  0.33215434605E+04  0.33114895517E+04 0.  0.
        3    1    3    3  502    0 -0.82922717262E+02 -0.34152654853E+03 -0.14938079048E+04  0.15345939616E+04  0.10100000352E+00 0. -1.
       -3    1    3    3    0  502  0.82922717262E+02  0.34152654853E+03  0.17520479278E+04  0.17869494989E+04  0.10100000352E+00 0.  1.
</event>
<event>
 5   0  0.3812379E-06  0.3358143E+04  0.7818609E-02  0.8148256E-01
        2   -1    0    0  501    0  0.00000000000E+00  0.00000000000E+00  0.14928879983E+04  0.14928879983E+04  0.25500000920E-02 0. -1.
       -2   -1    0    0    0  501  0.00000000000E+00  0.00000000000E+00 -0.18884748037E+04  0.18884748037E+04  0.25500000920E-02 0.  1.
    10030    2    1    2    0    0  0.00000000000E+00  0.00000000000E+00 -0.39558680533E+03  0.33813628020E+04  0.33581431593E+04 0.  0.
        5    1    3    3  502    0  0.10647976252E+04  0.17253002990E+02 -0.15049093660E+04  0.18436013503E+04  0.46999998093E+01 0.  1.
       -5    1    3    3    0  502 -0.10647976252E+04 -0.17253002990E+02  0.11093225607E+04  0.15377614517E+04  0.46999998093E+01 0. -1.
</event>
<event>
 5   0  0.3671997E-06  0.3317238E+04  0.7818609E-02  0.8158523E-01
       -2   -1    0    0    0  501  0.00000000000E+00  0.00000000000E+00  0.13026722129E+04  0.13026722129E+04  0.25500000920E-02 0. -1.
        2   -1    0    0  501    0  0.00000000000E+00  0.00000000000E+00 -0.21118261280E+04  0.21118261280E+04  0.25500000920E-02 0.  1.
    10030    2    1    2    0    0  0.00000000000E+00  0.00000000000E+00 -0.80915391516E+03  0.34144983409E+04  0.33172381376E+04 0.  0.
        2    1    3    3  502    0  0.11438128686E+04  0.11611214700E+04 -0.72100908065E+03  0.17822359667E+04  0.25500000920E-02 0.  1.
       -2    1    3    3    0  502 -0.11438128686E+04 -0.11611214700E+04 -0.88144834515E+02  0.16322623742E+04  0.25500000920E-02 0. -1.
</event>
<event>
 5   0  0.1282578E-06  0.3255054E+04  0.7818609E-02  0.8174427E-01
        1   -1    0    0  501    0  0.00000000000E+00  0.00000000000E+00  0.12773128765E+04  0.12773128765E+04  0.50400001928E-02 0. -1.
       -1   -1    0    0    0  501  0.00000000000E+00  0.00000000000E+00 -0.20737623404E+04  0.20737623404E+04  0.50400001928E-02 0.  1.
    10030    2    1    2    0    0  0.00000000000E+00  0.00000000000E+00 -0.79644946388E+03  0.33510752169E+04  0.32550535112E+04 0.  0.
        4    1    3    3  502    0 -0.35451252369E+03  0.36450371298E+03  0.11934422842E+04  0.12972463856E+04  0.12699999809E+01 0. -1.
       -4    1    3    3    0  502  0.35451252369E+03 -0.36450371298E+03 -0.19898917481E+04  0.20538288313E+04  0.12699999809E+01 0.  1.
</event>
<event>
 5   0  0.4017247E-06  0.2784194E+04  0.7818609E-02  0.8308192E-01
       -2   -1    0    0    0  501  0.00000000000E+00  0.00000000000E+00  0.12135092221E+04  0.12135092221E+04  0.25500000920E-02 0. -1.
        2   -1    0    0  501    0  0.00000000000E+00  0.00000000000E+00 -0.15969668544E+04  0.15969668544E+04  0.25500000920E-02 0.  1.
    10030    2    1    2    0    0  0.00000000000E+00  0.00000000000E+00 -0.38345763233E+03  0.28104760765E+04  0.27841939625E+04 0.  0.
        1    1    3    3  502    0  0.11407520859E+04 -0.24161513066E+03 -0.95932848021E+03  0.15099683194E+04  0.50400001928E-02 0.  1.
       -1    1    3    3    0  502 -0.11407520859E+04  0.24161513066E+03  0.57587084789E+03  0.13005077571E+04  0.50400001928E-02 0. -1.
</event>
<event>
 5   0  0.1391878E-06  0.3415790E+04  0.7818609E-02  0.8134042E-01
        1   -1    0    0  501    0  0.00000000000E+00  0.00000000000E+00  0.21564328757E+04  0.21564328757E+04  0.50400001928E-02 0. -1.
       -1   -1    0    0    0  501  0.00000000000E+00  0.00000000000E+00 -0.13526531156E+04  0.13526531156E+04  0.50400001928E-02 0.  1.
    10030    2    1    2    0    0  0.00000000000E+00  0.00000000000E+00  0.80377976012E+03  0.35090859914E+04  0.34157901856E+04 0.  0.
        2    1    3    3  502    0 -0.12144176179E+04  0.48903714864E+02 -0.83075909432E+03  0.14721964532E+04  0.25500000920E-02 0.  1.
       -2    1    3    3    0  502  0.12144176179E+04 -0.48903714864E+02  0.16345388544E+04  0.20368895382E+04  0.25500000920E-02 0. -1.
</event>
<event>
 5   0  0.1405389E-06  0.2778221E+04  0.7818609E-02  0.8310062E-01
       -1   -1    0    0    0  501  0.00000000000E+00  0.00000000000E+00  0.99984747205E+03  0.99984747206E+03  0.50400001928E-02 0.  1.
        1   -1    0    0  501    0  0.00000000000E+00  0.00000000000E+00 -0.19299229745E+04  0.19299229745E+04  0.50400001928E-02 0. -1.
    10030    2    1    2    0    0  0.00000000000E+00  0.00000000000E+00 -0.93007550248E+03  0.29297704466E+04  0.27782214508E+04 0.  0.
        1    1    3    3  502    0  0.28934647039E+03  0.73823980862E+03 -0.16678289131E+04  0.18467194368E+04  0.50400001928E-02 0. -1.
       -1    1    3    3    0  502 -0.28934647039E+03 -0.73823980862E+03  0.73775341060E+03  0.10830510098E+04  0.50400001928E-02 0.  1.
</event>
<event>
 5   0  0.1339825E-06  0.3252363E+04  0.7818609E-02  0.8175123E-01
       -1   -1    0    0    0  501  0.00000000000E+00  0.00000000000E+00  0.15389480273E+04  0.15389480273E+04  0.50400001928E-02 0.  1.
        1   -1    0    0  501    0  0.00000000000E+00  0.00000000000E+00 -0.17183597746E+04  0.17183597746E+04  0.50400001928E-02 0. -1.
    10030    2    1    2    0    0  0.00000000000E+00  0.00000000000E+00 -0.17941174730E+03  0.32573078019E+04  0.32523630703E+04 0.  0.
        3    1    3    3  502    0 -0.13922184500E+04  0.81091294487E+03 -0.31052773032E+03  0.16408167168E+04  0.10100000352E+00 0.  1.
       -3    1    3    3    0  502  0.13922184500E+04 -0.81091294487E+03  0.13111598303E+03  0.16164910850E+04  0.10100000352E+00 0. -1.
</event>
<event>
 5   0  0.1391878E-06  0.3373506E+04  0.7818609E-02  0.8144440E-01
        1   -1    0    0  501    0  0.00000000000E+00  0.00000000000E+00  0.17269964310E+04  0.17269964310E+04  0.50400001928E-02 0. -1.
       -1   -1    0    0    0  501  0.00000000000E+00  0.00000000000E+00 -0.16474475346E+04  0.16474475346E+04  0.50400001928E-02 0.  1.
    10030    2    1    2    0    0  0.00000000000E+00  0.00000000000E+00  0.79548896386E+02  0.33744439656E+04  0.33735061954E+04 0.  0.
        2    1    3    3  502    0  0.14199487615E+03 -0.96027342872E+03  0.14195956206E+04  0.17197497867E+04  0.25500000920E-02 0. -1.
       -2    1    3    3    0  502 -0.14199487615E+03  0.96027342872E+03 -0.13400467242E+04  0.16546941789E+04  0.25500000920E-02 0.  1.
</event>
<event>
 5   0  0.1339825E-06  0.3278155E+04  0.7818609E-02  0.8168476E-01
       -1   -1    0    0    0  501  0.00000000000E+00  0.00000000000E+00  0.12875996322E+04  0.12875996322E+04  0.50400001928E-02 0. -1.
        1   -1    0    0  501    0  0.00000000000E+00  0.00000000000E+00 -0.20864984832E+04  0.20864984832E+04  0.50400001928E-02 0.  1.
    10030    2    1    2    0    0  0.00000000000E+00  0.00000000000E+00 -0.79889885097E+03  0.33740981154E+04  0.32781547734E+04 0.  0.
        3    1    3    3  502    0  0.52090883896E+03  0.13163399831E+04 -0.12497500256E+04  0.18883781682E+04  0.10100000352E+00 0.  1.
       -3    1    3    3    0  502 -0.52090883896E+03 -0.13163399831E+04  0.45085117459E+03  0.14857199472E+04  0.10100000352E+00 0. -1.
</event>
<event>
 5   0  0.1282578E-06  0.3370036E+04  0.7818609E-02  0.8145300E-01
        1   -1    0    0  501    0  0.00000000000E+00  0.00000000000E+00  0.19315213463E+04  0.19315213463E+04  0.50400001928E-02 0. -1.
       -1   -1    0    0    0  501  0.00000000000E+00  0.00000000000E+00 -0.14699740106E+04  0.14699740106E+04  0.50400001928E-02 0.  1.
    10030    2    1    2    0    0  0.00000000000E+00  0.00000000000E+00  0.46154733566E+03  0.34014953569E+04  0.33700363084E+04 0.  0.
        4    1    3    3  502    0  0.71200964193E+03  0.15084979200E+04  0.47124305408E+03  0.17333768585E+04  0.12699999809E+01 0.  1.
       -4    1    3    3    0  502 -0.71200964193E+03 -0.15084979200E+04 -0.96957184183E+01  0.16681184984E+04  0.12699999809E+01 0. -1.
</event>
<event>
 5   0  0.1391878E-06  0.3272949E+04  0.7818609E-02  0.8169813E-01
        1   -1    0    0  501    0  0.00000000000E+00  0.00000000000E+00  0.27887575747E+04  0.27887575747E+04  0.50400001928E-02 0. -1.
       -1   -1    0    0    0  501  0.00000000000E+00  0.00000000000E+00 -0.96030189663E+03  0.96030189664E+03  0.50400001928E-02 0.  1.
    10030    2    1    2    0    0  0.00000000000E+00  0.00000000000E+00  0.18284556780E+04  0.37490594713E+04  0.32729492439E+04 0.  0.
        2    1    3    3  502    0 -0.19300915376E+03 -0.81740204569E+03 -0.69459468642E+03  0.10898900936E+04  0.25500000920E-02 0.  1.
       -2    1    3    3    0  502  0.19300915376E+03  0.81740204569E+03  0.25230503644E+04  0.26591693777E+04  0.25500000920E-02 0. -1.
</event>
<event>
 5   0  0.3671997E-06  0.3174488E+04  0.7818609E-02  0.8195588E-01
        2   -1    0    0  501    0  0.00000000000E+00  0.00000000000E+00  0.12532182125E+04  0.12532182125E+04  0.25500000920E-02 0. -1.
       -2   -1    0    0    0  501  0.00000000000E+00  0.00000000000E+00 -0.20102987707E+04  0.20102987707E+04  0.25500000920E-02 0.  1.
    10030    2    1    2    0    0  0.00000000000E+00  0.00000000000E+00 -0.75708055824E+03  0.32635169832E+04  0.31744876953E+04 0.  0.
        2    1    3    3  502    0 -0.61638800333E+03 -0.80315481001E+03  0.87817984383E+03  0.13402207496E+04  0.25500000920E-02 0. -1.
       -2    1    3    3    0  502  0.61638800333E+03  0.80315481001E+03 -0.16352604021E+04  0.19232962336E+04  0.25500000920E-02 0.  1.
</event>
<event>
 5   0  0.1391878E-06  0.3272976E+04  0.7818609E-02  0.8169806E-01
        1   -1    0    0  501    0  0.00000000000E+00  0.00000000000E+00  0.28516870639E+04  0.28516870639E+04  0.50400001928E-02 0.  1.
       -1   -1    0    0    0  501  0.00000000000E+00  0.00000000000E+00 -0.93912584377E+03  0.93912584379E+03  0.50400001928E-02 0. -1.
    10030    2    1    2    0    0  0.00000000000E+00  0.00000000000E+00  0.19125612201E+04  0.37908129077E+04  0.32729760281E+04 0.  0.
        2    1    3    3  502    0 -0.95899057482E+03 -0.10860967584E+04  0.18374568223E+04  0.23399821933E+04  0.25500000920E-02 0.  1.
       -2    1    3    3    0  502  0.95899057482E+03  0.10860967584E+04  0.75104397829E+02  0.14508307144E+04  0.25500000920E-02 0. -1.
</event>
<event>
 5   0  0.1352708E-06  0.2047710E+04  0.7818609E-02  0.8584634E-01
       -1   -1    0    0    0  501  0.00000000000E+00  0.00000000000E+00  0.57963599942E+03  0.57963599945E+03  0.50400001928E-02 0.  1.
        1   -1    0    0  501    0  0.00000000000E+00  0.00000000000E+00 -0.18085121623E+04  0.18085121623E+04  0.50400001928E-02 0. -1.
    10030    2    1    2    0    0  0.00000000000E+00  0.00000000000E+00 -0.12288761629E+04  0.23881481617E+04  0.20477097008E+04 0.  0.
        5    1    3    3  502    0 -0.58010089309E+03 -0.43955018965E+03 -0.14542499764E+04  0.16262184660E+04  0.46999998093E+01 0. -1.
       -5    1    3    3    0  502  0.58010089309E+03  0.43955018965E+03  0.22537381354E+03  0.76192969571E+03  0.46999998093E+01 0.  1.
</event>
<event>
 5   0  0.3896210E-06  0.3571056E+04  0.7818609E-02  0.8097154E-01
       -2   -1    0    0    0  501  0.00000000000E+00  0.00000000000E+00  0.16476957392E+04  0.16476957392E+04  0.25500000920E-02 0.  1.
        2   -1    0    0  501    0  0.00000000000E+00  0.00000000000E+00 -0.19348898488E+04  0.19348898488E+04  0.25500000920E-02 0. -1.
    10030    2    1    2    0    0  0.00000000000E+00  0.00000000000E+00 -0.28719410965E+03  0.35825855880E+04  0.35710557317E+04 0.  0.
        3    1    3    3  502    0  0.10062937903E+04  0.89967754747E+03  0.10289635252E+04  0.16972957398E+04  0.10100000352E+00 0.  1.
       -3    1    3    3    0  502 -0.10062937903E+04 -0.89967754747E+03 -0.13161576349E+04  0.18852898482E+04  0.10100000352E+00 0. -1.
</event>
<event>
 5   0  0.3896210E-06  0.3106446E+04  0.7818609E-02  0.8213971E-01
       -2   -1    0    0    0  501  0.00000000000E+00  0.00000000000E+00  0.17510773854E+04  0.17510773854E+04  0.25500000920E-02 0.  1.
        2   -1    0    0  501    0  0.00000000000E+00  0.00000000000E+00 -0.13777245274E+04  0.13777245274E+04  0.25500000920E-02 0. -1.
    10030    2    1    2    0    0  0.00000000000E+00  0.00000000000E+00  0.37335285800E+03  0.31288019129E+04  0.31064463706E+04 0.  0.
        3    1    3    3  502    0 -0.75739176626E+03 -0.13541764735E+04  0.25836479746E+03  0.15729553674E+04  0.10100000352E+00 0. -1.
       -3    1    3    3    0  502  0.75739176626E+03  0.13541764735E+04  0.11498806055E+03  0.15558465455E+04  0.10100000352E+00 0.  1.
</event>
<event>
 5   0  0.3920487E-06  0.3273905E+04  0.7818609E-02  0.8169567E-01
       -2   -1    0    0    0  501  0.00000000000E+00  0.00000000000E+00  0.12388922610E+04  0.12388922610E+04  0.25500000920E-02 0. -1.
        2   -1    0    0  501    0  0.00000000000E+00  0.00000000000E+00 -0.21629110880E+04  0.21629110880E+04  0.25500000920E-02 0.  1.
    10030    2    1    2    0    0  0.00000000000E+00  0.00000000000E+00 -0.92401882706E+03  0.34018033490E+04  0.32739051960E+04 0.  0.
        4    1    3    3  502    0  0.45360104029E+03  0.97055208481E+03  0.82403646606E+03  0.13515779531E+04  0.12699999809E+01 0. -1.
       -4    1    3    3    0  502 -0.45360104029E+03 -0.97055208481E+03 -0.17480552931E+04  0.20502253958E+04  0.12699999809E+01 0.  1.
</event>
<event>
 5   0  0.3896210E-06  0.2016226E+04  0.7818609E-02  0.8599072E-01
        2   -1    0    0  501    0  0.00000000000E+00  0.00000000000E+00  0.16883823459E+04  0.16883823459E+04  0.25500000920E-02 0. -1.
       -2   -1    0    0    0  501  0.00000000000E+00  0.00000000000E+00 -0.60193209201E+03  0.60193209201E+03  0.25500000920E-02 0.  1.
    10030    2    1    2    0    0  0.00000000000E+00  0.00000000000E+00  0.10864502539E+04  0.22903144380E+04  0.20162256993E+04 0.  0.
        3    1    3    3  502    0  0.64694897549E+02  0.60321632810E+03 -0.37135673553E+03  0.71130949908E+03  0.10100000352E+00 0.  1.
       -3    1    3    3    0  502 -0.64694897549E+02 -0.60321632810E+03  0.14578069895E+04  0.15790049389E+04  0.10100000352E+00 0. -1.
</event>
<event>
 5   0  0.4017247E-06  0.3285113E+04  0.7818609E-02  0.8166694E-01
        2   -1    0    0  501    0  0.00000000000E+00  0.00000000000E+00  0.22224734969E+04  0.22224734969E+04  0.25500000920E-02 0.  1.
       -2   -1    0    0    0  501  0.00000000000E+00  0.00000000000E+00 -0.12139591178E+04  0.12139591178E+04  0.25500000920E-02 0. -1.
    10030    2    1    2    0    0  0.00000000000E+00  0.00000000000E+00  0.10085143791E+04  0.34364326146E+04  0.32851130669E+04 0.  0.
        1    1    3    3  502    0  0.53184664596E+03 -0.27517506069E+03 -0.10957084747E+04  0.12486629771E+04  0.50400001928E-02 0. -1.
       -1    1    3    3    0  502 -0.53184664596E+03  0.27517506069E+03  0.21042228537E+04  0.21877696376E+04  0.50400001928E-02 0.  1.
</event>
<event>
 5   0  0.3896210E-06  0.3201925E+04  0.7818609E-02  0.8188309E-01
        2   -1    0    0  501    0  0.00000000000E+00  0.00000000000E+00  0.84076344010E+03  0.84076344011E+03  0.25500000920E-02 0. -1.
       -2   -1    0    0    0  501  0.00000000000E+00  0.00000000000E+00 -0.30485152066E+04  0.30485152066E+04  0.25500000920E-02 0.  1.
    10030    2    1    2    0    0  0.00000000000E+00  0.00000000000E+00 -0.22077517665E+04  0.38892786467E+04  0.32019245040E+04 0.  0.
        3    1    3    3  502    0 -0.74594036119E+03  0.95746231899E+03 -0.23719805029E+04  0.26644798049E+04  0.10100000352E+00 0.  1.
       -3    1    3    3    0  502  0.74594036119E+03 -0.95746231899E+03  0.16422873638E+03  0.12247988418E+04  0.10100000352E+00 0. -1.
</event>
<event>
 5   0  0.3812379E-06  0.2410241E+04  0.7818609E-02  0.8435680E-01
        2   -1    0    0  501    0  0.00000000000E+00  0.00000000000E+00  0.10577399509E+04  0.10577399509E+04  0.25500000920E-02 0. -1.
       -2   -1    0    0    0  501  0.00000000000E+00  0.00000000000E+00 -0.13730358415E+04  0.13730358415E+04  0.25500000920E-02 0.  1.
    10030    2    1    2    0    0  0.00000000000E+00  0.00000000000E+00 -0.31529589062E+03  0.24307757923E+04  0.24102405386E+04 0.  0.
        5    1    3    3  502    0  0.38845127511E+02  0.10493704645E+04  0.43866414926E+03  0.11380402636E+04  0.46999998093E+01 0. -1.
       -5    1    3    3    0  502 -0.38845127511E+02 -0.10493704645E+04 -0.75396003988E+03  0.12927355288E+04  0.46999998093E+01 0.  1.
</event>
<event>
 5   0  0.1339825E-06  0.3286761E+04  0.7818609E-02  0.8166272E-01
        1   -1    0    0  501    0  0.00000000000E+00  0.00000000000E+00  0.16500934656E+04  0.16500934656E+04  0.50400001928E-02 0.  1.
       -1   -1    0    0    0  501  0.00000000000E+00  0.00000000000E+00 -0.16366947511E+04  0.16366947511E+04  0.50400001928E-02 0. -1.
    10030    2    1    2    0    0  0.00000000000E+00  0.00000000000E+00  0.13398714480E+02  0.32867882167E+04  0.32867609064E+04 0.  0.
        3    1    3    3  502    0  0.30072562678E+03  0.15922769903E+04 -0.26701332489E+03  0.16422783084E+04  0.10100000352E+00 0. -1.
       -3    1    3    3    0  502 -0.30072562678E+03 -0.15922769903E+04  0.28041203937E+03  0.16445099083E+04  0.10100000352E+00 0.  1.
</event>
<event>
 5   0  0.1405389E-06  0.3145216E+04  0.7818609E-02  0.8203437E-01
        1   -1    0    0  501    0  0.00000000000E+00  0.00000000000E+00  0.15804506887E+04  0.15804506887E+04  0.50400001928E-02 0. -1.
       -1   -1    0    0    0  501  0.00000000000E+00  0.00000000000E+00 -0.15648044197E+04  0.15648044197E+04  0.50400001928E-02 0.  1.
    10030    2    1    2    0    0  0.00000000000E+00  0.00000000000E+00  0.15646269046E+02  0.31452551084E+04  0.31452161915E+04 0.  0.
        1    1    3    3  502    0  0.24416965321E+03  0.10977802021E+04 -0.10914429543E+04  0.15671591860E+04  0.50400001928E-02 0.  1.
       -1    1    3    3    0  502 -0.24416965321E+03 -0.10977802021E+04  0.11070892234E+04  0.15780959224E+04  0.50400001928E-02 0. -1.
</event>
<event>
 5   0  0.1339825E-06  0.3335893E+04  0.7818609E-02  0.8153822E-01
       -1   -1    0    0    0  501  0.00000000000E+00  0.00000000000E+00  0.24040831368E+04  0.24040831368E+04  0.50400001928E-02 0. -1.
        1   -1    0    0  501    0  0.00000000000E+00  0.00000000000E+00 -0.11572168056E+04  0.11572168056E+04  0.50400001928E-02 0.  1.
    10030    2    1    2    0    0  0.00000000000E+00  0.00000000000E+00  0.12468663312E+04  0.35612999424E+04  0.33358929287E+04 0.  0.
        3    1    3    3  502    0 -0.12090467162E+04  0.28567180221E+03  0.18115784161E+04  0.21966380467E+04  0.10100000352E+00 0. -1.
       -3    1    3    3    0  502  0.12090467162E+04 -0.28567180221E+03 -0.56471208491E+03  0.13646618957E+04  0.10100000352E+00 0.  1.
</event>
<event>
 5   0  0.1405389E-06  0.3266938E+04  0.7818609E-02  0.8171359E-01
       -1   -1    0    0    0  501  0.00000000000E+00  0.00000000000E+00  0.18760323908E+04  0.18760323908E+04  0.50400001928E-02 0.  1.
        1   -1    0    0  501    0  0.00000000000E+00  0.00000000000E+00 -0.14222677834E+04  0.14222677834E+04  0.50400001928E-02 0. -1.
    10030    2    1    2    0    0  0.00000000000E+00  0.00000000000E+00  0.45376460739E+03  0.32983001743E+04  0.32669376671E+04 0.  0.
        1    1    3    3  502    0  0.75467094032E+03  0.14092034241E+04 -0.11225600408E+03  0.16024930356E+04  0.50400001928E-02 0. -1.
       -1    1    3    3    0  502 -0.75467094032E+03 -0.14092034241E+04  0.56602061147E+03  0.16958071386E+04  0.50400001928E-02 0.  1.
</event>
<event>
 5   0  0.1282578E-06  0.3283475E+04  0.7818609E-02  0.8167113E-01
       -1   -1    0    0    0  501  0.00000000000E+00  0.00000000000E+00  0.32656283880E+04  0.32656283880E+04  0.50400001928E-02 0. -1.
        1   -1    0    0  501    0  0.00000000000E+00  0.00000000000E+00 -0.82535477090E+03  0.82535477091E+03  0.50400001928E-02 0.  1.
    10030    2    1    2    0    0  0.00000000000E+00  0.00000000000E+00  0.24402736171E+04  0.40909831589E+04  0.32834749702E+04 0.  0.
        4    1    3    3  502    0 -0.13039921100E+04 -0.70932724244E+03  0.34642039943E+03  0.15243192795E+04  0.12699999809E+01 0.  1.
       -4    1    3    3    0  502  0.13039921100E+04  0.70932724244E+03  0.20938532176E+04  0.25666638794E+04  0.12699999809E+01 0. -1.
</event>
<event>
 5   0  0.3920487E-06  0.3391486E+04  0.7818609E-02  0.8139999E-01
        2   -1    0    0  501    0  0.00000000000E+00  0.00000000000E+00  0.18887236685E+04  0.18887236685E+04  0.25500000920E-02 0. -1.
       -2   -1    0    0    0  501  0.00000000000E+00  0.00000000000E+00 -0.15224801969E+04  0.15224801969E+04  0.25500000920E-02 0.  1.
    10030    2    1    2    0    0  0.00000000000E+00  0.00000000000E+00  0.36624347160E+03  0.34112038655E+04  0.33914860358E+04 0.  0.
        4    1    3    3  502    0  0.45309993360E+01 -0.15059770493E+03 -0.15157341736E+04  0.15232044829E+04  0.12699999809E+01 0.  1.
       -4    1    3    3    0  502 -0.45309993360E+01  0.15059770493E+03  0.18819776452E+04  0.18879993826E+04  0.12699999809E+01 0. -1.
</event>
<event>
 5   0  0.3812379E-06  0.3258578E+04  0.7818609E-02  0.8173516E-01
        2   -1    0    0  501    0  0.00000000000E+00  0.00000000000E+00  0.17159809531E+04  0.17159809531E+04  0.25500000920E-02 0.  1.
       -2   -1    0    0    0  501  0.00000000000E+00  0.00000000000E+00 -0.15469766891E+04  0.15469766891E+04  0.25500000920E-02 0. -1.
    10030    2    1    2    0    0  0.00000000000E+00  0.00000000000E+00  0.16900426394E+03  0.32629576422E+04  0.32585779312E+04 0.  0.
        5    1    3    3  502    0 -0.15397446846E+04 -0.41370328876E+03 -0.25150265017E+03  0.16140755180E+04  0.46999998093E+01 0.  1.
       -5    1    3    3    0  502  0.15397446846E+04  0.41370328876E+03  0.42050691410E+03  0.16488821242E+04  0.46999998093E+01 0. -1.
</event>
<event>
 5   0  0.1405389E-06  0.3294585E+04  0.7818609E-02  0.8164275E-01
        1   -1    0    0  501    0  0.00000000000E+00  0.00000000000E+00  0.16836685570E+04  0.16836685570E+04  0.50400001928E-02 0.  1.
       -1   -1    0    0    0  501  0.00000000000E+00  0.00000000000E+00 -0.16117023937E+04  0.16117023938E+04  0.50400001928E-02 0. -1.
    10030    2    1    2    0    0  0.00000000000E+00  0.00000000000E+00  0.71966163238E+02  0.32953709507E+04  0.32945850383E+04 0.  0.
        1    1    3    3  502    0 -0.30916768191E+03  0.86131150050E+03  0.14060289507E+04  0.16776053072E+04  0.50400001928E-02 0.  1.
       -1    1    3    3    0  502  0.30916768191E+03 -0.86131150050E+03 -0.13340627875E+04  0.16177656435E+04  0.50400001928E-02 0. -1.
</event>
<event>
 5   0  0.3896210E-06  0.3288737E+04  0.7818609E-02  0.8165767E-01
       -2   -1    0    0    0  501  0.00000000000E+00  0.00000000000E+00  0.12132052798E+04  0.12132052798E+04  0.25500000920E-02 0.  1.
        2   -1    0    0  501    0  0.00000000000E+00  0.00000000000E+00 -0.22287640513E+04  0.22287640513E+04  0.25500000920E-02 0. -1.
    10030    2    1    2    0    0  0.00000000000E+00  0.00000000000E+00 -0.10155587715E+04  0.34419693311E+04  0.32887373349E+04 0.  0.
        3    1    3    3  502    0 -0.12056497643E+04 -0.10964607487E+04 -0.27817020840E+03  0.16532380962E+04  0.10100000352E+00 0. -1.
       -3    1    3    3    0  502  0.12056497643E+04  0.10964607487E+04 -0.73738856311E+03  0.17887312349E+04  0.10100000352E+00 0.  1.
</event>
<event>
 5   0  0.4017247E-06  0.3313376E+04  0.7818609E-02  0.8159500E-01
        2   -1    0    0  501    0  0.00000000000E+00  0.00000000000E+00  0.13329405833E+04  0.13329405833E+04  0.25500000920E-02 0.  1.
       -2   -1    0    0    0  501  0.00000000000E+00  0.00000000000E+00 -0.20590680783E+04  0.20590680783E+04  0.25500000920E-02 0. -1.
    10030    2    1    2    0    0  0.00000000000E+00  0.00000000000E+00 -0.72612749505E+03  0.33920086616E+04  0.33133761666E+04 0.  0.
        1    1    3    3  502    0  0.95415460945E+03 -0.74942122123E+03 -0.15179186644E+04  0.19432241912E+04  0.50400001928E-02 0. -1.
       -1    1    3    3    0  502 -0.95415460945E+03  0.74942122123E+03  0.79179116937E+03  0.14487844703E+04  0.50400001928E-02 0.  1.
</event>
<event>
 5   0  0.3671997E-06  0.3393227E+04  0.7818609E-02  0.8139571E-01
        2   -1    0    0  501    0  0.00000000000E+00  0.00000000000E+00  0.19424366316E+04  0.19424366316E+04  0.25500000920E-02 0.  1.
       -2   -1    0    0    0  501  0.00000000000E+00  0.00000000000E+00 -0.14819004330E+04  0.14819004330E+04  0.25500000920E-02 0. -1.
    10030    2    1    2    0    0  0.00000000000E+00  0.00000000000E+00  0.46053619862E+03  0.34243370646E+04  0.33932271869E+04 0.  0.
        2    1    3    3  502    0  0.85621199415E+03 -0.43582214973E+03 -0.11809293677E+04  0.15223777773E+04  0.25500000920E-02 0. -1.
       -2    1    3    3    0  502 -0.85621199415E+03  0.43582214973E+03  0.16414655664E+04  0.19019592873E+04  0.25500000920E-02 0.  1.
</event>
<event>
 5   0  0.1391878E-06  0.3326630E+04  0.7818609E-02  0.8156152E-01
        1   -1    0    0  501    0  0.00000000000E+00  0.00000000000E+00  0.21063235244E+04  0.21063235244E+04  0.50400001928E-02 0. -1.
       -1   -1    0    0    0  501  0.00000000000E+00  0.00000000000E+00 -0.13134816635E+04  0.13134816635E+04  0.50400001928E-02 0.  1.
    10030    2    1    2    0    0  0.00000000000E+00  0.00000000000E+00  0.79284186095E+03  0.34198051879E+04  0.33266303232E+04 0.  0.
        2    1    3    3  502    0  0.11279731923E+03 -0.69224823966E+03  0.19468703285E+04  0.20693561647E+04  0.25500000920E-02 0. -1.
       -2    1    3    3    0  502 -0.11279731923E+03  0.69224823966E+03 -0.11540284675E+04  0.13504490232E+04  0.25500000920E-02 0.  1.
</event>
<event>
 5   0  0.1282578E-06  0.3258701E+04  0.7818609E-02  0.8173484E-01
       -1   -1    0    0    0  501  0.00000000000E+00  0.00000000000E+00  0.10026312562E+04  0.10026312562E+04  0.50400001928E-02 0.  1.
        1   -1    0    0  501    0  0.00000000000E+00  0.00000000000E+00 -0.26478160139E+04  0.26478160139E+04  0.50400001928E-02 0. -1.
    10030    2    1    2    0    0  0.00000000000E+00  0.00000000000E+00 -0.16451847576E+04  0.36504472701E+04  0.32587010272E+04 0.  0.
        4    1    3    3  502    0  0.16173345465E+04 -0.18902315973E+03 -0.75842942258E+03  0.17963066531E+04  0.12699999809E+01 0.  1.
       -4    1    3    3    0  502 -0.16173345465E+04  0.18902315973E+03 -0.88675533507E+03  0.18541406169E+04  0.12699999809E+01 0. -1.
</event>
<event>
 5   0  0.3812379E-06  0.3254887E+04  0.7818609E-02  0.8174470E-01
        2   -1    0    0  501    0  0.00000000000E+00  0.00000000000E+00  0.15168132973E+04  0.15168132973E+04  0.25500000920E-02 0.  1.
       -2   -1    0    0    0  501  0.00000000000E+00  0.00000000000E+00 -0.17461431124E+04  0.17461431124E+04  0.25500000920E-02 0. -1.
    10030    2    1    2    0    0  0.00000000000E+00  0.00000000000E+00 -0.22932981515E+03  0.32629564097E+04  0.32548874585E+04 0.  0.
        5    1    3    3  502    0 -0.14292758677E+04  0.69459666544E+03 -0.46661496114E+03  0.16562142511E+04  0.46999998093E+01 0. -1.
       -5    1    3    3    0  502  0.14292758677E+04 -0.69459666544E+03  0.23728514600E+03  0.16067421586E+04  0.46999998093E+01 0.  1.
</event>
<event>
 5   0  0.1391878E-06  0.3272244E+04  0.7818609E-02  0.8169994E-01
        1   -1    0    0  501    0  0.00000000000E+00  0.00000000000E+00  0.97579393092E+03  0.97579393094E+03  0.50400001928E-02 0.  1.
       -1   -1    0    0    0  501  0.00000000000E+00  0.00000000000E+00 -0.27432996499E+04  0.27432996499E+04  0.50400001928E-02 0. -1.
    10030    2    1    2    0    0  0.00000000000E+00  0.00000000000E+00 -0.17675057190E+04  0.37190935809E+04  0.32722439696E+04 0.  0.
        2    1    3    3  502    0 -0.47772813859E+03  0.15557987528E+04 -0.10744820335E+04  0.19501911635E+04  0.25500000920E-02 0.  1.
       -2    1    3    3    0  502  0.47772813859E+03 -0.15557987528E+04 -0.69302368548E+03  0.17689024174E+04  0.25500000920E-02 0. -1.
</event>
<event>
 5   0  0.1352708E-06  0.3206423E+04  0.7818609E-02  0.8187123E-01
       -1   -1    0    0    0  501  0.00000000000E+00  0.00000000000E+00  0.14820283545E+04  0.14820283545E+04  0.50400001928E-02 0. -1.
        1   -1    0    0  501    0  0.00000000000E+00  0.00000000000E+00 -0.17343035487E+04  0.17343035487E+04  0.50400001928E-02 0.  1.
    10030    2    1    2    0    0  0.00000000000E+00  0.00000000000E+00 -0.25227519423E+03  0.32163319032E+04  0.32064229506E+04 0.  0.
        5    1    3    3  502    0 -0.13043071846E+04 -0.56979863911E+03 -0.86623694790E+03  0.16662161507E+04  0.46999998093E+01 0.  1.
       -5    1    3    3    0  502  0.13043071846E+04  0.56979863911E+03  0.61396175367E+03  0.15501157525E+04  0.46999998093E+01 0. -1.
</event>
<event>
 5   0  0.1282578E-06  0.3288431E+04  0.7818609E-02  0.8165845E-01
        1   -1    0    0  501    0  0.00000000000E+00  0.00000000000E+00  0.22463439011E+04  0.22463439011E+04  0.50400001928E-02 0.  1.
       -1   -1    0    0    0  501  0.00000000000E+00  0.00000000000E+00 -0.12034868745E+04  0.12034868745E+04  0.50400001928E-02 0. -1.
    10030    2    1    2    0    0  0.00000000000E+00  0.00000000000E+00  0.10428570266E+04  0.34498307757E+04  0.32884314806E+04 0.  0.
        4    1    3    3  502    0 -0.55472469922E+03  0.57914334764E+03 -0.98440184130E+03  0.12697145770E+04  0.12699999809E+01 0. -1.
       -4    1    3    3    0  502  0.55472469922E+03 -0.57914334764E+03  0.20272588679E+04  0.21801161986E+04  0.12699999809E+01 0.  1.
</event>
<event>
 5   0  0.1339825E-06  0.3309632E+04  0.7818609E-02  0.8160449E-01
       -1   -1    0    0    0  501  0.00000000000E+00  0.00000000000E+00  0.15064911649E+04  0.15064911649E+04  0.50400001928E-02 0.  1.
        1   -1    0    0  501    0  0.00000000000E+00  0.00000000000E+00 -0.18177449115E+04  0.18177449115E+04  0.50400001928E-02 0. -1.
    10030    2    1    2    0    0  0.00000000000E+00  0.00000000000E+00 -0.31125374660E+03  0.33242360764E+04  0.33096323960E+04 0.  0.
        3    1    3    3  502    0  0.43926076733E+02 -0.10964273377E+04 -0.13997749906E+04  0.17786096934E+04  0.10100000352E+00 0. -1.
       -3    1    3    3    0  502 -0.43926076733E+02  0.10964273377E+04  0.10885212440E+04  0.15456263830E+04  0.10100000352E+00 0.  1.
</event>
<event>
 5   0  0.1352708E-06  0.2710236E+04  0.7818609E-02  0.8331691E-01
        1   -1    0    0  501    0  0.00000000000E+00  0.00000000000E+00  0.30576117199E+04  0.30576117199E+04  0.50400001928E-02 0.  1.
       -1   -1    0    0    0  501  0.00000000000E+00  0.00000000000E+00 -0.60058155840E+03  0.60058155842E+03  0.50400001928E-02 0. -1.
    10030    2    1    2    0    0  0.00000000000E+00  0.00000000000E+00  0.24570301615E+04  0.36581932783E+04  0.27102363083E+04 0.  0.
        5    1    3    3  502    0  0.66096860695E+03 -0.29149427995E+03  0.27760327102E+04  0.28684888204E+04  0.46999998093E+01 0.  1.
       -5    1    3    3    0  502 -0.66096860695E+03  0.29149427995E+03 -0.31900254879E+03  0.78970445785E+03  0.46999998093E+01 0. -1.
</event>
<event>
 5   0  0.1405389E-06  0.3229643E+04  0.7818609E-02  0.8181032E-01
        1   -1    0    0  501    0  0.00000000000E+00  0.00000000000E+00  0.26605240324E+04  0.26605240324E+04  0.50400001928E-02 0.  1.
       -1   -1    0    0    0  501  0.00000000000E+00  0.00000000000E+00 -0.98012605397E+03  0.98012605398E+03  0.50400001928E-02 0. -1.
    10030    2    1    2    0    0  0.00000000000E+00  0.00000000000E+00  0.16803979785E+04  0.36406500864E+04  0.32296432753E+04 0.  0.
        1    1    3    3  502    0 -0.70644339686E+03  0.12190606027E+04 -0.49178946336E+02  0.14098189936E+04  0.50400001928E-02 0. -1.
       -1    1    3    3    0  502  0.70644339686E+03 -0.12190606027E+04  0.17295769248E+04  0.22308310928E+04  0.50400001928E-02 0.  1.
</event>
<event>
 5   0  0.4017247E-06  0.3252515E+04  0.7818609E-02  0.8175084E-01
       -2   -1    0    0    0  501  0.00000000000E+00  0.00000000000E+00  0.15202247398E+04  0.15202247398E+04  0.25500000920E-02 0.  1.
        2   -1    0    0  501    0  0.00000000000E+00  0.00000000000E+00 -0.17396863666E+04  0.17396863666E+04  0.25500000920E-02 0. -1.
    10030    2    1    2    0    0  0.00000000000E+00  0.00000000000E+00 -0.21946162680E+03  0.32599111063E+04  0.32525154905E+04 0.  0.
        1    1    3    3  502    0  0.71047891888E+03  0.82927179310E+03  0.10980994807E+04  0.15486427834E+04  0.50400001928E-02 0.  1.
       -1    1    3    3    0  502 -0.71047891888E+03 -0.82927179310E+03 -0.13175611075E+04  0.17112683229E+04  0.50400001928E-02 0. -1.
</event>
<event>
 5   0  0.1405389E-06  0.3050839E+04  0.7818609E-02  0.8229361E-01
        1   -1    0    0  501    0  0.00000000000E+00  0.00000000000E+00  0.13722857648E+04  0.13722857649E+04  0.50400001928E-02 0.  1.
       -1   -1    0    0    0  501  0.00000000000E+00  0.00000000000E+00 -0.16956412071E+04  0.16956412071E+04  0.50400001928E-02 0. -1.
    10030    2    1    2    0    0  0.00000000000E+00  0.00000000000E+00 -0.32335544223E+03  0.30679269719E+04  0.30508387639E+04 0.  0.
        1    1    3    3  502    0  0.14078711509E+04  0.19901345574E+03 -0.71721821346E+03  0.15925167186E+04  0.50400001928E-02 0. -1.
       -1    1    3    3    0  502 -0.14078711509E+04 -0.19901345574E+03  0.39386277123E+03  0.14754102534E+04  0.50400001928E-02 0.  1.
</event>
<event>
 5   0  0.3920487E-06  0.3348078E+04  0.7818609E-02  0.8150769E-01
        2   -1    0    0  501    0  0.00000000000E+00  0.00000000000E+00  0.19968280055E+04  0.19968280055E+04  0.25500000920E-02 0.  1.
       -2   -1    0    0    0  501  0.00000000000E+00  0.00000000000E+00 -0.14034288014E+04  0.14034288014E+04  0.25500000920E-02 0. -1.
    10030    2    1    2    0    0  0.00000000000E+00  0.00000000000E+00  0.59339920407E+03  0.34002568068E+04  0.33480776181E+04 0.  0.
        4    1    3    3  502    0  0.11941379223E+04 -0.11725345354E+04  0.33734466141E+03  0.17072216165E+04  0.12699999809E+01 0.  1.
       -4    1    3    3    0  502 -0.11941379223E+04  0.11725345354E+04  0.25605454266E+03  0.16930351904E+04  0.12699999809E+01 0. -1.
</event>
<event>
 5   0  0.3812379E-06  0.3231957E+04  0.7818609E-02  0.8180428E-01
       -2   -1    0    0    0  501  0.00000000000E+00  0.00000000000E+00  0.13804182248E+04  0.13804182248E+04  0.25500000920E-02 0. -1.
        2   -1    0    0  501    0  0.00000000000E+00  0.00000000000E+00 -0.18917360997E+04  0.18917360997E+04  0.25500000920E-02 0.  1.
    10030    2    1    2    0    0  0.00000000000E+00  0.00000000000E+00 -0.51131787495E+03  0.32721543245E+04  0.32319572946E+04 0.  0.
        5    1    3    3  502    0  0.22018884654E+03 -0.10361733011E+04  0.97985760821E+03  0.14430111782E+04  0.46999998093E+01 0.  1.
       -5    1    3    3    0  502 -0.22018884654E+03  0.10361733011E+04 -0.14911754832E+04  0.18291431463E+04  0.46999998093E+01 0. -1.
</event>
<event>
 5   0  0.1391878E-06  0.3301244E+04  0.7818609E-02  0.8162579E-01
       -1   -1    0    0    0  501  0.00000000000E+00  0.00000000000E+00  0.12785608734E+04  0.12785608734E+04  0.50400001928E-02 0. -1.
        1   -1    0    0  501    0  0.00000000000E+00  0.00000000000E+00 -0.21309531416E+04  0.21309531416E+04  0.50400001928E-02 0.  1.
    10030    2    1    2    0    0  0.00000000000E+00  0.00000000000E+00 -0.85239226822E+03  0.34095140150E+04  0.33012441957E+04 0.  0.
        2    1    3    3  502    0  0.10894207173E+04 -0.78781131162E+03 -0.14152407222E+04  0.19520221474E+04  0.25500000920E-02 0.  1.
       -2    1    3    3    0  502 -0.10894207173E+04  0.78781131162E+03  0.56284845395E+03  0.14574918676E+04  0.25500000920E-02 0. -1.
</event>
<event>
 5   0  0.1405389E-06  0.3136318E+04  0.7818609E-02  0.8205841E-01
       -1   -1    0    0    0  501  0.00000000000E+00  0.00000000000E+00  0.12287709392E+04  0.12287709392E+04  0.50400001928E-02 0.  1.
        1   -1    0    0  501    0  0.00000000000E+00  0.00000000000E+00 -0.20012858765E+04  0.20012858765E+04  0.50400001928E-02 0. -1.
    10030    2    1    2    0    0  0.00000000000E+00  0.00000000000E+00 -0.77251493733E+03  0.32300568157E+04  0.31363175388E+04 0.  0.
        1    1    3    3  502    0 -0.98331099362E+03  0.12164792866E+04 -0.50093894987E+03  0.16424561475E+04  0.50400001928E-02 0.  1.
       -1    1    3    3    0  502  0.98331099362E+03 -0.12164792866E+04 -0.27157598746E+03  0.15876006682E+04  0.50400001928E-02 0. -1.
</event>
<event>
 5   0  0.3671997E-06  0.3300777E+04  0.7818609E-02  0.8162698E-01
       -2   -1    0    0    0  501  0.00000000000E+00  0.00000000000E+00  0.17294595180E+04  0.17294595180E+04  0.25500000920E-02 0.  1.
        2   -1    0    0  501    0  0.00000000000E+00  0.00000000000E+00 -0.15749323072E+04  0.15749323072E+04  0.25500000920E-02 0. -1.
    10030    2    1    2    0    0  0.00000000000E+00  0.00000000000E+00  0.15452721080E+03  0.33043918251E+04  0.33007766776E+04 0.  0.
        2    1    3    3  502    0 -0.75974838585E+03 -0.14609736735E+04  0.18747498215E+03  0.16573498585E+04  0.25500000920E-02 0.  1.
       -2    1    3    3    0  502  0.75974838585E+03  0.14609736735E+04 -0.32947771354E+02  0.16470419667E+04  0.25500000920E-02 0. -1.
</event>
<event>
 5   0  0.1339825E-06  0.3283561E+04  0.7818609E-02  0.8167091E-01
       -1   -1    0    0    0  501  0.00000000000E+00  0.00000000000E+00  0.25486155101E+04  0.25486155101E+04  0.50400001928E-02 0. -1.
        1   -1    0    0  501    0  0.00000000000E+00  0.00000000000E+00 -0.10576106620E+04  0.10576106620E+04  0.50400001928E-02 0.  1.
    10030    2    1    2    0    0  0.00000000000E+00  0.00000000000E+00  0.14910048482E+04  0.36062261721E+04  0.32835608335E+04 0.  0.
        3    1    3    3  502    0 -0.70260397255E+03  0.58027519743E+03 -0.75437445835E+03  0.11829845648E+04  0.10100000352E+00 0.  1.
       -3    1    3    3    0  502  0.70260397255E+03 -0.58027519743E+03  0.22453793065E+04  0.24232416073E+04  0.10100000352E+00 0. -1.
</event>
<event>
 5   0  0.1339825E-06  0.3245492E+04  0.7818609E-02  0.8176905E-01
       -1   -1    0    0    0  501  0.00000000000E+00  0.00000000000E+00  0.14553787175E+04  0.14553787175E+04  0.50400001928E-02 0. -1.
        1   -1    0    0  501    0  0.00000000000E+00  0.00000000000E+00 -0.18093600187E+04  0.18093600187E+04  0.50400001928E-02 0.  1.
    10030    2    1    2    0    0  0.00000000000E+00  0.00000000000E+00 -0.35398130118E+03  0.32647387362E+04  0.32454916814E+04 0.  0.
        3    1    3    3  502    0  0.85108590365E+03  0.33505718054E+03  0.11713664702E+04  0.14861729198E+04  0.10100000352E+00 0. -1.
       -3    1    3    3    0  502 -0.85108590365E+03 -0.33505718054E+03 -0.15253477714E+04  0.17785658165E+04  0.10100000352E+00 0.  1.
</event>
<event>
 5   0  0.3671997E-06  0.3372635E+04  0.7818609E-02  0.8144655E-01
        2   -1    0    0  501    0  0.00000000000E+00  0.00000000000E+00  0.22381730131E+04  0.22381730131E+04  0.25500000920E-02 0.  1.
       -2   -1    0    0    0  501  0.00000000000E+00  0.00000000000E+00 -0.12705305790E+04  0.12705305790E+04  0.25500000920E-02 0. -1.
    10030    2    1    2    0    0  0.00000000000E+00  0.00000000000E+00  0.96764243414E+03  0.35087035921E+04  0.33726353223E+04 0.  0.
        2    1    3    3  502    0 -0.57469009472E+03 -0.60627807365E+03 -0.10401420283E+04  0.13340679318E+04  0.25500000920E-02 0. -1.
       -2    1    3    3    0  502  0.57469009472E+03  0.60627807365E+03  0.20077844624E+04  0.21746356603E+04  0.25500000920E-02 0.  1.
</event>
<event>
 5   0  0.1352708E-06  0.3319128E+04  0.7818609E-02  0.8158045E-01
        1   -1    0    0  501    0  0.00000000000E+00  0.00000000000E+00  0.33295242461E+04  0.33295242461E+04  0.50400001928E-02 0. -1.
       -1   -1    0    0    0  501  0.00000000000E+00  0.00000000000E+00 -0.82719124139E+03  0.82719124141E+03  0.50400001928E-02 0.  1.
    10030    2    1    2    0    0  0.00000000000E+00  0.00000000000E+00  0.25023330047E+04  0.41567154875E+04  0.33191283762E+04 0.  0.
        5    1    3    3  502    0 -0.18962291856E+03 -0.14032715473E+04  0.23350138522E+04  0.27308313142E+04  0.46999998093E+01 0. -1.
       -5    1    3    3    0  502  0.18962291856E+03  0.14032715473E+04  0.16731915247E+03  0.14258841733E+04  0.46999998093E+01 0.  1.
</event>
<event>
 5   0  0.3896210E-06  0.3313945E+04  0.7818609E-02  0.8159356E-01
       -2   -1    0    0    0  501  0.00000000000E+00  0.00000000000E+00  0.10137243241E+04  0.10137243241E+04  0.25500000920E-02 0. -1.
        2   -1    0    0  501    0  0.00000000000E+00  0.00000000000E+00 -0.27083866987E+04  0.27083866987E+04  0.25500000920E-02 0.  1.
    10030    2    1    2    0    0  0.00000000000E+00  0.00000000000E+00 -0.16946623746E+04  0.37221110228E+04  0.33139447645E+04 0.  0.
        3    1    3    3  502    0 -0.81418982703E+03  0.90535659530E+01  0.77352284500E+03  0.11230871041E+04  0.10100000352E+00 0. -1.
       -3    1    3    3    0  502  0.81418982703E+03 -0.90535659530E+01 -0.24681852196E+04  0.25990239187E+04  0.10100000352E+00 0.  1.
</event>
<event>
 5   0  0.3896210E-06  0.3278868E+04  0.7818609E-02  0.8168293E-01
       -2   -1    0    0    0  501  0.00000000000E+00  0.00000000000E+00  0.11035458798E+04  0.11035458798E+04  0.25500000920E-02 0.  1.
        2   -1    0    0  501    0  0.00000000000E+00  0.00000000000E+00 -0.24355519365E+04  0.24355519365E+04  0.25500000920E-02 0. -1.
    10030    2    1    2    0    0  0.00000000000E+00  0.00000000000E+00 -0.13320060568E+04  0.35390978163E+04  0.32788676732E+04 0.  0.
        3    1    3    3  502    0 -0.10734791077E+04 -0.70223293476E+03  0.43593108787E+03  0.13548152689E+04  0.10100000352E+00 0.  1.
       -3    1    3    3    0  502  0.10734791077E+04  0.70223293476E+03 -0.17679371446E+04  0.21842825474E+04  0.10100000352E+00 0. -1.
</event>
<event>
 5   0  0.3671997E-06  0.3255243E+04  0.7818609E-02  0.8174378E-01
       -2   -1    0    0    0  501  0.00000000000E+00  0.00000000000E+00  0.14196181326E+04  0.14196181326E+04  0.25500000920E-02 0. -1.
        2   -1    0    0  501    0  0.00000000000E+00  0.00000000000E+00 -0.18661013952E+04  0.18661013952E+04  0.25500000920E-02 0.  1.
    10030    2    1    2    0    0  0.00000000000E+00  0.00000000000E+00 -0.44648326265E+03  0.32857195278E+04  0.32552427730E+04 0.  0.
        2    1    3    3  502    0  0.28199672930E+03  0.92134694230E+03  0.11008129025E+04  0.14629392980E+04  0.25500000920E-02 0. -1.
       -2    1    3    3    0  502 -0.28199672930E+03 -0.92134694230E+03 -0.15472961651E+04  0.18227802298E+04  0.25500000920E-02 0.  1.
</event>
<event>
 5   0  0.1282578E-06  0.3267999E+04  0.7818609E-02  0.8171086E-01
        1   -1    0    0  501    0  0.00000000000E+00  0.00000000000E+00  0.19553223114E+04  0.19553223114E+04  0.50400001928E-02 0.  1.
       -1   -1    0    0    0  501  0.00000000000E+00  0.00000000000E+00 -0.13654806630E+04  0.13654806630E+04  0.50400001928E-02 0. -1.
    10030    2    1    2    0    0  0.00000000000E+00  0.00000000000E+00  0.58984164833E+03  0.33208029744E+04  0.32679992694E+04 0.  0.
        4    1    3    3  502    0  0.11768819356E+04  0.11312388031E+04  0.22163849066E+03  0.16473850654E+04  0.12699999809E+01 0. -1.
       -4    1    3    3    0  502 -0.11768819356E+04 -0.11312388031E+04  0.36820315767E+03  0.16734179091E+04  0.12699999809E+01 0.  1.
</event>
<event>
 5   0  0.4017247E-06  0.3386118E+04  0.7818609E-02  0.8141322E-01
       -2   -1    0    0    0  501  0.00000000000E+00  0.00000000000E+00  0.34264456602E+04  0.34264456602E+04  0.25500000920E-02 0. -1.
        2   -1    0    0  501    0  0.00000000000E+00  0.00000000000E+00 -0.83656636187E+03  0.83656636187E+03  0.25500000920E-02 0.  1.
    10030    2    1    2    0    0  0.00000000000E+00  0.00000000000E+00  0.25898792983E+04  0.42630120221E+04  0.33861182378E+04 0.  0.
        1    1    3    3  502    0  0.79164801762E+02  0.11565622903E+04 -0.25851871881E+03  0.11877437962E+04  0.50400001928E-02 0.  1.
       -1    1    3    3    0  502 -0.79164801762E+02 -0.11565622903E+04  0.28483980171E+04  0.30752682259E+04  0.50400001928E-02 0. -1.
</event>
<event>
 5   0  0.3671997E-06  0.3068602E+04  0.7818609E-02  0.8224408E-01
        2   -1    0    0  501    0  0.00000000000E+00  0.00000000000E+00  0.17723686078E+04  0.17723686078E+04  0.25500000920E-02 0. -1.
       -2   -1    0    0    0  501  0.00000000000E+00  0.00000000000E+00 -0.13282108026E+04  0.13282108026E+04  0.25500000920E-02 0.  1.
    10030    2    1    2    0    0  0.00000000000E+00  0.00000000000E+00  0.44415780527E+03  0.31005794104E+04  0.30686017214E+04 0.  0.
        2    1    3    3  502    0 -0.66849547798E+03  0.97866324677E+03 -0.76245234452E+03  0.14092556661E+04  0.25500000920E-02 0.  1.
       -2    1    3    3    0  502  0.66849547798E+03 -0.97866324677E+03  0.12066101498E+04  0.16913237444E+04  0.25500000920E-02 0. -1.
</event>
<event>
 5   0  0.4017247E-06  0.3276746E+04  0.7818609E-02  0.8168838E-01
       -2   -1    0    0    0  501  0.00000000000E+00  0.00000000000E+00  0.14917338963E+04  0.14917338963E+04  0.25500000920E-02 0. -1.
        2   -1    0    0  501    0  0.00000000000E+00  0.00000000000E+00 -0.17994269604E+04  0.17994269604E+04  0.25500000920E-02 0.  1.
    10030    2    1    2    0    0  0.00000000000E+00  0.00000000000E+00 -0.30769306417E+03  0.32911608567E+04  0.32767460632E+04 0.  0.
        1    1    3    3  502    0  0.13593156318E+04  0.88412580928E+03 -0.38907491267E+03  0.16675721037E+04  0.50400001928E-02 0.  1.
       -1    1    3    3    0  502 -0.13593156318E+04 -0.88412580928E+03  0.81381848492E+02  0.16235887530E+04  0.50400001928E-02 0. -1.
</event>
<event>
 5   0  0.3896210E-06  0.2797251E+04  0.7818609E-02  0.8304122E-01
        2   -1    0    0  501    0  0.00000000000E+00  0.00000000000E+00  0.10933582067E+04  0.10933582067E+04  0.25500000920E-02 0. -1.
       -2   -1    0    0    0  501  0.00000000000E+00  0.00000000000E+00 -0.17891239075E+04  0.17891239075E+04  0.25500000920E-02 0.  1.
    10030    2    1    2    0    0  0.00000000000E+00  0.00000000000E+00 -0.69576570088E+03  0.28824821142E+04  0.27972510127E+04 0.  0.
        3    1    3    3  502    0  0.35313132422E+03 -0.59064283978E+03  0.90683505480E+03  0.11383806583E+04  0.10100000352E+00 0. -1.
       -3    1    3    3    0  502 -0.35313132422E+03  0.59064283978E+03 -0.16026007557E+04  0.17441014559E+04  0.10100000352E+00 0.  1.
</event>
<event>
 5   0  0.1391878E-06  0.2464630E+04  0.7818609E-02  0.8415696E-01
        1   -1    0    0  501    0  0.00000000000E+00  0.00000000000E+00  0.13912475379E+04  0.13912475379E+04  0.50400001928E-02 0. -1.
       -1   -1    0    0    0  501  0.00000000000E+00  0.00000000000E+00 -0.10915388974E+04  0.10915388974E+04  0.50400001928E-02 0.  1.
    10030    2    1    2    0    0  0.00000000000E+00  0.00000000000E+00  0.29970864051E+03  0.24827864354E+04  0.24646304418E+04 0.  0.
        2    1    3    3  502    0  0.87103040579E+03  0.41089500445E+03 -0.62462138196E+03  0.11479026715E+04  0.25500000920E-02 0.  1.
       -2    1    3    3    0  502 -0.87103040579E+03 -0.41089500445E+03  0.92433002247E+03  0.13348837638E+04  0.25500000920E-02 0. -1.
</event>
<event>
 5   0  0.4017247E-06  0.3309998E+04  0.7818609E-02  0.8160356E-01
       -2   -1    0    0    0  501  0.00000000000E+00  0.00000000000E+00  0.10612079073E+04  0.10612079073E+04  0.25500000920E-02 0. -1.
        2   -1    0    0  501    0  0.00000000000E+00  0.00000000000E+00 -0.25810415853E+04  0.25810415853E+04  0.25500000920E-02 0.  1.
    10030    2    1    2    0    0  0.00000000000E+00  0.00000000000E+00 -0.15198336779E+04  0.36422494926E+04  0.33099980299E+04 0.  0.
        1    1    3    3  502    0 -0.19556240073E+03  0.12572578474E+04  0.40465541062E+03  0.13351733778E+04  0.50400001928E-02 0. -1.
       -1    1    3    3    0  502  0.19556240073E+03 -0.12572578474E+04 -0.19244890886E+04  0.23070761148E+04  0.50400001928E-02 0.  1.
</event>
<event>
 5   0  0.3920487E-06  0.3337732E+04  0.7818609E-02  0.8153360E-01
       -2   -1    0    0    0  501  0.00000000000E+00  0.00000000000E+00  0.14355338289E+04  0.14355338289E+04  0.25500000920E-02 0.  1.
        2   -1    0    0  501    0  0.00000000000E+00  0.00000000000E+00 -0.19401235398E+04  0.19401235398E+04  0.25500000920E-02 0. -1.
    10030    2    1    2    0    0  0.00000000000E+00  0.00000000000E+00 -0.50458971084E+03  0.33756573687E+04  0.33377315492E+04 0.  0.
        4    1    3    3  502    0  0.58346549643E+03 -0.15607873155E+04 -0.34620646845E+03  0.17018664934E+04  0.12699999809E+01 0. -1.
       -4    1    3    3    0  502 -0.58346549643E+03  0.15607873155E+04 -0.15838324239E+03  0.16737908753E+04  0.12699999809E+01 0.  1.
</event>
<event>
 5   0  0.1405389E-06  0.3387367E+04  0.7818609E-02  0.8141014E-01
       -1   -1    0    0    0  501  0.00000000000E+00  0.00000000000E+00  0.19772953800E+04  0.19772953800E+04  0.50400001928E-02 0. -1.
        1   -1    0    0  501    0  0.00000000000E+00  0.00000000000E+00 -0.14507516035E+04  0.14507516035E+04  0.50400001928E-02 0.  1.
    10030    2    1    2    0    0  0.00000000000E+00  0.00000000000E+00  0.52654377647E+03  0.34280469835E+04  0.33873673808E+04 0.  0.
        1    1    3    3  502    0  0.98277340336E+02 -0.19051349561E+03 -0.14369670176E+04  0.14528688989E+04  0.50400001928E-02 0.  1.
       -1    1    3    3    0  502 -0.98277340336E+02  0.19051349561E+03  0.19635107941E+04  0.19751780847E+04  0.50400001928E-02 0. -1.
</event>
<event>
 5   0  0.1391878E-06  0.3326859E+04  0.7818609E-02  0.8156094E-01
        1   -1    0    0  501    0  0.00000000000E+00  0.00000000000E+00  0.16981669796E+04  0.16981669797E+04  0.50400001928E-02 0.  1.
       -1   -1    0    0    0  501  0.00000000000E+00  0.00000000000E+00 -0.16294028209E+04  0.16294028209E+04  0.50400001928E-02 0. -1.
    10030    2    1    2    0    0  0.00000000000E+00  0.00000000000E+00  0.68764158712E+02  0.33275698006E+04  0.33268592198E+04 0.  0.
        2    1    3    3  502    0 -0.15043333293E+04  0.63522064889E+03  0.35142616699E+03  0.16703366096E+04  0.25500000920E-02 0.  1.
       -2    1    3    3    0  502  0.15043333293E+04 -0.63522064889E+03 -0.28266200828E+03  0.16572331910E+04  0.25500000920E-02 0. -1.
</event>
<event>
 5   0  0.1352708E-06  0.3248296E+04  0.7818609E-02  0.8176177E-01
       -1   -1    0    0    0  501  0.00000000000E+00  0.00000000000E+00  0.12626872848E+04  0.12626872848E+04  0.50400001928E-02 0. -1.
        1   -1    0    0  501    0  0.00000000000E+00  0.00000000000E+00 -0.20890820319E+04  0.20890820319E+04  0.50400001928E-02 0.  1.
    10030    2    1    2    0    0  0.00000000000E+00  0.00000000000E+00 -0.82639474712E+03  0.33517693167E+04  0.32482963650E+04 0.  0.
        5    1    3    3  502    0  0.10944261224E+03  0.71576989738E+03  0.10869115194E+04  0.13060256400E+04  0.46999998093E+01 0. -1.
       -5    1    3    3    0  502 -0.10944261224E+03 -0.71576989738E+03 -0.19133062665E+04  0.20457436767E+04  0.46999998093E+01 0.  1.
</event>
<event>
 5   0  0.1259875E-06  0.3366671E+04  0.7818609E-02  0.8146135E-01
       -3   -1    0    0    0  501  0.00000000000E+00  0.00000000000E+00  0.12520807132E+04  0.12520807173E+04  0.10100000352E+00 0. -1.
        3   -1    0    0  501    0  0.00000000000E+00  0.00000000000E+00 -0.22631275760E+04  0.22631275783E+04  0.10100000352E+00 0.  1.
    10030    2    1    2    0    0  0.00000000000E+00  0.00000000000E+00 -0.10110468628E+04  0.35152082956E+04  0.33666709971E+04 0.  0.
        5    1    3    3  502    0  0.10376873281E+04  0.73911509478E+03  0.64325060842E+03  0.14271928915E+04  0.46999998093E+01 0. -1.
       -5    1    3    3    0  502 -0.10376873281E+04 -0.73911509478E+03 -0.16542974713E+04  0.20880154041E+04  0.46999998093E+01 0.  1.
</event>
<event>
 5   0  0.1339825E-06  0.3282440E+04  0.7818609E-02  0.8167378E-01
       -1   -1    0    0    0  501  0.00000000000E+00  0.00000000000E+00  0.18077877836E+04  0.18077877836E+04  0.50400001928E-02 0. -1.
        1   -1    0    0  501    0  0.00000000000E+00  0.00000000000E+00 -0.14899995404E+04  0.14899995404E+04  0.50400001928E-02 0.  1.
    10030    2    1    2    0    0  0.00000000000E+00  0.00000000000E+00  0.31778824323E+03  0.32977873241E+04  0.32824399259E+04 0.  0.
        3    1    3    3  502    0 -0.12916382578E+04  0.93079102533E+03 -0.24159436976E+03  0.16103009568E+04  0.10100000352E+00 0. -1.
       -3    1    3    3    0  502  0.12916382578E+04 -0.93079102533E+03  0.55938261299E+03  0.16874863673E+04  0.10100000352E+00 0.  1.
</event>
<event>
 5   0  0.3920487E-06  0.3401525E+04  0.7818609E-02  0.8137532E-01
        2   -1    0    0  501    0  0.00000000000E+00  0.00000000000E+00  0.16609343513E+04  0.16609343513E+04  0.25500000920E-02 0.  1.
       -2   -1    0    0    0  501  0.00000000000E+00  0.00000000000E+00 -0.17415454455E+04  0.17415454455E+04  0.25500000920E-02 0. -1.
    10030    2    1    2    0    0  0.00000000000E+00  0.00000000000E+00 -0.80611094162E+02  0.34024797968E+04  0.34015247492E+04 0.  0.
        4    1    3    3  502    0  0.45424340990E+03 -0.89684855505E+03 -0.14125203835E+04  0.17337502279E+04  0.12699999809E+01 0. -1.
       -4    1    3    3    0  502 -0.45424340990E+03  0.89684855505E+03  0.13319092893E+04  0.16687295689E+04  0.12699999809E+01 0.  1.
</event>
<event>
 5   0  0.1405389E-06  0.3318339E+04  0.7818609E-02  0.8158245E-01
        1   -1    0    0  501    0  0.00000000000E+00  0.00000000000E+00  0.17084311900E+04  0.17084311901E+04  0.50400001928E-02 0. -1.
       -1   -1    0    0    0  501  0.00000000000E+00  0.00000000000E+00 -0.16113282431E+04  0.16113282431E+04  0.50400001928E-02 0.  1.
    10030    2    1    2    0    0  0.00000000000E+00  0.00000000000E+00  0.97102946920E+02  0.33197594332E+04  0.33183389989E+04 0.  0.
        1    1    3    3  502    0 -0.15992217537E+04 -0.43332123004E+03  0.13557101554E+03  0.16624250378E+04  0.50400001928E-02 0.  1.
       -1    1    3    3    0  502  0.15992217537E+04  0.43332123004E+03 -0.38468068616E+02  0.16573343954E+04  0.50400001928E-02 0. -1.
</event>
<event>
 5   0  0.3812379E-06  0.3105930E+04  0.7818609E-02  0.8214112E-01
       -2   -1    0    0    0  501  0.00000000000E+00  0.00000000000E+00  0.14520163167E+04  0.14520163167E+04  0.25500000920E-02 0. -1.
        2   -1    0    0  501    0  0.00000000000E+00  0.00000000000E+00 -0.16609314599E+04  0.16609314599E+04  0.25500000920E-02 0.  1.
    10030    2    1    2    0    0  0.00000000000E+00  0.00000000000E+00 -0.20891514320E+03  0.31129477765E+04  0.31059295424E+04 0.  0.
        5    1    3    3  502    0  0.22810267568E+02  0.10358894540E+04 -0.12638299088E+04  0.16342813091E+04  0.46999998093E+01 0.  1.
       -5    1    3    3    0  502 -0.22810267568E+02 -0.10358894540E+04  0.10549147656E+04  0.14786664674E+04  0.46999998093E+01 0. -1.
</event>
<event>
 5   0  0.3812379E-06  0.2300267E+04  0.7818609E-02  0.8477816E-01
       -2   -1    0    0    0  501  0.00000000000E+00  0.00000000000E+00  0.70312553580E+03  0.70312553580E+03  0.25500000920E-02 0. -1.
        2   -1    0    0  501    0  0.00000000000E+00  0.00000000000E+00 -0.18813247975E+04  0.18813247975E+04  0.25500000920E-02 0.  1.
    10030    2    1    2    0    0  0.00000000000E+00  0.00000000000E+00 -0.11781992617E+04  0.25844503333E+04  0.23002673812E+04 0.  0.
        5    1    3    3  502    0 -0.38948418083E+03  0.10807951264E+04 -0.52787544218E+03  0.12643142825E+04  0.46999998093E+01 0.  1.
       -5    1    3    3    0  502  0.38948418083E+03 -0.10807951264E+04 -0.65032381953E+03  0.13201360508E+04  0.46999998093E+01 0. -1.
</event>
<event>
 5   0  0.3812379E-06  0.3350278E+04  0.7818609E-02  0.8150219E-01
        2   -1    0    0  501    0  0.00000000000E+00  0.00000000000E+00  0.17930899815E+04  0.17930899815E+04  0.25500000920E-02 0. -1.
       -2   -1    0    0    0  501  0.00000000000E+00  0.00000000000E+00 -0.15649466368E+04  0.15649466368E+04  0.25500000920E-02 0.  1.
    10030    2    1    2    0    0  0.00000000000E+00  0.00000000000E+00  0.22814334473E+03  0.33580366184E+04  0.33502776817E+04 0.  0.
        5    1    3    3  502    0 -0.95757313609E+03  0.88148972021E+03 -0.94293097931E+03  0.16072060725E+04  0.46999998093E+01 0.  1.
       -5    1    3    3    0  502  0.95757313609E+03 -0.88148972021E+03  0.11710743240E+04  0.17508305458E+04  0.46999998093E+01 0. -1.
</event>
<event>
 5   0  0.3671997E-06  0.3296393E+04  0.7818609E-02  0.8163814E-01
       -2   -1    0    0    0  501  0.00000000000E+00  0.00000000000E+00  0.13853373666E+04  0.13853373666E+04  0.25500000920E-02 0. -1.
        2   -1    0    0  501    0  0.00000000000E+00  0.00000000000E+00 -0.19609310203E+04  0.19609310203E+04  0.25500000920E-02 0.  1.
    10030    2    1    2    0    0  0.00000000000E+00  0.00000000000E+00 -0.57559365374E+03  0.33462683869E+04  0.32963925832E+04 0.  0.
        2    1    3    3  502    0 -0.12191816747E+04  0.24093222074E+03  0.81121898029E+03  0.14840918182E+04  0.25500000920E-02 0. -1.
       -2    1    3    3    0  502  0.12191816747E+04 -0.24093222074E+03 -0.13868126340E+04  0.18621765686E+04  0.25500000920E-02 0.  1.
</event>
<event>
 5   0  0.1282578E-06  0.3287224E+04  0.7818609E-02  0.8166154E-01
        1   -1    0    0  501    0  0.00000000000E+00  0.00000000000E+00  0.17054203273E+04  0.17054203273E+04  0.50400001928E-02 0. -1.
       -1   -1    0    0    0  501  0.00000000000E+00  0.00000000000E+00 -0.15840433083E+04  0.15840433083E+04  0.50400001928E-02 0.  1.
    10030    2    1    2    0    0  0.00000000000E+00  0.00000000000E+00  0.12137701898E+03  0.32894636356E+04  0.32872235441E+04 0.  0.
        4    1    3    3  502    0 -0.15604543669E+04 -0.38985125729E+03 -0.27785581073E+03  0.16322399635E+04  0.12699999809E+01 0.  1.
       -4    1    3    3    0  502  0.15604543669E+04  0.38985125729E+03  0.39923282971E+03  0.16572236721E+04  0.12699999809E+01 0. -1.
</event>
<event>
 5   0  0.4017247E-06  0.3326401E+04  0.7818609E-02  0.8156210E-01
       -2   -1    0    0    0  501  0.00000000000E+00  0.00000000000E+00  0.18375597368E+04  0.18375597368E+04  0.25500000920E-02 0.  1.
        2   -1    0    0  501    0  0.00000000000E+00  0.00000000000E+00 -0.15053859942E+04  0.15053859942E+04  0.25500000920E-02 0. -1.
    10030    2    1    2    0    0  0.00000000000E+00  0.00000000000E+00  0.33217374257E+03  0.33429457310E+04  0.33264014738E+04 0.  0.
        1    1    3    3  502    0  0.13448905286E+03 -0.13693724513E+04 -0.77288794051E+03  0.15781710884E+04  0.50400001928E-02 0. -1.
       -1    1    3    3    0  502 -0.13448905286E+03  0.13693724513E+04  0.11050616831E+04  0.17647746426E+04  0.50400001928E-02 0.  1.
</event>
<event>
 5   0  0.3812379E-06  0.3267899E+04  0.7818609E-02  0.8171112E-01
        2   -1    0    0  501    0  0.00000000000E+00  0.00000000000E+00  0.22261619797E+04  0.22261619797E+04  0.25500000920E-02 0. -1.
       -2   -1    0    0    0  501  0.00000000000E+00  0.00000000000E+00 -0.11992794855E+04  0.11992794855E+04  0.25500000920E-02 0.  1.
    10030    2    1    2    0    0  0.00000000000E+00  0.00000000000E+00  0.10268824942E+04  0.34254414652E+04  0.32678986482E+04 0.  0.
        5    1    3    3  502    0  0.14235465377E+04  0.54585400036E+03 -0.10253394305E+03  0.15280630334E+04  0.46999998093E+01 0.  1.
       -5    1    3    3    0  502 -0.14235465377E+04 -0.54585400036E+03  0.11294164372E+04  0.18973784318E+04  0.46999998093E+01 0. -1.
</event>
<event>
 5   0  0.3920487E-06  0.3320877E+04  0.7818609E-02  0.8157603E-01
        2   -1    0    0  501    0  0.00000000000E+00  0.00000000000E+00  0.19532777718E+04  0.19532777718E+04  0.25500000920E-02 0.  1.
       -2   -1    0    0    0  501  0.00000000000E+00  0.00000000000E+00 -0.14115024932E+04  0.14115024932E+04  0.25500000920E-02 0. -1.
    10030    2    1    2    0    0  0.00000000000E+00  0.00000000000E+00  0.54177527862E+03  0.33647802650E+04  0.33208772605E+04 0.  0.
        4    1    3    3  502    0 -0.15804169802E+04 -0.35226740956E+03 -0.10173047826E+03  0.16223935596E+04  0.12699999809E+01 0. -1.
       -4    1    3    3    0  502  0.15804169802E+04  0.35226740956E+03  0.64350575688E+03  0.17423867054E+04  0.12699999809E+01 0.  1.
</event>
<event>
 5   0  0.3896210E-06  0.3266143E+04  0.7818609E-02  0.8171564E-01
       -2   -1    0    0    0  501  0.00000000000E+00  0.00000000000E+00  0.10391377176E+04  0.10391377176E+04  0.25500000920E-02 0.  1.
        2   -1    0    0  501    0  0.00000000000E+00  0.00000000000E+00 -0.25664771611E+04  0.25664771611E+04  0.25500000920E-02 0. -1.
    10030    2    1    2    0    0  0.00000000000E+00  0.00000000000E+00 -0.15273394436E+04  0.36056148787E+04  0.32661434258E+04 0.  0.
        3    1    3    3  502    0  0.10083201498E+04  0.12579698485E+04 -0.47637983406E+03  0.16811113648E+04  0.10100000352E+00 0.  1.
       -3    1    3    3    0  502 -0.10083201498E+04 -0.12579698485E+04 -0.10509596095E+04  0.19245035139E+04  0.10100000352E+00 0. -1.
</event>
<event>
 5   0  0.3812379E-06  0.3249813E+04  0.7818609E-02  0.8175784E-01
       -2   -1    0    0    0  501  0.00000000000E+00  0.00000000000E+00  0.13418988257E+04  0.13418988257E+04  0.25500000920E-02 0.  1.
        2   -1    0    0  501    0  0.00000000000E+00  0.00000000000E+00 -0.19676004135E+04  0.19676004135E+04  0.25500000920E-02 0. -1.
    10030    2    1    2    0    0  0.00000000000E+00  0.00000000000E+00 -0.62570158787E+03  0.33094992392E+04  0.32498127234E+04 0.  0.
        5    1    3    3  502    0  0.31638266933E+03 -0.15547215051E+04 -0.67006605987E+03  0.17222855647E+04  0.46999998093E+01 0. -1.
       -5    1    3    3    0  502 -0.31638266933E+03  0.15547215051E+04  0.44364472008E+02  0.15872136744E+04  0.46999998093E+01 0.  1.
</event>
<event>
 5   0  0.1282578E-06  0.3094143E+04  0.7818609E-02  0.8217347E-01
       -1   -1    0    0    0  501  0.00000000000E+00  0.00000000000E+00  0.25802533866E+04  0.25802533866E+04  0.50400001928E-02 0.  1.
        1   -1    0    0  501    0  0.00000000000E+00  0.00000000000E+00 -0.92759506677E+03  0.92759506678E+03  0.50400001928E-02 0. -1.
    10030    2    1    2    0    0  0.00000000000E+00  0.00000000000E+00  0.16526583199E+04  0.35078484534E+04  0.30941430558E+04 0.  0.
        4    1    3    3  502    0 -0.11774770436E+03 -0.12620386836E+04 -0.17930224957E+03  0.12801394730E+04  0.12699999809E+01 0. -1.
       -4    1    3    3    0  502  0.11774770436E+03  0.12620386836E+04  0.18319605694E+04  0.22277089804E+04  0.12699999809E+01 0.  1.
</event>
<event>
 5   0  0.1339825E-06  0.3371304E+04  0.7818609E-02  0.8144985E-01
        1   -1    0    0  501    0  0.00000000000E+00  0.00000000000E+00  0.17296819290E+04  0.17296819290E+04  0.50400001928E-02 0.  1.
       -1   -1    0    0    0  501  0.00000000000E+00  0.00000000000E+00 -0.16427424040E+04  0.16427424041E+04  0.50400001928E-02 0. -1.
    10030    2    1    2    0    0  0.00000000000E+00  0.00000000000E+00  0.86939524919E+02  0.33724243330E+04  0.33713035166E+04 0.  0.
        3    1    3    3  502    0  0.13010670380E+04  0.65229149751E+03 -0.80720239930E+03  0.16642822353E+04  0.10100000352E+00 0. -1.
       -3    1    3    3    0  502 -0.13010670380E+04 -0.65229149751E+03  0.89414192422E+03  0.17081420977E+04  0.10100000352E+00 0.  1.
</event>
<event>
 5   0  0.1352708E-06  0.3213097E+04  0.7818609E-02  0.8185367E-01
        1   -1    0    0  501    0  0.00000000000E+00  0.00000000000E+00  0.17529227000E+04  0.17529227000E+04  0.50400001928E-02 0.  1.
       -1   -1    0    0    0  501  0.00000000000E+00  0.00000000000E+00 -0.14723972956E+04  0.14723972956E+04  0.50400001928E-02 0. -1.
    10030    2    1    2    0    0  0.00000000000E+00  0.00000000000E+00  0.28052540439E+03  0.32253199957E+04  0.32130973487E+04 0.  0.
        5    1    3    3  502    0  0.10669121553E+04  0.22993413602E+03  0.13236472847E+04  0.17155860452E+04  0.46999998093E+01 0.  1.
       -5    1    3    3    0  502 -0.10669121553E+04 -0.22993413602E+03 -0.10431218803E+04  0.15097339505E+04  0.46999998093E+01 0. -1.
</event>
<event>
 5   0  0.4017247E-06  0.2108875E+04  0.7818609E-02  0.8557344E-01
        2   -1    0    0  501    0  0.00000000000E+00  0.00000000000E+00  0.27497557113E+04  0.27497557113E+04  0.25500000920E-02 0. -1.
       -2   -1    0    0    0  501  0.00000000000E+00  0.00000000000E+00 -0.40434091760E+03  0.40434091761E+03  0.25500000920E-02 0.  1.
    10030    2    1    2    0    0  0.00000000000E+00  0.00000000000E+00  0.23454147936E+04  0.31540966289E+04  0.21088752903E+04 0.  0.
        1    1    3    3  502    0 -0.13751477737E+03  0.10372434400E+04  0.97738891866E+03  0.14318077267E+04  0.50400001928E-02 0.  1.
       -1    1    3    3    0  502  0.13751477737E+03 -0.10372434400E+04  0.13680258750E+04  0.17222889022E+04  0.50400001928E-02 0. -1.
</event>
<event>
 5   0  0.3812379E-06  0.3025860E+04  0.7818609E-02  0.8236385E-01
       -2   -1    0    0    0  501  0.00000000000E+00  0.00000000000E+00  0.11133826733E+04  0.11133826733E+04  0.25500000920E-02 0. -1.
        2   -1    0    0  501    0  0.00000000000E+00  0.00000000000E+00 -0.20558591056E+04  0.20558591056E+04  0.25500000920E-02 0.  1.
    10030    2    1    2    0    0  0.00000000000E+00  0.00000000000E+00 -0.94247643235E+03  0.31692417789E+04  0.30258604772E+04 0.  0.
        5    1    3    3  502    0  0.28120077387E+03 -0.14708622609E+04 -0.69691548335E+03  0.16517333158E+04  0.46999998093E+01 0.  1.
       -5    1    3    3    0  502 -0.28120077387E+03  0.14708622609E+04 -0.24556094900E+03  0.15175084630E+04  0.46999998093E+01 0. -1.
</event>
<event>
 5   0  0.1352708E-06  0.3357542E+04  0.7818609E-02  0.8148406E-01
       -1   -1    0    0    0  501  0.00000000000E+00  0.00000000000E+00  0.16309530160E+04  0.16309530160E+04  0.50400001928E-02 0. -1.
        1   -1    0    0  501    0  0.00000000000E+00  0.00000000000E+00 -0.17279914215E+04  0.17279914215E+04  0.50400001928E-02 0.  1.
    10030    2    1    2    0    0  0.00000000000E+00  0.00000000000E+00 -0.97038405488E+02  0.33589444375E+04  0.33575424468E+04 0.  0.
        5    1    3    3  502    0 -0.60185801027E+02  0.52858795570E+02 -0.17260719091E+04  0.17279359676E+04  0.46999998093E+01 0.  1.
       -5    1    3    3    0  502  0.60185801027E+02 -0.52858795570E+02  0.16290335036E+04  0.16310084699E+04  0.46999998093E+01 0. -1.
</event>
<event>
 5   0  0.1405389E-06  0.2940343E+04  0.7818609E-02  0.8260974E-01
        1   -1    0    0  501    0  0.00000000000E+00  0.00000000000E+00  0.13332601438E+04  0.13332601438E+04  0.50400001928E-02 0.  1.
       -1   -1    0    0    0  501  0.00000000000E+00  0.00000000000E+00 -0.16211426594E+04  0.16211426594E+04  0.50400001928E-02 0. -1.
    10030    2    1    2    0    0  0.00000000000E+00  0.00000000000E+00 -0.28788251554E+03  0.29544028032E+04  0.29403434461E+04 0.  0.
        1    1    3    3  502    0  0.11194663669E+04 -0.14469449797E+02 -0.11013829123E+04  0.15704963009E+04  0.50400001928E-02 0. -1.
       -1    1    3    3    0  502 -0.11194663669E+04  0.14469449797E+02  0.81350039681E+03  0.13839065023E+04  0.50400001928E-02 0.  1.
</event>
<event>
 5   0  0.3671997E-06  0.3332791E+04  0.7818609E-02  0.8154601E-01
        2   -1    0    0  501    0  0.00000000000E+00  0.00000000000E+00  0.17014310558E+04  0.17014310558E+04  0.25500000920E-02 0. -1.
       -2   -1    0    0    0  501  0.00000000000E+00  0.00000000000E+00 -0.16320817647E+04  0.16320817647E+04  0.25500000920E-02 0.  1.
    10030    2    1    2    0    0  0.00000000000E+00  0.00000000000E+00  0.69349291093E+02  0.33335128205E+04  0.33327913826E+04 0.  0.
        2    1    3    3  502    0 -0.93807668127E+03  0.73466993231E+03 -0.11305439811E+04  0.16425155898E+04  0.25500000920E-02 0.  1.
       -2    1    3    3    0  502  0.93807668127E+03 -0.73466993231E+03  0.11998932722E+04  0.16909972307E+04  0.25500000920E-02 0. -1.
</event>
<event>
 5   0  0.1405389E-06  0.3253993E+04  0.7818609E-02  0.8174702E-01
       -1   -1    0    0    0  501  0.00000000000E+00  0.00000000000E+00  0.14410694565E+04  0.14410694565E+04  0.50400001928E-02 0. -1.
        1   -1    0    0  501    0  0.00000000000E+00  0.00000000000E+00 -0.18369116173E+04  0.18369116173E+04  0.50400001928E-02 0.  1.
    10030    2    1    2    0    0  0.00000000000E+00  0.00000000000E+00 -0.39584216076E+03  0.32779810738E+04  0.32539927634E+04 0.  0.
        1    1    3    3  502    0 -0.15334071709E+04  0.40699457339E+02 -0.74425041618E+03  0.17049641286E+04  0.50400001928E-02 0.  1.
       -1    1    3    3    0  502  0.15334071709E+04 -0.40699457339E+02  0.34840825543E+03  0.15730169453E+04  0.50400001928E-02 0. -1.
</event>
<event>
 5   0  0.3920487E-06  0.2929518E+04  0.7818609E-02  0.8264149E-01
        2   -1    0    0  501    0  0.00000000000E+00  0.00000000000E+00  0.18388336520E+04  0.18388336520E+04  0.25500000920E-02 0. -1.
       -2   -1    0    0    0  501  0.00000000000E+00  0.00000000000E+00 -0.11667828382E+04  0.11667828382E+04  0.25500000920E-02 0.  1.
    10030    2    1    2    0    0  0.00000000000E+00  0.00000000000E+00  0.67205081381E+03  0.30056164902E+04  0.29295184229E+04 0.  0.
        4    1    3    3  502    0 -0.92600712052E+03 -0.19662462354E+03  0.14828115440E+04  0.17592277049E+04  0.12699999809E+01 0. -1.
       -4    1    3    3    0  502  0.92600712052E+03  0.19662462354E+03 -0.81076073014E+03  0.12463887854E+04  0.12699999809E+01 0.  1.
</event>
<event>
 5   0  0.4017247E-06  0.3305598E+04  0.7818609E-02  0.8161472E-01
        2   -1    0    0  501    0  0.00000000000E+00  0.00000000000E+00  0.17843114975E+04  0.17843114975E+04  0.25500000920E-02 0. -1.
       -2   -1    0    0    0  501  0.00000000000E+00  0.00000000000E+00 -0.15309797599E+04  0.15309797599E+04  0.25500000920E-02 0.  1.
    10030    2    1    2    0    0  0.00000000000E+00  0.00000000000E+00  0.25333173764E+03  0.33152912574E+04  0.33055981535E+04 0.  0.
        1    1    3    3  502    0  0.13702243699E+04  0.88449848274E+03  0.39557968531E+03  0.16781941715E+04  0.50400001928E-02 0. -1.
       -1    1    3    3    0  502 -0.13702243699E+04 -0.88449848274E+03 -0.14224794767E+03  0.16370970859E+04  0.50400001928E-02 0.  1.
</event>
<event>
 5   0  0.1259875E-06  0.2210099E+04  0.7818609E-02  0.8514237E-01
       -4   -1    0    0    0  501  0.00000000000E+00  0.00000000000E+00  0.60854440646E+03  0.60854573167E+03  0.12699999809E+01 0.  1.
        4   -1    0    0  501    0  0.00000000000E+00  0.00000000000E+00 -0.20066437612E+04  0.20066441631E+04  0.12699999809E+01 0. -1.
    10030    2    1    2    0    0  0.00000000000E+00  0.00000000000E+00 -0.13980993547E+04  0.26151898948E+04  0.22100987263E+04 0.  0.
        1    1    3    3  502    0  0.93267359779E+03 -0.22249663467E+03 -0.49047677875E+02  0.96009919653E+03  0.50400001928E-02 0.  1.
       -1    1    3    3    0  502 -0.93267359779E+03  0.22249663467E+03 -0.13490516769E+04  0.16550906982E+04  0.50400001928E-02 0. -1.
</event>
<event>
 5   0  0.1405389E-06  0.3202812E+04  0.7818609E-02  0.8188075E-01
        1   -1    0    0  501    0  0.00000000000E+00  0.00000000000E+00  0.20319625496E+04  0.20319625496E+04  0.50400001928E-02 0. -1.
       -1   -1    0    0    0  501  0.00000000000E+00  0.00000000000E+00 -0.12620807636E+04  0.12620807636E+04  0.50400001928E-02 0.  1.
    10030    2    1    2    0    0  0.00000000000E+00  0.00000000000E+00  0.76988178598E+03  0.32940433132E+04  0.32028117935E+04 0.  0.
        1    1    3    3  502    0 -0.96387247577E+03 -0.38663883755E+03 -0.86878214810E+03  0.13540022752E+04  0.50400001928E-02 0.  1.
       -1    1    3    3    0  502  0.96387247577E+03  0.38663883755E+03  0.16386639341E+04  0.19400410380E+04  0.50400001928E-02 0. -1.
</event>
<event>
 5   0  0.1259875E-06  0.3330463E+04  0.7818609E-02  0.8155187E-01
       -3   -1    0    0    0  501  0.00000000000E+00  0.00000000000E+00  0.19029681713E+04  0.19029681739E+04  0.10100000352E+00 0.  1.
        3   -1    0    0  501    0  0.00000000000E+00  0.00000000000E+00 -0.14571950412E+04  0.14571950447E+04  0.10100000352E+00 0. -1.
    10030    2    1    2    0    0  0.00000000000E+00  0.00000000000E+00  0.44577313007E+03  0.33601632186E+04  0.33304629066E+04 0.  0.
        1    1    3    3  502    0  0.11923369012E+04  0.11275202179E+04 -0.62526029216E+02  0.16422175958E+04  0.50400001928E-02 0.  1.
       -1    1    3    3    0  502 -0.11923369012E+04 -0.11275202179E+04  0.50829915929E+03  0.17179456228E+04  0.50400001928E-02 0. -1.
</event>
<event>
 5   0  0.3920487E-06  0.3274510E+04  0.7818609E-02  0.8169412E-01
       -2   -1    0    0    0  501  0.00000000000E+00  0.00000000000E+00  0.10713914767E+04  0.10713914767E+04  0.25500000920E-02 0. -1.
        2   -1    0    0  501    0  0.00000000000E+00  0.00000000000E+00 -0.25019832993E+04  0.25019832993E+04  0.25500000920E-02 0.  1.
    10030    2    1    2    0    0  0.00000000000E+00  0.00000000000E+00 -0.14305918226E+04  0.35733747760E+04  0.32745097842E+04 0.  0.
        4    1    3    3  502    0  0.19552725516E+03  0.13259130984E+04  0.31091907668E+03  0.13758447359E+04  0.12699999809E+01 0. -1.
       -4    1    3    3    0  502 -0.19552725516E+03 -0.13259130984E+04 -0.17415108992E+04  0.21975300401E+04  0.12699999809E+01 0.  1.
</event>
<event>
 5   0  0.1282578E-06  0.2740231E+04  0.7818609E-02  0.8322068E-01
        1   -1    0    0  501    0  0.00000000000E+00  0.00000000000E+00  0.10178632695E+04  0.10178632695E+04  0.50400001928E-02 0.  1.
       -1   -1    0    0    0  501  0.00000000000E+00  0.00000000000E+00 -0.18442720738E+04  0.18442720738E+04  0.50400001928E-02 0. -1.
    10030    2    1    2    0    0  0.00000000000E+00  0.00000000000E+00 -0.82640880428E+03  0.28621353433E+04  0.27402312332E+04 0.  0.
        4    1    3    3  502    0 -0.11669401499E+04  0.71369290471E+03 -0.33157179982E+03  0.14074971926E+04  0.12699999809E+01 0. -1.
       -4    1    3    3    0  502  0.11669401499E+04 -0.71369290471E+03 -0.49483700447E+03  0.14546381507E+04  0.12699999809E+01 0.  1.
</event>
<event>
 5   0  0.3920487E-06  0.3416541E+04  0.7818609E-02  0.8133858E-01
       -2   -1    0    0    0  501  0.00000000000E+00  0.00000000000E+00  0.18750143642E+04  0.18750143642E+04  0.25500000920E-02 0.  1.
        2   -1    0    0  501    0  0.00000000000E+00  0.00000000000E+00 -0.15563551832E+04  0.15563551832E+04  0.25500000920E-02 0. -1.
    10030    2    1    2    0    0  0.00000000000E+00  0.00000000000E+00  0.31865918101E+03  0.34313695474E+04  0.34165411306E+04 0.  0.
        4    1    3    3  502    0  0.38510460732E+03  0.98299217358E+03  0.15081429546E+04  0.18409443110E+04  0.12699999809E+01 0.  1.
       -4    1    3    3    0  502 -0.38510460732E+03 -0.98299217358E+03 -0.11894837736E+04  0.15904252364E+04  0.12699999809E+01 0. -1.
</event>
<event>
 5   0  0.1391878E-06  0.3337712E+04  0.7818609E-02  0.8153365E-01
       -1   -1    0    0    0  501  0.00000000000E+00  0.00000000000E+00  0.13722406732E+04  0.13722406732E+04  0.50400001928E-02 0. -1.
        1   -1    0    0  501    0  0.00000000000E+00  0.00000000000E+00 -0.20295864192E+04  0.20295864192E+04  0.50400001928E-02 0.  1.
    10030    2    1    2    0    0  0.00000000000E+00  0.00000000000E+00 -0.65734574604E+03  0.34018270924E+04  0.33377124108E+04 0.  0.
        2    1    3    3  502    0  0.64000385922E+03  0.12163588119E+04 -0.12934001609E+04  0.18873308336E+04  0.25500000920E-02 0.  1.
       -2    1    3    3    0  502 -0.64000385922E+03 -0.12163588119E+04  0.63605441491E+03  0.15144962588E+04  0.25500000920E-02 0. -1.
</event>
<event>
 5   0  0.4017247E-06  0.3311334E+04  0.7818609E-02  0.8160017E-01
       -2   -1    0    0    0  501  0.00000000000E+00  0.00000000000E+00  0.15472841315E+04  0.15472841315E+04  0.25500000920E-02 0. -1.
        2   -1    0    0  501    0  0.00000000000E+00  0.00000000000E+00 -0.17716416747E+04  0.17716416747E+04  0.25500000920E-02 0.  1.
    10030    2    1    2    0    0  0.00000000000E+00  0.00000000000E+00 -0.22435754319E+03  0.33189258061E+04  0.33113339003E+04 0.  0.
        1    1    3    3  502    0  0.39714013955E+03 -0.84396057932E+03  0.12588914480E+04  0.15667793169E+04  0.50400001928E-02 0. -1.
       -1    1    3    3    0  502 -0.39714013955E+03  0.84396057932E+03 -0.14832489912E+04  0.17521464893E+04  0.50400001928E-02 0.  1.
</event>
<event>
 5   0  0.1339825E-06  0.3330338E+04  0.7818609E-02  0.8155219E-01
        1   -1    0    0  501    0  0.00000000000E+00  0.00000000000E+00  0.28395134695E+04  0.28395134695E+04  0.50400001928E-02 0. -1.
       -1   -1    0    0    0  501  0.00000000000E+00  0.00000000000E+00 -0.97650080845E+03  0.97650080846E+03  0.50400001928E-02 0.  1.
    10030    2    1    2    0    0  0.00000000000E+00  0.00000000000E+00  0.18630126610E+04  0.38160142780E+04  0.33303376397E+04 0.  0.
        3    1    3    3  502    0 -0.52045360410E+03  0.14631537071E+04  0.24295972286E+03  0.15718524618E+04  0.10100000352E+00 0.  1.
       -3    1    3    3    0  502  0.52045360410E+03 -0.14631537071E+04  0.16200529382E+04  0.22441618162E+04  0.10100000352E+00 0. -1.
</event>
<event>
 5   0  0.1405389E-06  0.3360530E+04  0.7818609E-02  0.8147662E-01
       -1   -1    0    0    0  501  0.00000000000E+00  0.00000000000E+00  0.22672264937E+04  0.22672264938E+04  0.50400001928E-02 0. -1.
        1   -1    0    0  501    0  0.00000000000E+00  0.00000000000E+00 -0.12452619839E+04  0.12452619839E+04  0.50400001928E-02 0.  1.
    10030    2    1    2    0    0  0.00000000000E+00  0.00000000000E+00  0.10219645098E+04  0.35124884777E+04  0.33605302924E+04 0.  0.
        1    1    3    3  502    0 -0.66982458157E+03 -0.64805569066E+03 -0.95032511590E+03  0.13310743684E+04  0.50400001928E-02 0.  1.
       -1    1    3    3    0  502  0.66982458157E+03  0.64805569066E+03  0.19722896257E+04  0.21814141093E+04  0.50400001928E-02 0. -1.
</event>
<event>
 5   0  0.1339825E-06  0.2147094E+04  0.7818609E-02  0.8540777E-01
       -1   -1    0    0    0  501  0.00000000000E+00  0.00000000000E+00  0.18012468383E+04  0.18012468383E+04  0.50400001928E-02 0.  1.
        1   -1    0    0  501    0  0.00000000000E+00  0.00000000000E+00 -0.63983628461E+03  0.63983628463E+03  0.50400001928E-02 0. -1.
    10030    2    1    2    0    0  0.00000000000E+00  0.00000000000E+00  0.11614105537E+04  0.24410831229E+04  0.21470939287E+04 0.  0.
        3    1    3    3  502    0 -0.51614180778E+03  0.13671258390E+02 -0.48940185621E+03  0.71140948554E+03  0.10100000352E+00 0. -1.
       -3    1    3    3    0  502  0.51614180778E+03 -0.13671258390E+02  0.16508124099E+04  0.17296736374E+04  0.10100000352E+00 0.  1.
</event>
<event>
 5   0  0.3896210E-06  0.3354642E+04  0.7818609E-02  0.8149129E-01
        2   -1    0    0  501    0  0.00000000000E+00  0.00000000000E+00  0.17407400969E+04  0.17407400969E+04  0.25500000920E-02 0. -1.
       -2   -1    0    0    0  501  0.00000000000E+00  0.00000000000E+00 -0.16162124480E+04  0.16162124480E+04  0.25500000920E-02 0.  1.
    10030    2    1    2    0    0  0.00000000000E+00  0.00000000000E+00  0.12452764887E+03  0.33569525449E+04  0.33546420455E+04 0.  0.
        3    1    3    3  502    0 -0.10200137531E+04  0.97199531522E+03  0.97294713432E+03  0.17122584752E+04  0.10100000352E+00 0. -1.
       -3    1    3    3    0  502  0.10200137531E+04 -0.97199531522E+03 -0.84841948545E+03  0.16446940697E+04  0.10100000352E+00 0.  1.
</event>
<event>
 5   0  0.3671997E-06  0.3295182E+04  0.7818609E-02  0.8164122E-01
       -2   -1    0    0    0  501  0.00000000000E+00  0.00000000000E+00  0.13525563990E+04  0.13525563990E+04  0.25500000920E-02 0.  1.
        2   -1    0    0  501    0  0.00000000000E+00  0.00000000000E+00 -0.20069824203E+04  0.20069824203E+04  0.25500000920E-02 0. -1.
    10030    2    1    2    0    0  0.00000000000E+00  0.00000000000E+00 -0.65442602125E+03  0.33595388193E+04  0.32951824929E+04 0.  0.
        2    1    3    3  502    0 -0.17931317176E+03 -0.11997940834E+03  0.13380920746E+04  0.13553739972E+04  0.25500000920E-02 0.  1.
       -2    1    3    3    0  502  0.17931317176E+03  0.11997940834E+03 -0.19925180959E+04  0.20041648222E+04  0.25500000920E-02 0. -1.
</event>
<event>
 5   0  0.1282578E-06  0.3325856E+04  0.7818609E-02  0.8156347E-01
        1   -1    0    0  501    0  0.00000000000E+00  0.00000000000E+00  0.23206298999E+04  0.23206298999E+04  0.50400001928E-02 0.  1.
       -1   -1    0    0    0  501  0.00000000000E+00  0.00000000000E+00 -0.11916288066E+04  0.11916288066E+04  0.50400001928E-02 0. -1.
    10030    2    1    2    0    0  0.00000000000E+00  0.00000000000E+00  0.11290010933E+04  0.35122587065E+04  0.33258559428E+04 0.  0.
        4    1    3    3  502    0  0.72676886042E+03 -0.14611575019E+04  0.90202862670E+03  0.18646263642E+04  0.12699999809E+01 0. -1.
       -4    1    3    3    0  502 -0.72676886042E+03  0.14611575019E+04  0.22697246662E+03  0.16476323423E+04  0.12699999809E+01 0.  1.
</event>
<event>
 5   0  0.3920487E-06  0.3324884E+04  0.7818609E-02  0.8156592E-01
       -2   -1    0    0    0  501  0.00000000000E+00  0.00000000000E+00  0.17993956695E+04  0.17993956695E+04  0.25500000920E-02 0.  1.
        2   -1    0    0  501    0  0.00000000000E+00  0.00000000000E+00 -0.15359116270E+04  0.15359116270E+04  0.25500000920E-02 0. -1.
    10030    2    1    2    0    0  0.00000000000E+00  0.00000000000E+00  0.26348404245E+03  0.33353072965E+04  0.33248835951E+04 0.  0.
        4    1    3    3  502    0 -0.24684545625E+03  0.28310558066E+02  0.17806644613E+04  0.17979159334E+04  0.12699999809E+01 0.  1.
       -4    1    3    3    0  502  0.24684545625E+03 -0.28310558066E+02 -0.15171804188E+04  0.15373913631E+04  0.12699999809E+01 0. -1.
</event>
<event>
 5   0  0.3812379E-06  0.3277608E+04  0.7818609E-02  0.8168616E-01
       -2   -1    0    0    0  501  0.00000000000E+00  0.00000000000E+00  0.12210176334E+04  0.12210176334E+04  0.25500000920E-02 0.  1.
        2   -1    0    0  501    0  0.00000000000E+00  0.00000000000E+00 -0.21995416113E+04  0.21995416113E+04  0.25500000920E-02 0. -1.
    10030    2    1    2    0    0  0.00000000000E+00  0.00000000000E+00 -0.97852397786E+03  0.34205592447E+04  0.32776083310E+04 0.  0.
        5    1    3    3  502    0 -0.44338789508E+03  0.39971664312E+03  0.11035037898E+04  0.12546349765E+04  0.46999998093E+01 0.  1.
       -5    1    3    3    0  502  0.44338789508E+03 -0.39971664312E+03 -0.20820277677E+04  0.21659242682E+04  0.46999998093E+01 0. -1.
</event>
<event>
 5   0  0.1282578E-06  0.2324908E+04  0.7818609E-02  0.8468164E-01
        1   -1    0    0  501    0  0.00000000000E+00  0.00000000000E+00  0.14022579773E+04  0.14022579773E+04  0.50400001928E-02 0.  1.
       -1   -1    0    0    0  501  0.00000000000E+00  0.00000000000E+00 -0.96365977561E+03  0.96365977562E+03  0.50400001928E-02 0. -1.
    10030    2    1    2    0    0  0.00000000000E+00  0.00000000000E+00  0.43859820167E+03  0.23659177529E+04  0.23249082629E+04 0.  0.
        4    1    3    3  502    0  0.65713628419E+03 -0.86035219467E+03  0.65016325407E+03  0.12628332688E+04  0.12699999809E+01 0. -1.
       -4    1    3    3    0  502 -0.65713628419E+03  0.86035219467E+03 -0.21156505240E+03  0.11030844841E+04  0.12699999809E+01 0.  1.
</event>
<event>
 5   0  0.4017247E-06  0.3475012E+04  0.7818609E-02  0.8119737E-01
       -2   -1    0    0    0  501  0.00000000000E+00  0.00000000000E+00  0.27457669886E+04  0.27457669886E+04  0.25500000920E-02 0.  1.
        2   -1    0    0  501    0  0.00000000000E+00  0.00000000000E+00 -0.10994843992E+04  0.10994843992E+04  0.25500000920E-02 0. -1.
    10030    2    1    2    0    0  0.00000000000E+00  0.00000000000E+00  0.16462825894E+04  0.38452513878E+04  0.34750124994E+04 0.  0.
        1    1    3    3  502    0 -0.96946724229E+03  0.95334211044E+02  0.24151691684E+04  0.26042268445E+04  0.50400001928E-02 0.  1.
       -1    1    3    3    0  502  0.96946724229E+03 -0.95334211044E+02 -0.76888657900E+03  0.12410245433E+04  0.50400001928E-02 0. -1.
</event>
<event>
 5   0  0.1405389E-06  0.3202424E+04  0.7818609E-02  0.8188177E-01
        1   -1    0    0  501    0  0.00000000000E+00  0.00000000000E+00  0.21133762589E+04  0.21133762589E+04  0.50400001928E-02 0. -1.
       -1   -1    0    0    0  501  0.00000000000E+00  0.00000000000E+00 -0.12131676118E+04  0.12131676118E+04  0.50400001928E-02 0.  1.
    10030    2    1    2    0    0  0.00000000000E+00  0.00000000000E+00  0.90020864703E+03  0.33265438707E+04  0.32024238501E+04 0.  0.
        1    1    3    3  502    0 -0.14961491433E+03  0.15586645180E+04  0.79783228203E+03  0.17573719164E+04  0.50400001928E-02 0. -1.
       -1    1    3    3    0  502  0.14961491433E+03 -0.15586645180E+04  0.10237636500E+03  0.15691719543E+04  0.50400001928E-02 0.  1.
</event>
<event>
 5   0  0.4017247E-06  0.3323006E+04  0.7818609E-02  0.8157066E-01
        2   -1    0    0  501    0  0.00000000000E+00  0.00000000000E+00  0.13850253515E+04  0.13850253515E+04  0.25500000920E-02 0. -1.
       -2   -1    0    0    0  501  0.00000000000E+00  0.00000000000E+00 -0.19931706496E+04  0.19931706496E+04  0.25500000920E-02 0.  1.
    10030    2    1    2    0    0  0.00000000000E+00  0.00000000000E+00 -0.60814529812E+03  0.33781960011E+04  0.33230057957E+04 0.  0.
        1    1    3    3  502    0 -0.11495878777E+04  0.11913328229E+04 -0.44699817540E+03  0.17148275576E+04  0.50400001928E-02 0. -1.
       -1    1    3    3    0  502  0.11495878777E+04 -0.11913328229E+04 -0.16114712272E+03  0.16633684435E+04  0.50400001928E-02 0.  1.
</event>
<event>
 5   0  0.1282578E-06  0.3339438E+04  0.7818609E-02  0.8152932E-01
       -1   -1    0    0    0  501  0.00000000000E+00  0.00000000000E+00  0.16933176247E+04  0.16933176247E+04  0.50400001928E-02 0.  1.
        1   -1    0    0  501    0  0.00000000000E+00  0.00000000000E+00 -0.16464488199E+04  0.16464488199E+04  0.50400001928E-02 0. -1.
    10030    2    1    2    0    0  0.00000000000E+00  0.00000000000E+00  0.46868804803E+02  0.33397664447E+04  0.33394375604E+04 0.  0.
        4    1    3    3  502    0  0.20765637016E+03  0.10847982111E+04 -0.12289072998E+04  0.16523084129E+04  0.12699999809E+01 0. -1.
       -4    1    3    3    0  502 -0.20765637016E+03 -0.10847982111E+04  0.12757761046E+04  0.16874580318E+04  0.12699999809E+01 0.  1.
</event>
<event>
 5   0  0.3671997E-06  0.3300730E+04  0.7818609E-02  0.8162710E-01
        2   -1    0    0  501    0  0.00000000000E+00  0.00000000000E+00  0.20750851246E+04  0.20750851246E+04  0.25500000920E-02 0.  1.
       -2   -1    0    0    0  501  0.00000000000E+00  0.00000000000E+00 -0.13125749433E+04  0.13125749433E+04  0.25500000920E-02 0. -1.
    10030    2    1    2    0    0  0.00000000000E+00  0.00000000000E+00  0.76251018131E+03  0.33876600679E+04  0.33007300646E+04 0.  0.
        2    1    3    3  502    0 -0.12713149615E+04  0.94119138872E+03  0.86442072114E+03  0.18025831866E+04  0.25500000920E-02 0. -1.
       -2    1    3    3    0  502  0.12713149615E+04 -0.94119138872E+03 -0.10191053983E+03  0.15850768813E+04  0.25500000920E-02 0.  1.
</event>
<event>
 5   0  0.3671997E-06  0.3339363E+04  0.7818609E-02  0.8152951E-01
        2   -1    0    0  501    0  0.00000000000E+00  0.00000000000E+00  0.13535641668E+04  0.13535641668E+04  0.25500000920E-02 0. -1.
       -2   -1    0    0    0  501  0.00000000000E+00  0.00000000000E+00 -0.20596261211E+04  0.20596261211E+04  0.25500000920E-02 0.  1.
    10030    2    1    2    0    0  0.00000000000E+00  0.00000000000E+00 -0.70606195432E+03  0.34131902878E+04  0.33393628820E+04 0.  0.
        2    1    3    3  502    0 -0.94995780495E+02 -0.99208771925E+03  0.10162026485E+04  0.14233517007E+04  0.25500000920E-02 0. -1.
       -2    1    3    3    0  502  0.94995780495E+02  0.99208771925E+03 -0.17222646028E+04  0.19898385872E+04  0.25500000920E-02 0.  1.
</event>
<event>
 5   0  0.1282578E-06  0.3735485E+04  0.7818609E-02  0.8060143E-01
        1   -1    0    0  501    0  0.00000000000E+00  0.00000000000E+00  0.29690331615E+04  0.29690331615E+04  0.50400001928E-02 0.  1.
       -1   -1    0    0    0  501  0.00000000000E+00  0.00000000000E+00 -0.11749489644E+04  0.11749489644E+04  0.50400001928E-02 0. -1.
    10030    2    1    2    0    0  0.00000000000E+00  0.00000000000E+00  0.17940841971E+04  0.41439821259E+04  0.37354852099E+04 0.  0.
        4    1    3    3  502    0  0.17325262243E+04 -0.13407274045E+03  0.16566375419E+04  0.24008482201E+04  0.12699999809E+01 0.  1.
       -4    1    3    3    0  502 -0.17325262243E+04  0.13407274045E+03  0.13744665513E+03  0.17431339058E+04  0.12699999809E+01 0. -1.
</event>
<event>
 5   0  0.1352708E-06  0.3316466E+04  0.7818609E-02  0.8158718E-01
        1   -1    0    0  501    0  0.00000000000E+00  0.00000000000E+00  0.23602837608E+04  0.23602837608E+04  0.50400001928E-02 0.  1.
       -1   -1    0    0    0  501  0.00000000000E+00  0.00000000000E+00 -0.11650023611E+04  0.11650023611E+04  0.50400001928E-02 0. -1.
    10030    2    1    2    0    0  0.00000000000E+00  0.00000000000E+00  0.11952813997E+04  0.35252861220E+04  0.33164656816E+04 0.  0.
        5    1    3    3  502    0  0.91845073684E+03  0.48576509441E+03 -0.77609251461E+03  0.12968659006E+04  0.46999998093E+01 0. -1.
       -5    1    3    3    0  502 -0.91845073684E+03 -0.48576509441E+03  0.19713739143E+04  0.22284202214E+04  0.46999998093E+01 0.  1.
</event>
<event>
 5   0  0.1391878E-06  0.3283917E+04  0.7818609E-02  0.8167000E-01
       -1   -1    0    0    0  501  0.00000000000E+00  0.00000000000E+00  0.12741074072E+04  0.12741074072E+04  0.50400001928E-02 0. -1.
        1   -1    0    0  501    0  0.00000000000E+00  0.00000000000E+00 -0.21160130805E+04  0.21160130805E+04  0.50400001928E-02 0.  1.
    10030    2    1    2    0    0  0.00000000000E+00  0.00000000000E+00 -0.84190567329E+03  0.33901204877E+04  0.32839171363E+04 0.  0.
        2    1    3    3  502    0 -0.71915220665E+03  0.57613847704E+03 -0.18239154691E+04  0.20434732881E+04  0.25500000920E-02 0.  1.
       -2    1    3    3    0  502  0.71915220665E+03 -0.57613847704E+03  0.98200979578E+03  0.13466471996E+04  0.25500000920E-02 0. -1.
</event>
<event>
 5   0  0.3896210E-06  0.3229336E+04  0.7818609E-02  0.8181112E-01
       -2   -1    0    0    0  501  0.00000000000E+00  0.00000000000E+00  0.10739943670E+04  0.10739943670E+04  0.25500000920E-02 0.  1.
        2   -1    0    0  501    0  0.00000000000E+00  0.00000000000E+00 -0.24275289181E+04  0.24275289181E+04  0.25500000920E-02 0. -1.
    10030    2    1    2    0    0  0.00000000000E+00  0.00000000000E+00 -0.13535345511E+04  0.35015232852E+04  0.32293357731E+04 0.  0.
        3    1    3    3  502    0  0.94506052566E+03  0.12797896792E+04 -0.37755278029E+03  0.16350985084E+04  0.10100000352E+00 0.  1.
       -3    1    3    3    0  502 -0.94506052566E+03 -0.12797896792E+04 -0.97598177080E+03  0.18664247767E+04  0.10100000352E+00 0. -1.
</event>
<event>
 5   0  0.1391878E-06  0.2958540E+04  0.7818609E-02  0.8255670E-01
        1   -1    0    0  501    0  0.00000000000E+00  0.00000000000E+00  0.15123225510E+04  0.15123225510E+04  0.50400001928E-02 0.  1.
       -1   -1    0    0    0  501  0.00000000000E+00  0.00000000000E+00 -0.14469397926E+04  0.14469397926E+04  0.50400001928E-02 0. -1.
    10030    2    1    2    0    0  0.00000000000E+00  0.00000000000E+00  0.65382758355E+02  0.29592623437E+04  0.29585399631E+04 0.  0.
        2    1    3    3  502    0 -0.75476675412E+02  0.97832886348E+03  0.11399465765E+04  0.15040951735E+04  0.25500000920E-02 0.  1.
       -2    1    3    3    0  502  0.75476675412E+02 -0.97832886348E+03 -0.10745638182E+04  0.14551671701E+04  0.25500000920E-02 0. -1.
</event>
<event>
 5   0  0.1405389E-06  0.3257173E+04  0.7818609E-02  0.8173879E-01
       -1   -1    0    0    0  501  0.00000000000E+00  0.00000000000E+00  0.17520837745E+04  0.17520837745E+04  0.50400001928E-02 0.  1.
        1   -1    0    0  501    0  0.00000000000E+00  0.00000000000E+00 -0.15137938044E+04  0.15137938044E+04  0.50400001928E-02 0. -1.
    10030    2    1    2    0    0  0.00000000000E+00  0.00000000000E+00  0.23828997009E+03  0.32658775788E+04  0.32571727388E+04 0.  0.
        1    1    3    3  502    0 -0.15624139306E+04 -0.42623149855E+03  0.29130996311E+03  0.16455005547E+04  0.50400001928E-02 0. -1.
       -1    1    3    3    0  502  0.15624139306E+04  0.42623149855E+03 -0.53019993025E+02  0.16203770242E+04  0.50400001928E-02 0.  1.
</event>
<event>
 5   0  0.4017247E-06  0.3804280E+04  0.7818609E-02  0.8045237E-01
        2   -1    0    0  501    0  0.00000000000E+00  0.00000000000E+00  0.19265167368E+04  0.19265167368E+04  0.25500000920E-02 0.  1.
       -2   -1    0    0    0  501  0.00000000000E+00  0.00000000000E+00 -0.18780721085E+04  0.18780721085E+04  0.25500000920E-02 0. -1.
    10030    2    1    2    0    0  0.00000000000E+00  0.00000000000E+00  0.48444628324E+02  0.38045888453E+04  0.38042804050E+04 0.  0.
        1    1    3    3  502    0  0.97124308031E+03 -0.23079981496E+03 -0.15950308434E+04  0.18816761323E+04  0.50400001928E-02 0. -1.
       -1    1    3    3    0  502 -0.97124308031E+03  0.23079981496E+03  0.16434754717E+04  0.19229127130E+04  0.50400001928E-02 0.  1.
</event>
<event>
 5   0  0.1259875E-06  0.2908060E+04  0.7818609E-02  0.8270483E-01
       -3   -1    0    0    0  501  0.00000000000E+00  0.00000000000E+00  0.15496644202E+04  0.15496644235E+04  0.10100000352E+00 0.  1.
        3   -1    0    0  501    0  0.00000000000E+00  0.00000000000E+00 -0.13642976439E+04  0.13642976476E+04  0.10100000352E+00 0. -1.
    10030    2    1    2    0    0  0.00000000000E+00  0.00000000000E+00  0.18536677638E+03  0.29139620711E+04  0.29080601971E+04 0.  0.
        2    1    3    3  502    0  0.25868127699E+03 -0.36747963002E+03 -0.12929629898E+04  0.13688354812E+04  0.25500000920E-02 0. -1.
       -2    1    3    3    0  502 -0.25868127699E+03  0.36747963002E+03  0.14783297662E+04  0.15451265900E+04  0.25500000920E-02 0.  1.
</event>
<event>
 5   0  0.1352708E-06  0.2865586E+04  0.7818609E-02  0.8283191E-01
       -1   -1    0    0    0  501  0.00000000000E+00  0.00000000000E+00  0.13414888650E+04  0.13414888650E+04  0.50400001928E-02 0.  1.
        1   -1    0    0  501    0  0.00000000000E+00  0.00000000000E+00 -0.15303114908E+04  0.15303114908E+04  0.50400001928E-02 0. -1.
    10030    2    1    2    0    0  0.00000000000E+00  0.00000000000E+00 -0.18882262580E+03  0.28718003558E+04  0.28655860307E+04 0.  0.
        5    1    3    3  502    0 -0.86703561509E+03  0.44183464379E+03  0.95948947412E+03  0.13666055580E+04  0.46999998093E+01 0.  1.
       -5    1    3    3    0  502  0.86703561509E+03 -0.44183464379E+03 -0.11483120999E+04  0.15051947977E+04  0.46999998093E+01 0. -1.
</event>
<event>
 5   0  0.3671997E-06  0.3505636E+04  0.7818609E-02  0.8112456E-01
       -2   -1    0    0    0  501  0.00000000000E+00  0.00000000000E+00  0.14278827247E+04  0.14278827247E+04  0.25500000920E-02 0. -1.
        2   -1    0    0  501    0  0.00000000000E+00  0.00000000000E+00 -0.21516969897E+04  0.21516969897E+04  0.25500000920E-02 0.  1.
    10030    2    1    2    0    0  0.00000000000E+00  0.00000000000E+00 -0.72381426504E+03  0.35795797144E+04  0.35056360110E+04 0.  0.
        2    1    3    3  502    0 -0.42330749931E+03 -0.16988776527E+04 -0.44731617524E+03  0.18070601203E+04  0.25500000920E-02 0.  1.
       -2    1    3    3    0  502  0.42330749931E+03  0.16988776527E+04 -0.27649808980E+03  0.17725195941E+04  0.25500000920E-02 0. -1.
</event>
<event>
 5   0  0.3671997E-06  0.3233802E+04  0.7818609E-02  0.8179947E-01
       -2   -1    0    0    0  501  0.00000000000E+00  0.00000000000E+00  0.11281251153E+04  0.11281251153E+04  0.25500000920E-02 0.  1.
        2   -1    0    0  501    0  0.00000000000E+00  0.00000000000E+00 -0.23174462288E+04  0.23174462288E+04  0.25500000920E-02 0. -1.
    10030    2    1    2    0    0  0.00000000000E+00  0.00000000000E+00 -0.11893211135E+04  0.34455713441E+04  0.32338022785E+04 0.  0.
        2    1    3    3  502    0 -0.34049005172E+03 -0.12264027535E+03 -0.22737378991E+04  0.23023592565E+04  0.25500000920E-02 0. -1.
       -2    1    3    3    0  502  0.34049005172E+03  0.12264027535E+03  0.10844167855E+04  0.11432120876E+04  0.25500000920E-02 0.  1.
</event>
<event>
 5   0  0.1339825E-06  0.3335562E+04  0.7818609E-02  0.8153905E-01
        1   -1    0    0  501    0  0.00000000000E+00  0.00000000000E+00  0.13616048131E+04  0.13616048131E+04  0.50400001928E-02 0. -1.
       -1   -1    0    0    0  501  0.00000000000E+00  0.00000000000E+00 -0.20428051425E+04  0.20428051425E+04  0.50400001928E-02 0.  1.
    10030    2    1    2    0    0  0.00000000000E+00  0.00000000000E+00 -0.68120032934E+03  0.34044099556E+04  0.33355619103E+04 0.  0.
        3    1    3    3  502    0 -0.12974837741E+04  0.38094376472E+03 -0.13369205538E+04  0.19015622192E+04  0.10100000352E+00 0.  1.
       -3    1    3    3    0  502  0.12974837741E+04 -0.38094376472E+03  0.65572022450E+03  0.15028477364E+04  0.10100000352E+00 0. -1.
</event>
<event>
 5   0  0.3812379E-06  0.2186987E+04  0.7818609E-02  0.8523864E-01
       -2   -1    0    0    0  501  0.00000000000E+00  0.00000000000E+00  0.15036887329E+04  0.15036887329E+04  0.25500000920E-02 0.  1.
        2   -1    0    0  501    0  0.00000000000E+00  0.00000000000E+00 -0.79519628827E+03  0.79519628828E+03  0.25500000920E-02 0. -1.
    10030    2    1    2    0    0  0.00000000000E+00  0.00000000000E+00  0.70849244465E+03  0.22988850212E+04  0.21869866933E+04 0.  0.
        5    1    3    3  502    0  0.33725008119E+02  0.57466356326E+03  0.13315079909E+04  0.14506244197E+04  0.46999998093E+01 0.  1.
       -5    1    3    3    0  502 -0.33725008119E+02 -0.57466356326E+03 -0.62301554630E+03  0.84826060149E+03  0.46999998093E+01 0. -1.
</event>
<event>
 5   0  0.1282578E-06  0.3303347E+04  0.7818609E-02  0.8162044E-01
       -1   -1    0    0    0  501  0.00000000000E+00  0.00000000000E+00  0.11026117766E+04  0.11026117766E+04  0.50400001928E-02 0.  1.
        1   -1    0    0  501    0  0.00000000000E+00  0.00000000000E+00 -0.24741488539E+04  0.24741488539E+04  0.50400001928E-02 0. -1.
    10030    2    1    2    0    0  0.00000000000E+00  0.00000000000E+00 -0.13715370773E+04  0.35767606305E+04  0.33033471893E+04 0.  0.
        4    1    3    3  502    0  0.11862775303E+04  0.11322485647E+04 -0.89900210367E+03  0.18701464077E+04  0.12699999809E+01 0. -1.
       -4    1    3    3    0  502 -0.11862775303E+04 -0.11322485647E+04 -0.47253497364E+03  0.17066142227E+04  0.12699999809E+01 0.  1.
</event>
<event>
 5   0  0.3671997E-06  0.3226429E+04  0.7818609E-02  0.8181872E-01
        2   -1    0    0  501    0  0.00000000000E+00  0.00000000000E+00  0.23210494510E+04  0.23210494510E+04  0.25500000920E-02 0.  1.
       -2   -1    0    0    0  501  0.00000000000E+00  0.00000000000E+00 -0.11212435874E+04  0.11212435874E+04  0.25500000920E-02 0. -1.
    10030    2    1    2    0    0  0.00000000000E+00  0.00000000000E+00  0.11998058636E+04  0.34422930384E+04  0.32264294897E+04 0.  0.
        2    1    3    3  502    0 -0.11263489818E+03 -0.55516426627E+03 -0.10116417542E+04  0.11594451352E+04  0.25500000920E-02 0. -1.
       -2    1    3    3    0  502  0.11263489818E+03  0.55516426627E+03  0.22114476178E+04  0.22828479032E+04  0.25500000920E-02 0.  1.
</event>
<event>
 5   0  0.1352708E-06  0.3035709E+04  0.7818609E-02  0.8233607E-01
       -1   -1    0    0    0  501  0.00000000000E+00  0.00000000000E+00  0.18773855052E+04  0.18773855052E+04  0.50400001928E-02 0. -1.
        1   -1    0    0  501    0  0.00000000000E+00  0.00000000000E+00 -0.12271761190E+04  0.12271761190E+04  0.50400001928E-02 0.  1.
    10030    2    1    2    0    0  0.00000000000E+00  0.00000000000E+00  0.65020938619E+03  0.31045616242E+04  0.30357092470E+04 0.  0.
        5    1    3    3  502    0  0.11191553204E+04 -0.94833999766E+03 -0.73613870897E+02  0.14687744804E+04  0.46999998093E+01 0.  1.
       -5    1    3    3    0  502 -0.11191553204E+04  0.94833999766E+03  0.72382325708E+03  0.16357871438E+04  0.46999998093E+01 0. -1.
</event>
<event>
 5   0  0.1259875E-06  0.3329862E+04  0.7818609E-02  0.8155338E-01
        3   -1    0    0  501    0  0.00000000000E+00  0.00000000000E+00  0.15053985132E+04  0.15053985166E+04  0.10100000352E+00 0.  1.
       -3   -1    0    0    0  501  0.00000000000E+00  0.00000000000E+00 -0.18413700973E+04  0.18413701000E+04  0.10100000352E+00 0. -1.
    10030    2    1    2    0    0  0.00000000000E+00  0.00000000000E+00 -0.33597158408E+03  0.33467686166E+04  0.33298623497E+04 0.  0.
        2    1    3    3  502    0 -0.99428626481E+03  0.90706576133E+03 -0.11530754264E+04  0.17722743610E+04  0.25500000920E-02 0. -1.
       -2    1    3    3    0  502  0.99428626481E+03 -0.90706576133E+03  0.81710384232E+03  0.15744942556E+04  0.25500000920E-02 0.  1.
</event>
<event>
 5   0  0.1391878E-06  0.3301950E+04  0.7818609E-02  0.8162399E-01
       -1   -1    0    0    0  501  0.00000000000E+00  0.00000000000E+00  0.11833334020E+04  0.11833334020E+04  0.50400001928E-02 0. -1.
        1   -1    0    0  501    0  0.00000000000E+00  0.00000000000E+00 -0.23034234839E+04  0.23034234840E+04  0.50400001928E-02 0.  1.
    10030    2    1    2    0    0  0.00000000000E+00  0.00000000000E+00 -0.11200900820E+04  0.34867568859E+04  0.33019496953E+04 0.  0.
        2    1    3    3  502    0  0.14533577286E+04  0.37639844897E+03 -0.12853609052E+04  0.19763798057E+04  0.25500000920E-02 0.  1.
       -2    1    3    3    0  502 -0.14533577286E+04 -0.37639844897E+03  0.16527082326E+03  0.15103770803E+04  0.25500000920E-02 0. -1.
</event>
<event>
 5   0  0.1352708E-06  0.3317388E+04  0.7818609E-02  0.8158485E-01
        1   -1    0    0  501    0  0.00000000000E+00  0.00000000000E+00  0.22699873992E+04  0.22699873992E+04  0.50400001928E-02 0. -1.
       -1   -1    0    0    0  501  0.00000000000E+00  0.00000000000E+00 -0.12120180306E+04  0.12120180306E+04  0.50400001928E-02 0.  1.
    10030    2    1    2    0    0  0.00000000000E+00  0.00000000000E+00  0.10579693687E+04  0.34820054298E+04  0.33173879225E+04 0.  0.
        5    1    3    3  502    0 -0.42733697352E+03  0.12643535722E+04 -0.50479328474E+03  0.14269005553E+04  0.46999998093E+01 0. -1.
       -5    1    3    3    0  502  0.42733697352E+03 -0.12643535722E+04  0.15627626534E+04  0.20551048745E+04  0.46999998093E+01 0.  1.
</event>
<event>
 5   0  0.3671997E-06  0.3362496E+04  0.7818609E-02  0.8147173E-01
       -2   -1    0    0    0  501  0.00000000000E+00  0.00000000000E+00  0.13984425702E+04  0.13984425702E+04  0.25500000920E-02 0. -1.
        2   -1    0    0  501    0  0.00000000000E+00  0.00000000000E+00 -0.20212449837E+04  0.20212449837E+04  0.25500000920E-02 0.  1.
    10030    2    1    2    0    0  0.00000000000E+00  0.00000000000E+00 -0.62280241343E+03  0.34196875539E+04  0.33624961145E+04 0.  0.
        2    1    3    3  502    0  0.15106824369E+04  0.34441837339E+03  0.35223848852E+03  0.15889799854E+04  0.25500000920E-02 0. -1.
       -2    1    3    3    0  502 -0.15106824369E+04 -0.34441837339E+03 -0.97504090194E+03  0.18307075685E+04  0.25500000920E-02 0.  1.
</event>
<event>
 5   0  0.3671997E-06  0.3284235E+04  0.7818609E-02  0.8166918E-01
       -2   -1    0    0    0  501  0.00000000000E+00  0.00000000000E+00  0.12426504693E+04  0.12426504693E+04  0.25500000920E-02 0.  1.
        2   -1    0    0  501    0  0.00000000000E+00  0.00000000000E+00 -0.21699988050E+04  0.21699988050E+04  0.25500000920E-02 0. -1.
    10030    2    1    2    0    0  0.00000000000E+00  0.00000000000E+00 -0.92734833573E+03  0.34126492744E+04  0.32842350912E+04 0.  0.
        2    1    3    3  502    0 -0.66667230057E+02 -0.52138680908E+03 -0.20802219614E+04  0.21456029765E+04  0.25500000920E-02 0. -1.
       -2    1    3    3    0  502  0.66667230057E+02  0.52138680908E+03  0.11528736256E+04  0.12670462979E+04  0.25500000920E-02 0.  1.
</event>
<event>
 5   0  0.1282578E-06  0.3270804E+04  0.7818609E-02  0.8170364E-01
        1   -1    0    0  501    0  0.00000000000E+00  0.00000000000E+00  0.20981311676E+04  0.20981311676E+04  0.50400001928E-02 0. -1.
       -1   -1    0    0    0  501  0.00000000000E+00  0.00000000000E+00 -0.12747247608E+04  0.12747247608E+04  0.50400001928E-02 0.  1.
    10030    2    1    2    0    0  0.00000000000E+00  0.00000000000E+00  0.82340640683E+03  0.33728559285E+04  0.32708040301E+04 0.  0.
        4    1    3    3  502    0 -0.91423955502E+03 -0.10262464149E+04  0.13256534888E+04  0.19095482328E+04  0.12699999809E+01 0. -1.
       -4    1    3    3    0  502  0.91423955502E+03  0.10262464149E+04 -0.50224708194E+03  0.14633076957E+04  0.12699999809E+01 0.  1.
</event>
<event>
 5   0  0.3920487E-06  0.3299835E+04  0.7818609E-02  0.8162937E-01
       -2   -1    0    0    0  501  0.00000000000E+00  0.00000000000E+00  0.18015042860E+04  0.18015042860E+04  0.25500000920E-02 0.  1.
        2   -1    0    0  501    0  0.00000000000E+00  0.00000000000E+00 -0.15110855315E+04  0.15110855315E+04  0.25500000920E-02 0. -1.
    10030    2    1    2    0    0  0.00000000000E+00  0.00000000000E+00  0.29041875449E+03  0.33125898175E+04  0.32998345786E+04 0.  0.
        4    1    3    3  502    0 -0.98588443971E+03  0.18010309783E+03  0.14609320099E+04  0.17716459028E+04  0.12699999809E+01 0.  1.
       -4    1    3    3    0  502  0.98588443971E+03 -0.18010309783E+03 -0.11705132555E+04  0.15409439148E+04  0.12699999809E+01 0. -1.
</event>
<event>
 5   0  0.1259875E-06  0.3295836E+04  0.7818609E-02  0.8163956E-01
       -3   -1    0    0    0  501  0.00000000000E+00  0.00000000000E+00  0.14109741649E+04  0.14109741685E+04  0.10100000352E+00 0.  1.
        3   -1    0    0  501    0  0.00000000000E+00  0.00000000000E+00 -0.19246515458E+04  0.19246515484E+04  0.10100000352E+00 0. -1.
    10030    2    1    2    0    0  0.00000000000E+00  0.00000000000E+00 -0.51367738089E+03  0.33356257169E+04  0.32958359291E+04 0.  0.
        3    1    3    3  502    0 -0.14193496288E+04 -0.39002292984E+03 -0.10067035652E+04  0.17832900305E+04  0.10100000352E+00 0. -1.
       -3    1    3    3    0  502  0.14193496288E+04  0.39002292984E+03  0.49302618427E+03  0.15523356864E+04  0.10100000352E+00 0.  1.
</event>
<event>
 5   0  0.1259875E-06  0.3216750E+04  0.7818609E-02  0.8184408E-01
       -3   -1    0    0    0  501  0.00000000000E+00  0.00000000000E+00  0.26346097581E+04  0.26346097601E+04  0.10100000352E+00 0.  1.
        3   -1    0    0  501    0  0.00000000000E+00  0.00000000000E+00 -0.98187968064E+03  0.98187968584E+03  0.10100000352E+00 0. -1.
    10030    2    1    2    0    0  0.00000000000E+00  0.00000000000E+00  0.16527300775E+04  0.36164894459E+04  0.32167497887E+04 0.  0.
        2    1    3    3  502    0 -0.80393321444E+03 -0.75913852369E+02 -0.73745857475E+03  0.10935797528E+04  0.25500000920E-02 0. -1.
       -2    1    3    3    0  502  0.80393321444E+03  0.75913852369E+02  0.23901886523E+04  0.25229096931E+04  0.25500000920E-02 0.  1.
</event>
<event>
 5   0  0.1339825E-06  0.3347694E+04  0.7818609E-02  0.8150865E-01
       -1   -1    0    0    0  501  0.00000000000E+00  0.00000000000E+00  0.23388349395E+04  0.23388349395E+04  0.50400001928E-02 0.  1.
        1   -1    0    0  501    0  0.00000000000E+00  0.00000000000E+00 -0.11979315381E+04  0.11979315381E+04  0.50400001928E-02 0. -1.
    10030    2    1    2    0    0  0.00000000000E+00  0.00000000000E+00  0.11409034015E+04  0.35367664776E+04  0.33476942133E+04 0.  0.
        3    1    3    3  502    0  0.16262268371E+04  0.16187442048E+03  0.18814800101E+03  0.16450582768E+04  0.10100000352E+00 0. -1.
       -3    1    3    3    0  502 -0.16262268371E+04 -0.16187442048E+03  0.95275540045E+03  0.18917082008E+04  0.10100000352E+00 0.  1.
</event>
<event>
 5   0  0.3671997E-06  0.3247154E+04  0.7818609E-02  0.8176474E-01
        2   -1    0    0  501    0  0.00000000000E+00  0.00000000000E+00  0.16465379951E+04  0.16465379951E+04  0.25500000920E-02 0. -1.
       -2   -1    0    0    0  501  0.00000000000E+00  0.00000000000E+00 -0.16009366045E+04  0.16009366045E+04  0.25500000920E-02 0.  1.
    10030    2    1    2    0    0  0.00000000000E+00  0.00000000000E+00  0.45601390552E+02  0.32474745996E+04  0.32471544140E+04 0.  0.
        2    1    3    3  502    0  0.15815945878E+03 -0.11308825961E+04 -0.11314764818E+04  0.16075288145E+04  0.25500000920E-02 0.  1.
       -2    1    3    3    0  502 -0.15815945878E+03  0.11308825961E+04  0.11770778723E+04  0.16399457851E+04  0.25500000920E-02 0. -1.
</event>
<event>
 5   0  0.1405389E-06  0.3465611E+04  0.7818609E-02  0.8121988E-01
       -1   -1    0    0    0  501  0.00000000000E+00  0.00000000000E+00  0.16803261942E+04  0.16803261942E+04  0.50400001928E-02 0. -1.
        1   -1    0    0  501    0  0.00000000000E+00  0.00000000000E+00 -0.17869234846E+04  0.17869234846E+04  0.50400001928E-02 0.  1.
    10030    2    1    2    0    0  0.00000000000E+00  0.00000000000E+00 -0.10659729041E+03  0.34672496788E+04  0.34656106753E+04 0.  0.
        1    1    3    3  502    0  0.13248158025E+04  0.59899167457E+03 -0.99644613064E+03  0.17626210109E+04  0.50400001928E-02 0.  1.
       -1    1    3    3    0  502 -0.13248158025E+04 -0.59899167457E+03  0.88984884023E+03  0.17046286679E+04  0.50400001928E-02 0. -1.
</event>
<event>
 5   0  0.3671997E-06  0.3312489E+04  0.7818609E-02  0.8159725E-01
       -2   -1    0    0    0  501  0.00000000000E+00  0.00000000000E+00  0.28618082601E+04  0.28618082601E+04  0.25500000920E-02 0.  1.
        2   -1    0    0  501    0  0.00000000000E+00  0.00000000000E+00 -0.95853570568E+03  0.95853570568E+03  0.25500000920E-02 0. -1.
    10030    2    1    2    0    0  0.00000000000E+00  0.00000000000E+00  0.19032725544E+04  0.38203439658E+04  0.33124887321E+04 0.  0.
        2    1    3    3  502    0  0.75942327119E+03  0.53281571346E+03  0.25340458707E+04  0.26985189946E+04  0.25500000920E-02 0.  1.
       -2    1    3    3    0  502 -0.75942327119E+03 -0.53281571346E+03 -0.63077331632E+03  0.11218249712E+04  0.25500000920E-02 0. -1.
</event>
<event>
 5   0  0.3671997E-06  0.3314697E+04  0.7818609E-02  0.8159166E-01
        2   -1    0    0  501    0  0.00000000000E+00  0.00000000000E+00  0.20083462756E+04  0.20083462756E+04  0.25500000920E-02 0.  1.
       -2   -1    0    0    0  501  0.00000000000E+00  0.00000000000E+00 -0.13676942007E+04  0.13676942007E+04  0.25500000920E-02 0. -1.
    10030    2    1    2    0    0  0.00000000000E+00  0.00000000000E+00  0.64065207489E+03  0.33760404763E+04  0.33146967005E+04 0.  0.
        2    1    3    3  502    0 -0.50104599985E+03  0.49361969849E+03 -0.12081453161E+04  0.13979708886E+04  0.25500000920E-02 0. -1.
       -2    1    3    3    0  502  0.50104599985E+03 -0.49361969849E+03  0.18487973910E+04  0.19780695876E+04  0.25500000920E-02 0.  1.
</event>
<event>
 5   0  0.1339825E-06  0.3367652E+04  0.7818609E-02  0.8145891E-01
       -1   -1    0    0    0  501  0.00000000000E+00  0.00000000000E+00  0.10812196875E+04  0.10812196875E+04  0.50400001928E-02 0. -1.
        1   -1    0    0  501    0  0.00000000000E+00  0.00000000000E+00 -0.26222890602E+04  0.26222890602E+04  0.50400001928E-02 0.  1.
    10030    2    1    2    0    0  0.00000000000E+00  0.00000000000E+00 -0.15410693727E+04  0.37035087477E+04  0.33676523326E+04 0.  0.
        3    1    3    3  502    0 -0.52274937679E+03  0.94855595964E+03 -0.21883957375E+04  0.24417414346E+04  0.10100000352E+00 0.  1.
       -3    1    3    3    0  502  0.52274937679E+03 -0.94855595964E+03  0.64732636485E+03  0.12617673131E+04  0.10100000352E+00 0. -1.
</event>
<event>
 5   0  0.1405389E-06  0.3294622E+04  0.7818609E-02  0.8164265E-01
       -1   -1    0    0    0  501  0.00000000000E+00  0.00000000000E+00  0.10751101393E+04  0.10751101393E+04  0.50400001928E-02 0.  1.
        1   -1    0    0  501    0  0.00000000000E+00  0.00000000000E+00 -0.25240521144E+04  0.25240521144E+04  0.50400001928E-02 0. -1.
    10030    2    1    2    0    0  0.00000000000E+00  0.00000000000E+00 -0.14489419751E+04  0.35991622537E+04  0.32946222972E+04 0.  0.
        1    1    3    3  502    0  0.16090498826E+04 -0.33263517934E+03 -0.85348170966E+03  0.18515179492E+04  0.50400001928E-02 0.  1.
       -1    1    3    3    0  502 -0.16090498826E+04  0.33263517934E+03 -0.59546026542E+03  0.17476443045E+04  0.50400001928E-02 0. -1.
</event>
<event>
 5   0  0.1339825E-06  0.3093721E+04  0.7818609E-02  0.8217463E-01
       -1   -1    0    0    0  501  0.00000000000E+00  0.00000000000E+00  0.23673974219E+04  0.23673974219E+04  0.50400001928E-02 0.  1.
        1   -1    0    0  501    0  0.00000000000E+00  0.00000000000E+00 -0.10107209534E+04  0.10107209534E+04  0.50400001928E-02 0. -1.
    10030    2    1    2    0    0  0.00000000000E+00  0.00000000000E+00  0.13566764685E+04  0.33781183753E+04  0.30937214997E+04 0.  0.
        3    1    3    3  502    0  0.78899244712E+03  0.10127166132E+04 -0.26393485348E+03  0.13106355852E+04  0.10100000352E+00 0.  1.
       -3    1    3    3    0  502 -0.78899244712E+03 -0.10127166132E+04  0.16206113220E+04  0.20674827901E+04  0.10100000352E+00 0. -1.
</event>
<event>
 5   0  0.1259875E-06  0.3194641E+04  0.7818609E-02  0.8190234E-01
        3   -1    0    0  501    0  0.00000000000E+00  0.00000000000E+00  0.18119622498E+04  0.18119622526E+04  0.10100000352E+00 0.  1.
       -3   -1    0    0    0  501  0.00000000000E+00  0.00000000000E+00 -0.14081046857E+04  0.14081046894E+04  0.10100000352E+00 0. -1.
    10030    2    1    2    0    0  0.00000000000E+00  0.00000000000E+00  0.40385756402E+03  0.32200669419E+04  0.31946408528E+04 0.  0.
        1    1    3    3  502    0 -0.66504721382E+03  0.61957903291E+03 -0.11220193246E+04  0.14439852282E+04  0.50400001928E-02 0. -1.
       -1    1    3    3    0  502  0.66504721382E+03 -0.61957903291E+03  0.15258768886E+04  0.17760817137E+04  0.50400001928E-02 0.  1.
</event>
<event>
 5   0  0.1282578E-06  0.3263034E+04  0.7818609E-02  0.8172366E-01
       -1   -1    0    0    0  501  0.00000000000E+00  0.00000000000E+00  0.13017808849E+04  0.13017808849E+04  0.50400001928E-02 0.  1.
        1   -1    0    0  501    0  0.00000000000E+00  0.00000000000E+00 -0.20447738064E+04  0.20447738064E+04  0.50400001928E-02 0. -1.
    10030    2    1    2    0    0  0.00000000000E+00  0.00000000000E+00 -0.74299292154E+03  0.33465546913E+04  0.32630338369E+04 0.  0.
        4    1    3    3  502    0  0.77171764373E+03  0.11522024806E+04 -0.12529884788E+04  0.18689837931E+04  0.12699999809E+01 0. -1.
       -4    1    3    3    0  502 -0.77171764373E+03 -0.11522024806E+04  0.50999555723E+03  0.14775708982E+04  0.12699999809E+01 0.  1.
</event>
<event>
 5   0  0.1282578E-06  0.3250549E+04  0.7818609E-02  0.8175593E-01
        1   -1    0    0  501    0  0.00000000000E+00  0.00000000000E+00  0.21788875487E+04  0.21788875487E+04  0.50400001928E-02 0.  1.
       -1   -1    0    0    0  501  0.00000000000E+00  0.00000000000E+00 -0.12123236601E+04  0.12123236601E+04  0.50400001928E-02 0. -1.
    10030    2    1    2    0    0  0.00000000000E+00  0.00000000000E+00  0.96656388856E+03  0.33912112088E+04  0.32505488324E+04 0.  0.
        4    1    3    3  502    0 -0.42581255740E+03 -0.12693635196E+04  0.14445185660E+04  0.19695775129E+04  0.12699999809E+01 0.  1.
       -4    1    3    3    0  502  0.42581255740E+03  0.12693635196E+04 -0.47795467739E+03  0.14216336959E+04  0.12699999809E+01 0. -1.
</event>
<event>
 5   0  0.4017247E-06  0.3328812E+04  0.7818609E-02  0.8155603E-01
        2   -1    0    0  501    0  0.00000000000E+00  0.00000000000E+00  0.23668758758E+04  0.23668758758E+04  0.25500000920E-02 0. -1.
       -2   -1    0    0    0  501  0.00000000000E+00  0.00000000000E+00 -0.11704238301E+04  0.11704238301E+04  0.25500000920E-02 0.  1.
    10030    2    1    2    0    0  0.00000000000E+00  0.00000000000E+00  0.11964520457E+04  0.35372997058E+04  0.33288123575E+04 0.  0.
        1    1    3    3  502    0 -0.79712114718E+03 -0.22406946053E+03 -0.93603036089E+03  0.12497047983E+04  0.50400001928E-02 0.  1.
       -1    1    3    3    0  502  0.79712114718E+03  0.22406946053E+03  0.21324824066E+04  0.22875949075E+04  0.50400001928E-02 0. -1.
</event>
<event>
 5   0  0.3896210E-06  0.3291768E+04  0.7818609E-02  0.8164993E-01
       -2   -1    0    0    0  501  0.00000000000E+00  0.00000000000E+00  0.10722888062E+04  0.10722888062E+04  0.25500000920E-02 0.  1.
        2   -1    0    0  501    0  0.00000000000E+00  0.00000000000E+00 -0.25263096717E+04  0.25263096717E+04  0.25500000920E-02 0. -1.
    10030    2    1    2    0    0  0.00000000000E+00  0.00000000000E+00 -0.14540208656E+04  0.35985984779E+04  0.32917676601E+04 0.  0.
        3    1    3    3  502    0 -0.16130733607E+04 -0.31999230798E+03 -0.80061229774E+03  0.18290382187E+04  0.10100000352E+00 0.  1.
       -3    1    3    3    0  502  0.16130733607E+04  0.31999230798E+03 -0.65340856783E+03  0.17695602592E+04  0.10100000352E+00 0. -1.
</event>
<event>
 5   0  0.1259875E-06  0.3296158E+04  0.7818609E-02  0.8163874E-01
       -3   -1    0    0    0  501  0.00000000000E+00  0.00000000000E+00  0.16424806358E+04  0.16424806390E+04  0.10100000352E+00 0. -1.
        3   -1    0    0  501    0  0.00000000000E+00  0.00000000000E+00 -0.16536968498E+04  0.16536968529E+04  0.10100000352E+00 0.  1.
    10030    2    1    2    0    0  0.00000000000E+00  0.00000000000E+00 -0.11216213982E+02  0.32961774919E+04  0.32961584086E+04 0.  0.
        2    1    3    3  502    0 -0.65984830668E+03 -0.12062455547E+04  0.90309784037E+03  0.16449966065E+04  0.25500000920E-02 0. -1.
       -2    1    3    3    0  502  0.65984830668E+03  0.12062455547E+04 -0.91431405435E+03  0.16511808854E+04  0.25500000920E-02 0.  1.
</event>
<event>
 5   0  0.3671997E-06  0.2368568E+04  0.7818609E-02  0.8451366E-01
       -2   -1    0    0    0  501  0.00000000000E+00  0.00000000000E+00  0.62165029186E+03  0.62165029187E+03  0.25500000920E-02 0.  1.
        2   -1    0    0  501    0  0.00000000000E+00  0.00000000000E+00 -0.22561383305E+04  0.22561383305E+04  0.25500000920E-02 0. -1.
    10030    2    1    2    0    0  0.00000000000E+00  0.00000000000E+00 -0.16344880387E+04  0.28777886224E+04  0.23685683876E+04 0.  0.
        2    1    3    3  502    0  0.10184225696E+04  0.12893839555E+03 -0.15347260427E+04  0.18464001912E+04  0.25500000920E-02 0. -1.
       -2    1    3    3    0  502 -0.10184225696E+04 -0.12893839555E+03 -0.99761995969E+02  0.10313884312E+04  0.25500000920E-02 0.  1.
</event>
<event>
 5   0  0.3920487E-06  0.3288666E+04  0.7818609E-02  0.8165785E-01
        2   -1    0    0  501    0  0.00000000000E+00  0.00000000000E+00  0.19705287801E+04  0.19705287801E+04  0.25500000920E-02 0.  1.
       -2   -1    0    0    0  501  0.00000000000E+00  0.00000000000E+00 -0.13721347656E+04  0.13721347656E+04  0.25500000920E-02 0. -1.
    10030    2    1    2    0    0  0.00000000000E+00  0.00000000000E+00  0.59839401454E+03  0.33426635457E+04  0.32886660188E+04 0.  0.
        4    1    3    3  502    0 -0.57710215305E+02 -0.61147485773E+02  0.19683419043E+04  0.19701372919E+04  0.12699999809E+01 0.  1.
       -4    1    3    3    0  502  0.57710215305E+02  0.61147485773E+02 -0.13699478897E+04  0.13725262538E+04  0.12699999809E+01 0. -1.
</event>
<event>
 5   0  0.1282578E-06  0.3271516E+04  0.7818609E-02  0.8170181E-01
       -1   -1    0    0    0  501  0.00000000000E+00  0.00000000000E+00  0.20135826960E+04  0.20135826960E+04  0.50400001928E-02 0.  1.
        1   -1    0    0  501    0  0.00000000000E+00  0.00000000000E+00 -0.13288272866E+04  0.13288272866E+04  0.50400001928E-02 0. -1.
    10030    2    1    2    0    0  0.00000000000E+00  0.00000000000E+00  0.68475540943E+03  0.33424099827E+04  0.32715156306E+04 0.  0.
        4    1    3    3  502    0 -0.62050846789E+03  0.25583420539E+03  0.18664206641E+04  0.19834337921E+04  0.12699999809E+01 0.  1.
       -4    1    3    3    0  502  0.62050846789E+03 -0.25583420539E+03 -0.11816652547E+04  0.13589761905E+04  0.12699999809E+01 0. -1.
</event>
<event>
 5   0  0.3812379E-06  0.3214583E+04  0.7818609E-02  0.8184976E-01
        2   -1    0    0  501    0  0.00000000000E+00  0.00000000000E+00  0.22293972800E+04  0.22293972800E+04  0.25500000920E-02 0. -1.
       -2   -1    0    0    0  501  0.00000000000E+00  0.00000000000E+00 -0.11587821779E+04  0.11587821779E+04  0.25500000920E-02 0.  1.
    10030    2    1    2    0    0  0.00000000000E+00  0.00000000000E+00  0.10706151021E+04  0.33881794578E+04  0.32145829188E+04 0.  0.
        5    1    3    3  502    0  0.42452224789E+02 -0.11471554841E+04  0.17210470667E+04  0.20687660554E+04  0.46999998093E+01 0. -1.
       -5    1    3    3    0  502 -0.42452224789E+02  0.11471554841E+04 -0.65043196457E+03  0.13194134025E+04  0.46999998093E+01 0.  1.
</event>
<event>
 5   0  0.3896210E-06  0.3346179E+04  0.7818609E-02  0.8151244E-01
        2   -1    0    0  501    0  0.00000000000E+00  0.00000000000E+00  0.28264075260E+04  0.28264075260E+04  0.25500000920E-02 0. -1.
       -2   -1    0    0    0  501  0.00000000000E+00  0.00000000000E+00 -0.99038390008E+03  0.99038390008E+03  0.25500000920E-02 0.  1.
    10030    2    1    2    0    0  0.00000000000E+00  0.00000000000E+00  0.18360236260E+04  0.38167914261E+04  0.33461790202E+04 0.  0.
        3    1    3    3  502    0 -0.63522137119E+03 -0.24416467116E+03  0.26614057092E+04  0.27470352994E+04  0.10100000352E+00 0. -1.
       -3    1    3    3    0  502  0.63522137119E+03  0.24416467116E+03 -0.82538208325E+03  0.10697561267E+04  0.10100000352E+00 0.  1.
</event>
<event>
 5   0  0.1282578E-06  0.3120356E+04  0.7818609E-02  0.8210173E-01
       -1   -1    0    0    0  501  0.00000000000E+00  0.00000000000E+00  0.94020094428E+03  0.94020094430E+03  0.50400001928E-02 0. -1.
        1   -1    0    0  501    0  0.00000000000E+00  0.00000000000E+00 -0.25889742424E+04  0.25889742424E+04  0.50400001928E-02 0.  1.
    10030    2    1    2    0    0  0.00000000000E+00  0.00000000000E+00 -0.16487732982E+04  0.35291751867E+04  0.31203564075E+04 0.  0.
        4    1    3    3  502    0 -0.19360125706E+03  0.10192706047E+04  0.49350766551E+03  0.11488887854E+04  0.12699999809E+01 0. -1.
       -4    1    3    3    0  502  0.19360125706E+03 -0.10192706047E+04 -0.21422809637E+04  0.23802864014E+04  0.12699999809E+01 0.  1.
</event>
<event>
 5   0  0.1339825E-06  0.3241299E+04  0.7818609E-02  0.8177995E-01
       -1   -1    0    0    0  501  0.00000000000E+00  0.00000000000E+00  0.15583098620E+04  0.15583098620E+04  0.50400001928E-02 0.  1.
        1   -1    0    0  501    0  0.00000000000E+00  0.00000000000E+00 -0.16854831215E+04  0.16854831215E+04  0.50400001928E-02 0. -1.
    10030    2    1    2    0    0  0.00000000000E+00  0.00000000000E+00 -0.12717325949E+03  0.32437929836E+04  0.32412991041E+04 0.  0.
        3    1    3    3  502    0 -0.86810897856E+03 -0.13395592530E+04 -0.34393207904E+03  0.16328874659E+04  0.10100000352E+00 0. -1.
       -3    1    3    3    0  502  0.86810897856E+03  0.13395592530E+04  0.21675881955E+03  0.16109055177E+04  0.10100000352E+00 0.  1.
</event>
<event>
 5   0  0.3920487E-06  0.3282183E+04  0.7818609E-02  0.8167444E-01
        2   -1    0    0  501    0  0.00000000000E+00  0.00000000000E+00  0.19251319010E+04  0.19251319010E+04  0.25500000920E-02 0.  1.
       -2   -1    0    0    0  501  0.00000000000E+00  0.00000000000E+00 -0.13989589611E+04  0.13989589611E+04  0.25500000920E-02 0. -1.
    10030    2    1    2    0    0  0.00000000000E+00  0.00000000000E+00  0.52617293991E+03  0.33240908622E+04  0.32821825204E+04 0.  0.
        4    1    3    3  502    0 -0.40942366761E+03  0.15378623610E+04 -0.14269197972E+03  0.15978144432E+04  0.12699999809E+01 0. -1.
       -4    1    3    3    0  502  0.40942366761E+03 -0.15378623610E+04  0.66886491964E+03  0.17262764190E+04  0.12699999809E+01 0.  1.
</event>
<event>
 5   0  0.3896210E-06  0.2314790E+04  0.7818609E-02  0.8472112E-01
       -2   -1    0    0    0  501  0.00000000000E+00  0.00000000000E+00  0.82541135518E+03  0.82541135519E+03  0.25500000920E-02 0.  1.
        2   -1    0    0  501    0  0.00000000000E+00  0.00000000000E+00 -0.16229038514E+04  0.16229038514E+04  0.25500000920E-02 0. -1.
    10030    2    1    2    0    0  0.00000000000E+00  0.00000000000E+00 -0.79749249619E+03  0.24483152066E+04  0.23147900702E+04 0.  0.
        3    1    3    3  502    0 -0.10661791194E+04  0.23336842400E+03 -0.80614598950E+03  0.13568603843E+04  0.10100000352E+00 0. -1.
       -3    1    3    3    0  502  0.10661791194E+04 -0.23336842400E+03  0.86534933069E+01  0.10914548223E+04  0.10100000352E+00 0.  1.
</event>
<event>
 5   0  0.3671997E-06  0.3314495E+04  0.7818609E-02  0.8159217E-01
       -2   -1    0    0    0  501  0.00000000000E+00  0.00000000000E+00  0.29859250833E+04  0.29859250833E+04  0.25500000920E-02 0. -1.
        2   -1    0    0  501    0  0.00000000000E+00  0.00000000000E+00 -0.91980525514E+03  0.91980525515E+03  0.25500000920E-02 0.  1.
    10030    2    1    2    0    0  0.00000000000E+00  0.00000000000E+00  0.20661198282E+04  0.39057303385E+04  0.33144951852E+04 0.  0.
        2    1    3    3  502    0  0.33008846232E+03  0.54055013629E+03  0.28376792835E+04  0.29075034925E+04  0.25500000920E-02 0. -1.
       -2    1    3    3    0  502 -0.33008846232E+03 -0.54055013629E+03 -0.77155945537E+03  0.99822684594E+03  0.25500000920E-02 0.  1.
</event>
<event>
 5   0  0.3671997E-06  0.3279592E+04  0.7818609E-02  0.8168108E-01
       -2   -1    0    0    0  501  0.00000000000E+00  0.00000000000E+00  0.15208933212E+04  0.15208933212E+04  0.25500000920E-02 0.  1.
        2   -1    0    0  501    0  0.00000000000E+00  0.00000000000E+00 -0.17679942760E+04  0.17679942760E+04  0.25500000920E-02 0. -1.
    10030    2    1    2    0    0  0.00000000000E+00  0.00000000000E+00 -0.24710095482E+03  0.32888875971E+04  0.32795918564E+04 0.  0.
        2    1    3    3  502    0  0.14320177383E+04 -0.15969858534E+03 -0.90855414769E+03  0.17034227544E+04  0.25500000920E-02 0. -1.
       -2    1    3    3    0  502 -0.14320177383E+04  0.15969858534E+03  0.66145319287E+03  0.15854648427E+04  0.25500000920E-02 0.  1.
</event>
<event>
 5   0  0.3920487E-06  0.3185399E+04  0.7818609E-02  0.8192684E-01
        2   -1    0    0  501    0  0.00000000000E+00  0.00000000000E+00  0.15482913976E+04  0.15482913976E+04  0.25500000920E-02 0. -1.
       -2   -1    0    0    0  501  0.00000000000E+00  0.00000000000E+00 -0.16383817673E+04  0.16383817673E+04  0.25500000920E-02 0.  1.
    10030    2    1    2    0    0  0.00000000000E+00  0.00000000000E+00 -0.90090369765E+02  0.31866731649E+04  0.31853994389E+04 0.  0.
        4    1    3    3  502    0  0.44376320388E+03  0.76187061689E+01  0.14851765180E+04  0.15500757170E+04  0.12699999809E+01 0. -1.
       -4    1    3    3    0  502 -0.44376320388E+03 -0.76187061689E+01 -0.15752668878E+04  0.16365974479E+04  0.12699999809E+01 0.  1.
</event>
<event>
 5   0  0.3812379E-06  0.3306175E+04  0.7818609E-02  0.8161326E-01
        2   -1    0    0  501    0  0.00000000000E+00  0.00000000000E+00  0.16271535595E+04  0.16271535595E+04  0.25500000920E-02 0. -1.
       -2   -1    0    0    0  501  0.00000000000E+00  0.00000000000E+00 -0.16794351758E+04  0.16794351758E+04  0.25500000920E-02 0.  1.
    10030    2    1    2    0    0  0.00000000000E+00  0.00000000000E+00 -0.52281616254E+02  0.33065887353E+04  0.33061753881E+04 0.  0.
        5    1    3    3  502    0  0.26073933214E+03 -0.12897194652E+04 -0.10269234649E+04  0.16691180878E+04  0.46999998093E+01 0.  1.
       -5    1    3    3    0  502 -0.26073933214E+03  0.12897194652E+04  0.97464184863E+03  0.16374706475E+04  0.46999998093E+01 0. -1.
</event>
<event>
 5   0  0.3812379E-06  0.3306705E+04  0.7818609E-02  0.8161191E-01
       -2   -1    0    0    0  501  0.00000000000E+00  0.00000000000E+00  0.16642814771E+04  0.16642814771E+04  0.25500000920E-02 0.  1.
        2   -1    0    0  501    0  0.00000000000E+00  0.00000000000E+00 -0.16424952191E+04  0.16424952191E+04  0.25500000920E-02 0. -1.
    10030    2    1    2    0    0  0.00000000000E+00  0.00000000000E+00  0.21786258007E+02  0.33067766962E+04  0.33067049275E+04 0.  0.
        5    1    3    3  502    0 -0.29752304144E+03  0.76163169565E+03 -0.14261312673E+04  0.16439207042E+04  0.46999998093E+01 0. -1.
       -5    1    3    3    0  502  0.29752304144E+03 -0.76163169565E+03  0.14479175253E+04  0.16628559920E+04  0.46999998093E+01 0.  1.
</event>
<event>
 5   0  0.3896210E-06  0.3110121E+04  0.7818609E-02  0.8212966E-01
       -2   -1    0    0    0  501  0.00000000000E+00  0.00000000000E+00  0.24459429595E+04  0.24459429595E+04  0.25500000920E-02 0.  1.
        2   -1    0    0  501    0  0.00000000000E+00  0.00000000000E+00 -0.98866273202E+03  0.98866273202E+03  0.25500000920E-02 0. -1.
    10030    2    1    2    0    0  0.00000000000E+00  0.00000000000E+00  0.14572802275E+04  0.34346056916E+04  0.31101206721E+04 0.  0.
        3    1    3    3  502    0  0.11647560549E+04 -0.94319861355E+03  0.11865483346E+04  0.19115902418E+04  0.10100000352E+00 0.  1.
       -3    1    3    3    0  502 -0.11647560549E+04  0.94319861355E+03  0.27073189290E+03  0.15230154497E+04  0.10100000352E+00 0. -1.
</event>
<event>
 5   0  0.1405389E-06  0.3282448E+04  0.7818609E-02  0.8167376E-01
        1   -1    0    0  501    0  0.00000000000E+00  0.00000000000E+00  0.21967547015E+04  0.21967547015E+04  0.50400001928E-02 0.  1.
       -1   -1    0    0    0  501  0.00000000000E+00  0.00000000000E+00 -0.12261799245E+04  0.12261799245E+04  0.50400001928E-02 0. -1.
    10030    2    1    2    0    0  0.00000000000E+00  0.00000000000E+00  0.97057477706E+03  0.34229346260E+04  0.32824481802E+04 0.  0.
        1    1    3    3  502    0 -0.42880461234E+03 -0.84323197039E+03 -0.91327051231E+03  0.13149055404E+04  0.50400001928E-02 0. -1.
       -1    1    3    3    0  502  0.42880461234E+03  0.84323197039E+03  0.18838452894E+04  0.21080290856E+04  0.50400001928E-02 0.  1.
</event>
<event>
 5   0  0.1405389E-06  0.3403349E+04  0.7818609E-02  0.8137085E-01
       -1   -1    0    0    0  501  0.00000000000E+00  0.00000000000E+00  0.24007382003E+04  0.24007382003E+04  0.50400001928E-02 0. -1.
        1   -1    0    0  501    0  0.00000000000E+00  0.00000000000E+00 -0.12061688501E+04  0.12061688501E+04  0.50400001928E-02 0.  1.
    10030    2    1    2    0    0  0.00000000000E+00  0.00000000000E+00  0.11945693501E+04  0.36069070504E+04  0.34033487241E+04 0.  0.
        1    1    3    3  502    0 -0.87623566924E+03 -0.60236128123E+03  0.20053057900E+04  0.22697751810E+04  0.50400001928E-02 0. -1.
       -1    1    3    3    0  502  0.87623566924E+03  0.60236128123E+03 -0.81073643982E+03  0.13371318694E+04  0.50400001928E-02 0.  1.
</event>
<event>
 5   0  0.3671997E-06  0.2386316E+04  0.7818609E-02  0.8444645E-01
        2   -1    0    0  501    0  0.00000000000E+00  0.00000000000E+00  0.25417661149E+04  0.25417661149E+04  0.25500000920E-02 0.  1.
       -2   -1    0    0    0  501  0.00000000000E+00  0.00000000000E+00 -0.56009311492E+03  0.56009311492E+03  0.25500000920E-02 0. -1.
    10030    2    1    2    0    0  0.00000000000E+00  0.00000000000E+00  0.19816730000E+04  0.31018592299E+04  0.23863157383E+04 0.  0.
        2    1    3    3  502    0 -0.84712605456E+03 -0.12915832627E+03 -0.88371162926E+02  0.86146032295E+03  0.25500000920E-02 0. -1.
       -2    1    3    3    0  502  0.84712605456E+03  0.12915832627E+03  0.20700441630E+04  0.22403989069E+04  0.25500000920E-02 0.  1.
</event>
<event>
 5   0  0.3920487E-06  0.2980968E+04  0.7818609E-02  0.8249186E-01
        2   -1    0    0  501    0  0.00000000000E+00  0.00000000000E+00  0.15272746343E+04  0.15272746343E+04  0.25500000920E-02 0.  1.
       -2   -1    0    0    0  501  0.00000000000E+00  0.00000000000E+00 -0.14545800767E+04  0.14545800767E+04  0.25500000920E-02 0. -1.
    10030    2    1    2    0    0  0.00000000000E+00  0.00000000000E+00  0.72694557593E+02  0.29818547111E+04  0.29809684700E+04 0.  0.
        4    1    3    3  502    0  0.35768616004E+03 -0.45781078339E+02 -0.14102867935E+04  0.14556599015E+04  0.12699999809E+01 0. -1.
       -4    1    3    3    0  502 -0.35768616004E+03  0.45781078339E+02  0.14829813511E+04  0.15261948096E+04  0.12699999809E+01 0.  1.
</event>
<event>
 5   0  0.1352708E-06  0.2910856E+04  0.7818609E-02  0.8269655E-01
       -1   -1    0    0    0  501  0.00000000000E+00  0.00000000000E+00  0.16321175049E+04  0.16321175049E+04  0.50400001928E-02 0. -1.
        1   -1    0    0  501    0  0.00000000000E+00  0.00000000000E+00 -0.12978661651E+04  0.12978661651E+04  0.50400001928E-02 0.  1.
    10030    2    1    2    0    0  0.00000000000E+00  0.00000000000E+00  0.33425133988E+03  0.29299836700E+04  0.29108556042E+04 0.  0.
        5    1    3    3  502    0  0.34447000539E+03 -0.92992313517E+02  0.15874048325E+04  0.16270167015E+04  0.46999998093E+01 0. -1.
       -5    1    3    3    0  502 -0.34447000539E+03  0.92992313517E+02 -0.12531534926E+04  0.13029669685E+04  0.46999998093E+01 0.  1.
</event>
<event>
 5   0  0.3920487E-06  0.3306556E+04  0.7818609E-02  0.8161229E-01
       -2   -1    0    0    0  501  0.00000000000E+00  0.00000000000E+00  0.24853229481E+04  0.24853229481E+04  0.25500000920E-02 0. -1.
        2   -1    0    0  501    0  0.00000000000E+00  0.00000000000E+00 -0.10997880752E+04  0.10997880752E+04  0.25500000920E-02 0.  1.
    10030    2    1    2    0    0  0.00000000000E+00  0.00000000000E+00  0.13855348729E+04  0.35851110233E+04  0.33065562395E+04 0.  0.
        4    1    3    3  502    0  0.12156149347E+04 -0.35853926719E+03  0.18438317974E+04  0.22374063971E+04  0.12699999809E+01 0. -1.
       -4    1    3    3    0  502 -0.12156149347E+04  0.35853926719E+03 -0.45829692447E+03  0.13477046262E+04  0.12699999809E+01 0.  1.
</event>
<event>
 5   0  0.1352708E-06  0.3272093E+04  0.7818609E-02  0.8170033E-01
       -1   -1    0    0    0  501  0.00000000000E+00  0.00000000000E+00  0.29293399689E+04  0.29293399689E+04  0.50400001928E-02 0. -1.
        1   -1    0    0  501    0  0.00000000000E+00  0.00000000000E+00 -0.91373773599E+03  0.91373773600E+03  0.50400001928E-02 0.  1.
    10030    2    1    2    0    0  0.00000000000E+00  0.00000000000E+00  0.20156022329E+04  0.38430777049E+04  0.32720931962E+04 0.  0.
        5    1    3    3  502    0  0.70357722123E+03 -0.86112441843E+03  0.24172370327E+04  0.26607542413E+04  0.46999998093E+01 0. -1.
       -5    1    3    3    0  502 -0.70357722123E+03  0.86112441843E+03 -0.40163479978E+03  0.11823234636E+04  0.46999998093E+01 0.  1.
</event>
<event>
 5   0  0.1282578E-06  0.3325852E+04  0.7818609E-02  0.8156348E-01
       -1   -1    0    0    0  501  0.00000000000E+00  0.00000000000E+00  0.86824740851E+03  0.86824740853E+03  0.50400001928E-02 0. -1.
        1   -1    0    0  501    0  0.00000000000E+00  0.00000000000E+00 -0.31849480480E+04  0.31849480480E+04  0.50400001928E-02 0.  1.
    10030    2    1    2    0    0  0.00000000000E+00  0.00000000000E+00 -0.23167006395E+04  0.40531954565E+04  0.33258520045E+04 0.  0.
        4    1    3    3  502    0  0.93949215949E+03 -0.10289321875E+04 -0.52104956197E+02  0.13942967774E+04  0.12699999809E+01 0. -1.
       -4    1    3    3    0  502 -0.93949215949E+03  0.10289321875E+04 -0.22645956833E+04  0.26588986791E+04  0.12699999809E+01 0.  1.
</event>
<event>
 5   0  0.1405389E-06  0.3295771E+04  0.7818609E-02  0.8163972E-01
        1   -1    0    0  501    0  0.00000000000E+00  0.00000000000E+00  0.25020681846E+04  0.25020681846E+04  0.50400001928E-02 0. -1.
       -1   -1    0    0    0  501  0.00000000000E+00  0.00000000000E+00 -0.10853126092E+04  0.10853126092E+04  0.50400001928E-02 0.  1.
    10030    2    1    2    0    0  0.00000000000E+00  0.00000000000E+00  0.14167555754E+04  0.35873807938E+04  0.32957707141E+04 0.  0.
        1    1    3    3  502    0 -0.15605550681E+04  0.13427853566E+03  0.15105546366E+03  0.15735884464E+04  0.50400001928E-02 0.  1.
       -1    1    3    3    0  502  0.15605550681E+04 -0.13427853566E+03  0.12657001117E+04  0.20137923474E+04  0.50400001928E-02 0. -1.
</event>
<event>
 5   0  0.1405389E-06  0.3281905E+04  0.7818609E-02  0.8167515E-01
        1   -1    0    0  501    0  0.00000000000E+00  0.00000000000E+00  0.20396066124E+04  0.20396066124E+04  0.50400001928E-02 0. -1.
       -1   -1    0    0    0  501  0.00000000000E+00  0.00000000000E+00 -0.13202182176E+04  0.13202182176E+04  0.50400001928E-02 0.  1.
    10030    2    1    2    0    0  0.00000000000E+00  0.00000000000E+00  0.71938839473E+03  0.33598248300E+04  0.32819054261E+04 0.  0.
        1    1    3    3  502    0  0.81922462183E+03  0.90554943723E+03  0.14818841716E+04  0.19201899547E+04  0.50400001928E-02 0. -1.
       -1    1    3    3    0  502 -0.81922462183E+03 -0.90554943723E+03 -0.76249577685E+03  0.14396348752E+04  0.50400001928E-02 0.  1.
</event>
<event>
 5   0  0.1405389E-06  0.3347315E+04  0.7818609E-02  0.8150959E-01
        1   -1    0    0  501    0  0.00000000000E+00  0.00000000000E+00  0.23861994643E+04  0.23861994643E+04  0.50400001928E-02 0.  1.
       -1   -1    0    0    0  501  0.00000000000E+00  0.00000000000E+00 -0.11738871720E+04  0.11738871720E+04  0.50400001928E-02 0. -1.
    10030    2    1    2    0    0  0.00000000000E+00  0.00000000000E+00  0.12123122924E+04  0.35600866363E+04  0.33473147094E+04 0.  0.
        1    1    3    3  502    0  0.27351209199E+03 -0.98986658125E+02  0.23591105170E+04  0.23769748956E+04  0.50400001928E-02 0.  1.
       -1    1    3    3    0  502 -0.27351209199E+03  0.98986658125E+02 -0.11467982246E+04  0.11831117407E+04  0.50400001928E-02 0. -1.
</event>
<event>
 5   0  0.1391878E-06  0.3287707E+04  0.7818609E-02  0.8166030E-01
       -1   -1    0    0    0  501  0.00000000000E+00  0.00000000000E+00  0.13826636525E+04  0.13826636525E+04  0.50400001928E-02 0. -1.
        1   -1    0    0  501    0  0.00000000000E+00  0.00000000000E+00 -0.19543829072E+04  0.19543829072E+04  0.50400001928E-02 0.  1.
    10030    2    1    2    0    0  0.00000000000E+00  0.00000000000E+00 -0.57171925469E+03  0.33370465597E+04  0.32877069266E+04 0.  0.
        2    1    3    3  502    0  0.75648877165E+03  0.66573827740E+03 -0.16041081578E+04  0.18943721117E+04  0.25500000920E-02 0.  1.
       -2    1    3    3    0  502 -0.75648877165E+03 -0.66573827740E+03  0.10323889031E+04  0.14426744480E+04  0.25500000920E-02 0. -1.
</event>
<event>
 5   0  0.1352708E-06  0.3286290E+04  0.7818609E-02  0.8166393E-01
       -1   -1    0    0    0  501  0.00000000000E+00  0.00000000000E+00  0.14702271119E+04  0.14702271119E+04  0.50400001928E-02 0.  1.
        1   -1    0    0  501    0  0.00000000000E+00  0.00000000000E+00 -0.18363998883E+04  0.18363998883E+04  0.50400001928E-02 0. -1.
    10030    2    1    2    0    0  0.00000000000E+00  0.00000000000E+00 -0.36617277643E+03  0.33066270003E+04  0.32862896428E+04 0.  0.
        5    1    3    3  502    0 -0.46360961207E+03  0.40837253405E+03  0.13488999651E+04  0.14836627665E+04  0.46999998093E+01 0.  1.
       -5    1    3    3    0  502  0.46360961207E+03 -0.40837253405E+03 -0.17150727415E+04  0.18229642338E+04  0.46999998093E+01 0. -1.
</event>
<event>
 5   0  0.3896210E-06  0.3298865E+04  0.7818609E-02  0.8163184E-01
       -2   -1    0    0    0  501  0.00000000000E+00  0.00000000000E+00  0.16133226385E+04  0.16133226385E+04  0.25500000920E-02 0.  1.
        2   -1    0    0  501    0  0.00000000000E+00  0.00000000000E+00 -0.16863508435E+04  0.16863508435E+04  0.25500000920E-02 0. -1.
    10030    2    1    2    0    0  0.00000000000E+00  0.00000000000E+00 -0.73028205057E+02  0.32996734820E+04  0.32988652547E+04 0.  0.
        3    1    3    3  502    0  0.14774169889E+04  0.28444608121E+03 -0.71266599947E+03  0.16648013003E+04  0.10100000352E+00 0. -1.
       -3    1    3    3    0  502 -0.14774169889E+04 -0.28444608121E+03  0.63963779442E+03  0.16348721817E+04  0.10100000352E+00 0.  1.
</event>
<event>
 5   0  0.1339825E-06  0.3291433E+04  0.7818609E-02  0.8165079E-01
       -1   -1    0    0    0  501  0.00000000000E+00  0.00000000000E+00  0.15739651380E+04  0.15739651380E+04  0.50400001928E-02 0.  1.
        1   -1    0    0  501    0  0.00000000000E+00  0.00000000000E+00 -0.17207389635E+04  0.17207389635E+04  0.50400001928E-02 0. -1.
    10030    2    1    2    0    0  0.00000000000E+00  0.00000000000E+00 -0.14677382550E+03  0.32947041014E+04  0.32914332076E+04 0.  0.
        3    1    3    3  502    0 -0.24254731062E+03 -0.56874543325E+03  0.14532787336E+04  0.15793415253E+04  0.10100000352E+00 0.  1.
       -3    1    3    3    0  502  0.24254731062E+03  0.56874543325E+03 -0.16000525591E+04  0.17153625762E+04  0.10100000352E+00 0. -1.
</event>
<event>
 5   0  0.1391878E-06  0.2865477E+04  0.7818609E-02  0.8283224E-01
        1   -1    0    0  501    0  0.00000000000E+00  0.00000000000E+00  0.21139810125E+04  0.21139810126E+04  0.50400001928E-02 0.  1.
       -1   -1    0    0    0  501  0.00000000000E+00  0.00000000000E+00 -0.97103006267E+03  0.97103006268E+03  0.50400001928E-02 0. -1.
    10030    2    1    2    0    0  0.00000000000E+00  0.00000000000E+00  0.11429509499E+04  0.30850110752E+04  0.28654766550E+04 0.  0.
        2    1    3    3  502    0  0.11851457131E+04 -0.60026425505E+03  0.11490980524E+04  0.17565061546E+04  0.25500000920E-02 0.  1.
       -2    1    3    3    0  502 -0.11851457131E+04  0.60026425505E+03 -0.61471025738E+01  0.13285049206E+04  0.25500000920E-02 0. -1.
</event>
<event>
 5   0  0.3812379E-06  0.2295708E+04  0.7818609E-02  0.8479615E-01
        2   -1    0    0  501    0  0.00000000000E+00  0.00000000000E+00  0.11026918322E+04  0.11026918322E+04  0.25500000920E-02 0. -1.
       -2   -1    0    0    0  501  0.00000000000E+00  0.00000000000E+00 -0.11948653258E+04  0.11948653258E+04  0.25500000920E-02 0.  1.
    10030    2    1    2    0    0  0.00000000000E+00  0.00000000000E+00 -0.92173493667E+02  0.22975571580E+04  0.22957075034E+04 0.  0.
        5    1    3    3  502    0 -0.26479487148E+03  0.37602037858E+03  0.10064442444E+04  0.11065530969E+04  0.46999998093E+01 0. -1.
       -5    1    3    3    0  502  0.26479487148E+03 -0.37602037858E+03 -0.10986177381E+04  0.11910040611E+04  0.46999998093E+01 0.  1.
</event>
<event>
 5   0  0.3896210E-06  0.3283390E+04  0.7818609E-02  0.8167135E-01
        2   -1    0    0  501    0  0.00000000000E+00  0.00000000000E+00  0.21760971468E+04  0.21760971468E+04  0.25500000920E-02 0. -1.
       -2   -1    0    0    0  501  0.00000000000E+00  0.00000000000E+00 -0.12385306919E+04  0.12385306919E+04  0.25500000920E-02 0.  1.
    10030    2    1    2    0    0  0.00000000000E+00  0.00000000000E+00  0.93756645485E+03  0.34146278387E+04  0.32833903849E+04 0.  0.
        3    1    3    3  502    0  0.93371308498E+03  0.10414079524E+04 -0.42511475325E+03  0.14618731860E+04  0.10100000352E+00 0.  1.
       -3    1    3    3    0  502 -0.93371308498E+03 -0.10414079524E+04  0.13626812081E+04  0.19527546527E+04  0.10100000352E+00 0. -1.
</event>
<event>
 5   0  0.1405389E-06  0.3366087E+04  0.7818609E-02  0.8146280E-01
       -1   -1    0    0    0  501  0.00000000000E+00  0.00000000000E+00  0.16685964586E+04  0.16685964586E+04  0.50400001928E-02 0.  1.
        1   -1    0    0  501    0  0.00000000000E+00  0.00000000000E+00 -0.16976160515E+04  0.16976160515E+04  0.50400001928E-02 0. -1.
    10030    2    1    2    0    0  0.00000000000E+00  0.00000000000E+00 -0.29019592895E+02  0.33662125101E+04  0.33660874211E+04 0.  0.
        1    1    3    3  502    0  0.29018770818E+02 -0.12274828704E+03  0.16638633004E+04  0.16686372624E+04  0.50400001928E-02 0.  1.
       -1    1    3    3    0  502 -0.29018770818E+02  0.12274828704E+03 -0.16928828933E+04  0.16975752477E+04  0.50400001928E-02 0. -1.
</event>
<event>
 5   0  0.3920487E-06  0.3250112E+04  0.7818609E-02  0.8175707E-01
        2   -1    0    0  501    0  0.00000000000E+00  0.00000000000E+00  0.14760102537E+04  0.14760102538E+04  0.25500000920E-02 0.  1.
       -2   -1    0    0    0  501  0.00000000000E+00  0.00000000000E+00 -0.17891524253E+04  0.17891524253E+04  0.25500000920E-02 0. -1.
    10030    2    1    2    0    0  0.00000000000E+00  0.00000000000E+00 -0.31314217157E+03  0.32651626791E+04  0.32501121982E+04 0.  0.
        4    1    3    3  502    0 -0.15646947558E+04 -0.23254841558E+03 -0.53039264902E+03  0.16684323239E+04  0.12699999809E+01 0. -1.
       -4    1    3    3    0  502  0.15646947558E+04  0.23254841558E+03  0.21725047744E+03  0.15967303552E+04  0.12699999809E+01 0.  1.
</event>
<event>
 5   0  0.4017247E-06  0.3313909E+04  0.7818609E-02  0.8159365E-01
       -2   -1    0    0    0  501  0.00000000000E+00  0.00000000000E+00  0.20707561505E+04  0.20707561505E+04  0.25500000920E-02 0. -1.
        2   -1    0    0  501    0  0.00000000000E+00  0.00000000000E+00 -0.13258434144E+04  0.13258434144E+04  0.25500000920E-02 0.  1.
    10030    2    1    2    0    0  0.00000000000E+00  0.00000000000E+00  0.74491273616E+03  0.33965995649E+04  0.33139091146E+04 0.  0.
        1    1    3    3  502    0  0.13610960316E+04 -0.65176031501E+03  0.10737250383E+04  0.18520959406E+04  0.50400001928E-02 0. -1.
       -1    1    3    3    0  502 -0.13610960316E+04  0.65176031501E+03 -0.32881230215E+03  0.15445036243E+04  0.50400001928E-02 0.  1.
</event>
<event>
 5   0  0.3896210E-06  0.3298997E+04  0.7818609E-02  0.8163151E-01
       -2   -1    0    0    0  501  0.00000000000E+00  0.00000000000E+00  0.24918815133E+04  0.24918815133E+04  0.25500000920E-02 0.  1.
        2   -1    0    0  501    0  0.00000000000E+00  0.00000000000E+00 -0.10918835752E+04  0.10918835752E+04  0.25500000920E-02 0. -1.
    10030    2    1    2    0    0  0.00000000000E+00  0.00000000000E+00  0.13999979381E+04  0.35837650884E+04  0.32989965114E+04 0.  0.
        3    1    3    3  502    0  0.47239657282E+03  0.15786594125E+04  0.78071203541E+03  0.18234131060E+04  0.10100000352E+00 0.  1.
       -3    1    3    3    0  502 -0.47239657282E+03 -0.15786594125E+04  0.61928590271E+03  0.17603519825E+04  0.10100000352E+00 0. -1.
</event>
<event>
 5   0  0.1352708E-06  0.3128644E+04  0.7818609E-02  0.8207920E-01
       -1   -1    0    0    0  501  0.00000000000E+00  0.00000000000E+00  0.19493060429E+04  0.19493060429E+04  0.50400001928E-02 0. -1.
        1   -1    0    0  501    0  0.00000000000E+00  0.00000000000E+00 -0.12553718935E+04  0.12553718936E+04  0.50400001928E-02 0.  1.
    10030    2    1    2    0    0  0.00000000000E+00  0.00000000000E+00  0.69393414932E+03  0.32046779364E+04  0.31286444465E+04 0.  0.
        5    1    3    3  502    0  0.15229496737E+04  0.25663161341E+03  0.92233896921E+02  0.15471795873E+04  0.46999998093E+01 0.  1.
       -5    1    3    3    0  502 -0.15229496737E+04 -0.25663161341E+03  0.60170025240E+03  0.16574983491E+04  0.46999998093E+01 0. -1.
</event>
<event>
 5   0  0.1391878E-06  0.3167778E+04  0.7818609E-02  0.8197379E-01
       -1   -1    0    0    0  501  0.00000000000E+00  0.00000000000E+00  0.25332830926E+04  0.25332830926E+04  0.50400001928E-02 0. -1.
        1   -1    0    0  501    0  0.00000000000E+00  0.00000000000E+00 -0.99029749980E+03  0.99029749981E+03  0.50400001928E-02 0.  1.
    10030    2    1    2    0    0  0.00000000000E+00  0.00000000000E+00  0.15429855928E+04  0.35235805924E+04  0.31677777150E+04 0.  0.
        2    1    3    3  502    0 -0.10000215369E+04  0.12234862553E+04  0.65096016170E+03  0.17090087253E+04  0.25500000920E-02 0.  1.
       -2    1    3    3    0  502  0.10000215369E+04 -0.12234862553E+04  0.89202543106E+03  0.18145718671E+04  0.25500000920E-02 0. -1.
</event>
<event>
 5   0  0.1339825E-06  0.3360529E+04  0.7818609E-02  0.8147662E-01
        1   -1    0    0  501    0  0.00000000000E+00  0.00000000000E+00  0.18711959148E+04  0.18711959148E+04  0.50400001928E-02 0. -1.
       -1   -1    0    0    0  501  0.00000000000E+00  0.00000000000E+00 -0.15088153530E+04  0.15088153530E+04  0.50400001928E-02 0.  1.
    10030    2    1    2    0    0  0.00000000000E+00  0.00000000000E+00  0.36238056179E+03  0.33800112677E+04  0.33605291992E+04 0.  0.
        3    1    3    3  502    0  0.53043186910E+03  0.14320989028E+03 -0.14159139129E+04  0.15187755790E+04  0.10100000352E+00 0.  1.
       -3    1    3    3    0  502 -0.53043186910E+03 -0.14320989028E+03  0.17782944746E+04  0.18612356888E+04  0.10100000352E+00 0. -1.
</event>
<event>
 5   0  0.3671997E-06  0.3317002E+04  0.7818609E-02  0.8158583E-01
        2   -1    0    0  501    0  0.00000000000E+00  0.00000000000E+00  0.25128660603E+04  0.25128660603E+04  0.25500000920E-02 0. -1.
       -2   -1    0    0    0  501  0.00000000000E+00  0.00000000000E+00 -0.10946166748E+04  0.10946166748E+04  0.25500000920E-02 0.  1.
    10030    2    1    2    0    0  0.00000000000E+00  0.00000000000E+00  0.14182493855E+04  0.36074827351E+04  0.33170017131E+04 0.  0.
        2    1    3    3  502    0  0.23779785781E+03 -0.15663427684E+04  0.17560637578E+03  0.15939934406E+04  0.25500000920E-02 0.  1.
       -2    1    3    3    0  502 -0.23779785781E+03  0.15663427684E+04  0.12426430097E+04  0.20134892945E+04  0.25500000920E-02 0. -1.
</event>
<event>
 5   0  0.3920487E-06  0.3377400E+04  0.7818609E-02  0.8143475E-01
        2   -1    0    0  501    0  0.00000000000E+00  0.00000000000E+00  0.21599079201E+04  0.21599079201E+04  0.25500000920E-02 0.  1.
       -2   -1    0    0    0  501  0.00000000000E+00  0.00000000000E+00 -0.13202913966E+04  0.13202913966E+04  0.25500000920E-02 0. -1.
    10030    2    1    2    0    0  0.00000000000E+00  0.00000000000E+00  0.83961652356E+03  0.34801993167E+04  0.33774000914E+04 0.  0.
        4    1    3    3  502    0 -0.48655345125E+03 -0.74459901166E+02 -0.12447317544E+04  0.13385205606E+04  0.12699999809E+01 0. -1.
       -4    1    3    3    0  502  0.48655345125E+03  0.74459901166E+02  0.20843482779E+04  0.21416787561E+04  0.12699999809E+01 0.  1.
</event>
<event>
 5   0  0.1391878E-06  0.3284348E+04  0.7818609E-02  0.8166890E-01
       -1   -1    0    0    0  501  0.00000000000E+00  0.00000000000E+00  0.19565349692E+04  0.19565349693E+04  0.50400001928E-02 0.  1.
        1   -1    0    0  501    0  0.00000000000E+00  0.00000000000E+00 -0.13783220157E+04  0.13783220157E+04  0.50400001928E-02 0. -1.
    10030    2    1    2    0    0  0.00000000000E+00  0.00000000000E+00  0.57821295358E+03  0.33348569849E+04  0.32843478638E+04 0.  0.
        2    1    3    3  502    0 -0.19857888863E+03  0.44027171100E+03 -0.13045732188E+04  0.13911089237E+04  0.25500000920E-02 0. -1.
       -2    1    3    3    0  502  0.19857888863E+03 -0.44027171100E+03  0.18827861724E+04  0.19437480612E+04  0.25500000920E-02 0.  1.
</event>
<event>
 5   0  0.1352708E-06  0.3262056E+04  0.7818609E-02  0.8172618E-01
        1   -1    0    0  501    0  0.00000000000E+00  0.00000000000E+00  0.21877247499E+04  0.21877247499E+04  0.50400001928E-02 0.  1.
       -1   -1    0    0    0  501  0.00000000000E+00  0.00000000000E+00 -0.12159907644E+04  0.12159907644E+04  0.50400001928E-02 0. -1.
    10030    2    1    2    0    0  0.00000000000E+00  0.00000000000E+00  0.97173398548E+03  0.34037155143E+04  0.32620564624E+04 0.  0.
        5    1    3    3  502    0  0.14259478494E+03  0.96534804192E+03 -0.87779214232E+03  0.13125438087E+04  0.46999998093E+01 0. -1.
       -5    1    3    3    0  502 -0.14259478494E+03 -0.96534804192E+03  0.18495261278E+04  0.20911717056E+04  0.46999998093E+01 0.  1.
</event>
<event>
 5   0  0.1391878E-06  0.3386917E+04  0.7818609E-02  0.8141125E-01
        1   -1    0    0  501    0  0.00000000000E+00  0.00000000000E+00  0.18004200869E+04  0.18004200869E+04  0.50400001928E-02 0.  1.
       -1   -1    0    0    0  501  0.00000000000E+00  0.00000000000E+00 -0.15928515177E+04  0.15928515177E+04  0.50400001928E-02 0. -1.
    10030    2    1    2    0    0  0.00000000000E+00  0.00000000000E+00  0.20756856924E+03  0.33932716046E+04  0.33869171043E+04 0.  0.
        2    1    3    3  502    0  0.14934090498E+04  0.74355947818E+03  0.39527788551E+03  0.17144666501E+04  0.25500000920E-02 0. -1.
       -2    1    3    3    0  502 -0.14934090498E+04 -0.74355947818E+03 -0.18770931627E+03  0.16788049544E+04  0.25500000920E-02 0.  1.
</event>
<event>
 5   0  0.3671997E-06  0.2481758E+04  0.7818609E-02  0.8409513E-01
       -2   -1    0    0    0  501  0.00000000000E+00  0.00000000000E+00  0.78374065197E+03  0.78374065197E+03  0.25500000920E-02 0. -1.
        2   -1    0    0  501    0  0.00000000000E+00  0.00000000000E+00 -0.19646565830E+04  0.19646565830E+04  0.25500000920E-02 0.  1.
    10030    2    1    2    0    0  0.00000000000E+00  0.00000000000E+00 -0.11809159310E+04  0.27483972350E+04  0.24817584341E+04 0.  0.
        2    1    3    3  502    0  0.29272664258E+03  0.12014788721E+04 -0.70415734631E+03  0.14230523306E+04  0.25500000920E-02 0. -1.
       -2    1    3    3    0  502 -0.29272664258E+03 -0.12014788721E+04 -0.47675858471E+03  0.13253449043E+04  0.25500000920E-02 0.  1.
</event>
<event>
 5   0  0.3896210E-06  0.3305029E+04  0.7818609E-02  0.8161617E-01
       -2   -1    0    0    0  501  0.00000000000E+00  0.00000000000E+00  0.11710092201E+04  0.11710092201E+04  0.25500000920E-02 0. -1.
        2   -1    0    0  501    0  0.00000000000E+00  0.00000000000E+00 -0.23320086503E+04  0.23320086503E+04  0.25500000920E-02 0.  1.
    10030    2    1    2    0    0  0.00000000000E+00  0.00000000000E+00 -0.11609994301E+04  0.35030178704E+04  0.33050286721E+04 0.  0.
        3    1    3    3  502    0 -0.73222407913E+02 -0.32181556598E+02  0.11689564738E+04  0.11716895585E+04  0.10100000352E+00 0. -1.
       -3    1    3    3    0  502  0.73222407913E+02  0.32181556598E+02 -0.23299559039E+04  0.23313283119E+04  0.10100000352E+00 0.  1.
</event>
<event>
 5   0  0.3671997E-06  0.3244255E+04  0.7818609E-02  0.8177226E-01
        2   -1    0    0  501    0  0.00000000000E+00  0.00000000000E+00  0.16998193239E+04  0.16998193239E+04  0.25500000920E-02 0. -1.
       -2   -1    0    0    0  501  0.00000000000E+00  0.00000000000E+00 -0.15479863919E+04  0.15479863919E+04  0.25500000920E-02 0.  1.
    10030    2    1    2    0    0  0.00000000000E+00  0.00000000000E+00  0.15183293201E+03  0.32478057158E+04  0.32442547262E+04 0.  0.
        2    1    3    3  502    0 -0.18522953098E+03 -0.15791770880E+04  0.39749528554E+03  0.16389364712E+04  0.25500000920E-02 0. -1.
       -2    1    3    3    0  502  0.18522953098E+03  0.15791770880E+04 -0.24566235353E+03  0.16088692447E+04  0.25500000920E-02 0.  1.
</event>
<event>
 5   0  0.1339825E-06  0.3370800E+04  0.7818609E-02  0.8145110E-01
        1   -1    0    0  501    0  0.00000000000E+00  0.00000000000E+00  0.23746452598E+04  0.23746452598E+04  0.50400001928E-02 0.  1.
       -1   -1    0    0    0  501  0.00000000000E+00  0.00000000000E+00 -0.11962097133E+04  0.11962097133E+04  0.50400001928E-02 0. -1.
    10030    2    1    2    0    0  0.00000000000E+00  0.00000000000E+00  0.11784355465E+04  0.35708549730E+04  0.33708003354E+04 0.  0.
        3    1    3    3  502    0  0.10555028011E+04 -0.62874148668E+03  0.18114570083E+04  0.21887847138E+04  0.10100000352E+00 0.  1.
       -3    1    3    3    0  502 -0.10555028011E+04  0.62874148668E+03 -0.63302146183E+03  0.13820702592E+04  0.10100000352E+00 0. -1.
</event>
<event>
 5   0  0.1352708E-06  0.2857204E+04  0.7818609E-02  0.8285726E-01
       -1   -1    0    0    0  501  0.00000000000E+00  0.00000000000E+00  0.86741569340E+03  0.86741569342E+03  0.50400001928E-02 0.  1.
        1   -1    0    0  501    0  0.00000000000E+00  0.00000000000E+00 -0.23528557993E+04  0.23528557993E+04  0.50400001928E-02 0. -1.
    10030    2    1    2    0    0  0.00000000000E+00  0.00000000000E+00 -0.14854401059E+04  0.32202714927E+04  0.28572042591E+04 0.  0.
        5    1    3    3  502    0  0.40274785106E+03 -0.22359878030E+03 -0.22668430693E+04  0.23131800269E+04  0.46999998093E+01 0. -1.
       -5    1    3    3    0  502 -0.40274785106E+03  0.22359878030E+03  0.78140296342E+03  0.90709146579E+03  0.46999998093E+01 0.  1.
</event>
<event>
 5   0  0.3812379E-06  0.3319319E+04  0.7818609E-02  0.8157997E-01
       -2   -1    0    0    0  501  0.00000000000E+00  0.00000000000E+00  0.17868650053E+04  0.17868650053E+04  0.25500000920E-02 0.  1.
        2   -1    0    0  501    0  0.00000000000E+00  0.00000000000E+00 -0.15415093543E+04  0.15415093543E+04  0.25500000920E-02 0. -1.
    10030    2    1    2    0    0  0.00000000000E+00  0.00000000000E+00  0.24535565097E+03  0.33283743596E+04  0.33193186774E+04 0.  0.
        5    1    3    3  502    0 -0.11107338073E+04  0.12168677357E+04 -0.77743316428E+02  0.16494128622E+04  0.46999998093E+01 0. -1.
       -5    1    3    3    0  502  0.11107338073E+04 -0.12168677357E+04  0.32309896740E+03  0.16789614973E+04  0.46999998093E+01 0.  1.
</event>
<event>
 5   0  0.1352708E-06  0.3280127E+04  0.7818609E-02  0.8167971E-01
        1   -1    0    0  501    0  0.00000000000E+00  0.00000000000E+00  0.13283554126E+04  0.13283554126E+04  0.50400001928E-02 0.  1.
       -1   -1    0    0    0  501  0.00000000000E+00  0.00000000000E+00 -0.20249163224E+04  0.20249163225E+04  0.50400001928E-02 0. -1.
    10030    2    1    2    0    0  0.00000000000E+00  0.00000000000E+00 -0.69656090987E+03  0.33532717350E+04  0.32801271664E+04 0.  0.
        5    1    3    3  502    0  0.40601542461E+03 -0.14211975475E+04 -0.10748580489E+04  0.18275647483E+04  0.46999998093E+01 0. -1.
       -5    1    3    3    0  502 -0.40601542461E+03  0.14211975475E+04  0.37829713900E+03  0.15257069867E+04  0.46999998093E+01 0.  1.
</event>
<event>
 5   0  0.1391878E-06  0.2161706E+04  0.7818609E-02  0.8534538E-01
       -1   -1    0    0    0  501  0.00000000000E+00  0.00000000000E+00  0.14015035368E+04  0.14015035368E+04  0.50400001928E-02 0.  1.
        1   -1    0    0  501    0  0.00000000000E+00  0.00000000000E+00 -0.83356450035E+03  0.83356450037E+03  0.50400001928E-02 0. -1.
    10030    2    1    2    0    0  0.00000000000E+00  0.00000000000E+00  0.56793903640E+03  0.22350680371E+04  0.21617063588E+04 0.  0.
        2    1    3    3  502    0 -0.81498590332E+02 -0.35126591584E+03 -0.76953754842E+03  0.84983398513E+03  0.25500000920E-02 0. -1.
       -2    1    3    3    0  502  0.81498590332E+02  0.35126591584E+03  0.13374765848E+04  0.13852340520E+04  0.25500000920E-02 0.  1.
</event>
<event>
 5   0  0.3812379E-06  0.3145939E+04  0.7818609E-02  0.8203242E-01
       -2   -1    0    0    0  501  0.00000000000E+00  0.00000000000E+00  0.22069748064E+04  0.22069748064E+04  0.25500000920E-02 0.  1.
        2   -1    0    0  501    0  0.00000000000E+00  0.00000000000E+00 -0.11210974492E+04  0.11210974492E+04  0.25500000920E-02 0. -1.
    10030    2    1    2    0    0  0.00000000000E+00  0.00000000000E+00  0.10858773572E+04  0.33280722556E+04  0.31459394946E+04 0.  0.
        5    1    3    3  502    0  0.11828565865E+04 -0.10288635267E+04  0.40704194200E+03  0.16196959880E+04  0.46999998093E+01 0. -1.
       -5    1    3    3    0  502 -0.11828565865E+04  0.10288635267E+04  0.67883541518E+03  0.17083762676E+04  0.46999998093E+01 0.  1.
</event>
<event>
 5   0  0.1405389E-06  0.3391507E+04  0.7818609E-02  0.8139994E-01
       -1   -1    0    0    0  501  0.00000000000E+00  0.00000000000E+00  0.14083952986E+04  0.14083952986E+04  0.50400001928E-02 0. -1.
        1   -1    0    0  501    0  0.00000000000E+00  0.00000000000E+00 -0.20417415525E+04  0.20417415525E+04  0.50400001928E-02 0.  1.
    10030    2    1    2    0    0  0.00000000000E+00  0.00000000000E+00 -0.63334625395E+03  0.34501368511E+04  0.33915065699E+04 0.  0.
        1    1    3    3  502    0  0.16088218170E+04 -0.53082209602E+03 -0.39211352235E+03  0.17389171202E+04  0.50400001928E-02 0.  1.
       -1    1    3    3    0  502 -0.16088218170E+04  0.53082209602E+03 -0.24123273160E+03  0.17112197309E+04  0.50400001928E-02 0. -1.
</event>
<event>
 5   0  0.3896210E-06  0.3184989E+04  0.7818609E-02  0.8192793E-01
        2   -1    0    0  501    0  0.00000000000E+00  0.00000000000E+00  0.14113296141E+04  0.14113296141E+04  0.25500000920E-02 0. -1.
       -2   -1    0    0    0  501  0.00000000000E+00  0.00000000000E+00 -0.17969150022E+04  0.17969150022E+04  0.25500000920E-02 0.  1.
    10030    2    1    2    0    0  0.00000000000E+00  0.00000000000E+00 -0.38558538817E+03  0.32082446163E+04  0.31849893919E+04 0.  0.
        3    1    3    3  502    0 -0.33058899266E+03 -0.19316545290E+03  0.13642743399E+04  0.14169849890E+04  0.10100000352E+00 0. -1.
       -3    1    3    3    0  502  0.33058899266E+03  0.19316545290E+03 -0.17498597281E+04  0.17912596273E+04  0.10100000352E+00 0.  1.
</event>
<event>
 5   0  0.4017247E-06  0.3347645E+04  0.7818609E-02  0.8150877E-01
        2   -1    0    0  501    0  0.00000000000E+00  0.00000000000E+00  0.13396859279E+04  0.13396859279E+04  0.25500000920E-02 0.  1.
       -2   -1    0    0    0  501  0.00000000000E+00  0.00000000000E+00 -0.20912979485E+04  0.20912979485E+04  0.25500000920E-02 0. -1.
    10030    2    1    2    0    0  0.00000000000E+00  0.00000000000E+00 -0.75161202053E+03  0.34309838764E+04  0.33476454010E+04 0.  0.
        1    1    3    3  502    0  0.68839497778E+02 -0.16253472721E+04  0.27942391662E+02  0.16270443782E+04  0.50400001928E-02 0.  1.
       -1    1    3    3    0  502 -0.68839497778E+02  0.16253472721E+04 -0.77955441219E+03  0.18039394982E+04  0.50400001928E-02 0. -1.
</event>
<event>
 5   0  0.3896210E-06  0.3133327E+04  0.7818609E-02  0.8206651E-01
        2   -1    0    0  501    0  0.00000000000E+00  0.00000000000E+00  0.15258802759E+04  0.15258802759E+04  0.25500000920E-02 0. -1.
       -2   -1    0    0    0  501  0.00000000000E+00  0.00000000000E+00 -0.16085367527E+04  0.16085367527E+04  0.25500000920E-02 0.  1.
    10030    2    1    2    0    0  0.00000000000E+00  0.00000000000E+00 -0.82656476799E+02  0.31344170285E+04  0.31333269883E+04 0.  0.
        3    1    3    3  502    0 -0.14766569711E+04 -0.31263038084E+03  0.37855690225E+03  0.15561358886E+04  0.10100000352E+00 0.  1.
       -3    1    3    3    0  502  0.14766569711E+04  0.31263038084E+03 -0.46121337905E+03  0.15782811399E+04  0.10100000352E+00 0. -1.
</event>
<event>
 5   0  0.1391878E-06  0.3297574E+04  0.7818609E-02  0.8163513E-01
        1   -1    0    0  501    0  0.00000000000E+00  0.00000000000E+00  0.18704546742E+04  0.18704546742E+04  0.50400001928E-02 0.  1.
       -1   -1    0    0    0  501  0.00000000000E+00  0.00000000000E+00 -0.14533891416E+04  0.14533891416E+04  0.50400001928E-02 0. -1.
    10030    2    1    2    0    0  0.00000000000E+00  0.00000000000E+00  0.41706553255E+03  0.33238438158E+04  0.32975739648E+04 0.  0.
        2    1    3    3  502    0  0.16355333953E+04  0.20859702942E+03  0.21260293799E+03  0.16624326203E+04  0.25500000920E-02 0.  1.
       -2    1    3    3    0  502 -0.16355333953E+04 -0.20859702942E+03  0.20446259457E+03  0.16614111955E+04  0.25500000920E-02 0. -1.
</event>
<event>
 5   0  0.3920487E-06  0.3295172E+04  0.7818609E-02  0.8164125E-01
       -2   -1    0    0    0  501  0.00000000000E+00  0.00000000000E+00  0.92375477637E+03  0.92375477638E+03  0.25500000920E-02 0.  1.
        2   -1    0    0  501    0  0.00000000000E+00  0.00000000000E+00 -0.29385938146E+04  0.29385938146E+04  0.25500000920E-02 0. -1.
    10030    2    1    2    0    0  0.00000000000E+00  0.00000000000E+00 -0.20148390382E+04  0.38623485910E+04  0.32951722699E+04 0.  0.
        4    1    3    3  502    0 -0.44222349207E+03  0.11325679420E+04 -0.23106746071E+04  0.26110324611E+04  0.12699999809E+01 0. -1.
       -4    1    3    3    0  502  0.44222349207E+03 -0.11325679420E+04  0.29583556890E+03  0.12513161299E+04  0.12699999809E+01 0.  1.
</event>
<event>
 5   0  0.1352708E-06  0.2520520E+04  0.7818609E-02  0.8395711E-01
        1   -1    0    0  501    0  0.00000000000E+00  0.00000000000E+00  0.20299220439E+04  0.20299220439E+04  0.50400001928E-02 0. -1.
       -1   -1    0    0    0  501  0.00000000000E+00  0.00000000000E+00 -0.78242192375E+03  0.78242192376E+03  0.50400001928E-02 0.  1.
    10030    2    1    2    0    0  0.00000000000E+00  0.00000000000E+00  0.12475001202E+04  0.28123439677E+04  0.25205201929E+04 0.  0.
        5    1    3    3  502    0 -0.31072421420E+03 -0.30146273589E+03 -0.69683675820E+03  0.82038580924E+03  0.46999998093E+01 0.  1.
       -5    1    3    3    0  502  0.31072421420E+03  0.30146273589E+03  0.19443368784E+04  0.19919581584E+04  0.46999998093E+01 0. -1.
</event>
<event>
 5   0  0.1391878E-06  0.2049831E+04  0.7818609E-02  0.8583671E-01
        1   -1    0    0  501    0  0.00000000000E+00  0.00000000000E+00  0.91369518703E+03  0.91369518704E+03  0.50400001928E-02 0.  1.
       -1   -1    0    0    0  501  0.00000000000E+00  0.00000000000E+00 -0.11496745244E+04  0.11496745244E+04  0.50400001928E-02 0. -1.
    10030    2    1    2    0    0  0.00000000000E+00  0.00000000000E+00 -0.23597933737E+03  0.20633697115E+04  0.20498312902E+04 0.  0.
        2    1    3    3  502    0  0.27359266204E+03  0.96851592453E+03  0.77136011858E+02  0.10093691124E+04  0.25500000920E-02 0.  1.
       -2    1    3    3    0  502 -0.27359266204E+03 -0.96851592453E+03 -0.31311534923E+03  0.10540005990E+04  0.25500000920E-02 0. -1.
</event>
<event>
 5   0  0.1391878E-06  0.3324846E+04  0.7818609E-02  0.8156602E-01
        1   -1    0    0  501    0  0.00000000000E+00  0.00000000000E+00  0.22103024795E+04  0.22103024795E+04  0.50400001928E-02 0.  1.
       -1   -1    0    0    0  501  0.00000000000E+00  0.00000000000E+00 -0.12503492570E+04  0.12503492570E+04  0.50400001928E-02 0. -1.
    10030    2    1    2    0    0  0.00000000000E+00  0.00000000000E+00  0.95995322248E+03  0.34606517365E+04  0.33248458989E+04 0.  0.
        2    1    3    3  502    0 -0.54435053150E+03  0.50167329169E+03 -0.10693307616E+04  0.13005621363E+04  0.25500000920E-02 0. -1.
       -2    1    3    3    0  502  0.54435053150E+03 -0.50167329169E+03  0.20292839841E+04  0.21600896002E+04  0.25500000920E-02 0.  1.
</event>
<event>
 5   0  0.1339825E-06  0.3288807E+04  0.7818609E-02  0.8165749E-01
        1   -1    0    0  501    0  0.00000000000E+00  0.00000000000E+00  0.12151321015E+04  0.12151321016E+04  0.50400001928E-02 0. -1.
       -1   -1    0    0    0  501  0.00000000000E+00  0.00000000000E+00 -0.22253244393E+04  0.22253244393E+04  0.50400001928E-02 0.  1.
    10030    2    1    2    0    0  0.00000000000E+00  0.00000000000E+00 -0.10101923377E+04  0.34404565408E+04  0.32888071774E+04 0.  0.
        3    1    3    3  502    0 -0.13944586379E+03 -0.10878392794E+04  0.77664511127E+03  0.13438813511E+04  0.10100000352E+00 0. -1.
       -3    1    3    3    0  502  0.13944586379E+03  0.10878392794E+04 -0.17868374490E+04  0.20965751897E+04  0.10100000352E+00 0.  1.
</event>
<event>
 5   0  0.1352708E-06  0.3300791E+04  0.7818609E-02  0.8162694E-01
        1   -1    0    0  501    0  0.00000000000E+00  0.00000000000E+00  0.24626638194E+04  0.24626638194E+04  0.50400001928E-02 0. -1.
       -1   -1    0    0    0  501  0.00000000000E+00  0.00000000000E+00 -0.11060400922E+04  0.11060400922E+04  0.50400001928E-02 0.  1.
    10030    2    1    2    0    0  0.00000000000E+00  0.00000000000E+00  0.13566237272E+04  0.35687039117E+04  0.33007907646E+04 0.  0.
        5    1    3    3  502    0  0.15230166900E+04 -0.54132810077E+03  0.31783265179E+03  0.16473177092E+04  0.46999998093E+01 0.  1.
       -5    1    3    3    0  502 -0.15230166900E+04  0.54132810077E+03  0.10387910754E+04  0.19213862024E+04  0.46999998093E+01 0. -1.
</event>
<event>
 5   0  0.3812379E-06  0.3315110E+04  0.7818609E-02  0.8159061E-01
       -2   -1    0    0    0  501  0.00000000000E+00  0.00000000000E+00  0.24689356256E+04  0.24689356256E+04  0.25500000920E-02 0.  1.
        2   -1    0    0  501    0  0.00000000000E+00  0.00000000000E+00 -0.11128232551E+04  0.11128232551E+04  0.25500000920E-02 0. -1.
    10030    2    1    2    0    0  0.00000000000E+00  0.00000000000E+00  0.13561123705E+04  0.35817588808E+04  0.33151102423E+04 0.  0.
        5    1    3    3  502    0  0.22613684460E+03  0.76789127724E+03  0.22462395156E+04  0.23846192437E+04  0.46999998093E+01 0.  1.
       -5    1    3    3    0  502 -0.22613684460E+03 -0.76789127724E+03 -0.89012714507E+03  0.11971396370E+04  0.46999998093E+01 0. -1.
</event>
<event>
 5   0  0.1405389E-06  0.3242506E+04  0.7818609E-02  0.8177681E-01
       -1   -1    0    0    0  501  0.00000000000E+00  0.00000000000E+00  0.18290700887E+04  0.18290700887E+04  0.50400001928E-02 0. -1.
        1   -1    0    0  501    0  0.00000000000E+00  0.00000000000E+00 -0.14370478659E+04  0.14370478659E+04  0.50400001928E-02 0.  1.
    10030    2    1    2    0    0  0.00000000000E+00  0.00000000000E+00  0.39202222278E+03  0.32661179547E+04  0.32425059862E+04 0.  0.
        1    1    3    3  502    0 -0.62071623698E+01 -0.72809586076E+03 -0.12630879616E+04  0.14579277452E+04  0.50400001928E-02 0.  1.
       -1    1    3    3    0  502  0.62071623698E+01  0.72809586076E+03  0.16551101844E+04  0.18081902095E+04  0.50400001928E-02 0. -1.
</event>
<event>
 5   0  0.1352708E-06  0.2750323E+04  0.7818609E-02  0.8318859E-01
       -1   -1    0    0    0  501  0.00000000000E+00  0.00000000000E+00  0.13676185532E+04  0.13676185532E+04  0.50400001928E-02 0. -1.
        1   -1    0    0  501    0  0.00000000000E+00  0.00000000000E+00 -0.13827461560E+04  0.13827461560E+04  0.50400001928E-02 0.  1.
    10030    2    1    2    0    0  0.00000000000E+00  0.00000000000E+00 -0.15127602757E+02  0.27503647092E+04  0.27503231063E+04 0.  0.
        5    1    3    3  502    0 -0.14740972148E+03 -0.45712080505E+03 -0.12961321473E+04  0.13822697601E+04  0.46999998093E+01 0.  1.
       -5    1    3    3    0  502  0.14740972148E+03  0.45712080505E+03  0.12810045446E+04  0.13680949491E+04  0.46999998093E+01 0. -1.
</event>
<event>
 5   0  0.1282578E-06  0.3210654E+04  0.7818609E-02  0.8186009E-01
        1   -1    0    0  501    0  0.00000000000E+00  0.00000000000E+00  0.17679675563E+04  0.17679675563E+04  0.50400001928E-02 0. -1.
       -1   -1    0    0    0  501  0.00000000000E+00  0.00000000000E+00 -0.14576486334E+04  0.14576486334E+04  0.50400001928E-02 0.  1.
    10030    2    1    2    0    0  0.00000000000E+00  0.00000000000E+00  0.31031892294E+03  0.32256161897E+04  0.32106544456E+04 0.  0.
        4    1    3    3  502    0  0.96281095743E+03 -0.78469327048E+03 -0.86659777282E+03  0.15145104098E+04  0.12699999809E+01 0.  1.
       -4    1    3    3    0  502 -0.96281095743E+03  0.78469327048E+03  0.11769166958E+04  0.17111057799E+04  0.12699999809E+01 0. -1.
</event>
<event>
 5   0  0.1391878E-06  0.3240836E+04  0.7818609E-02  0.8178115E-01
       -1   -1    0    0    0  501  0.00000000000E+00  0.00000000000E+00  0.10551970101E+04  0.10551970101E+04  0.50400001928E-02 0. -1.
        1   -1    0    0  501    0  0.00000000000E+00  0.00000000000E+00 -0.24884020640E+04  0.24884020640E+04  0.50400001928E-02 0.  1.
    10030    2    1    2    0    0  0.00000000000E+00  0.00000000000E+00 -0.14332050538E+04  0.35435990741E+04  0.32408359526E+04 0.  0.
        2    1    3    3  502    0 -0.67598958565E+03 -0.10652693169E+02  0.89361730152E+03  0.11205477595E+04  0.25500000920E-02 0. -1.
       -2    1    3    3    0  502  0.67598958565E+03  0.10652693169E+02 -0.23268223554E+04  0.24230513146E+04  0.25500000920E-02 0.  1.
</event>
<event>
 5   0  0.3671997E-06  0.2370986E+04  0.7818609E-02  0.8450446E-01
        2   -1    0    0  501    0  0.00000000000E+00  0.00000000000E+00  0.13152165657E+04  0.13152165657E+04  0.25500000920E-02 0.  1.
       -2   -1    0    0    0  501  0.00000000000E+00  0.00000000000E+00 -0.10685647905E+04  0.10685647905E+04  0.25500000920E-02 0. -1.
    10030    2    1    2    0    0  0.00000000000E+00  0.00000000000E+00  0.24665177523E+03  0.23837813561E+04  0.23709863888E+04 0.  0.
        2    1    3    3  502    0 -0.10408949194E+04 -0.37354768270E+03 -0.30605493447E+03  0.11474622989E+04  0.25500000920E-02 0. -1.
       -2    1    3    3    0  502  0.10408949194E+04  0.37354768270E+03  0.55270670970E+03  0.12363190573E+04  0.25500000920E-02 0.  1.
</event>
<event>
 5   0  0.3896210E-06  0.2664268E+04  0.7818609E-02  0.8346693E-01
        2   -1    0    0  501    0  0.00000000000E+00  0.00000000000E+00  0.21288048137E+04  0.21288048137E+04  0.25500000920E-02 0.  1.
       -2   -1    0    0    0  501  0.00000000000E+00  0.00000000000E+00 -0.83360411228E+03  0.83360411228E+03  0.25500000920E-02 0. -1.
    10030    2    1    2    0    0  0.00000000000E+00  0.00000000000E+00  0.12952007014E+04  0.29624089260E+04  0.26642675894E+04 0.  0.
        3    1    3    3  502    0 -0.75757198774E+03  0.11522720451E+03  0.18592120529E+04  0.20109356263E+04  0.10100000352E+00 0.  1.
       -3    1    3    3    0  502  0.75757198774E+03 -0.11522720451E+03 -0.56401135147E+03  0.95147329970E+03  0.10100000352E+00 0. -1.
</event>
<event>
 5   0  0.3920487E-06  0.3342751E+04  0.7818609E-02  0.8152102E-01
        2   -1    0    0  501    0  0.00000000000E+00  0.00000000000E+00  0.17947017128E+04  0.17947017128E+04  0.25500000920E-02 0. -1.
       -2   -1    0    0    0  501  0.00000000000E+00  0.00000000000E+00 -0.15565234122E+04  0.15565234122E+04  0.25500000920E-02 0.  1.
    10030    2    1    2    0    0  0.00000000000E+00  0.00000000000E+00  0.23817830065E+03  0.33512251250E+04  0.33427505045E+04 0.  0.
        4    1    3    3  502    0 -0.25037139721E+03  0.16511721785E+04  0.52300276125E+02  0.16708657431E+04  0.12699999809E+01 0.  1.
       -4    1    3    3    0  502  0.25037139721E+03 -0.16511721785E+04  0.18587802452E+03  0.16803593819E+04  0.12699999809E+01 0. -1.
</event>
<event>
 5   0  0.1352708E-06  0.3309766E+04  0.7818609E-02  0.8160415E-01
        1   -1    0    0  501    0  0.00000000000E+00  0.00000000000E+00  0.11481158389E+04  0.11481158389E+04  0.50400001928E-02 0. -1.
       -1   -1    0    0    0  501  0.00000000000E+00  0.00000000000E+00 -0.23853320535E+04  0.23853320535E+04  0.50400001928E-02 0.  1.
    10030    2    1    2    0    0  0.00000000000E+00  0.00000000000E+00 -0.12372162146E+04  0.35334478924E+04  0.33097658598E+04 0.  0.
        5    1    3    3  502    0  0.10300622163E+04 -0.11306575073E+04  0.55915493811E+02  0.15305434331E+04  0.46999998093E+01 0. -1.
       -5    1    3    3    0  502 -0.10300622163E+04  0.11306575073E+04 -0.12931317084E+04  0.20029044594E+04  0.46999998093E+01 0.  1.
</event>
<event>
 5   0  0.4017247E-06  0.3433374E+04  0.7818609E-02  0.8129763E-01
       -2   -1    0    0    0  501  0.00000000000E+00  0.00000000000E+00  0.10671704158E+04  0.10671704158E+04  0.25500000920E-02 0.  1.
        2   -1    0    0  501    0  0.00000000000E+00  0.00000000000E+00 -0.27615221273E+04  0.27615221274E+04  0.25500000920E-02 0. -1.
    10030    2    1    2    0    0  0.00000000000E+00  0.00000000000E+00 -0.16943517115E+04  0.38286925432E+04  0.34333742685E+04 0.  0.
        1    1    3    3  502    0  0.18132749527E+03  0.52818890997E+03 -0.26573991177E+04  0.27154434732E+04  0.50400001928E-02 0. -1.
       -1    1    3    3    0  502 -0.18132749527E+03 -0.52818890997E+03  0.96304740622E+03  0.11132490700E+04  0.50400001928E-02 0.  1.
</event>
<event>
 5   0  0.3812379E-06  0.3283718E+04  0.7818609E-02  0.8167051E-01
       -2   -1    0    0    0  501  0.00000000000E+00  0.00000000000E+00  0.86201612330E+03  0.86201612330E+03  0.25500000920E-02 0.  1.
        2   -1    0    0  501    0  0.00000000000E+00  0.00000000000E+00 -0.31272041219E+04  0.31272041219E+04  0.25500000920E-02 0. -1.
    10030    2    1    2    0    0  0.00000000000E+00  0.00000000000E+00 -0.22651879986E+04  0.39892202452E+04  0.32837176334E+04 0.  0.
        5    1    3    3  502    0  0.25395418006E+03  0.15863732914E+04 -0.72132626953E+03  0.17610810948E+04  0.46999998093E+01 0.  1.
       -5    1    3    3    0  502 -0.25395418006E+03 -0.15863732914E+04 -0.15438617291E+04  0.22281391504E+04  0.46999998093E+01 0. -1.
</event>
<event>
 5   0  0.1282578E-06  0.3327015E+04  0.7818609E-02  0.8156055E-01
       -1   -1    0    0    0  501  0.00000000000E+00  0.00000000000E+00  0.10627693089E+04  0.10627693089E+04  0.50400001928E-02 0.  1.
        1   -1    0    0  501    0  0.00000000000E+00  0.00000000000E+00 -0.26038173327E+04  0.26038173327E+04  0.50400001928E-02 0. -1.
    10030    2    1    2    0    0  0.00000000000E+00  0.00000000000E+00 -0.15410480237E+04  0.36665866416E+04  0.33270149667E+04 0.  0.
        4    1    3    3  502    0  0.13524678525E+04  0.86406726468E+03 -0.28828525926E+03  0.16306107854E+04  0.12699999809E+01 0.  1.
       -4    1    3    3    0  502 -0.13524678525E+04 -0.86406726468E+03 -0.12527627645E+04  0.20359758562E+04  0.12699999809E+01 0. -1.
</event>
<event>
 5   0  0.1391878E-06  0.2747094E+04  0.7818609E-02  0.8319884E-01
        1   -1    0    0  501    0  0.00000000000E+00  0.00000000000E+00  0.23083574251E+04  0.23083574251E+04  0.50400001928E-02 0. -1.
       -1   -1    0    0    0  501  0.00000000000E+00  0.00000000000E+00 -0.81730486797E+03  0.81730486798E+03  0.50400001928E-02 0.  1.
    10030    2    1    2    0    0  0.00000000000E+00  0.00000000000E+00  0.14910525571E+04  0.31256622931E+04  0.27470942908E+04 0.  0.
        2    1    3    3  502    0 -0.96642512686E+03  0.28006206559E+03  0.18093721821E+04  0.20703236413E+04  0.25500000920E-02 0. -1.
       -2    1    3    3    0  502  0.96642512686E+03 -0.28006206559E+03 -0.31831962493E+03  0.10553386518E+04  0.25500000920E-02 0.  1.
</event>
<event>
 5   0  0.1391878E-06  0.2632328E+04  0.7818609E-02  0.8357302E-01
       -1   -1    0    0    0  501  0.00000000000E+00  0.00000000000E+00  0.85795774152E+03  0.85795774153E+03  0.50400001928E-02 0.  1.
        1   -1    0    0  501    0  0.00000000000E+00  0.00000000000E+00 -0.20190832216E+04  0.20190832216E+04  0.50400001928E-02 0. -1.
    10030    2    1    2    0    0  0.00000000000E+00  0.00000000000E+00 -0.11611254801E+04  0.28770409631E+04  0.26323283084E+04 0.  0.
        2    1    3    3  502    0 -0.59597679076E+02  0.39243808609E+03 -0.19521038872E+04  0.19920514856E+04  0.25500000920E-02 0. -1.
       -2    1    3    3    0  502  0.59597679076E+02 -0.39243808609E+03  0.79097840715E+03  0.88498947753E+03  0.25500000920E-02 0.  1.
</event>
<event>
 5   0  0.1352708E-06  0.3284524E+04  0.7818609E-02  0.8166844E-01
        1   -1    0    0  501    0  0.00000000000E+00  0.00000000000E+00  0.10019488768E+04  0.10019488768E+04  0.50400001928E-02 0. -1.
       -1   -1    0    0    0  501  0.00000000000E+00  0.00000000000E+00 -0.26917783104E+04  0.26917783104E+04  0.50400001928E-02 0.  1.
    10030    2    1    2    0    0  0.00000000000E+00  0.00000000000E+00 -0.16898294336E+04  0.36937271872E+04  0.32845238648E+04 0.  0.
        5    1    3    3  502    0 -0.96274445126E+03 -0.87003928987E+03 -0.19768738603E+04  0.23647193478E+04  0.46999998093E+01 0.  1.
       -5    1    3    3    0  502  0.96274445126E+03  0.87003928987E+03  0.28704442665E+03  0.13290078394E+04  0.46999998093E+01 0. -1.
</event>
<event>
 5   0  0.1391878E-06  0.3343023E+04  0.7818609E-02  0.8152034E-01
       -1   -1    0    0    0  501  0.00000000000E+00  0.00000000000E+00  0.20250054273E+04  0.20250054273E+04  0.50400001928E-02 0.  1.
        1   -1    0    0  501    0  0.00000000000E+00  0.00000000000E+00 -0.13797248983E+04  0.13797248983E+04  0.50400001928E-02 0. -1.
    10030    2    1    2    0    0  0.00000000000E+00  0.00000000000E+00  0.64528052892E+03  0.34047303256E+04  0.33430228281E+04 0.  0.
        2    1    3    3  502    0  0.84709992800E+03 -0.14245491730E+04  0.54351144464E+03  0.17442257093E+04  0.25500000920E-02 0.  1.
       -2    1    3    3    0  502 -0.84709992800E+03  0.14245491730E+04  0.10176908427E+03  0.16605046163E+04  0.25500000920E-02 0. -1.
</event>
<event>
 5   0  0.3671997E-06  0.2423825E+04  0.7818609E-02  0.8430637E-01
        2   -1    0    0  501    0  0.00000000000E+00  0.00000000000E+00  0.12232879547E+04  0.12232879547E+04  0.25500000920E-02 0.  1.
       -2   -1    0    0    0  501  0.00000000000E+00  0.00000000000E+00 -0.12006429242E+04  0.12006429242E+04  0.25500000920E-02 0. -1.
    10030    2    1    2    0    0  0.00000000000E+00  0.00000000000E+00  0.22645030427E+02  0.24239308789E+04  0.24238250985E+04 0.  0.
        2    1    3    3  502    0 -0.28379602476E+03 -0.10078931581E+04  0.62154847783E+03  0.12176663386E+04  0.25500000920E-02 0.  1.
       -2    1    3    3    0  502  0.28379602476E+03  0.10078931581E+04 -0.59890344740E+03  0.12062645403E+04  0.25500000920E-02 0. -1.
</event>
<event>
 5   0  0.3671997E-06  0.3289185E+04  0.7818609E-02  0.8165653E-01
        2   -1    0    0  501    0  0.00000000000E+00  0.00000000000E+00  0.23268080703E+04  0.23268080703E+04  0.25500000920E-02 0.  1.
       -2   -1    0    0    0  501  0.00000000000E+00  0.00000000000E+00 -0.11624010732E+04  0.11624010732E+04  0.25500000920E-02 0. -1.
    10030    2    1    2    0    0  0.00000000000E+00  0.00000000000E+00  0.11644069971E+04  0.34892091435E+04  0.32891848219E+04 0.  0.
        2    1    3    3  502    0  0.48851839642E+03  0.24761555336E+03 -0.10628159178E+04  0.11956342923E+04  0.25500000920E-02 0. -1.
       -2    1    3    3    0  502 -0.48851839642E+03 -0.24761555336E+03  0.22272229148E+04  0.22935748512E+04  0.25500000920E-02 0.  1.
</event>
<event>
 5   0  0.3896210E-06  0.3292528E+04  0.7818609E-02  0.8164799E-01
        2   -1    0    0  501    0  0.00000000000E+00  0.00000000000E+00  0.26096524007E+04  0.26096524007E+04  0.25500000920E-02 0. -1.
       -2   -1    0    0    0  501  0.00000000000E+00  0.00000000000E+00 -0.10385235601E+04  0.10385235601E+04  0.25500000920E-02 0.  1.
    10030    2    1    2    0    0  0.00000000000E+00  0.00000000000E+00  0.15711288405E+04  0.36481759608E+04  0.32925282091E+04 0.  0.
        3    1    3    3  502    0 -0.14233413261E+04  0.52362595749E+03  0.76000392251E+02  0.15185060894E+04  0.10100000352E+00 0.  1.
       -3    1    3    3    0  502  0.14233413261E+04 -0.52362595749E+03  0.14951284483E+04  0.21296698714E+04  0.10100000352E+00 0. -1.
</event>
<event>
 5   0  0.1405389E-06  0.3185841E+04  0.7818609E-02  0.8192567E-01
        1   -1    0    0  501    0  0.00000000000E+00  0.00000000000E+00  0.24379889735E+04  0.24379889735E+04  0.50400001928E-02 0. -1.
       -1   -1    0    0    0  501  0.00000000000E+00  0.00000000000E+00 -0.10407740160E+04  0.10407740161E+04  0.50400001928E-02 0.  1.
    10030    2    1    2    0    0  0.00000000000E+00  0.00000000000E+00  0.13972149575E+04  0.34787629896E+04  0.31858409095E+04 0.  0.
        1    1    3    3  502    0 -0.32074894909E+03  0.64148205989E+03  0.22517112123E+04  0.23631721277E+04  0.50400001928E-02 0. -1.
       -1    1    3    3    0  502  0.32074894909E+03 -0.64148205989E+03 -0.85449625484E+03  0.11155908619E+04  0.50400001928E-02 0.  1.
</event>
<event>
 5   0  0.1391878E-06  0.2658433E+04  0.7818609E-02  0.8348619E-01
       -1   -1    0    0    0  501  0.00000000000E+00  0.00000000000E+00  0.12393708042E+04  0.12393708042E+04  0.50400001928E-02 0. -1.
        1   -1    0    0  501    0  0.00000000000E+00  0.00000000000E+00 -0.14255757640E+04  0.14255757640E+04  0.50400001928E-02 0.  1.
    10030    2    1    2    0    0  0.00000000000E+00  0.00000000000E+00 -0.18620495980E+03  0.26649465682E+04  0.26584333590E+04 0.  0.
        2    1    3    3  502    0 -0.78104138237E+03  0.10731846772E+04 -0.21752338943E+02  0.13274879121E+04  0.25500000920E-02 0. -1.
       -2    1    3    3    0  502  0.78104138237E+03 -0.10731846772E+04 -0.16445262086E+03  0.13374586562E+04  0.25500000920E-02 0.  1.
</event>
<event>
 5   0  0.1391878E-06  0.3212236E+04  0.7818609E-02  0.8185593E-01
        1   -1    0    0  501    0  0.00000000000E+00  0.00000000000E+00  0.14172054210E+04  0.14172054210E+04  0.50400001928E-02 0. -1.
       -1   -1    0    0    0  501  0.00000000000E+00  0.00000000000E+00 -0.18202130067E+04  0.18202130067E+04  0.50400001928E-02 0.  1.
    10030    2    1    2    0    0  0.00000000000E+00  0.00000000000E+00 -0.40300758563E+03  0.32374184277E+04  0.32122364424E+04 0.  0.
        2    1    3    3  502    0  0.10443874358E+03  0.12659269011E+04 -0.11921321829E+04  0.17420268401E+04  0.25500000920E-02 0.  1.
       -2    1    3    3    0  502 -0.10443874358E+03 -0.12659269011E+04  0.78912459730E+03  0.14953915876E+04  0.25500000920E-02 0. -1.
</event>
<event>
 5   0  0.3896210E-06  0.3267391E+04  0.7818609E-02  0.8171243E-01
       -2   -1    0    0    0  501  0.00000000000E+00  0.00000000000E+00  0.15600742592E+04  0.15600742592E+04  0.25500000920E-02 0.  1.
        2   -1    0    0  501    0  0.00000000000E+00  0.00000000000E+00 -0.17107908132E+04  0.17107908132E+04  0.25500000920E-02 0. -1.
    10030    2    1    2    0    0  0.00000000000E+00  0.00000000000E+00 -0.15071655392E+03  0.32708650724E+04  0.32673908310E+04 0.  0.
        3    1    3    3  502    0  0.19787506759E+03  0.72484261725E+03  0.13768424620E+04  0.15685173055E+04  0.10100000352E+00 0.  1.
       -3    1    3    3    0  502 -0.19787506759E+03 -0.72484261725E+03 -0.15275590159E+04  0.17023477669E+04  0.10100000352E+00 0. -1.
</event>
<event>
 5   0  0.3671997E-06  0.3324342E+04  0.7818609E-02  0.8156729E-01
       -2   -1    0    0    0  501  0.00000000000E+00  0.00000000000E+00  0.17231016372E+04  0.17231016372E+04  0.25500000920E-02 0. -1.
        2   -1    0    0  501    0  0.00000000000E+00  0.00000000000E+00 -0.16033947182E+04  0.16033947182E+04  0.25500000920E-02 0.  1.
    10030    2    1    2    0    0  0.00000000000E+00  0.00000000000E+00  0.11970691900E+03  0.33264963554E+04  0.33243417778E+04 0.  0.
        2    1    3    3  502    0 -0.62762933721E+02  0.64595756645E+03 -0.14713708814E+04  0.16081457129E+04  0.25500000920E-02 0.  1.
       -2    1    3    3    0  502  0.62762933721E+02 -0.64595756645E+03  0.15910778004E+04  0.17183506424E+04  0.25500000920E-02 0. -1.
</event>
<event>
 5   0  0.3671997E-06  0.3237535E+04  0.7818609E-02  0.8178974E-01
        2   -1    0    0  501    0  0.00000000000E+00  0.00000000000E+00  0.15853565027E+04  0.15853565027E+04  0.25500000920E-02 0.  1.
       -2   -1    0    0    0  501  0.00000000000E+00  0.00000000000E+00 -0.16528831221E+04  0.16528831221E+04  0.25500000920E-02 0. -1.
    10030    2    1    2    0    0  0.00000000000E+00  0.00000000000E+00 -0.67526619450E+02  0.32382396248E+04  0.32375354860E+04 0.  0.
        2    1    3    3  502    0 -0.10999289144E+03  0.71252171196E+03 -0.14834312777E+04  0.16493495633E+04  0.25500000920E-02 0. -1.
       -2    1    3    3    0  502  0.10999289144E+03 -0.71252171196E+03  0.14159046583E+04  0.15888900615E+04  0.25500000920E-02 0.  1.
</event>
<event>
 5   0  0.1282578E-06  0.3040232E+04  0.7818609E-02  0.8232335E-01
        1   -1    0    0  501    0  0.00000000000E+00  0.00000000000E+00  0.19190006322E+04  0.19190006322E+04  0.50400001928E-02 0.  1.
       -1   -1    0    0    0  501  0.00000000000E+00  0.00000000000E+00 -0.12041440128E+04  0.12041440128E+04  0.50400001928E-02 0. -1.
    10030    2    1    2    0    0  0.00000000000E+00  0.00000000000E+00  0.71485661940E+03  0.31231446450E+04  0.30402323081E+04 0.  0.
        4    1    3    3  502    0  0.66210432837E+03 -0.11985936406E+04  0.10355386468E+04  0.17167850066E+04  0.12699999809E+01 0.  1.
       -4    1    3    3    0  502 -0.66210432837E+03  0.11985936406E+04 -0.32068202743E+03  0.14063596384E+04  0.12699999809E+01 0. -1.
</event>
<event>
 5   0  0.1259875E-06  0.2496248E+04  0.7818609E-02  0.8404323E-01
        3   -1    0    0  501    0  0.00000000000E+00  0.00000000000E+00  0.10881373066E+04  0.10881373113E+04  0.10100000352E+00 0. -1.
       -3   -1    0    0    0  501  0.00000000000E+00  0.00000000000E+00 -0.14316331354E+04  0.14316331390E+04  0.10100000352E+00 0.  1.
    10030    2    1    2    0    0  0.00000000000E+00  0.00000000000E+00 -0.34349582881E+03  0.25197704503E+04  0.24962479320E+04 0.  0.
        1    1    3    3  502    0  0.24342690472E+03 -0.12209887516E+04 -0.26057282111E+03  0.12719938619E+04  0.50400001928E-02 0.  1.
       -1    1    3    3    0  502 -0.24342690472E+03  0.12209887516E+04 -0.82923007700E+02  0.12477765885E+04  0.50400001928E-02 0. -1.
</event>
<event>
 5   0  0.4017247E-06  0.2055317E+04  0.7818609E-02  0.8581186E-01
       -2   -1    0    0    0  501  0.00000000000E+00  0.00000000000E+00  0.90151178514E+03  0.90151178514E+03  0.25500000920E-02 0.  1.
        2   -1    0    0  501    0  0.00000000000E+00  0.00000000000E+00 -0.11714562743E+04  0.11714562743E+04  0.25500000920E-02 0. -1.
    10030    2    1    2    0    0  0.00000000000E+00  0.00000000000E+00 -0.26994448915E+03  0.20729680594E+04  0.20553166540E+04 0.  0.
        1    1    3    3  502    0 -0.87102142174E+03  0.39238117561E+03  0.24701557206E+03  0.98674109926E+03  0.50400001928E-02 0.  1.
       -1    1    3    3    0  502  0.87102142174E+03 -0.39238117561E+03 -0.51696006121E+03  0.10862269602E+04  0.50400001928E-02 0. -1.
</event>
<event>
 5   0  0.3896210E-06  0.3353075E+04  0.7818609E-02  0.8149520E-01
        2   -1    0    0  501    0  0.00000000000E+00  0.00000000000E+00  0.26314117152E+04  0.26314117152E+04  0.25500000920E-02 0. -1.
       -2   -1    0    0    0  501  0.00000000000E+00  0.00000000000E+00 -0.10681634517E+04  0.10681634517E+04  0.25500000920E-02 0.  1.
    10030    2    1    2    0    0  0.00000000000E+00  0.00000000000E+00  0.15632482635E+04  0.36995751669E+04  0.33530748996E+04 0.  0.
        3    1    3    3  502    0 -0.95495901900E+03  0.24954619199E+03 -0.71361584273E+03  0.12179768516E+04  0.10100000352E+00 0.  1.
       -3    1    3    3    0  502  0.95495901900E+03 -0.24954619199E+03  0.22768641062E+04  0.24815983152E+04  0.10100000352E+00 0. -1.
</event>
<event>
 5   0  0.1391878E-06  0.3241021E+04  0.7818609E-02  0.8178067E-01
       -1   -1    0    0    0  501  0.00000000000E+00  0.00000000000E+00  0.13617159601E+04  0.13617159602E+04  0.50400001928E-02 0.  1.
        1   -1    0    0  501    0  0.00000000000E+00  0.00000000000E+00 -0.19284894455E+04  0.19284894455E+04  0.50400001928E-02 0. -1.
    10030    2    1    2    0    0  0.00000000000E+00  0.00000000000E+00 -0.56677348540E+03  0.32902054057E+04  0.32410213557E+04 0.  0.
        2    1    3    3  502    0  0.10123466955E+04  0.10701769294E+04 -0.96885978111E+03  0.17631828514E+04  0.25500000920E-02 0. -1.
       -2    1    3    3    0  502 -0.10123466955E+04 -0.10701769294E+04  0.40208629571E+03  0.15270225543E+04  0.25500000920E-02 0.  1.
</event>
<event>
 5   0  0.3896210E-06  0.3307460E+04  0.7818609E-02  0.8161000E-01
        2   -1    0    0  501    0  0.00000000000E+00  0.00000000000E+00  0.16397816093E+04  0.16397816093E+04  0.25500000920E-02 0.  1.
       -2   -1    0    0    0  501  0.00000000000E+00  0.00000000000E+00 -0.16677965675E+04  0.16677965675E+04  0.25500000920E-02 0. -1.
    10030    2    1    2    0    0  0.00000000000E+00  0.00000000000E+00 -0.28014958161E+02  0.33075781768E+04  0.33074595323E+04 0.  0.
        3    1    3    3  502    0 -0.67401606373E+03 -0.13211691823E+04  0.71748062934E+03  0.16475934347E+04  0.10100000352E+00 0.  1.
       -3    1    3    3    0  502  0.67401606373E+03  0.13211691823E+04 -0.74549558750E+03  0.16599847420E+04  0.10100000352E+00 0. -1.
</event>
<event>
 5   0  0.3671997E-06  0.3473774E+04  0.7818609E-02  0.8120033E-01
        2   -1    0    0  501    0  0.00000000000E+00  0.00000000000E+00  0.19438308073E+04  0.19438308073E+04  0.25500000920E-02 0. -1.
       -2   -1    0    0    0  501  0.00000000000E+00  0.00000000000E+00 -0.15519751053E+04  0.15519751053E+04  0.25500000920E-02 0.  1.
    10030    2    1    2    0    0  0.00000000000E+00  0.00000000000E+00  0.39185570199E+03  0.34958059125E+04  0.34737743287E+04 0.  0.
        2    1    3    3  502    0 -0.14286361201E+04  0.50582297653E+03  0.10497895266E+04  0.18436149536E+04  0.25500000920E-02 0. -1.
       -2    1    3    3    0  502  0.14286361201E+04 -0.50582297653E+03 -0.65793382459E+03  0.16521909589E+04  0.25500000920E-02 0.  1.
</event>
<event>
 5   0  0.3812379E-06  0.3323300E+04  0.7818609E-02  0.8156992E-01
       -2   -1    0    0    0  501  0.00000000000E+00  0.00000000000E+00  0.15102747037E+04  0.15102747037E+04  0.25500000920E-02 0. -1.
        2   -1    0    0  501    0  0.00000000000E+00  0.00000000000E+00 -0.18281980066E+04  0.18281980066E+04  0.25500000920E-02 0.  1.
    10030    2    1    2    0    0  0.00000000000E+00  0.00000000000E+00 -0.31792330294E+03  0.33384727103E+04  0.33233002890E+04 0.  0.
        5    1    3    3  502    0 -0.81696292972E+03  0.13781203519E+04 -0.60189982215E+03  0.17114174297E+04  0.46999998093E+01 0.  1.
       -5    1    3    3    0  502  0.81696292972E+03 -0.13781203519E+04  0.28397651921E+03  0.16270552806E+04  0.46999998093E+01 0. -1.
</event>
<event>
 5   0  0.1352708E-06  0.3328211E+04  0.7818609E-02  0.8155754E-01
       -1   -1    0    0    0  501  0.00000000000E+00  0.00000000000E+00  0.12310260150E+04  0.12310260150E+04  0.50400001928E-02 0.  1.
        1   -1    0    0  501    0  0.00000000000E+00  0.00000000000E+00 -0.22495438413E+04  0.22495438413E+04  0.50400001928E-02 0. -1.
    10030    2    1    2    0    0  0.00000000000E+00  0.00000000000E+00 -0.10185178263E+04  0.34805698564E+04  0.33282109252E+04 0.  0.
        5    1    3    3  502    0  0.61495383477E+01  0.10452980447E+03  0.12275704828E+04  0.12320372061E+04  0.46999998093E+01 0.  1.
       -5    1    3    3    0  502 -0.61495383477E+01 -0.10452980447E+03 -0.22460883091E+04  0.22485326503E+04  0.46999998093E+01 0. -1.
</event>
<event>
 5   0  0.1352708E-06  0.3243280E+04  0.7818609E-02  0.8177480E-01
       -1   -1    0    0    0  501  0.00000000000E+00  0.00000000000E+00  0.13206196490E+04  0.13206196490E+04  0.50400001928E-02 0. -1.
        1   -1    0    0  501    0  0.00000000000E+00  0.00000000000E+00 -0.19912750484E+04  0.19912750484E+04  0.50400001928E-02 0.  1.
    10030    2    1    2    0    0  0.00000000000E+00  0.00000000000E+00 -0.67065539944E+03  0.33118946974E+04  0.32432804106E+04 0.  0.
        5    1    3    3  502    0 -0.14201553107E+04  0.94820758336E+01  0.46402526250E+03  0.14940791647E+04  0.46999998093E+01 0. -1.
       -5    1    3    3    0  502  0.14201553107E+04 -0.94820758336E+01 -0.11346806619E+04  0.18178155327E+04  0.46999998093E+01 0.  1.
</event>
<event>
 5   0  0.4017247E-06  0.3338217E+04  0.7818609E-02  0.8153239E-01
        2   -1    0    0  501    0  0.00000000000E+00  0.00000000000E+00  0.20753559903E+04  0.20753559904E+04  0.25500000920E-02 0.  1.
       -2   -1    0    0    0  501  0.00000000000E+00  0.00000000000E+00 -0.13423831989E+04  0.13423831989E+04  0.25500000920E-02 0. -1.
    10030    2    1    2    0    0  0.00000000000E+00  0.00000000000E+00  0.73297279147E+03  0.34177391892E+04  0.33382168972E+04 0.  0.
        1    1    3    3  502    0 -0.12838622346E+04 -0.10341225492E+04  0.63388098959E+03  0.17662153870E+04  0.50400001928E-02 0.  1.
       -1    1    3    3    0  502  0.12838622346E+04  0.10341225492E+04  0.99091801880E+02  0.16515238023E+04  0.50400001928E-02 0. -1.
</event>
<event>
 5   0  0.1282578E-06  0.3335809E+04  0.7818609E-02  0.8153843E-01
       -1   -1    0    0    0  501  0.00000000000E+00  0.00000000000E+00  0.15203533756E+04  0.15203533756E+04  0.50400001928E-02 0. -1.
        1   -1    0    0  501    0  0.00000000000E+00  0.00000000000E+00 -0.18297759068E+04  0.18297759068E+04  0.50400001928E-02 0.  1.
    10030    2    1    2    0    0  0.00000000000E+00  0.00000000000E+00 -0.30942253124E+03  0.33501292824E+04  0.33358093330E+04 0.  0.
        4    1    3    3  502    0  0.96309623068E+03  0.89077624161E+03  0.87969456808E+03  0.15795255010E+04  0.12699999809E+01 0. -1.
       -4    1    3    3    0  502 -0.96309623068E+03 -0.89077624161E+03 -0.11891170993E+04  0.17706037815E+04  0.12699999809E+01 0.  1.
</event>
<event>
 5   0  0.3671997E-06  0.3296302E+04  0.7818609E-02  0.8163837E-01
       -2   -1    0    0    0  501  0.00000000000E+00  0.00000000000E+00  0.11528494502E+04  0.11528494502E+04  0.25500000920E-02 0. -1.
        2   -1    0    0  501    0  0.00000000000E+00  0.00000000000E+00 -0.23562502081E+04  0.23562502081E+04  0.25500000920E-02 0.  1.
    10030    2    1    2    0    0  0.00000000000E+00  0.00000000000E+00 -0.12034007579E+04  0.35090996583E+04  0.32963020231E+04 0.  0.
        2    1    3    3  502    0 -0.34295091081E+03  0.40226024195E+03  0.10601582462E+04  0.11846367107E+04  0.25500000920E-02 0. -1.
       -2    1    3    3    0  502  0.34295091081E+03 -0.40226024195E+03 -0.22635590041E+04  0.23244629476E+04  0.25500000920E-02 0.  1.
</event>
<event>
 5   0  0.1405389E-06  0.3326924E+04  0.7818609E-02  0.8156078E-01
        1   -1    0    0  501    0  0.00000000000E+00  0.00000000000E+00  0.16829194141E+04  0.16829194141E+04  0.50400001928E-02 0. -1.
       -1   -1    0    0    0  501  0.00000000000E+00  0.00000000000E+00 -0.16442293225E+04  0.16442293226E+04  0.50400001928E-02 0.  1.
    10030    2    1    2    0    0  0.00000000000E+00  0.00000000000E+00  0.38690091530E+02  0.33271487366E+04  0.33269237732E+04 0.  0.
        1    1    3    3  502    0 -0.64605290611E+03 -0.88056819381E+03  0.12741492783E+04  0.16781659885E+04  0.50400001928E-02 0. -1.
       -1    1    3    3    0  502  0.64605290611E+03  0.88056819381E+03 -0.12354591868E+04  0.16489827482E+04  0.50400001928E-02 0.  1.
</event>
<event>
 5   0  0.3920487E-06  0.3254295E+04  0.7818609E-02  0.8174623E-01
       -2   -1    0    0    0  501  0.00000000000E+00  0.00000000000E+00  0.16593214224E+04  0.16593214224E+04  0.25500000920E-02 0. -1.
        2   -1    0    0  501    0  0.00000000000E+00  0.00000000000E+00 -0.15955977317E+04  0.15955977317E+04  0.25500000920E-02 0.  1.
    10030    2    1    2    0    0  0.00000000000E+00  0.00000000000E+00  0.63723690742E+02  0.32549191541E+04  0.32542953140E+04 0.  0.
        4    1    3    3  502    0 -0.25606219546E+03 -0.80875986099E+02  0.16370056519E+04  0.16588845319E+04  0.12699999809E+01 0. -1.
       -4    1    3    3    0  502  0.25606219546E+03  0.80875986099E+02 -0.15732819611E+04  0.15960346222E+04  0.12699999809E+01 0.  1.
</event>
<event>
 5   0  0.1282578E-06  0.3220961E+04  0.7818609E-02  0.8183303E-01
       -1   -1    0    0    0  501  0.00000000000E+00  0.00000000000E+00  0.11331576568E+04  0.11331576568E+04  0.50400001928E-02 0.  1.
        1   -1    0    0  501    0  0.00000000000E+00  0.00000000000E+00 -0.22888674769E+04  0.22888674769E+04  0.50400001928E-02 0. -1.
    10030    2    1    2    0    0  0.00000000000E+00  0.00000000000E+00 -0.11557098201E+04  0.34220251337E+04  0.32209611651E+04 0.  0.
        4    1    3    3  502    0 -0.83816817156E+03 -0.79606443121E+03  0.61348232589E+03  0.13086659771E+04  0.12699999809E+01 0.  1.
       -4    1    3    3    0  502  0.83816817156E+03  0.79606443121E+03 -0.17691921460E+04  0.21133591566E+04  0.12699999809E+01 0. -1.
</event>
<event>
 5   0  0.3812379E-06  0.2230407E+04  0.7818609E-02  0.8505878E-01
        2   -1    0    0  501    0  0.00000000000E+00  0.00000000000E+00  0.14556495058E+04  0.14556495058E+04  0.25500000920E-02 0.  1.
       -2   -1    0    0    0  501  0.00000000000E+00  0.00000000000E+00 -0.85438065657E+03  0.85438065658E+03  0.25500000920E-02 0. -1.
    10030    2    1    2    0    0  0.00000000000E+00  0.00000000000E+00  0.60126884922E+03  0.23100301624E+04  0.22304069409E+04 0.  0.
        5    1    3    3  502    0 -0.91196540505E+03 -0.26755464653E+03 -0.30362318941E+03  0.99773519535E+03  0.46999998093E+01 0. -1.
       -5    1    3    3    0  502  0.91196540505E+03  0.26755464653E+03  0.90489203863E+03  0.13122949670E+04  0.46999998093E+01 0.  1.
</event>
<event>
 5   0  0.1282578E-06  0.3370477E+04  0.7818609E-02  0.8145190E-01
        1   -1    0    0  501    0  0.00000000000E+00  0.00000000000E+00  0.15692591742E+04  0.15692591742E+04  0.50400001928E-02 0. -1.
       -1   -1    0    0    0  501  0.00000000000E+00  0.00000000000E+00 -0.18097899833E+04  0.18097899833E+04  0.50400001928E-02 0.  1.
    10030    2    1    2    0    0  0.00000000000E+00  0.00000000000E+00 -0.24053080911E+03  0.33790491575E+04  0.33704774349E+04 0.  0.
        4    1    3    3  502    0  0.34357083215E+03 -0.37182970757E+03  0.14912209129E+04  0.15748141707E+04  0.12699999809E+01 0. -1.
       -4    1    3    3    0  502 -0.34357083215E+03  0.37182970757E+03 -0.17317517220E+04  0.18042349869E+04  0.12699999809E+01 0.  1.
</event>
<event>
 5   0  0.1352708E-06  0.2939690E+04  0.7818609E-02  0.8261166E-01
        1   -1    0    0  501    0  0.00000000000E+00  0.00000000000E+00  0.17635957031E+04  0.17635957031E+04  0.50400001928E-02 0. -1.
       -1   -1    0    0    0  501  0.00000000000E+00  0.00000000000E+00 -0.12250225476E+04  0.12250225476E+04  0.50400001928E-02 0.  1.
    10030    2    1    2    0    0  0.00000000000E+00  0.00000000000E+00  0.53857315550E+03  0.29886182507E+04  0.29396901205E+04 0.  0.
        5    1    3    3  502    0 -0.42030224397E+02 -0.12943639128E+04 -0.43746595554E+03  0.13669466086E+04  0.46999998093E+01 0.  1.
       -5    1    3    3    0  502  0.42030224397E+02  0.12943639128E+04  0.97603911104E+03  0.16216716421E+04  0.46999998093E+01 0. -1.
</event>
<event>
 5   0  0.4017247E-06  0.3395904E+04  0.7818609E-02  0.8138912E-01
       -2   -1    0    0    0  501  0.00000000000E+00  0.00000000000E+00  0.22526264832E+04  0.22526264832E+04  0.25500000920E-02 0.  1.
        2   -1    0    0  501    0  0.00000000000E+00  0.00000000000E+00 -0.12798573706E+04  0.12798573706E+04  0.25500000920E-02 0. -1.
    10030    2    1    2    0    0  0.00000000000E+00  0.00000000000E+00  0.97276911256E+03  0.35324838538E+04  0.33959037723E+04 0.  0.
        1    1    3    3  502    0 -0.92662505696E+03 -0.52844134595E+03  0.18605593613E+04  0.21446597374E+04  0.50400001928E-02 0.  1.
       -1    1    3    3    0  502  0.92662505696E+03  0.52844134595E+03 -0.88779024871E+03  0.13878241164E+04  0.50400001928E-02 0. -1.
</event>
<event>
 5   0  0.1339825E-06  0.3069997E+04  0.7818609E-02  0.8224020E-01
        1   -1    0    0  501    0  0.00000000000E+00  0.00000000000E+00  0.16431516176E+04  0.16431516176E+04  0.50400001928E-02 0. -1.
       -1   -1    0    0    0  501  0.00000000000E+00  0.00000000000E+00 -0.14339642357E+04  0.14339642357E+04  0.50400001928E-02 0.  1.
    10030    2    1    2    0    0  0.00000000000E+00  0.00000000000E+00  0.20918738191E+03  0.30771158533E+04  0.30699971684E+04 0.  0.
        3    1    3    3  502    0 -0.10328019145E+04  0.77030494164E+03  0.94089712927E+03  0.15954112059E+04  0.10100000352E+00 0. -1.
       -3    1    3    3    0  502  0.10328019145E+04 -0.77030494164E+03 -0.73170974736E+03  0.14817046475E+04  0.10100000352E+00 0.  1.
</event>
<event>
 5   0  0.4017247E-06  0.2843297E+04  0.7818609E-02  0.8289951E-01
       -2   -1    0    0    0  501  0.00000000000E+00  0.00000000000E+00  0.11192858684E+04  0.11192858684E+04  0.25500000920E-02 0. -1.
        2   -1    0    0  501    0  0.00000000000E+00  0.00000000000E+00 -0.18056911253E+04  0.18056911253E+04  0.25500000920E-02 0.  1.
    10030    2    1    2    0    0  0.00000000000E+00  0.00000000000E+00 -0.68640525690E+03  0.29249769936E+04  0.28432970715E+04 0.  0.
        1    1    3    3  502    0 -0.40513255112E+03 -0.13446403769E+04 -0.11572959461E+03  0.14091073295E+04  0.50400001928E-02 0. -1.
       -1    1    3    3    0  502  0.40513255112E+03  0.13446403769E+04 -0.57067566229E+03  0.15158696641E+04  0.50400001928E-02 0.  1.
</event>
<event>
 5   0  0.1339825E-06  0.3362228E+04  0.7818609E-02  0.8147240E-01
       -1   -1    0    0    0  501  0.00000000000E+00  0.00000000000E+00  0.10143590122E+04  0.10143590122E+04  0.50400001928E-02 0. -1.
        1   -1    0    0  501    0  0.00000000000E+00  0.00000000000E+00 -0.27861380856E+04  0.27861380856E+04  0.50400001928E-02 0.  1.
    10030    2    1    2    0    0  0.00000000000E+00  0.00000000000E+00 -0.17717790735E+04  0.38004970978E+04  0.33622279972E+04 0.  0.
        3    1    3    3  502    0  0.15074234844E+04  0.33368463837E+03 -0.16377837865E+04  0.22507791408E+04  0.10100000352E+00 0.  1.
       -3    1    3    3    0  502 -0.15074234844E+04 -0.33368463837E+03 -0.13399528694E+03  0.15497179570E+04  0.10100000352E+00 0. -1.
</event>
<event>
 5   0  0.1352708E-06  0.3304481E+04  0.7818609E-02  0.8161756E-01
        1   -1    0    0  501    0  0.00000000000E+00  0.00000000000E+00  0.21085337664E+04  0.21085337664E+04  0.50400001928E-02 0. -1.
       -1   -1    0    0    0  501  0.00000000000E+00  0.00000000000E+00 -0.12946906310E+04  0.12946906310E+04  0.50400001928E-02 0.  1.
    10030    2    1    2    0    0  0.00000000000E+00  0.00000000000E+00  0.81384313540E+03  0.34032243973E+04  0.33044811468E+04 0.  0.
        5    1    3    3  502    0  0.94381657140E+03  0.34957892676E+03 -0.94253058451E+03  0.13789057761E+04  0.46999998093E+01 0.  1.
       -5    1    3    3    0  502 -0.94381657140E+03 -0.34957892676E+03  0.17563737199E+04  0.20243186213E+04  0.46999998093E+01 0. -1.
</event>
<event>
 5   0  0.3920487E-06  0.3633514E+04  0.7818609E-02  0.8082858E-01
        2   -1    0    0  501    0  0.00000000000E+00  0.00000000000E+00  0.22216697585E+04  0.22216697585E+04  0.25500000920E-02 0.  1.
       -2   -1    0    0    0  501  0.00000000000E+00  0.00000000000E+00 -0.14856418037E+04  0.14856418037E+04  0.25500000920E-02 0. -1.
    10030    2    1    2    0    0  0.00000000000E+00  0.00000000000E+00  0.73602795479E+03  0.37073115622E+04  0.36335137084E+04 0.  0.
        4    1    3    3  502    0 -0.16655888256E+04 -0.54822690545E+03  0.85291905409E+03  0.19499259990E+04  0.12699999809E+01 0.  1.
       -4    1    3    3    0  502  0.16655888256E+04  0.54822690545E+03 -0.11689109930E+03  0.17573855632E+04  0.12699999809E+01 0. -1.
</event>
<event>
 5   0  0.3671997E-06  0.3222662E+04  0.7818609E-02  0.8182858E-01
        2   -1    0    0  501    0  0.00000000000E+00  0.00000000000E+00  0.14854159442E+04  0.14854159442E+04  0.25500000920E-02 0.  1.
       -2   -1    0    0    0  501  0.00000000000E+00  0.00000000000E+00 -0.17479200636E+04  0.17479200636E+04  0.25500000920E-02 0. -1.
    10030    2    1    2    0    0  0.00000000000E+00  0.00000000000E+00 -0.26250411935E+03  0.32333360078E+04  0.32226624593E+04 0.  0.
        2    1    3    3  502    0  0.14855962219E+04 -0.42457151225E+03 -0.59007535809E+03  0.16539183873E+04  0.25500000920E-02 0. -1.
       -2    1    3    3    0  502 -0.14855962219E+04  0.42457151225E+03  0.32757123874E+03  0.15794176205E+04  0.25500000920E-02 0.  1.
</event>
<event>
 5   0  0.1282578E-06  0.3316647E+04  0.7818609E-02  0.8158672E-01
       -1   -1    0    0    0  501  0.00000000000E+00  0.00000000000E+00  0.11686143870E+04  0.11686143870E+04  0.50400001928E-02 0. -1.
        1   -1    0    0  501    0  0.00000000000E+00  0.00000000000E+00 -0.23532462515E+04  0.23532462515E+04  0.50400001928E-02 0.  1.
    10030    2    1    2    0    0  0.00000000000E+00  0.00000000000E+00 -0.11846318646E+04  0.35218606385E+04  0.33166473588E+04 0.  0.
        4    1    3    3  502    0  0.11314614085E+03  0.15475210740E+04  0.29050145884E+02  0.15519243047E+04  0.12699999809E+01 0. -1.
       -4    1    3    3    0  502 -0.11314614085E+03 -0.15475210740E+04 -0.12136820104E+04  0.19699363338E+04  0.12699999809E+01 0.  1.
</event>
<event>
 5   0  0.3812379E-06  0.2250960E+04  0.7818609E-02  0.8497512E-01
       -2   -1    0    0    0  501  0.00000000000E+00  0.00000000000E+00  0.91523622263E+03  0.91523622263E+03  0.25500000920E-02 0. -1.
        2   -1    0    0  501    0  0.00000000000E+00  0.00000000000E+00 -0.13840195824E+04  0.13840195824E+04  0.25500000920E-02 0.  1.
    10030    2    1    2    0    0  0.00000000000E+00  0.00000000000E+00 -0.46878335980E+03  0.22992558051E+04  0.22509596662E+04 0.  0.
        5    1    3    3  502    0  0.52365068651E+03 -0.21853954446E+03  0.75842615030E+03  0.94720741627E+03  0.46999998093E+01 0. -1.
       -5    1    3    3    0  502 -0.52365068651E+03  0.21853954446E+03 -0.12272095101E+04  0.13520483888E+04  0.46999998093E+01 0.  1.
</event>
<event>
 5   0  0.1405389E-06  0.3297838E+04  0.7818609E-02  0.8163446E-01
        1   -1    0    0  501    0  0.00000000000E+00  0.00000000000E+00  0.17833711646E+04  0.17833711646E+04  0.50400001928E-02 0. -1.
       -1   -1    0    0    0  501  0.00000000000E+00  0.00000000000E+00 -0.15246038009E+04  0.15246038009E+04  0.50400001928E-02 0.  1.
    10030    2    1    2    0    0  0.00000000000E+00  0.00000000000E+00  0.25876736366E+03  0.33079749655E+04  0.32978383562E+04 0.  0.
        1    1    3    3  502    0  0.59058595056E+03  0.70546689242E+03  0.15019679779E+04  0.17613583134E+04  0.50400001928E-02 0. -1.
       -1    1    3    3    0  502 -0.59058595056E+03 -0.70546689242E+03 -0.12432006143E+04  0.15466166521E+04  0.50400001928E-02 0.  1.
</event>
<event>
 5   0  0.3920487E-06  0.2102806E+04  0.7818609E-02  0.8560008E-01
        2   -1    0    0  501    0  0.00000000000E+00  0.00000000000E+00  0.83452357612E+03  0.83452357612E+03  0.25500000920E-02 0. -1.
       -2   -1    0    0    0  501  0.00000000000E+00  0.00000000000E+00 -0.13246459906E+04  0.13246459906E+04  0.25500000920E-02 0.  1.
    10030    2    1    2    0    0  0.00000000000E+00  0.00000000000E+00 -0.49012241452E+03  0.21591695668E+04  0.21028060388E+04 0.  0.
        4    1    3    3  502    0  0.80353556503E+03 -0.56798276529E+03  0.13523469682E+03  0.99325921192E+03  0.12699999809E+01 0. -1.
       -4    1    3    3    0  502 -0.80353556503E+03  0.56798276529E+03 -0.62535711134E+03  0.11659103548E+04  0.12699999809E+01 0.  1.
</event>
<event>
 5   0  0.1391878E-06  0.3335537E+04  0.7818609E-02  0.8153911E-01
        1   -1    0    0  501    0  0.00000000000E+00  0.00000000000E+00  0.97954690821E+03  0.97954690823E+03  0.50400001928E-02 0. -1.
       -1   -1    0    0    0  501  0.00000000000E+00  0.00000000000E+00 -0.28395288945E+04  0.28395288945E+04  0.50400001928E-02 0.  1.
    10030    2    1    2    0    0  0.00000000000E+00  0.00000000000E+00 -0.18599819863E+04  0.38190758028E+04  0.33355369879E+04 0.  0.
        2    1    3    3  502    0 -0.16070967422E+04 -0.61281794162E+02 -0.14355116832E+04  0.21557386646E+04  0.25500000920E-02 0.  1.
       -2    1    3    3    0  502  0.16070967422E+04  0.61281794162E+02 -0.42447030307E+03  0.16633371382E+04  0.25500000920E-02 0. -1.
</event>
<event>
 5   0  0.1391878E-06  0.3330336E+04  0.7818609E-02  0.8155219E-01
        1   -1    0    0  501    0  0.00000000000E+00  0.00000000000E+00  0.18057473180E+04  0.18057473180E+04  0.50400001928E-02 0.  1.
       -1   -1    0    0    0  501  0.00000000000E+00  0.00000000000E+00 -0.15355331401E+04  0.15355331401E+04  0.50400001928E-02 0. -1.
    10030    2    1    2    0    0  0.00000000000E+00  0.00000000000E+00  0.27021417793E+03  0.33412804582E+04  0.33303362290E+04 0.  0.
        2    1    3    3  502    0  0.66290064786E+03 -0.62653301327E+03 -0.12625984431E+04  0.15576057634E+04  0.25500000920E-02 0. -1.
       -2    1    3    3    0  502 -0.66290064786E+03  0.62653301327E+03  0.15328126210E+04  0.17836746948E+04  0.25500000920E-02 0.  1.
</event>
<event>
 5   0  0.3671997E-06  0.3024061E+04  0.7818609E-02  0.8236893E-01
        2   -1    0    0  501    0  0.00000000000E+00  0.00000000000E+00  0.22094415623E+04  0.22094415623E+04  0.25500000920E-02 0.  1.
       -2   -1    0    0    0  501  0.00000000000E+00  0.00000000000E+00 -0.10347578119E+04  0.10347578119E+04  0.25500000920E-02 0. -1.
    10030    2    1    2    0    0  0.00000000000E+00  0.00000000000E+00  0.11746837503E+04  0.32441993742E+04  0.30240614521E+04 0.  0.
        2    1    3    3  502    0  0.14130867775E+04 -0.17451179908E+03  0.41407760645E+02  0.14244238173E+04  0.25500000920E-02 0. -1.
       -2    1    3    3    0  502 -0.14130867775E+04  0.17451179908E+03  0.11332759897E+04  0.18197755569E+04  0.25500000920E-02 0.  1.
</event>
<event>
 5   0  0.1352708E-06  0.3374981E+04  0.7818609E-02  0.8144074E-01
       -1   -1    0    0    0  501  0.00000000000E+00  0.00000000000E+00  0.14596899549E+04  0.14596899549E+04  0.50400001928E-02 0.  1.
        1   -1    0    0  501    0  0.00000000000E+00  0.00000000000E+00 -0.19508413545E+04  0.19508413545E+04  0.50400001928E-02 0. -1.
    10030    2    1    2    0    0  0.00000000000E+00  0.00000000000E+00 -0.49115139959E+03  0.34105313094E+04  0.33749806096E+04 0.  0.
        5    1    3    3  502    0 -0.50450698410E+03 -0.11137195352E+03 -0.18689438893E+04  0.19390472817E+04  0.46999998093E+01 0. -1.
       -5    1    3    3    0  502  0.50450698410E+03  0.11137195352E+03  0.13777924898E+04  0.14714840277E+04  0.46999998093E+01 0.  1.
</event>
<event>
 5   0  0.1282578E-06  0.3307984E+04  0.7818609E-02  0.8160867E-01
        1   -1    0    0  501    0  0.00000000000E+00  0.00000000000E+00  0.13125188188E+04  0.13125188188E+04  0.50400001928E-02 0.  1.
       -1   -1    0    0    0  501  0.00000000000E+00  0.00000000000E+00 -0.20843052386E+04  0.20843052386E+04  0.50400001928E-02 0. -1.
    10030    2    1    2    0    0  0.00000000000E+00  0.00000000000E+00 -0.77178641981E+03  0.33968240575E+04  0.33079841897E+04 0.  0.
        4    1    3    3  502    0  0.86454527224E+03  0.63268303695E+03 -0.16798794684E+04  0.19924163707E+04  0.12699999809E+01 0. -1.
       -4    1    3    3    0  502 -0.86454527224E+03 -0.63268303695E+03  0.90809304855E+03  0.14044076868E+04  0.12699999809E+01 0.  1.
</event>
<event>
 5   0  0.1352708E-06  0.3303249E+04  0.7818609E-02  0.8162069E-01
       -1   -1    0    0    0  501  0.00000000000E+00  0.00000000000E+00  0.21229722410E+04  0.21229722410E+04  0.50400001928E-02 0.  1.
        1   -1    0    0  501    0  0.00000000000E+00  0.00000000000E+00 -0.12849267954E+04  0.12849267954E+04  0.50400001928E-02 0. -1.
    10030    2    1    2    0    0  0.00000000000E+00  0.00000000000E+00  0.83804544560E+03  0.34078990364E+04  0.33032492600E+04 0.  0.
        5    1    3    3  502    0 -0.72516274189E+03  0.92297627555E+03 -0.77972456527E+03  0.14091624091E+04  0.46999998093E+01 0. -1.
       -5    1    3    3    0  502  0.72516274189E+03 -0.92297627555E+03  0.16177700109E+04  0.19987366273E+04  0.46999998093E+01 0.  1.
</event>
<event>
 5   0  0.3671997E-06  0.2224984E+04  0.7818609E-02  0.8508100E-01
        2   -1    0    0  501    0  0.00000000000E+00  0.00000000000E+00  0.13739512111E+04  0.13739512111E+04  0.25500000920E-02 0. -1.
       -2   -1    0    0    0  501  0.00000000000E+00  0.00000000000E+00 -0.90078815030E+03  0.90078815030E+03  0.25500000920E-02 0.  1.
    10030    2    1    2    0    0  0.00000000000E+00  0.00000000000E+00  0.47316306084E+03  0.22747393614E+04  0.22249844674E+04 0.  0.
        2    1    3    3  502    0 -0.66209789636E+03 -0.55615038654E+03  0.95220718252E+03  0.12862252506E+04  0.25500000920E-02 0. -1.
       -2    1    3    3    0  502  0.66209789636E+03  0.55615038654E+03 -0.47904412168E+03  0.98851411085E+03  0.25500000920E-02 0.  1.
</event>
<event>
 5   0  0.3671997E-06  0.2732734E+04  0.7818609E-02  0.8324462E-01
       -2   -1    0    0    0  501  0.00000000000E+00  0.00000000000E+00  0.64996035902E+03  0.64996035903E+03  0.25500000920E-02 0.  1.
        2   -1    0    0  501    0  0.00000000000E+00  0.00000000000E+00 -0.28724187333E+04  0.28724187333E+04  0.25500000920E-02 0. -1.
    10030    2    1    2    0    0  0.00000000000E+00  0.00000000000E+00 -0.22224583743E+04  0.35223790923E+04  0.27327336578E+04 0.  0.
        2    1    3    3  502    0 -0.22801571212E+03  0.72912489327E+03 -0.25714224393E+04  0.26825039863E+04  0.25500000920E-02 0. -1.
       -2    1    3    3    0  502  0.22801571212E+03 -0.72912489327E+03  0.34896406509E+03  0.83987510600E+03  0.25500000920E-02 0.  1.
</event>
<event>
 5   0  0.1405389E-06  0.3319430E+04  0.7818609E-02  0.8157969E-01
       -1   -1    0    0    0  501  0.00000000000E+00  0.00000000000E+00  0.12501486863E+04  0.12501486863E+04  0.50400001928E-02 0.  1.
        1   -1    0    0  501    0  0.00000000000E+00  0.00000000000E+00 -0.22034613721E+04  0.22034613721E+04  0.50400001928E-02 0. -1.
    10030    2    1    2    0    0  0.00000000000E+00  0.00000000000E+00 -0.95331268578E+03  0.34536100585E+04  0.33194302763E+04 0.  0.
        1    1    3    3  502    0 -0.16694317646E+03 -0.10305953259E+04 -0.18190262487E+04  0.20973443312E+04  0.50400001928E-02 0. -1.
       -1    1    3    3    0  502  0.16694317646E+03  0.10305953259E+04  0.86571356296E+03  0.13562657273E+04  0.50400001928E-02 0.  1.
</event>
<event>
 5   0  0.3896210E-06  0.3297769E+04  0.7818609E-02  0.8163463E-01
        2   -1    0    0  501    0  0.00000000000E+00  0.00000000000E+00  0.24935680759E+04  0.24935680759E+04  0.25500000920E-02 0.  1.
       -2   -1    0    0    0  501  0.00000000000E+00  0.00000000000E+00 -0.10903330341E+04  0.10903330341E+04  0.25500000920E-02 0. -1.
    10030    2    1    2    0    0  0.00000000000E+00  0.00000000000E+00  0.14032350418E+04  0.35839011099E+04  0.32977687280E+04 0.  0.
        3    1    3    3  502    0  0.43866469299E+03 -0.13235512928E+04 -0.25486258572E+03  0.14174518282E+04  0.10100000352E+00 0. -1.
       -3    1    3    3    0  502 -0.43866469299E+03  0.13235512928E+04  0.16580976276E+04  0.21664492817E+04  0.10100000352E+00 0.  1.
</event>
<event>
 5   0  0.3896210E-06  0.3092751E+04  0.7818609E-02  0.8217730E-01
       -2   -1    0    0    0  501  0.00000000000E+00  0.00000000000E+00  0.14743759476E+04  0.14743759476E+04  0.25500000920E-02 0. -1.
        2   -1    0    0  501    0  0.00000000000E+00  0.00000000000E+00 -0.16218907610E+04  0.16218907610E+04  0.25500000920E-02 0.  1.
    10030    2    1    2    0    0  0.00000000000E+00  0.00000000000E+00 -0.14751481341E+03  0.30962667087E+04  0.30927507030E+04 0.  0.
        3    1    3    3  502    0  0.12536583440E+04 -0.51821613305E+03  0.66942709048E+03  0.15127259645E+04  0.10100000352E+00 0. -1.
       -3    1    3    3    0  502 -0.12536583440E+04  0.51821613305E+03 -0.81694190389E+03  0.15835407442E+04  0.10100000352E+00 0.  1.
</event>
<event>
 5   0  0.3920487E-06  0.3241743E+04  0.7818609E-02  0.8177879E-01
        2   -1    0    0  501    0  0.00000000000E+00  0.00000000000E+00  0.18070247941E+04  0.18070247941E+04  0.25500000920E-02 0.  1.
       -2   -1    0    0    0  501  0.00000000000E+00  0.00000000000E+00 -0.14538950089E+04  0.14538950089E+04  0.25500000920E-02 0. -1.
    10030    2    1    2    0    0  0.00000000000E+00  0.00000000000E+00  0.35312978524E+03  0.32609198030E+04  0.32417429442E+04 0.  0.
        4    1    3    3  502    0  0.51764558854E+03 -0.77992079689E+03  0.15076422365E+04  0.17746042181E+04  0.12699999809E+01 0.  1.
       -4    1    3    3    0  502 -0.51764558854E+03  0.77992079689E+03 -0.11545124513E+04  0.14863155849E+04  0.12699999809E+01 0. -1.
</event>
<event>
 5   0  0.1282578E-06  0.3261052E+04  0.7818609E-02  0.8172877E-01
        1   -1    0    0  501    0  0.00000000000E+00  0.00000000000E+00  0.94331442236E+03  0.94331442238E+03  0.50400001928E-02 0. -1.
       -1   -1    0    0    0  501  0.00000000000E+00  0.00000000000E+00 -0.28183762422E+04  0.28183762422E+04  0.50400001928E-02 0.  1.
    10030    2    1    2    0    0  0.00000000000E+00  0.00000000000E+00 -0.18750618198E+04  0.37616906646E+04  0.32610519511E+04 0.  0.
        4    1    3    3  502    0 -0.89232309609E+03  0.11827649240E+04 -0.17228065145E+04  0.22722757915E+04  0.12699999809E+01 0.  1.
       -4    1    3    3    0  502  0.89232309609E+03 -0.11827649240E+04 -0.15225530537E+03  0.14894148731E+04  0.12699999809E+01 0. -1.
</event>
<event>
 5   0  0.1282578E-06  0.3266805E+04  0.7818609E-02  0.8171393E-01
        1   -1    0    0  501    0  0.00000000000E+00  0.00000000000E+00  0.18310085561E+04  0.18310085561E+04  0.50400001928E-02 0.  1.
       -1   -1    0    0    0  501  0.00000000000E+00  0.00000000000E+00 -0.14571228749E+04  0.14571228749E+04  0.50400001928E-02 0. -1.
    10030    2    1    2    0    0  0.00000000000E+00  0.00000000000E+00  0.37388568114E+03  0.32881314310E+04  0.32668054434E+04 0.  0.
        4    1    3    3  502    0  0.62364778769E+03  0.24836864921E+03  0.16857504571E+04  0.18144915997E+04  0.12699999809E+01 0.  1.
       -4    1    3    3    0  502 -0.62364778769E+03 -0.24836864921E+03 -0.13118647760E+04  0.14736398313E+04  0.12699999809E+01 0. -1.
</event>
<event>
 5   0  0.3812379E-06  0.3383584E+04  0.7818609E-02  0.8141947E-01
        2   -1    0    0  501    0  0.00000000000E+00  0.00000000000E+00  0.19496110914E+04  0.19496110914E+04  0.25500000920E-02 0. -1.
       -2   -1    0    0    0  501  0.00000000000E+00  0.00000000000E+00 -0.14680672963E+04  0.14680672963E+04  0.25500000920E-02 0.  1.
    10030    2    1    2    0    0  0.00000000000E+00  0.00000000000E+00  0.48154379511E+03  0.34176783877E+04  0.33835840665E+04 0.  0.
        5    1    3    3  502    0  0.13713304675E+04  0.95909986510E+02  0.12368077197E+04  0.18491785750E+04  0.46999998093E+01 0. -1.
       -5    1    3    3    0  502 -0.13713304675E+04 -0.95909986510E+02 -0.75526392464E+03  0.15684998127E+04  0.46999998093E+01 0.  1.
</event>
<event>
 5   0  0.1282578E-06  0.3284877E+04  0.7818609E-02  0.8166754E-01
        1   -1    0    0  501    0  0.00000000000E+00  0.00000000000E+00  0.14691222082E+04  0.14691222082E+04  0.50400001928E-02 0. -1.
       -1   -1    0    0    0  501  0.00000000000E+00  0.00000000000E+00 -0.18362017317E+04  0.18362017318E+04  0.50400001928E-02 0.  1.
    10030    2    1    2    0    0  0.00000000000E+00  0.00000000000E+00 -0.36707952352E+03  0.33053239400E+04  0.32848773145E+04 0.  0.
        4    1    3    3  502    0  0.11278417607E+04 -0.30868093383E+03  0.97702236346E+03  0.15237733649E+04  0.12699999809E+01 0. -1.
       -4    1    3    3    0  502 -0.11278417607E+04  0.30868093383E+03 -0.13441018870E+04  0.17815505751E+04  0.12699999809E+01 0.  1.
</event>
<event>
 5   0  0.3896210E-06  0.3299180E+04  0.7818609E-02  0.8163104E-01
        2   -1    0    0  501    0  0.00000000000E+00  0.00000000000E+00  0.17976806727E+04  0.17976806727E+04  0.25500000920E-02 0. -1.
       -2   -1    0    0    0  501  0.00000000000E+00  0.00000000000E+00 -0.15136986051E+04  0.15136986051E+04  0.25500000920E-02 0.  1.
    10030    2    1    2    0    0  0.00000000000E+00  0.00000000000E+00  0.28398206761E+03  0.33113792778E+04  0.32991797324E+04 0.  0.
        3    1    3    3  502    0 -0.15728730696E+03  0.10344767675E+04 -0.11379755757E+04  0.15459204057E+04  0.10100000352E+00 0.  1.
       -3    1    3    3    0  502  0.15728730696E+03 -0.10344767675E+04  0.14219576434E+04  0.17654588721E+04  0.10100000352E+00 0. -1.
</event>
<event>
 5   0  0.3896210E-06  0.3121355E+04  0.7818609E-02  0.8209902E-01
        2   -1    0    0  501    0  0.00000000000E+00  0.00000000000E+00  0.19028761162E+04  0.19028761162E+04  0.25500000920E-02 0. -1.
       -2   -1    0    0    0  501  0.00000000000E+00  0.00000000000E+00 -0.12800168657E+04  0.12800168657E+04  0.25500000920E-02 0.  1.
    10030    2    1    2    0    0  0.00000000000E+00  0.00000000000E+00  0.62285925050E+03  0.31828929818E+04  0.31213545277E+04 0.  0.
        3    1    3    3  502    0  0.12269908895E+04  0.95240730479E+03  0.46650413464E+03  0.16217929692E+04  0.10100000352E+00 0. -1.
       -3    1    3    3    0  502 -0.12269908895E+04 -0.95240730479E+03  0.15635511587E+03  0.15611000127E+04  0.10100000352E+00 0.  1.
</event>
<event>
 5   0  0.1282578E-06  0.3289553E+04  0.7818609E-02  0.8165559E-01
       -1   -1    0    0    0  501  0.00000000000E+00  0.00000000000E+00  0.23260700751E+04  0.23260700751E+04  0.50400001928E-02 0. -1.
        1   -1    0    0  501    0  0.00000000000E+00  0.00000000000E+00 -0.11630300206E+04  0.11630300206E+04  0.50400001928E-02 0.  1.
    10030    2    1    2    0    0  0.00000000000E+00  0.00000000000E+00  0.11630400545E+04  0.34891000958E+04  0.32895527522E+04 0.  0.
        4    1    3    3  502    0  0.47319019010E+03 -0.13094392216E+04  0.15102785450E+04  0.20541380011E+04  0.12699999809E+01 0. -1.
       -4    1    3    3    0  502 -0.47319019010E+03  0.13094392216E+04 -0.34723849049E+03  0.14349620947E+04  0.12699999809E+01 0.  1.
</event>
<event>
 5   0  0.1339825E-06  0.2119807E+04  0.7818609E-02  0.8552568E-01
        1   -1    0    0  501    0  0.00000000000E+00  0.00000000000E+00  0.17717605752E+04  0.17717605752E+04  0.50400001928E-02 0. -1.
       -1   -1    0    0    0  501  0.00000000000E+00  0.00000000000E+00 -0.63405612920E+03  0.63405612922E+03  0.50400001928E-02 0.  1.
    10030    2    1    2    0    0  0.00000000000E+00  0.00000000000E+00  0.11377044460E+04  0.24058167044E+04  0.21198072103E+04 0.  0.
        3    1    3    3  502    0 -0.44449398292E+03  0.84440013616E+03  0.10924060286E+04  0.14504955816E+04  0.10100000352E+00 0.  1.
       -3    1    3    3    0  502  0.44449398292E+03 -0.84440013616E+03  0.45298417360E+02  0.95532112277E+03  0.10100000352E+00 0. -1.
</event>
<event>
 5   0  0.1282578E-06  0.3256214E+04  0.7818609E-02  0.8174127E-01
        1   -1    0    0  501    0  0.00000000000E+00  0.00000000000E+00  0.22189446334E+04  0.22189446334E+04  0.50400001928E-02 0.  1.
       -1   -1    0    0    0  501  0.00000000000E+00  0.00000000000E+00 -0.11945913144E+04  0.11945913144E+04  0.50400001928E-02 0. -1.
    10030    2    1    2    0    0  0.00000000000E+00  0.00000000000E+00  0.10243533190E+04  0.34135359478E+04  0.32562137437E+04 0.  0.
        4    1    3    3  502    0 -0.51509573423E+03  0.10040015170E+04 -0.71814785581E+03  0.13375651824E+04  0.12699999809E+01 0. -1.
       -4    1    3    3    0  502  0.51509573423E+03 -0.10040015170E+04  0.17425011748E+04  0.20759707654E+04  0.12699999809E+01 0.  1.
</event>
<event>
 5   0  0.3812379E-06  0.3340904E+04  0.7818609E-02  0.8152565E-01
        2   -1    0    0  501    0  0.00000000000E+00  0.00000000000E+00  0.27931263114E+04  0.27931263114E+04  0.25500000920E-02 0. -1.
       -2   -1    0    0    0  501  0.00000000000E+00  0.00000000000E+00 -0.99902736946E+03  0.99902736946E+03  0.25500000920E-02 0.  1.
    10030    2    1    2    0    0  0.00000000000E+00  0.00000000000E+00  0.17940989420E+04  0.37921536809E+04  0.33409038486E+04 0.  0.
        5    1    3    3  502    0 -0.11649322200E+04  0.28804388373E+03 -0.42195211405E+03  0.12720463957E+04  0.46999998093E+01 0.  1.
       -5    1    3    3    0  502  0.11649322200E+04 -0.28804388373E+03  0.22160510560E+04  0.25201072852E+04  0.46999998093E+01 0. -1.
</event>
<event>
 5   0  0.1282578E-06  0.2364056E+04  0.7818609E-02  0.8453084E-01
        1   -1    0    0  501    0  0.00000000000E+00  0.00000000000E+00  0.10720079515E+04  0.10720079515E+04  0.50400001928E-02 0.  1.
       -1   -1    0    0    0  501  0.00000000000E+00  0.00000000000E+00 -0.13033391271E+04  0.13033391271E+04  0.50400001928E-02 0. -1.
    10030    2    1    2    0    0  0.00000000000E+00  0.00000000000E+00 -0.23133117559E+03  0.23753470786E+04  0.23640557588E+04 0.  0.
        4    1    3    3  502    0  0.32634615091E+03  0.10136579825E+04  0.39979929710E+03  0.11374732553E+04  0.12699999809E+01 0.  1.
       -4    1    3    3    0  502 -0.32634615091E+03 -0.10136579825E+04 -0.63113047269E+03  0.12378738232E+04  0.12699999809E+01 0. -1.
</event>
<event>
 5   0  0.1391878E-06  0.3222243E+04  0.7818609E-02  0.8182967E-01
        1   -1    0    0  501    0  0.00000000000E+00  0.00000000000E+00  0.21044355889E+04  0.21044355889E+04  0.50400001928E-02 0. -1.
       -1   -1    0    0    0  501  0.00000000000E+00  0.00000000000E+00 -0.12334482875E+04  0.12334482875E+04  0.50400001928E-02 0.  1.
    10030    2    1    2    0    0  0.00000000000E+00  0.00000000000E+00  0.87098730142E+03  0.33378838764E+04  0.32222429910E+04 0.  0.
        2    1    3    3  502    0 -0.15369381237E+04  0.47676892264E+03  0.35376297048E+03  0.16476151374E+04  0.25500000920E-02 0. -1.
       -2    1    3    3    0  502  0.15369381237E+04 -0.47676892264E+03  0.51722433094E+03  0.16902687390E+04  0.25500000920E-02 0.  1.
</event>
<event>
 5   0  0.1352708E-06  0.3169498E+04  0.7818609E-02  0.8196919E-01
        1   -1    0    0  501    0  0.00000000000E+00  0.00000000000E+00  0.24210655078E+04  0.24210655078E+04  0.50400001928E-02 0.  1.
       -1   -1    0    0    0  501  0.00000000000E+00  0.00000000000E+00 -0.10373240934E+04  0.10373240934E+04  0.50400001928E-02 0. -1.
    10030    2    1    2    0    0  0.00000000000E+00  0.00000000000E+00  0.13837414144E+04  0.34583896012E+04  0.31694981198E+04 0.  0.
        5    1    3    3  502    0  0.47627488155E+03 -0.13046813195E+04 -0.14082302596E+03  0.13960244708E+04  0.46999998093E+01 0. -1.
       -5    1    3    3    0  502 -0.47627488155E+03  0.13046813195E+04  0.15245644404E+04  0.20623651304E+04  0.46999998093E+01 0.  1.
</event>
<event>
 5   0  0.3671997E-06  0.3203448E+04  0.7818609E-02  0.8187907E-01
        2   -1    0    0  501    0  0.00000000000E+00  0.00000000000E+00  0.21635803189E+04  0.21635803189E+04  0.25500000920E-02 0.  1.
       -2   -1    0    0    0  501  0.00000000000E+00  0.00000000000E+00 -0.11857754344E+04  0.11857754344E+04  0.25500000920E-02 0. -1.
    10030    2    1    2    0    0  0.00000000000E+00  0.00000000000E+00  0.97780488450E+03  0.33493557532E+04  0.32034483872E+04 0.  0.
        2    1    3    3  502    0  0.76127338243E+03  0.58346020286E+03 -0.85231770411E+03  0.12831244834E+04  0.25500000920E-02 0. -1.
       -2    1    3    3    0  502 -0.76127338243E+03 -0.58346020286E+03  0.18301225886E+04  0.20662312698E+04  0.25500000920E-02 0.  1.
</event>
<event>
 5   0  0.3920487E-06  0.2438066E+04  0.7818609E-02  0.8425388E-01
       -2   -1    0    0    0  501  0.00000000000E+00  0.00000000000E+00  0.66630352793E+03  0.66630352793E+03  0.25500000920E-02 0. -1.
        2   -1    0    0  501    0  0.00000000000E+00  0.00000000000E+00 -0.22302771178E+04  0.22302771178E+04  0.25500000920E-02 0.  1.
    10030    2    1    2    0    0  0.00000000000E+00  0.00000000000E+00 -0.15639735899E+04  0.28965806458E+04  0.24380660466E+04 0.  0.
        4    1    3    3  502    0 -0.36972058790E+02  0.29084488273E+02 -0.22291976166E+04  0.22296942542E+04  0.12699999809E+01 0.  1.
       -4    1    3    3    0  502  0.36972058790E+02 -0.29084488273E+02  0.66522402671E+03  0.66688639152E+03  0.12699999809E+01 0. -1.
</event>
<event>
 5   0  0.3896210E-06  0.3248889E+04  0.7818609E-02  0.8176024E-01
        2   -1    0    0  501    0  0.00000000000E+00  0.00000000000E+00  0.15384902222E+04  0.15384902222E+04  0.25500000920E-02 0.  1.
       -2   -1    0    0    0  501  0.00000000000E+00  0.00000000000E+00 -0.17152009180E+04  0.17152009180E+04  0.25500000920E-02 0. -1.
    10030    2    1    2    0    0  0.00000000000E+00  0.00000000000E+00 -0.17671069584E+03  0.32536911402E+04  0.32488889433E+04 0.  0.
        3    1    3    3  502    0  0.92718573872E+03 -0.10291754598E+04 -0.93810483382E+03  0.16729961777E+04  0.10100000352E+00 0. -1.
       -3    1    3    3    0  502 -0.92718573872E+03  0.10291754598E+04  0.76139413798E+03  0.15806949626E+04  0.10100000352E+00 0.  1.
</event>
<event>
 5   0  0.1405389E-06  0.3285879E+04  0.7818609E-02  0.8166498E-01
        1   -1    0    0  501    0  0.00000000000E+00  0.00000000000E+00  0.12753518449E+04  0.12753518449E+04  0.50400001928E-02 0. -1.
       -1   -1    0    0    0  501  0.00000000000E+00  0.00000000000E+00 -0.21164743390E+04  0.21164743390E+04  0.50400001928E-02 0.  1.
    10030    2    1    2    0    0  0.00000000000E+00  0.00000000000E+00 -0.84112249410E+03  0.33918261839E+04  0.32858785449E+04 0.  0.
        1    1    3    3  502    0 -0.57443886134E+02 -0.65525270552E+03 -0.19746252667E+04  0.20812978768E+04  0.50400001928E-02 0.  1.
       -1    1    3    3    0  502  0.57443886134E+02  0.65525270552E+03  0.11335027726E+04  0.13105283071E+04  0.50400001928E-02 0. -1.
</event>
<event>
 5   0  0.1339825E-06  0.3552474E+04  0.7818609E-02  0.8101466E-01
        1   -1    0    0  501    0  0.00000000000E+00  0.00000000000E+00  0.10260685471E+04  0.10260685472E+04  0.50400001928E-02 0.  1.
       -1   -1    0    0    0  501  0.00000000000E+00  0.00000000000E+00 -0.30748611243E+04  0.30748611243E+04  0.50400001928E-02 0. -1.
    10030    2    1    2    0    0  0.00000000000E+00  0.00000000000E+00 -0.20487925772E+04  0.41009296715E+04  0.35524742288E+04 0.  0.
        3    1    3    3  502    0  0.53993556098E+03  0.16196154931E+04 -0.15903208719E+04  0.23331963572E+04  0.10100000352E+00 0. -1.
       -3    1    3    3    0  502 -0.53993556098E+03 -0.16196154931E+04 -0.45847170530E+03  0.17677333143E+04  0.10100000352E+00 0.  1.
</event>
<event>
 5   0  0.1352708E-06  0.3227844E+04  0.7818609E-02  0.8181502E-01
        1   -1    0    0  501    0  0.00000000000E+00  0.00000000000E+00  0.21246293331E+04  0.21246293331E+04  0.50400001928E-02 0.  1.
       -1   -1    0    0    0  501  0.00000000000E+00  0.00000000000E+00 -0.12259756057E+04  0.12259756057E+04  0.50400001928E-02 0. -1.
    10030    2    1    2    0    0  0.00000000000E+00  0.00000000000E+00  0.89865372737E+03  0.33506049388E+04  0.32278436973E+04 0.  0.
        5    1    3    3  502    0 -0.11979884249E+04  0.10143701689E+04  0.60101502976E+02  0.15709097321E+04  0.46999998093E+01 0. -1.
       -5    1    3    3    0  502  0.11979884249E+04 -0.10143701689E+04  0.83855222440E+03  0.17796952067E+04  0.46999998093E+01 0.  1.
</event>
<event>
 5   0  0.1352708E-06  0.3284517E+04  0.7818609E-02  0.8166846E-01
       -1   -1    0    0    0  501  0.00000000000E+00  0.00000000000E+00  0.14604403643E+04  0.14604403643E+04  0.50400001928E-02 0. -1.
        1   -1    0    0  501    0  0.00000000000E+00  0.00000000000E+00 -0.18467118409E+04  0.18467118409E+04  0.50400001928E-02 0.  1.
    10030    2    1    2    0    0  0.00000000000E+00  0.00000000000E+00 -0.38627147660E+03  0.33071522053E+04  0.32845167156E+04 0.  0.
        5    1    3    3  502    0  0.73486336132E+03  0.13546670091E+04  0.37808651391E+03  0.15868580174E+04  0.46999998093E+01 0.  1.
       -5    1    3    3    0  502 -0.73486336132E+03 -0.13546670091E+04 -0.76435799051E+03  0.17202941879E+04  0.46999998093E+01 0. -1.
</event>
<event>
 5   0  0.3671997E-06  0.3281408E+04  0.7818609E-02  0.8167642E-01
       -2   -1    0    0    0  501  0.00000000000E+00  0.00000000000E+00  0.14824780797E+04  0.14824780797E+04  0.25500000920E-02 0. -1.
        2   -1    0    0  501    0  0.00000000000E+00  0.00000000000E+00 -0.18158173343E+04  0.18158173343E+04  0.25500000920E-02 0.  1.
    10030    2    1    2    0    0  0.00000000000E+00  0.00000000000E+00 -0.33333925455E+03  0.32982954140E+04  0.32814078654E+04 0.  0.
        2    1    3    3  502    0  0.78310691333E+03  0.40231957797E+03 -0.15582773190E+04  0.17897892846E+04  0.25500000920E-02 0.  1.
       -2    1    3    3    0  502 -0.78310691333E+03 -0.40231957797E+03  0.12249380644E+04  0.15085061293E+04  0.25500000920E-02 0. -1.
</event>
<event>
 5   0  0.3671997E-06  0.3298412E+04  0.7818609E-02  0.8163300E-01
       -2   -1    0    0    0  501  0.00000000000E+00  0.00000000000E+00  0.15199323610E+04  0.15199323610E+04  0.25500000920E-02 0.  1.
        2   -1    0    0  501    0  0.00000000000E+00  0.00000000000E+00 -0.17894748880E+04  0.17894748880E+04  0.25500000920E-02 0. -1.
    10030    2    1    2    0    0  0.00000000000E+00  0.00000000000E+00 -0.26954252693E+03  0.33094072490E+04  0.32984122189E+04 0.  0.
        2    1    3    3  502    0 -0.17835205892E+03  0.12814633948E+04 -0.11608840976E+04  0.17382778193E+04  0.25500000920E-02 0. -1.
       -2    1    3    3    0  502  0.17835205892E+03 -0.12814633948E+04  0.89134157068E+03  0.15711294297E+04  0.25500000920E-02 0.  1.
</event>
<event>
 5   0  0.1339825E-06  0.2720331E+04  0.7818609E-02  0.8328438E-01
        1   -1    0    0  501    0  0.00000000000E+00  0.00000000000E+00  0.14725471918E+04  0.14725471918E+04  0.50400001928E-02 0.  1.
       -1   -1    0    0    0  501  0.00000000000E+00  0.00000000000E+00 -0.12563601911E+04  0.12563601911E+04  0.50400001928E-02 0. -1.
    10030    2    1    2    0    0  0.00000000000E+00  0.00000000000E+00  0.21618700074E+03  0.27289073829E+04  0.27203306206E+04 0.  0.
        3    1    3    3  502    0  0.18325455787E+03  0.10477071368E+04  0.95857377940E+03  0.14318296610E+04  0.10100000352E+00 0.  1.
       -3    1    3    3    0  502 -0.18325455787E+03 -0.10477071368E+04 -0.74238677866E+03  0.12970777219E+04  0.10100000352E+00 0. -1.
</event>
<event>
 5   0  0.1405389E-06  0.3280063E+04  0.7818609E-02  0.8167987E-01
       -1   -1    0    0    0  501  0.00000000000E+00  0.00000000000E+00  0.15360494088E+04  0.15360494088E+04  0.50400001928E-02 0.  1.
        1   -1    0    0  501    0  0.00000000000E+00  0.00000000000E+00 -0.17510526186E+04  0.17510526186E+04  0.50400001928E-02 0. -1.
    10030    2    1    2    0    0  0.00000000000E+00  0.00000000000E+00 -0.21500320984E+03  0.32871020274E+04  0.32800630113E+04 0.  0.
        1    1    3    3  502    0 -0.78154379494E+02  0.11177746526E+04 -0.13076420731E+04  0.17220499623E+04  0.50400001928E-02 0. -1.
       -1    1    3    3    0  502  0.78154379494E+02 -0.11177746526E+04  0.10926388633E+04  0.15650520651E+04  0.50400001928E-02 0.  1.
</event>
<event>
 5   0  0.4017247E-06  0.3315481E+04  0.7818609E-02  0.8158967E-01
       -2   -1    0    0    0  501  0.00000000000E+00  0.00000000000E+00  0.10254080340E+04  0.10254080340E+04  0.25500000920E-02 0.  1.
        2   -1    0    0  501    0  0.00000000000E+00  0.00000000000E+00 -0.26800105389E+04  0.26800105389E+04  0.25500000920E-02 0. -1.
    10030    2    1    2    0    0  0.00000000000E+00  0.00000000000E+00 -0.16546025049E+04  0.37054185729E+04  0.33154814659E+04 0.  0.
        1    1    3    3  502    0 -0.15274600575E+04  0.18713409985E+03 -0.13840403494E+03  0.15450919311E+04  0.50400001928E-02 0.  1.
       -1    1    3    3    0  502  0.15274600575E+04 -0.18713409985E+03 -0.15161984700E+04  0.21603266418E+04  0.50400001928E-02 0. -1.
</event>
<event>
 5   0  0.3812379E-06  0.3256321E+04  0.7818609E-02  0.8174099E-01
       -2   -1    0    0    0  501  0.00000000000E+00  0.00000000000E+00  0.15277376049E+04  0.15277376049E+04  0.25500000920E-02 0.  1.
        2   -1    0    0  501    0  0.00000000000E+00  0.00000000000E+00 -0.17351841667E+04  0.17351841668E+04  0.25500000920E-02 0. -1.
    10030    2    1    2    0    0  0.00000000000E+00  0.00000000000E+00 -0.20744656185E+03  0.32629217716E+04  0.32563206863E+04 0.  0.
        5    1    3    3  502    0  0.14249710488E+04  0.72124984824E+03 -0.42081410636E+03  0.16516205483E+04  0.46999998093E+01 0. -1.
       -5    1    3    3    0  502 -0.14249710488E+04 -0.72124984824E+03  0.21336754450E+03  0.16113012234E+04  0.46999998093E+01 0.  1.
</event>
<event>
 5   0  0.1391878E-06  0.2567967E+04  0.7818609E-02  0.8379164E-01
        1   -1    0    0  501    0  0.00000000000E+00  0.00000000000E+00  0.26528869912E+04  0.26528869912E+04  0.50400001928E-02 0. -1.
       -1   -1    0    0    0  501  0.00000000000E+00  0.00000000000E+00 -0.62144133126E+03  0.62144133128E+03  0.50400001928E-02 0.  1.
    10030    2    1    2    0    0  0.00000000000E+00  0.00000000000E+00  0.20314456599E+04  0.32743283225E+04  0.25679669963E+04 0.  0.
        2    1    3    3  502    0 -0.47999854534E+03  0.37628697754E+03  0.24563915981E+04  0.25309781066E+04  0.25500000920E-02 0. -1.
       -2    1    3    3    0  502  0.47999854534E+03 -0.37628697754E+03 -0.42494593818E+03  0.74335021583E+03  0.25500000920E-02 0.  1.
</event>
<event>
 5   0  0.1391878E-06  0.3318299E+04  0.7818609E-02  0.8158255E-01
        1   -1    0    0  501    0  0.00000000000E+00  0.00000000000E+00  0.20159693407E+04  0.20159693407E+04  0.50400001928E-02 0.  1.
       -1   -1    0    0    0  501  0.00000000000E+00  0.00000000000E+00 -0.13654858400E+04  0.13654858400E+04  0.50400001928E-02 0. -1.
    10030    2    1    2    0    0  0.00000000000E+00  0.00000000000E+00  0.65048350067E+03  0.33814551807E+04  0.33182993166E+04 0.  0.
        2    1    3    3  502    0  0.48750550429E+03 -0.24444791173E+02 -0.12906620000E+04  0.13798795465E+04  0.25500000920E-02 0. -1.
       -2    1    3    3    0  502 -0.48750550429E+03  0.24444791173E+02  0.19411455007E+04  0.20015756342E+04  0.25500000920E-02 0.  1.
</event>
<event>
 5   0  0.1353749E-06  0.2176138E+04  0.7818609E-02  0.8528426E-01
        1   -1    0    0  501    0  0.00000000000E+00  0.00000000000E+00  0.13493371741E+04  0.13493371741E+04  0.50400001928E-02 0. -1.
       -1   -1    0    0    0  501  0.00000000000E+00  0.00000000000E+00 -0.87738947858E+03  0.87738947859E+03  0.50400001928E-02 0.  1.
    10030    2    1    2    0    0  0.00000000000E+00  0.00000000000E+00  0.47194769552E+03  0.22267266527E+04  0.21761380835E+04 0.  0.
        3    1    3    3  502    0 -0.21641190631E+03 -0.10562288089E+04  0.38580466517E+03  0.11451194958E+04  0.10100000352E+00 0.  1.
       -3    1    3    3    0  502  0.21641190631E+03  0.10562288089E+04  0.86143030346E+02  0.10816071569E+04  0.10100000352E+00 0. -1.
</event>
<event>
 5   0  0.3896210E-06  0.3183948E+04  0.7818609E-02  0.8193069E-01
       -2   -1    0    0    0  501  0.00000000000E+00  0.00000000000E+00  0.11969488938E+04  0.11969488938E+04  0.25500000920E-02 0. -1.
        2   -1    0    0  501    0  0.00000000000E+00  0.00000000000E+00 -0.21173682013E+04  0.21173682013E+04  0.25500000920E-02 0.  1.
    10030    2    1    2    0    0  0.00000000000E+00  0.00000000000E+00 -0.92041930752E+03  0.33143170951E+04  0.31839481945E+04 0.  0.
        3    1    3    3  502    0 -0.48576520759E+03  0.50291112035E+03 -0.19489781770E+04  0.20706045921E+04  0.10100000352E+00 0.  1.
       -3    1    3    3    0  502  0.48576520759E+03 -0.50291112035E+03  0.10285588695E+04  0.12437125030E+04  0.10100000352E+00 0. -1.
</event>
<event>
 5   0  0.1352708E-06  0.3153513E+04  0.7818609E-02  0.8201203E-01
       -1   -1    0    0    0  501  0.00000000000E+00  0.00000000000E+00  0.30617057327E+04  0.30617057327E+04  0.50400001928E-02 0. -1.
        1   -1    0    0  501    0  0.00000000000E+00  0.00000000000E+00 -0.81201840694E+03  0.81201840696E+03  0.50400001928E-02 0.  1.
    10030    2    1    2    0    0  0.00000000000E+00  0.00000000000E+00  0.22496873257E+04  0.38737241396E+04  0.31535132228E+04 0.  0.
        5    1    3    3  502    0 -0.40987314244E+03 -0.70360087705E+03  0.27834296238E+04  0.29000952998E+04  0.46999998093E+01 0. -1.
       -5    1    3    3    0  502  0.40987314244E+03  0.70360087705E+03 -0.53374229807E+03  0.97362883987E+03  0.46999998093E+01 0.  1.
</event>
<event>
 5   0  0.1282578E-06  0.2604366E+04  0.7818609E-02  0.8366720E-01
       -1   -1    0    0    0  501  0.00000000000E+00  0.00000000000E+00  0.96832455150E+03  0.96832455152E+03  0.50400001928E-02 0.  1.
        1   -1    0    0  501    0  0.00000000000E+00  0.00000000000E+00 -0.17511483949E+04  0.17511483949E+04  0.50400001928E-02 0. -1.
    10030    2    1    2    0    0  0.00000000000E+00  0.00000000000E+00 -0.78282384343E+03  0.27194729465E+04  0.26043655536E+04 0.  0.
        4    1    3    3  502    0 -0.37693872001E+03  0.43907374286E+03 -0.16095079235E+04  0.17103759584E+04  0.12699999809E+01 0. -1.
       -4    1    3    3    0  502  0.37693872001E+03 -0.43907374286E+03  0.82668408004E+03  0.10090969881E+04  0.12699999809E+01 0.  1.
</event>
<event>
 5   0  0.3896210E-06  0.3308721E+04  0.7818609E-02  0.8160680E-01
        2   -1    0    0  501    0  0.00000000000E+00  0.00000000000E+00  0.28239221957E+04  0.28239221957E+04  0.25500000920E-02 0.  1.
       -2   -1    0    0    0  501  0.00000000000E+00  0.00000000000E+00 -0.96918707044E+03  0.96918707044E+03  0.25500000920E-02 0. -1.
    10030    2    1    2    0    0  0.00000000000E+00  0.00000000000E+00  0.18547351253E+04  0.37931092661E+04  0.33087211306E+04 0.  0.
        3    1    3    3  502    0 -0.46436532120E+03  0.15412312107E+04  0.48950967738E+03  0.16824531288E+04  0.10100000352E+00 0. -1.
       -3    1    3    3    0  502  0.46436532120E+03 -0.15412312107E+04  0.13652254479E+04  0.21106561373E+04  0.10100000352E+00 0.  1.
</event>
<event>
 5   0  0.3812379E-06  0.2181313E+04  0.7818609E-02  0.8526246E-01
       -2   -1    0    0    0  501  0.00000000000E+00  0.00000000000E+00  0.74484558372E+03  0.74484558373E+03  0.25500000920E-02 0. -1.
        2   -1    0    0  501    0  0.00000000000E+00  0.00000000000E+00 -0.15970183464E+04  0.15970183464E+04  0.25500000920E-02 0.  1.
    10030    2    1    2    0    0  0.00000000000E+00  0.00000000000E+00 -0.85217276270E+03  0.23418639301E+04  0.21813134231E+04 0.  0.
        5    1    3    3  502    0  0.10062738089E+04  0.36152074160E+03 -0.19525993976E+03  0.10869373299E+04  0.46999998093E+01 0. -1.
       -5    1    3    3    0  502 -0.10062738089E+04 -0.36152074160E+03 -0.65691282294E+03  0.12549266002E+04  0.46999998093E+01 0.  1.
</event>
<event>
 5   0  0.3812379E-06  0.3331383E+04  0.7818609E-02  0.8154956E-01
        2   -1    0    0  501    0  0.00000000000E+00  0.00000000000E+00  0.16138249110E+04  0.16138249110E+04  0.25500000920E-02 0. -1.
       -2   -1    0    0    0  501  0.00000000000E+00  0.00000000000E+00 -0.17192252080E+04  0.17192252080E+04  0.25500000920E-02 0.  1.
    10030    2    1    2    0    0  0.00000000000E+00  0.00000000000E+00 -0.10540029693E+03  0.33330501190E+04  0.33313831772E+04 0.  0.
        5    1    3    3  502    0  0.55149840552E+02  0.11491724813E+04 -0.12578224664E+04  0.17046343725E+04  0.46999998093E+01 0.  1.
       -5    1    3    3    0  502 -0.55149840552E+02 -0.11491724813E+04  0.11524221695E+04  0.16284157465E+04  0.46999998093E+01 0. -1.
</event>
<event>
 5   0  0.3812379E-06  0.3307803E+04  0.7818609E-02  0.8160913E-01
       -2   -1    0    0    0  501  0.00000000000E+00  0.00000000000E+00  0.20618455921E+04  0.20618455922E+04  0.25500000920E-02 0. -1.
        2   -1    0    0  501    0  0.00000000000E+00  0.00000000000E+00 -0.13266710387E+04  0.13266710387E+04  0.25500000920E-02 0.  1.
    10030    2    1    2    0    0  0.00000000000E+00  0.00000000000E+00  0.73517455340E+03  0.33885166309E+04  0.33078034001E+04 0.  0.
        5    1    3    3  502    0 -0.11286601050E+04 -0.63925426517E+03 -0.68353440961E+03  0.14662063386E+04  0.46999998093E+01 0.  1.
       -5    1    3    3    0  502  0.11286601050E+04  0.63925426517E+03  0.14187089630E+04  0.19223102923E+04  0.46999998093E+01 0. -1.
</event>
<event>
 5   0  0.3671997E-06  0.3284969E+04  0.7818609E-02  0.8166731E-01
       -2   -1    0    0    0  501  0.00000000000E+00  0.00000000000E+00  0.14734366175E+04  0.14734366175E+04  0.25500000920E-02 0. -1.
        2   -1    0    0  501    0  0.00000000000E+00  0.00000000000E+00 -0.18309268613E+04  0.18309268613E+04  0.25500000920E-02 0.  1.
    10030    2    1    2    0    0  0.00000000000E+00  0.00000000000E+00 -0.35749024383E+03  0.33043634788E+04  0.32849686034E+04 0.  0.
        2    1    3    3  502    0  0.14492464058E+04 -0.48024506502E+03 -0.78796455568E+03  0.17180915599E+04  0.25500000920E-02 0.  1.
       -2    1    3    3    0  502 -0.14492464058E+04  0.48024506502E+03  0.43047431185E+03  0.15862719188E+04  0.25500000920E-02 0. -1.
</event>
<event>
 5   0  0.3920487E-06  0.3345614E+04  0.7818609E-02  0.8151385E-01
        2   -1    0    0  501    0  0.00000000000E+00  0.00000000000E+00  0.32012564196E+04  0.32012564196E+04  0.25500000920E-02 0.  1.
       -2   -1    0    0    0  501  0.00000000000E+00  0.00000000000E+00 -0.87412009375E+03  0.87412009376E+03  0.25500000920E-02 0. -1.
    10030    2    1    2    0    0  0.00000000000E+00  0.00000000000E+00  0.23271363259E+04  0.40753765134E+04  0.33456135830E+04 0.  0.
        4    1    3    3  502    0 -0.67131392451E+03  0.76990660206E+03  0.27772335831E+04  0.29591293566E+04  0.12699999809E+01 0.  1.
       -4    1    3    3    0  502  0.67131392451E+03 -0.76990660206E+03 -0.45009725723E+03  0.11162471568E+04  0.12699999809E+01 0. -1.
</event>
<event>
 5   0  0.3896210E-06  0.2227172E+04  0.7818609E-02  0.8507203E-01
       -2   -1    0    0    0  501  0.00000000000E+00  0.00000000000E+00  0.67673407219E+03  0.67673407220E+03  0.25500000920E-02 0. -1.
        2   -1    0    0  501    0  0.00000000000E+00  0.00000000000E+00 -0.18324391019E+04  0.18324391019E+04  0.25500000920E-02 0.  1.
    10030    2    1    2    0    0  0.00000000000E+00  0.00000000000E+00 -0.11557050297E+04  0.25091731741E+04  0.22271721761E+04 0.  0.
        3    1    3    3  502    0 -0.56682548122E+03  0.35838259544E+02  0.50129176991E+03  0.75754138883E+03  0.10100000352E+00 0. -1.
       -3    1    3    3    0  502  0.56682548122E+03 -0.35838259544E+02 -0.16569967997E+04  0.17516317853E+04  0.10100000352E+00 0.  1.
</event>
<event>
 5   0  0.3812379E-06  0.3372135E+04  0.7818609E-02  0.8144779E-01
        2   -1    0    0  501    0  0.00000000000E+00  0.00000000000E+00  0.18027345042E+04  0.18027345042E+04  0.25500000920E-02 0.  1.
       -2   -1    0    0    0  501  0.00000000000E+00  0.00000000000E+00 -0.15769507877E+04  0.15769507877E+04  0.25500000920E-02 0. -1.
    10030    2    1    2    0    0  0.00000000000E+00  0.00000000000E+00  0.22578371656E+03  0.33796852919E+04  0.33721349893E+04 0.  0.
        5    1    3    3  502    0  0.14639519351E+04  0.78707672035E+03  0.39664495746E+03  0.17087990942E+04  0.46999998093E+01 0.  1.
       -5    1    3    3    0  502 -0.14639519351E+04 -0.78707672035E+03 -0.17086124090E+03  0.16708861977E+04  0.46999998093E+01 0. -1.
</event>
<event>
 5   0  0.3920487E-06  0.2074852E+04  0.7818609E-02  0.8572403E-01
        2   -1    0    0  501    0  0.00000000000E+00  0.00000000000E+00  0.11004510703E+04  0.11004510703E+04  0.25500000920E-02 0. -1.
       -2   -1    0    0    0  501  0.00000000000E+00  0.00000000000E+00 -0.97801044807E+03  0.97801044807E+03  0.25500000920E-02 0.  1.
    10030    2    1    2    0    0  0.00000000000E+00  0.00000000000E+00  0.12244062225E+03  0.20784615184E+04  0.20748519411E+04 0.  0.
        4    1    3    3  502    0 -0.99936754474E+03 -0.22423437581E+03 -0.10409553104E+03  0.10294921259E+04  0.12699999809E+01 0. -1.
       -4    1    3    3    0  502  0.99936754474E+03  0.22423437581E+03  0.22653615329E+03  0.10489693925E+04  0.12699999809E+01 0.  1.
</event>
<event>
 5   0  0.4017247E-06  0.3334394E+04  0.7818609E-02  0.8154199E-01
        2   -1    0    0  501    0  0.00000000000E+00  0.00000000000E+00  0.23552444728E+04  0.23552444728E+04  0.25500000920E-02 0. -1.
       -2   -1    0    0    0  501  0.00000000000E+00  0.00000000000E+00 -0.11801513820E+04  0.11801513820E+04  0.25500000920E-02 0.  1.
    10030    2    1    2    0    0  0.00000000000E+00  0.00000000000E+00  0.11750930907E+04  0.35353958548E+04  0.33343935098E+04 0.  0.
        1    1    3    3  502    0 -0.43860338929E+03  0.13095838763E+04  0.15777394634E+04  0.20968177500E+04  0.50400001928E-02 0.  1.
       -1    1    3    3    0  502  0.43860338929E+03 -0.13095838763E+04 -0.40264637267E+03  0.14385781048E+04  0.50400001928E-02 0. -1.
</event>
<event>
 5   0  0.1391878E-06  0.2596984E+04  0.7818609E-02  0.8369226E-01
       -1   -1    0    0    0  501  0.00000000000E+00  0.00000000000E+00  0.12798094945E+04  0.12798094945E+04  0.50400001928E-02 0.  1.
        1   -1    0    0  501    0  0.00000000000E+00  0.00000000000E+00 -0.13174475251E+04  0.13174475251E+04  0.50400001928E-02 0. -1.
    10030    2    1    2    0    0  0.00000000000E+00  0.00000000000E+00 -0.37638030585E+02  0.25972570196E+04  0.25969842904E+04 0.  0.
        2    1    3    3  502    0 -0.42830971765E+03 -0.11814967517E+04  0.30786198206E+03  0.12938944272E+04  0.25500000920E-02 0.  1.
       -2    1    3    3    0  502  0.42830971765E+03  0.11814967517E+04 -0.34550001265E+03  0.13033625924E+04  0.25500000920E-02 0. -1.
</event>
<event>
 5   0  0.3896210E-06  0.3388467E+04  0.7818609E-02  0.8140743E-01
        2   -1    0    0  501    0  0.00000000000E+00  0.00000000000E+00  0.19337737225E+04  0.19337737225E+04  0.25500000920E-02 0. -1.
       -2   -1    0    0    0  501  0.00000000000E+00  0.00000000000E+00 -0.14843658083E+04  0.14843658083E+04  0.25500000920E-02 0.  1.
    10030    2    1    2    0    0  0.00000000000E+00  0.00000000000E+00  0.44940791416E+03  0.34181395307E+04  0.33884672609E+04 0.  0.
        3    1    3    3  502    0 -0.82307573468E+03 -0.11960820419E+04 -0.65607517989E+03  0.15932672619E+04  0.10100000352E+00 0.  1.
       -3    1    3    3    0  502  0.82307573468E+03  0.11960820419E+04  0.11054830941E+04  0.18248722688E+04  0.10100000352E+00 0. -1.
</event>
<event>
 5   0  0.1282578E-06  0.3257338E+04  0.7818609E-02  0.8173836E-01
       -1   -1    0    0    0  501  0.00000000000E+00  0.00000000000E+00  0.14190940054E+04  0.14190940054E+04  0.50400001928E-02 0. -1.
        1   -1    0    0  501    0  0.00000000000E+00  0.00000000000E+00 -0.18691941707E+04  0.18691941707E+04  0.50400001928E-02 0.  1.
    10030    2    1    2    0    0  0.00000000000E+00  0.00000000000E+00 -0.45010016536E+03  0.32882881761E+04  0.32573377121E+04 0.  0.
        4    1    3    3  502    0 -0.88229078464E+03 -0.63633049335E+03 -0.14486757921E+04  0.18116337072E+04  0.12699999809E+01 0.  1.
       -4    1    3    3    0  502  0.88229078464E+03  0.63633049335E+03  0.99857562676E+03  0.14766544690E+04  0.12699999809E+01 0. -1.
</event>
<event>
 5   0  0.1405389E-06  0.3328666E+04  0.7818609E-02  0.8155639E-01
       -1   -1    0    0    0  501  0.00000000000E+00  0.00000000000E+00  0.13849680149E+04  0.13849680149E+04  0.50400001928E-02 0. -1.
        1   -1    0    0  501    0  0.00000000000E+00  0.00000000000E+00 -0.20000491002E+04  0.20000491002E+04  0.50400001928E-02 0.  1.
    10030    2    1    2    0    0  0.00000000000E+00  0.00000000000E+00 -0.61508108526E+03  0.33850171151E+04  0.33286658181E+04 0.  0.
        1    1    3    3  502    0 -0.72540214952E+03  0.14731514023E+04 -0.31615802417E+02  0.16423711187E+04  0.50400001928E-02 0.  1.
       -1    1    3    3    0  502  0.72540214952E+03 -0.14731514023E+04 -0.58346528285E+03  0.17426459964E+04  0.50400001928E-02 0. -1.
</event>
<event>
 5   0  0.1352708E-06  0.2336261E+04  0.7818609E-02  0.8463760E-01
        1   -1    0    0  501    0  0.00000000000E+00  0.00000000000E+00  0.16798239941E+04  0.16798239941E+04  0.50400001928E-02 0. -1.
       -1   -1    0    0    0  501  0.00000000000E+00  0.00000000000E+00 -0.81230448890E+03  0.81230448892E+03  0.50400001928E-02 0.  1.
    10030    2    1    2    0    0  0.00000000000E+00  0.00000000000E+00  0.86751950520E+03  0.24921284830E+04  0.23362607483E+04 0.  0.
        5    1    3    3  502    0 -0.65003762784E+03 -0.96551162468E+03  0.53906185744E+03  0.12827203090E+04  0.46999998093E+01 0. -1.
       -5    1    3    3    0  502  0.65003762784E+03  0.96551162468E+03  0.32845764776E+03  0.12094081740E+04  0.46999998093E+01 0.  1.
</event>
<event>
 5   0  0.3920487E-06  0.3312510E+04  0.7818609E-02  0.8159719E-01
        2   -1    0    0  501    0  0.00000000000E+00  0.00000000000E+00  0.31307870488E+04  0.31307870488E+04  0.25500000920E-02 0.  1.
       -2   -1    0    0    0  501  0.00000000000E+00  0.00000000000E+00 -0.87619536599E+03  0.87619536599E+03  0.25500000920E-02 0. -1.
    10030    2    1    2    0    0  0.00000000000E+00  0.00000000000E+00  0.22545916828E+04  0.40069824148E+04  0.33125102892E+04 0.  0.
        4    1    3    3  502    0 -0.11933379743E+04  0.50895338972E+03  0.23727612067E+04  0.27042718855E+04  0.12699999809E+01 0. -1.
       -4    1    3    3    0  502  0.11933379743E+04 -0.50895338972E+03 -0.11816952395E+03  0.13027105292E+04  0.12699999809E+01 0.  1.
</event>
<event>
 5   0  0.1391878E-06  0.2051672E+04  0.7818609E-02  0.8582836E-01
        1   -1    0    0  501    0  0.00000000000E+00  0.00000000000E+00  0.89375200154E+03  0.89375200156E+03  0.50400001928E-02 0. -1.
       -1   -1    0    0    0  501  0.00000000000E+00  0.00000000000E+00 -0.11774404461E+04  0.11774404461E+04  0.50400001928E-02 0.  1.
    10030    2    1    2    0    0  0.00000000000E+00  0.00000000000E+00 -0.28368844453E+03  0.20711924476E+04  0.20516722500E+04 0.  0.
        2    1    3    3  502    0  0.28538711441E+02 -0.90268143148E+03  0.34929410692E+03  0.96832566728E+03  0.25500000920E-02 0. -1.
       -2    1    3    3    0  502 -0.28538711441E+02  0.90268143148E+03 -0.63298255145E+03  0.11028667804E+04  0.25500000920E-02 0.  1.
</event>
<event>
 5   0  0.3671997E-06  0.3378898E+04  0.7818609E-02  0.8143105E-01
       -2   -1    0    0    0  501  0.00000000000E+00  0.00000000000E+00  0.13087581972E+04  0.13087581972E+04  0.25500000920E-02 0. -1.
        2   -1    0    0  501    0  0.00000000000E+00  0.00000000000E+00 -0.21808751145E+04  0.21808751145E+04  0.25500000920E-02 0.  1.
    10030    2    1    2    0    0  0.00000000000E+00  0.00000000000E+00 -0.87211691728E+03  0.34896333117E+04  0.33788981536E+04 0.  0.
        2    1    3    3  502    0  0.27304770609E+03 -0.12987588414E+04 -0.15157423335E+04  0.20146474628E+04  0.25500000920E-02 0.  1.
       -2    1    3    3    0  502 -0.27304770609E+03  0.12987588414E+04  0.64362541619E+03  0.14749858489E+04  0.25500000920E-02 0. -1.
</event>
<event>
 5   0  0.4017247E-06  0.3360973E+04  0.7818609E-02  0.8147552E-01
        2   -1    0    0  501    0  0.00000000000E+00  0.00000000000E+00  0.19420893014E+04  0.19420893014E+04  0.25500000920E-02 0.  1.
       -2   -1    0    0    0  501  0.00000000000E+00  0.00000000000E+00 -0.14541224259E+04  0.14541224259E+04  0.25500000920E-02 0. -1.
    10030    2    1    2    0    0  0.00000000000E+00  0.00000000000E+00  0.48796687549E+03  0.33962117273E+04  0.33609734342E+04 0.  0.
        1    1    3    3  502    0  0.14247461899E+04  0.80204546177E+03  0.63645878233E+03  0.17544966258E+04  0.50400001928E-02 0. -1.
       -1    1    3    3    0  502 -0.14247461899E+04 -0.80204546177E+03 -0.14849190684E+03  0.16417151016E+04  0.50400001928E-02 0.  1.
</event>
<event>
 5   0  0.3812379E-06  0.2389647E+04  0.7818609E-02  0.8443390E-01
        2   -1    0    0  501    0  0.00000000000E+00  0.00000000000E+00  0.24171727003E+04  0.24171727003E+04  0.25500000920E-02 0. -1.
       -2   -1    0    0    0  501  0.00000000000E+00  0.00000000000E+00 -0.59060856011E+03  0.59060856012E+03  0.25500000920E-02 0.  1.
    10030    2    1    2    0    0  0.00000000000E+00  0.00000000000E+00  0.18265641402E+04  0.30077812605E+04  0.23896467422E+04 0.  0.
        5    1    3    3  502    0 -0.99906700631E+03  0.11775360539E+03  0.17246911546E+04  0.19966427982E+04  0.46999998093E+01 0.  1.
       -5    1    3    3    0  502  0.99906700631E+03 -0.11775360539E+03  0.10187298560E+03  0.10111384623E+04  0.46999998093E+01 0. -1.
</event>
<event>
 5   0  0.1391878E-06  0.2296189E+04  0.7818609E-02  0.8479425E-01
       -1   -1    0    0    0  501  0.00000000000E+00  0.00000000000E+00  0.17538585054E+04  0.17538585054E+04  0.50400001928E-02 0. -1.
        1   -1    0    0  501    0  0.00000000000E+00  0.00000000000E+00 -0.75155486491E+03  0.75155486493E+03  0.50400001928E-02 0.  1.
    10030    2    1    2    0    0  0.00000000000E+00  0.00000000000E+00  0.10023036405E+04  0.25054133703E+04  0.22961889226E+04 0.  0.
        2    1    3    3  502    0 -0.17374935038E+03 -0.50596635626E+03  0.16095528327E+04  0.16961282710E+04  0.25500000920E-02 0. -1.
       -2    1    3    3    0  502  0.17374935038E+03  0.50596635626E+03 -0.60724919226E+03  0.80928509929E+03  0.25500000920E-02 0.  1.
</event>
<event>
 5   0  0.1282578E-06  0.3284690E+04  0.7818609E-02  0.8166802E-01
       -1   -1    0    0    0  501  0.00000000000E+00  0.00000000000E+00  0.83784640333E+03  0.83784640334E+03  0.50400001928E-02 0. -1.
        1   -1    0    0  501    0  0.00000000000E+00  0.00000000000E+00 -0.32193207659E+04  0.32193207659E+04  0.50400001928E-02 0.  1.
    10030    2    1    2    0    0  0.00000000000E+00  0.00000000000E+00 -0.23814743625E+04  0.40571671692E+04  0.32846895286E+04 0.  0.
        4    1    3    3  502    0 -0.63416276558E+03 -0.85160374153E+03 -0.27383596876E+04  0.29370064245E+04  0.12699999809E+01 0.  1.
       -4    1    3    3    0  502  0.63416276558E+03  0.85160374153E+03  0.35688532508E+03  0.11201607447E+04  0.12699999809E+01 0. -1.
</event>
<event>
 5   0  0.3920487E-06  0.2406163E+04  0.7818609E-02  0.8437200E-01
        2   -1    0    0  501    0  0.00000000000E+00  0.00000000000E+00  0.16376787109E+04  0.16376787109E+04  0.25500000920E-02 0.  1.
       -2   -1    0    0    0  501  0.00000000000E+00  0.00000000000E+00 -0.88381535473E+03  0.88381535473E+03  0.25500000920E-02 0. -1.
    10030    2    1    2    0    0  0.00000000000E+00  0.00000000000E+00  0.75386335621E+03  0.25214940657E+04  0.24061634116E+04 0.  0.
        4    1    3    3  502    0 -0.59642940535E+03  0.15901243007E+03  0.14590906520E+04  0.15842853695E+04  0.12699999809E+01 0.  1.
       -4    1    3    3    0  502  0.59642940535E+03 -0.15901243007E+03 -0.70522729579E+03  0.93720869614E+03  0.12699999809E+01 0. -1.
</event>
<event>
 5   0  0.3896210E-06  0.3266384E+04  0.7818609E-02  0.8171502E-01
       -2   -1    0    0    0  501  0.00000000000E+00  0.00000000000E+00  0.18737867542E+04  0.18737867542E+04  0.25500000920E-02 0.  1.
        2   -1    0    0  501    0  0.00000000000E+00  0.00000000000E+00 -0.14234892816E+04  0.14234892816E+04  0.25500000920E-02 0. -1.
    10030    2    1    2    0    0  0.00000000000E+00  0.00000000000E+00  0.45029747253E+03  0.32972760358E+04  0.32663835419E+04 0.  0.
        3    1    3    3  502    0 -0.12183091149E+04 -0.38942767132E+03  0.12503246500E+04  0.17886427120E+04  0.10100000352E+00 0.  1.
       -3    1    3    3    0  502  0.12183091149E+04  0.38942767132E+03 -0.80002717749E+03  0.15086333238E+04  0.10100000352E+00 0. -1.
</event>
<event>
 5   0  0.1405389E-06  0.2730058E+04  0.7818609E-02  0.8325318E-01
       -1   -1    0    0    0  501  0.00000000000E+00  0.00000000000E+00  0.16086350948E+04  0.16086350948E+04  0.50400001928E-02 0.  1.
        1   -1    0    0  501    0  0.00000000000E+00  0.00000000000E+00 -0.11583135513E+04  0.11583135513E+04  0.50400001928E-02 0. -1.
    10030    2    1    2    0    0  0.00000000000E+00  0.00000000000E+00  0.45032154358E+03  0.27669486461E+04  0.27300577499E+04 0.  0.
        1    1    3    3  502    0 -0.13220983881E+03  0.21835066090E+03 -0.11339094810E+04  0.11622853194E+04  0.50400001928E-02 0. -1.
       -1    1    3    3    0  502  0.13220983881E+03 -0.21835066090E+03  0.15842310246E+04  0.16046633267E+04  0.50400001928E-02 0.  1.
</event>
<event>
 5   0  0.1339825E-06  0.2898555E+04  0.7818609E-02  0.8273307E-01
        1   -1    0    0  501    0  0.00000000000E+00  0.00000000000E+00  0.18396320814E+04  0.18396320815E+04  0.50400001928E-02 0. -1.
       -1   -1    0    0    0  501  0.00000000000E+00  0.00000000000E+00 -0.11417532350E+04  0.11417532350E+04  0.50400001928E-02 0.  1.
    10030    2    1    2    0    0  0.00000000000E+00  0.00000000000E+00  0.69787884643E+03  0.29813853165E+04  0.28985554197E+04 0.  0.
        3    1    3    3  502    0  0.11151140307E+03  0.84971880597E+03  0.15510758203E+04  0.17720872024E+04  0.10100000352E+00 0. -1.
       -3    1    3    3    0  502 -0.11151140307E+03 -0.84971880597E+03 -0.85319697391E+03  0.12092981141E+04  0.10100000352E+00 0.  1.
</event>
<event>
 5   0  0.1391878E-06  0.3456303E+04  0.7818609E-02  0.8124224E-01
        1   -1    0    0  501    0  0.00000000000E+00  0.00000000000E+00  0.20894358853E+04  0.20894358853E+04  0.50400001928E-02 0.  1.
       -1   -1    0    0    0  501  0.00000000000E+00  0.00000000000E+00 -0.14293370434E+04  0.14293370434E+04  0.50400001928E-02 0. -1.
    10030    2    1    2    0    0  0.00000000000E+00  0.00000000000E+00  0.66009884195E+03  0.35187729287E+04  0.34563032915E+04 0.  0.
        2    1    3    3  502    0  0.10192081444E+03 -0.10333576506E+04 -0.10763278452E+04  0.14955592656E+04  0.25500000920E-02 0. -1.
       -2    1    3    3    0  502 -0.10192081444E+03  0.10333576506E+04  0.17364266872E+04  0.20232136631E+04  0.25500000920E-02 0.  1.
</event>
<event>
 5   0  0.1391878E-06  0.3260351E+04  0.7818609E-02  0.8173058E-01
        1   -1    0    0  501    0  0.00000000000E+00  0.00000000000E+00  0.10695808239E+04  0.10695808239E+04  0.50400001928E-02 0.  1.
       -1   -1    0    0    0  501  0.00000000000E+00  0.00000000000E+00 -0.24845917417E+04  0.24845917417E+04  0.50400001928E-02 0. -1.
    10030    2    1    2    0    0  0.00000000000E+00  0.00000000000E+00 -0.14150109178E+04  0.35541725656E+04  0.32603507064E+04 0.  0.
        2    1    3    3  502    0  0.16096585450E+04 -0.76242670571E+02 -0.43902133221E+03  0.16701955893E+04  0.25500000920E-02 0.  1.
       -2    1    3    3    0  502 -0.16096585450E+04  0.76242670571E+02 -0.97598958556E+03  0.18839769764E+04  0.25500000920E-02 0. -1.
</event>
<event>
 5   0  0.3812379E-06  0.3309939E+04  0.7818609E-02  0.8160371E-01
        2   -1    0    0  501    0  0.00000000000E+00  0.00000000000E+00  0.22772366712E+04  0.22772366712E+04  0.25500000920E-02 0. -1.
       -2   -1    0    0    0  501  0.00000000000E+00  0.00000000000E+00 -0.12027402868E+04  0.12027402868E+04  0.25500000920E-02 0.  1.
    10030    2    1    2    0    0  0.00000000000E+00  0.00000000000E+00  0.10744963843E+04  0.34799769580E+04  0.33099391457E+04 0.  0.
        5    1    3    3  502    0 -0.11621979020E+04 -0.58531812804E+03  0.16123246161E+04  0.20719348523E+04  0.46999998093E+01 0. -1.
       -5    1    3    3    0  502  0.11621979020E+04  0.58531812804E+03 -0.53782823177E+03  0.14080421057E+04  0.46999998093E+01 0.  1.
</event>
<event>
 5   0  0.1352708E-06  0.3280876E+04  0.7818609E-02  0.8167779E-01
        1   -1    0    0  501    0  0.00000000000E+00  0.00000000000E+00  0.19885310126E+04  0.19885310126E+04  0.50400001928E-02 0.  1.
       -1   -1    0    0    0  501  0.00000000000E+00  0.00000000000E+00 -0.13532788597E+04  0.13532788597E+04  0.50400001928E-02 0. -1.
    10030    2    1    2    0    0  0.00000000000E+00  0.00000000000E+00  0.63525215293E+03  0.33418098723E+04  0.32808760911E+04 0.  0.
        5    1    3    3  502    0 -0.11001464776E+04 -0.57279521358E+03  0.14111565479E+04  0.18787766024E+04  0.46999998093E+01 0.  1.
       -5    1    3    3    0  502  0.11001464776E+04  0.57279521358E+03 -0.77590439495E+03  0.14630332700E+04  0.46999998093E+01 0. -1.
</event>
<event>
 5   0  0.1339825E-06  0.3434007E+04  0.7818609E-02  0.8129610E-01
       -1   -1    0    0    0  501  0.00000000000E+00  0.00000000000E+00  0.15074602656E+04  0.15074602656E+04  0.50400001928E-02 0.  1.
        1   -1    0    0  501    0  0.00000000000E+00  0.00000000000E+00 -0.19556735535E+04  0.19556735535E+04  0.50400001928E-02 0. -1.
    10030    2    1    2    0    0  0.00000000000E+00  0.00000000000E+00 -0.44821328796E+03  0.34631338191E+04  0.34340065080E+04 0.  0.
        3    1    3    3  502    0  0.12527137155E+04 -0.11741807893E+04 -0.23458638196E+03  0.17329232411E+04  0.10100000352E+00 0.  1.
       -3    1    3    3    0  502 -0.12527137155E+04  0.11741807893E+04 -0.21362690600E+03  0.17302105779E+04  0.10100000352E+00 0. -1.
</event>
<event>
 5   0  0.1352708E-06  0.3255862E+04  0.7818609E-02  0.8174218E-01
        1   -1    0    0  501    0  0.00000000000E+00  0.00000000000E+00  0.17558111960E+04  0.17558111960E+04  0.50400001928E-02 0.  1.
       -1   -1    0    0    0  501  0.00000000000E+00  0.00000000000E+00 -0.15093641891E+04  0.15093641891E+04  0.50400001928E-02 0. -1.
    10030    2    1    2    0    0  0.00000000000E+00  0.00000000000E+00  0.24644700698E+03  0.32651753851E+04  0.32558615094E+04 0.  0.
        5    1    3    3  502    0 -0.14967574693E+04 -0.60224758563E+03 -0.94541343866E+02  0.16161513642E+04  0.46999998093E+01 0. -1.
       -5    1    3    3    0  502  0.14967574693E+04  0.60224758563E+03  0.34098835084E+03  0.16490240209E+04  0.46999998093E+01 0.  1.
</event>
<event>
 5   0  0.1405389E-06  0.3181251E+04  0.7818609E-02  0.8193786E-01
       -1   -1    0    0    0  501  0.00000000000E+00  0.00000000000E+00  0.11881527916E+04  0.11881527916E+04  0.50400001928E-02 0.  1.
        1   -1    0    0  501    0  0.00000000000E+00  0.00000000000E+00 -0.21294312738E+04  0.21294312738E+04  0.50400001928E-02 0. -1.
    10030    2    1    2    0    0  0.00000000000E+00  0.00000000000E+00 -0.94127848218E+03  0.33175840654E+04  0.31812511454E+04 0.  0.
        1    1    3    3  502    0 -0.33440419954E+03 -0.11918398136E+04 -0.15123368873E+04  0.19543467376E+04  0.50400001928E-02 0. -1.
       -1    1    3    3    0  502  0.33440419954E+03  0.11918398136E+04  0.57105840513E+03  0.13632373278E+04  0.50400001928E-02 0.  1.
</event>
<event>
 5   0  0.3671997E-06  0.3329771E+04  0.7818609E-02  0.8155361E-01
        2   -1    0    0  501    0  0.00000000000E+00  0.00000000000E+00  0.19703860342E+04  0.19703860342E+04  0.25500000920E-02 0.  1.
       -2   -1    0    0    0  501  0.00000000000E+00  0.00000000000E+00 -0.14067516162E+04  0.14067516162E+04  0.25500000920E-02 0. -1.
    10030    2    1    2    0    0  0.00000000000E+00  0.00000000000E+00  0.56363441806E+03  0.33771376504E+04  0.33297710060E+04 0.  0.
        2    1    3    3  502    0  0.14775332081E+04  0.19725721044E+03  0.10338697737E+04  0.18140842035E+04  0.25500000920E-02 0.  1.
       -2    1    3    3    0  502 -0.14775332081E+04 -0.19725721044E+03 -0.47023535565E+03  0.15630534469E+04  0.25500000920E-02 0. -1.
</event>
<event>
 5   0  0.4017247E-06  0.3139203E+04  0.7818609E-02  0.8205060E-01
        2   -1    0    0  501    0  0.00000000000E+00  0.00000000000E+00  0.11480762020E+04  0.11480762020E+04  0.25500000920E-02 0. -1.
       -2   -1    0    0    0  501  0.00000000000E+00  0.00000000000E+00 -0.21458938398E+04  0.21458938398E+04  0.25500000920E-02 0.  1.
    10030    2    1    2    0    0  0.00000000000E+00  0.00000000000E+00 -0.99781763787E+03  0.32939700418E+04  0.31392034974E+04 0.  0.
        1    1    3    3  502    0  0.11279075783E+03  0.14731024823E+04  0.57217826187E+02  0.14785217476E+04  0.50400001928E-02 0. -1.
       -1    1    3    3    0  502 -0.11279075783E+03 -0.14731024823E+04 -0.10550354641E+04  0.18154482942E+04  0.50400001928E-02 0.  1.
</event>
<event>
 5   0  0.1352708E-06  0.3278582E+04  0.7818609E-02  0.8168367E-01
        1   -1    0    0  501    0  0.00000000000E+00  0.00000000000E+00  0.17745324487E+04  0.17745324487E+04  0.50400001928E-02 0. -1.
       -1   -1    0    0    0  501  0.00000000000E+00  0.00000000000E+00 -0.15143565827E+04  0.15143565827E+04  0.50400001928E-02 0.  1.
    10030    2    1    2    0    0  0.00000000000E+00  0.00000000000E+00  0.26017586595E+03  0.32888890314E+04  0.32785819464E+04 0.  0.
        5    1    3    3  502    0  0.14759575753E+03 -0.16901694933E+03  0.17590468695E+04  0.17733074228E+04  0.46999998093E+01 0. -1.
       -5    1    3    3    0  502 -0.14759575753E+03  0.16901694933E+03 -0.14988710036E+04  0.15155816085E+04  0.46999998093E+01 0.  1.
</event>
<event>
 5   0  0.1391878E-06  0.2966478E+04  0.7818609E-02  0.8253369E-01
        1   -1    0    0  501    0  0.00000000000E+00  0.00000000000E+00  0.17299448264E+04  0.17299448264E+04  0.50400001928E-02 0. -1.
       -1   -1    0    0    0  501  0.00000000000E+00  0.00000000000E+00 -0.12717154896E+04  0.12717154896E+04  0.50400001928E-02 0.  1.
    10030    2    1    2    0    0  0.00000000000E+00  0.00000000000E+00  0.45822933684E+03  0.30016603160E+04  0.29664777982E+04 0.  0.
        2    1    3    3  502    0  0.70146667691E+03  0.51880334489E+02 -0.10922252096E+04  0.12991162289E+04  0.25500000920E-02 0.  1.
       -2    1    3    3    0  502 -0.70146667691E+03 -0.51880334489E+02  0.15504545464E+04  0.17025440871E+04  0.25500000920E-02 0. -1.
</event>
<event>
 5   0  0.1339825E-06  0.3305491E+04  0.7818609E-02  0.8161500E-01
       -1   -1    0    0    0  501  0.00000000000E+00  0.00000000000E+00  0.13157435401E+04  0.13157435401E+04  0.50400001928E-02 0.  1.
        1   -1    0    0  501    0  0.00000000000E+00  0.00000000000E+00 -0.20760642378E+04  0.20760642378E+04  0.50400001928E-02 0. -1.
    10030    2    1    2    0    0  0.00000000000E+00  0.00000000000E+00 -0.76032069773E+03  0.33918077779E+04  0.33054912552E+04 0.  0.
        3    1    3    3  502    0 -0.74906821735E+03  0.14487423831E+04 -0.65474945740E+03  0.17574568413E+04  0.10100000352E+00 0.  1.
       -3    1    3    3    0  502  0.74906821735E+03 -0.14487423831E+04 -0.10557124034E+03  0.16343509366E+04  0.10100000352E+00 0. -1.
</event>
<event>
 5   0  0.3671997E-06  0.3324676E+04  0.7818609E-02  0.8156645E-01
       -2   -1    0    0    0  501  0.00000000000E+00  0.00000000000E+00  0.11730162985E+04  0.11730162985E+04  0.25500000920E-02 0. -1.
        2   -1    0    0  501    0  0.00000000000E+00  0.00000000000E+00 -0.23557790595E+04  0.23557790595E+04  0.25500000920E-02 0.  1.
    10030    2    1    2    0    0  0.00000000000E+00  0.00000000000E+00 -0.11827627610E+04  0.35287953581E+04  0.33246757632E+04 0.  0.
        2    1    3    3  502    0 -0.28407424021E+03 -0.96453164132E+03  0.81365421328E+03  0.12934653609E+04  0.25500000920E-02 0. -1.
       -2    1    3    3    0  502  0.28407424021E+03  0.96453164132E+03 -0.19964169743E+04  0.22353299972E+04  0.25500000920E-02 0.  1.
</event>
<event>
 5   0  0.4017247E-06  0.3318238E+04  0.7818609E-02  0.8158270E-01
        2   -1    0    0  501    0  0.00000000000E+00  0.00000000000E+00  0.36706301125E+04  0.36706301125E+04  0.25500000920E-02 0. -1.
       -2   -1    0    0    0  501  0.00000000000E+00  0.00000000000E+00 -0.74991906436E+03  0.74991906437E+03  0.25500000920E-02 0.  1.
    10030    2    1    2    0    0  0.00000000000E+00  0.00000000000E+00  0.29207110482E+04  0.44205491769E+04  0.33182377851E+04 0.  0.
        1    1    3    3  502    0 -0.33646819573E+03 -0.27109928511E+03  0.35943559159E+04  0.36202348155E+04  0.50400001928E-02 0. -1.
       -1    1    3    3    0  502  0.33646819573E+03  0.27109928511E+03 -0.67364486777E+03  0.80031436137E+03  0.50400001928E-02 0.  1.
</event>
<event>
 5   0  0.1405389E-06  0.3243562E+04  0.7818609E-02  0.8177406E-01
        1   -1    0    0  501    0  0.00000000000E+00  0.00000000000E+00  0.18900933752E+04  0.18900933752E+04  0.50400001928E-02 0.  1.
       -1   -1    0    0    0  501  0.00000000000E+00  0.00000000000E+00 -0.13915576574E+04  0.13915576574E+04  0.50400001928E-02 0. -1.
    10030    2    1    2    0    0  0.00000000000E+00  0.00000000000E+00  0.49853571777E+03  0.32816510326E+04  0.32435621834E+04 0.  0.
        1    1    3    3  502    0 -0.10587328901E+04  0.10014570570E+04 -0.47066548823E+03  0.15314560299E+04  0.50400001928E-02 0. -1.
       -1    1    3    3    0  502  0.10587328901E+04 -0.10014570570E+04  0.96920120601E+03  0.17501950027E+04  0.50400001928E-02 0.  1.
</event>
<event>
 5   0  0.3671997E-06  0.3288964E+04  0.7818609E-02  0.8165709E-01
        2   -1    0    0  501    0  0.00000000000E+00  0.00000000000E+00  0.26876097589E+04  0.26876097589E+04  0.25500000920E-02 0. -1.
       -2   -1    0    0    0  501  0.00000000000E+00  0.00000000000E+00 -0.10062179172E+04  0.10062179172E+04  0.25500000920E-02 0.  1.
    10030    2    1    2    0    0  0.00000000000E+00  0.00000000000E+00  0.16813918416E+04  0.36938276761E+04  0.32889640277E+04 0.  0.
        2    1    3    3  502    0 -0.15682147324E+03  0.99389912675E+03 -0.62014830634E+03  0.11819527785E+04  0.25500000920E-02 0.  1.
       -2    1    3    3    0  502  0.15682147324E+03 -0.99389912675E+03  0.23015401480E+04  0.25118748976E+04  0.25500000920E-02 0. -1.
</event>
<event>
 5   0  0.1282578E-06  0.3294301E+04  0.7818609E-02  0.8164347E-01
       -1   -1    0    0    0  501  0.00000000000E+00  0.00000000000E+00  0.21987870435E+04  0.21987870435E+04  0.50400001928E-02 0. -1.
        1   -1    0    0  501    0  0.00000000000E+00  0.00000000000E+00 -0.12339100278E+04  0.12339100278E+04  0.50400001928E-02 0.  1.
    10030    2    1    2    0    0  0.00000000000E+00  0.00000000000E+00  0.96487701569E+03  0.34326970713E+04  0.32943013718E+04 0.  0.
        4    1    3    3  502    0 -0.32192592605E+03  0.73520849996E+03  0.19812453713E+04  0.21376395099E+04  0.12699999809E+01 0. -1.
       -4    1    3    3    0  502  0.32192592605E+03 -0.73520849996E+03 -0.10163683556E+04  0.12950575614E+04  0.12699999809E+01 0.  1.
</event>
<event>
 5   0  0.1339825E-06  0.3299667E+04  0.7818609E-02  0.8162980E-01
       -1   -1    0    0    0  501  0.00000000000E+00  0.00000000000E+00  0.12814966038E+04  0.12814966039E+04  0.50400001928E-02 0. -1.
        1   -1    0    0  501    0  0.00000000000E+00  0.00000000000E+00 -0.21240398360E+04  0.21240398360E+04  0.50400001928E-02 0.  1.
    10030    2    1    2    0    0  0.00000000000E+00  0.00000000000E+00 -0.84254323214E+03  0.34055364399E+04  0.32996665506E+04 0.  0.
        3    1    3    3  502    0 -0.13416081789E+04 -0.44256332392E+03  0.45822896659E+03  0.14851762849E+04  0.10100000352E+00 0. -1.
       -3    1    3    3    0  502  0.13416081789E+04  0.44256332392E+03 -0.13007721987E+04  0.19203601549E+04  0.10100000352E+00 0.  1.
</event>
<event>
 5   0  0.3812379E-06  0.2713563E+04  0.7818609E-02  0.8330618E-01
       -2   -1    0    0    0  501  0.00000000000E+00  0.00000000000E+00  0.13808818486E+04  0.13808818486E+04  0.25500000920E-02 0.  1.
        2   -1    0    0  501    0  0.00000000000E+00  0.00000000000E+00 -0.13331012873E+04  0.13331012873E+04  0.25500000920E-02 0. -1.
    10030    2    1    2    0    0  0.00000000000E+00  0.00000000000E+00  0.47780561254E+02  0.27139831359E+04  0.27135625071E+04 0.  0.
        5    1    3    3  502    0 -0.61605220842E+03 -0.11764390485E+04  0.30196956655E+03  0.13618872448E+04  0.46999998093E+01 0. -1.
       -5    1    3    3    0  502  0.61605220842E+03  0.11764390485E+04 -0.25418900530E+03  0.13520958911E+04  0.46999998093E+01 0.  1.
</event>
<event>
 5   0  0.3671997E-06  0.3333321E+04  0.7818609E-02  0.8154468E-01
       -2   -1    0    0    0  501  0.00000000000E+00  0.00000000000E+00  0.23195026541E+04  0.23195026541E+04  0.25500000920E-02 0.  1.
        2   -1    0    0  501    0  0.00000000000E+00  0.00000000000E+00 -0.11975657996E+04  0.11975657996E+04  0.25500000920E-02 0. -1.
    10030    2    1    2    0    0  0.00000000000E+00  0.00000000000E+00  0.11219368545E+04  0.35170684537E+04  0.33333208970E+04 0.  0.
        2    1    3    3  502    0 -0.67344823543E+03 -0.13151558099E+04  0.13745711524E+04  0.20180716496E+04  0.25500000920E-02 0.  1.
       -2    1    3    3    0  502  0.67344823543E+03  0.13151558099E+04 -0.25263429793E+03  0.14989968040E+04  0.25500000920E-02 0. -1.
</event>
<event>
 5   0  0.1259875E-06  0.3310387E+04  0.7818609E-02  0.8160257E-01
       -3   -1    0    0    0  501  0.00000000000E+00  0.00000000000E+00  0.13113080591E+04  0.13113080630E+04  0.10100000352E+00 0.  1.
        3   -1    0    0  501    0  0.00000000000E+00  0.00000000000E+00 -0.20892613206E+04  0.20892613231E+04  0.10100000352E+00 0. -1.
    10030    2    1    2    0    0  0.00000000000E+00  0.00000000000E+00 -0.77795326150E+03  0.34005693861E+04  0.33103868162E+04 0.  0.
        3    1    3    3  502    0 -0.42874846967E+03 -0.13019133751E+04  0.56412572973E+03  0.14822420638E+04  0.10100000352E+00 0.  1.
       -3    1    3    3    0  502  0.42874846967E+03  0.13019133751E+04 -0.13420789912E+04  0.19183273223E+04  0.10100000352E+00 0. -1.
</event>
<event>
 5   0  0.1352708E-06  0.3209123E+04  0.7818609E-02  0.8186412E-01
       -1   -1    0    0    0  501  0.00000000000E+00  0.00000000000E+00  0.11013149497E+04  0.11013149497E+04  0.50400001928E-02 0. -1.
        1   -1    0    0  501    0  0.00000000000E+00  0.00000000000E+00 -0.23377673569E+04  0.23377673569E+04  0.50400001928E-02 0.  1.
    10030    2    1    2    0    0  0.00000000000E+00  0.00000000000E+00 -0.12364524072E+04  0.34390823066E+04  0.32091233314E+04 0.  0.
        5    1    3    3  502    0  0.12599524994E+04  0.57612967903E+03  0.24921471576E+03  0.14076703351E+04  0.46999998093E+01 0. -1.
       -5    1    3    3    0  502 -0.12599524994E+04 -0.57612967903E+03 -0.14856671230E+04  0.20314119715E+04  0.46999998093E+01 0.  1.
</event>
<event>
 5   0  0.1391878E-06  0.3286906E+04  0.7818609E-02  0.8166235E-01
       -1   -1    0    0    0  501  0.00000000000E+00  0.00000000000E+00  0.14426900962E+04  0.14426900962E+04  0.50400001928E-02 0.  1.
        1   -1    0    0  501    0  0.00000000000E+00  0.00000000000E+00 -0.18721541078E+04  0.18721541078E+04  0.50400001928E-02 0. -1.
    10030    2    1    2    0    0  0.00000000000E+00  0.00000000000E+00 -0.42946401157E+03  0.33148442040E+04  0.32869062596E+04 0.  0.
        2    1    3    3  502    0 -0.22486530786E+03  0.13488303422E+04  0.70462519596E+03  0.15383121808E+04  0.25500000920E-02 0.  1.
       -2    1    3    3    0  502  0.22486530786E+03 -0.13488303422E+04 -0.11340892075E+04  0.17765320232E+04  0.25500000920E-02 0. -1.
</event>
<event>
 5   0  0.1405389E-06  0.3110371E+04  0.7818609E-02  0.8212897E-01
       -1   -1    0    0    0  501  0.00000000000E+00  0.00000000000E+00  0.16248606438E+04  0.16248606438E+04  0.50400001928E-02 0.  1.
        1   -1    0    0  501    0  0.00000000000E+00  0.00000000000E+00 -0.14884983077E+04  0.14884983077E+04  0.50400001928E-02 0. -1.
    10030    2    1    2    0    0  0.00000000000E+00  0.00000000000E+00  0.13636233604E+03  0.31133589515E+04  0.31103712438E+04 0.  0.
        1    1    3    3  502    0  0.71474174269E+03  0.37040825589E+03 -0.12637149827E+04  0.14983436162E+04  0.50400001928E-02 0. -1.
       -1    1    3    3    0  502 -0.71474174269E+03 -0.37040825589E+03  0.14000773187E+04  0.16150153353E+04  0.50400001928E-02 0.  1.
</event>
<event>
 5   0  0.3671997E-06  0.3240472E+04  0.7818609E-02  0.8178210E-01
       -2   -1    0    0    0  501  0.00000000000E+00  0.00000000000E+00  0.15619278035E+04  0.15619278035E+04  0.25500000920E-02 0. -1.
        2   -1    0    0  501    0  0.00000000000E+00  0.00000000000E+00 -0.16807211122E+04  0.16807211122E+04  0.25500000920E-02 0.  1.
    10030    2    1    2    0    0  0.00000000000E+00  0.00000000000E+00 -0.11879330874E+03  0.32426489157E+04  0.32404722095E+04 0.  0.
        2    1    3    3  502    0  0.38174261276E+03 -0.15590289551E+04  0.16180913518E+03  0.16132206611E+04  0.25500000920E-02 0. -1.
       -2    1    3    3    0  502 -0.38174261276E+03  0.15590289551E+04 -0.28060244393E+03  0.16294282546E+04  0.25500000920E-02 0.  1.
</event>
<event>
 5   0  0.1405389E-06  0.3325660E+04  0.7818609E-02  0.8156397E-01
       -1   -1    0    0    0  501  0.00000000000E+00  0.00000000000E+00  0.13642900771E+04  0.13642900771E+04  0.50400001928E-02 0. -1.
        1   -1    0    0  501    0  0.00000000000E+00  0.00000000000E+00 -0.20266971660E+04  0.20266971660E+04  0.50400001928E-02 0.  1.
    10030    2    1    2    0    0  0.00000000000E+00  0.00000000000E+00 -0.66240708885E+03  0.33909872431E+04  0.33256595333E+04 0.  0.
        1    1    3    3  502    0  0.40253391421E+03 -0.15041022690E+04 -0.92631702848E+03  0.18117451325E+04  0.50400001928E-02 0.  1.
       -1    1    3    3    0  502 -0.40253391421E+03  0.15041022690E+04  0.26390993963E+03  0.15792421106E+04  0.50400001928E-02 0. -1.
</event>
<event>
 5   0  0.3812379E-06  0.3318433E+04  0.7818609E-02  0.8158221E-01
       -2   -1    0    0    0  501  0.00000000000E+00  0.00000000000E+00  0.13789271629E+04  0.13789271629E+04  0.25500000920E-02 0.  1.
        2   -1    0    0  501    0  0.00000000000E+00  0.00000000000E+00 -0.19964787423E+04  0.19964787423E+04  0.25500000920E-02 0. -1.
    10030    2    1    2    0    0  0.00000000000E+00  0.00000000000E+00 -0.61755157946E+03  0.33754059052E+04  0.33184326227E+04 0.  0.
        5    1    3    3  502    0 -0.14928682152E+04  0.57491710452E+03  0.13899973935E+03  0.16057796246E+04  0.46999998093E+01 0.  1.
       -5    1    3    3    0  502  0.14928682152E+04 -0.57491710452E+03 -0.75655131881E+03  0.17696262806E+04  0.46999998093E+01 0. -1.
</event>
<event>
 5   0  0.1339825E-06  0.2150846E+04  0.7818609E-02  0.8539170E-01
       -1   -1    0    0    0  501  0.00000000000E+00  0.00000000000E+00  0.65918610475E+03  0.65918610477E+03  0.50400001928E-02 0. -1.
        1   -1    0    0  501    0  0.00000000000E+00  0.00000000000E+00 -0.17544889356E+04  0.17544889356E+04  0.50400001928E-02 0.  1.
    10030    2    1    2    0    0  0.00000000000E+00  0.00000000000E+00 -0.10953028308E+04  0.24136750403E+04  0.21508460915E+04 0.  0.
        3    1    3    3  502    0 -0.74892867041E+03 -0.25305677677E+03  0.27055542799E+03  0.83554301831E+03  0.10100000352E+00 0. -1.
       -3    1    3    3    0  502  0.74892867041E+03  0.25305677677E+03 -0.13658582588E+04  0.15781320220E+04  0.10100000352E+00 0.  1.
</event>
<event>
 5   0  0.1259875E-06  0.3193061E+04  0.7818609E-02  0.8190652E-01
       -3   -1    0    0    0  501  0.00000000000E+00  0.00000000000E+00  0.89907138891E+03  0.89907139459E+03  0.10100000352E+00 0. -1.
        3   -1    0    0  501    0  0.00000000000E+00  0.00000000000E+00 -0.28350467426E+04  0.28350467444E+04  0.10100000352E+00 0.  1.
    10030    2    1    2    0    0  0.00000000000E+00  0.00000000000E+00 -0.19359753537E+04  0.37341181390E+04  0.31930608679E+04 0.  0.
        1    1    3    3  502    0  0.15852076781E+04  0.18963657316E+03 -0.97734426089E+03  0.18719100451E+04  0.50400001928E-02 0. -1.
       -1    1    3    3    0  502 -0.15852076781E+04 -0.18963657316E+03 -0.95863109280E+03  0.18622080939E+04  0.50400001928E-02 0.  1.
</event>
<event>
 5   0  0.1352708E-06  0.3300012E+04  0.7818609E-02  0.8162892E-01
       -1   -1    0    0    0  501  0.00000000000E+00  0.00000000000E+00  0.17671176174E+04  0.17671176174E+04  0.50400001928E-02 0. -1.
        1   -1    0    0  501    0  0.00000000000E+00  0.00000000000E+00 -0.15406552626E+04  0.15406552626E+04  0.50400001928E-02 0.  1.
    10030    2    1    2    0    0  0.00000000000E+00  0.00000000000E+00  0.22646235484E+03  0.33077728800E+04  0.33000115496E+04 0.  0.
        5    1    3    3  502    0 -0.78532078827E+03  0.71977607159E+03  0.13762306337E+04  0.17403560500E+04  0.46999998093E+01 0. -1.
       -5    1    3    3    0  502  0.78532078827E+03 -0.71977607159E+03 -0.11497682789E+04  0.15674168300E+04  0.46999998093E+01 0.  1.
</event>
<event>
 5   0  0.3671997E-06  0.3214785E+04  0.7818609E-02  0.8184923E-01
       -2   -1    0    0    0  501  0.00000000000E+00  0.00000000000E+00  0.96964072539E+03  0.96964072540E+03  0.25500000920E-02 0. -1.
        2   -1    0    0  501    0  0.00000000000E+00  0.00000000000E+00 -0.26646068645E+04  0.26646068645E+04  0.25500000920E-02 0.  1.
    10030    2    1    2    0    0  0.00000000000E+00  0.00000000000E+00 -0.16949661391E+04  0.36342475899E+04  0.32147854255E+04 0.  0.
        2    1    3    3  502    0 -0.95889547532E+03  0.12667460961E+04 -0.11234337440E+04  0.19458236256E+04  0.25500000920E-02 0.  1.
       -2    1    3    3    0  502  0.95889547532E+03 -0.12667460961E+04 -0.57153239511E+03  0.16884239643E+04  0.25500000920E-02 0. -1.
</event>
<event>
 5   0  0.1259875E-06  0.3299297E+04  0.7818609E-02  0.8163074E-01
        3   -1    0    0  501    0  0.00000000000E+00  0.00000000000E+00  0.15817781984E+04  0.15817782016E+04  0.10100000352E+00 0. -1.
       -3   -1    0    0    0  501  0.00000000000E+00  0.00000000000E+00 -0.17204311433E+04  0.17204311462E+04  0.10100000352E+00 0.  1.
    10030    2    1    2    0    0  0.00000000000E+00  0.00000000000E+00 -0.13865294490E+03  0.33022093478E+04  0.32992971885E+04 0.  0.
        3    1    3    3  502    0 -0.12829908223E+03 -0.34816627582E+03  0.15394690604E+04  0.15835546748E+04  0.10100000352E+00 0. -1.
       -3    1    3    3    0  502  0.12829908223E+03  0.34816627582E+03 -0.16781220053E+04  0.17186546730E+04  0.10100000352E+00 0.  1.
</event>
<event>
 5   0  0.1405389E-06  0.3236973E+04  0.7818609E-02  0.8179120E-01
        1   -1    0    0  501    0  0.00000000000E+00  0.00000000000E+00  0.10456515221E+04  0.10456515221E+04  0.50400001928E-02 0.  1.
       -1   -1    0    0    0  501  0.00000000000E+00  0.00000000000E+00 -0.25051349596E+04  0.25051349596E+04  0.50400001928E-02 0. -1.
    10030    2    1    2    0    0  0.00000000000E+00  0.00000000000E+00 -0.14594834374E+04  0.35507864817E+04  0.32369727732E+04 0.  0.
        1    1    3    3  502    0 -0.32886193302E+03  0.58533024662E+03 -0.23451745580E+04  0.24393862704E+04  0.50400001928E-02 0. -1.
       -1    1    3    3    0  502  0.32886193302E+03 -0.58533024662E+03  0.88569112058E+03  0.11114002113E+04  0.50400001928E-02 0.  1.
</event>
<event>
 5   0  0.3671997E-06  0.3073880E+04  0.7818609E-02  0.8222943E-01
        2   -1    0    0  501    0  0.00000000000E+00  0.00000000000E+00  0.16567668378E+04  0.16567668378E+04  0.25500000920E-02 0.  1.
       -2   -1    0    0    0  501  0.00000000000E+00  0.00000000000E+00 -0.14257793400E+04  0.14257793400E+04  0.25500000920E-02 0. -1.
    10030    2    1    2    0    0  0.00000000000E+00  0.00000000000E+00  0.23098749789E+03  0.30825461778E+04  0.30738795868E+04 0.  0.
        2    1    3    3  502    0  0.85423068904E+03 -0.75987566854E+03  0.11455522750E+04  0.16184594887E+04  0.25500000920E-02 0.  1.
       -2    1    3    3    0  502 -0.85423068904E+03  0.75987566854E+03 -0.91456477711E+03  0.14640866891E+04  0.25500000920E-02 0. -1.
</event>
<event>
 5   0  0.1391878E-06  0.2130816E+04  0.7818609E-02  0.8547789E-01
        1   -1    0    0  501    0  0.00000000000E+00  0.00000000000E+00  0.93370316992E+03  0.93370316993E+03  0.50400001928E-02 0.  1.
       -1   -1    0    0    0  501  0.00000000000E+00  0.00000000000E+00 -0.12156905401E+04  0.12156905402E+04  0.50400001928E-02 0. -1.
    10030    2    1    2    0    0  0.00000000000E+00  0.00000000000E+00 -0.28198737023E+03  0.21493937101E+04  0.21308159104E+04 0.  0.
        2    1    3    3  502    0 -0.14799072421E+03 -0.23967724488E+03 -0.11774478702E+04  0.12106733347E+04  0.25500000920E-02 0. -1.
       -2    1    3    3    0  502  0.14799072421E+03  0.23967724488E+03  0.89546050000E+03  0.93872037542E+03  0.25500000920E-02 0.  1.
</event>
<event>
 5   0  0.1391878E-06  0.3153836E+04  0.7818609E-02  0.8201117E-01
        1   -1    0    0  501    0  0.00000000000E+00  0.00000000000E+00  0.12643280323E+04  0.12643280323E+04  0.50400001928E-02 0.  1.
       -1   -1    0    0    0  501  0.00000000000E+00  0.00000000000E+00 -0.19667916670E+04  0.19667916670E+04  0.50400001928E-02 0. -1.
    10030    2    1    2    0    0  0.00000000000E+00  0.00000000000E+00 -0.70246363467E+03  0.32311196993E+04  0.31538356573E+04 0.  0.
        2    1    3    3  502    0 -0.55904423300E+03 -0.54168476432E+03  0.10537662058E+04  0.13101053602E+04  0.25500000920E-02 0.  1.
       -2    1    3    3    0  502  0.55904423300E+03  0.54168476432E+03 -0.17562298405E+04  0.19210143391E+04  0.25500000920E-02 0. -1.
</event>
<event>
 5   0  0.1282578E-06  0.3337280E+04  0.7818609E-02  0.8153474E-01
        1   -1    0    0  501    0  0.00000000000E+00  0.00000000000E+00  0.21730585955E+04  0.21730585955E+04  0.50400001928E-02 0.  1.
       -1   -1    0    0    0  501  0.00000000000E+00  0.00000000000E+00 -0.12813085815E+04  0.12813085816E+04  0.50400001928E-02 0. -1.
    10030    2    1    2    0    0  0.00000000000E+00  0.00000000000E+00  0.89175001391E+03  0.34543671770E+04  0.33372795068E+04 0.  0.
        4    1    3    3  502    0  0.13970363814E+04  0.57632951827E+03  0.11781494896E+04  0.19162213331E+04  0.12699999809E+01 0.  1.
       -4    1    3    3    0  502 -0.13970363814E+04 -0.57632951827E+03 -0.28639947571E+03  0.15381458439E+04  0.12699999809E+01 0. -1.
</event>
<event>
 5   0  0.1282578E-06  0.3248303E+04  0.7818609E-02  0.8176176E-01
        1   -1    0    0  501    0  0.00000000000E+00  0.00000000000E+00  0.16151645709E+04  0.16151645709E+04  0.50400001928E-02 0.  1.
       -1   -1    0    0    0  501  0.00000000000E+00  0.00000000000E+00 -0.16331883539E+04  0.16331883539E+04  0.50400001928E-02 0. -1.
    10030    2    1    2    0    0  0.00000000000E+00  0.00000000000E+00 -0.18023782971E+02  0.32483529248E+04  0.32483029211E+04 0.  0.
        4    1    3    3  502    0 -0.15088889641E+04  0.37912497937E+03 -0.47526438844E+03  0.16267635070E+04  0.12699999809E+01 0. -1.
       -4    1    3    3    0  502  0.15088889641E+04 -0.37912497937E+03  0.45724060547E+03  0.16215894178E+04  0.12699999809E+01 0.  1.
</event>
<event>
 5   0  0.1352708E-06  0.3365559E+04  0.7818609E-02  0.8146411E-01
       -1   -1    0    0    0  501  0.00000000000E+00  0.00000000000E+00  0.15814894261E+04  0.15814894261E+04  0.50400001928E-02 0. -1.
        1   -1    0    0  501    0  0.00000000000E+00  0.00000000000E+00 -0.17905570333E+04  0.17905570333E+04  0.50400001928E-02 0.  1.
    10030    2    1    2    0    0  0.00000000000E+00  0.00000000000E+00 -0.20906760719E+03  0.33720464594E+04  0.33655591007E+04 0.  0.
        5    1    3    3  502    0 -0.15895447250E+04  0.53340203111E+03  0.39111882954E+02  0.16771171662E+04  0.46999998093E+01 0. -1.
       -5    1    3    3    0  502  0.15895447250E+04 -0.53340203111E+03 -0.24817949014E+03  0.16949292932E+04  0.46999998093E+01 0.  1.
</event>
<event>
 5   0  0.1339825E-06  0.3033794E+04  0.7818609E-02  0.8234146E-01
       -1   -1    0    0    0  501  0.00000000000E+00  0.00000000000E+00  0.11906220753E+04  0.11906220753E+04  0.50400001928E-02 0.  1.
        1   -1    0    0  501    0  0.00000000000E+00  0.00000000000E+00 -0.19325832281E+04  0.19325832281E+04  0.50400001928E-02 0. -1.
    10030    2    1    2    0    0  0.00000000000E+00  0.00000000000E+00 -0.74196115278E+03  0.31232053034E+04  0.30337938319E+04 0.  0.
        3    1    3    3  502    0  0.92346179592E+02 -0.18372710688E+03  0.11762072902E+04  0.11940465093E+04  0.10100000352E+00 0.  1.
       -3    1    3    3    0  502 -0.92346179592E+02  0.18372710688E+03 -0.19181684430E+04  0.19291587940E+04  0.10100000352E+00 0. -1.
</event>
<event>
 5   0  0.3812379E-06  0.3266948E+04  0.7818609E-02  0.8171357E-01
       -2   -1    0    0    0  501  0.00000000000E+00  0.00000000000E+00  0.97116954861E+03  0.97116954861E+03  0.25500000920E-02 0.  1.
        2   -1    0    0  501    0  0.00000000000E+00  0.00000000000E+00 -0.27474476521E+04  0.27474476521E+04  0.25500000920E-02 0. -1.
    10030    2    1    2    0    0  0.00000000000E+00  0.00000000000E+00 -0.17762781035E+04  0.37186172007E+04  0.32669481148E+04 0.  0.
        5    1    3    3  502    0  0.52602626925E+03 -0.14757323833E+04 -0.14143593710E+04  0.21106691412E+04  0.46999998093E+01 0.  1.
       -5    1    3    3    0  502 -0.52602626925E+03  0.14757323833E+04 -0.36191873245E+03  0.16079480595E+04  0.46999998093E+01 0. -1.
</event>
<event>
 5   0  0.1352708E-06  0.2624301E+04  0.7818609E-02  0.8359993E-01
       -1   -1    0    0    0  501  0.00000000000E+00  0.00000000000E+00  0.10955054733E+04  0.10955054733E+04  0.50400001928E-02 0. -1.
        1   -1    0    0  501    0  0.00000000000E+00  0.00000000000E+00 -0.15716391903E+04  0.15716391903E+04  0.50400001928E-02 0.  1.
    10030    2    1    2    0    0  0.00000000000E+00  0.00000000000E+00 -0.47613371696E+03  0.26671446636E+04  0.26243013052E+04 0.  0.
        5    1    3    3  502    0 -0.10167890438E+04  0.23217096685E+03 -0.10472777585E+04  0.14780311604E+04  0.46999998093E+01 0. -1.
       -5    1    3    3    0  502  0.10167890438E+04 -0.23217096685E+03  0.57114404157E+03  0.11891135033E+04  0.46999998093E+01 0.  1.
</event>
<event>
 5   0  0.4017247E-06  0.3579995E+04  0.7818609E-02  0.8095089E-01
       -2   -1    0    0    0  501  0.00000000000E+00  0.00000000000E+00  0.13415894669E+04  0.13415894669E+04  0.25500000920E-02 0. -1.
        2   -1    0    0  501    0  0.00000000000E+00  0.00000000000E+00 -0.23882801632E+04  0.23882801632E+04  0.25500000920E-02 0.  1.
    10030    2    1    2    0    0  0.00000000000E+00  0.00000000000E+00 -0.10466906963E+04  0.37298696301E+04  0.35799952575E+04 0.  0.
        1    1    3    3  502    0 -0.54497277812E+02 -0.27402244059E+03  0.13187325768E+04  0.13480036574E+04  0.50400001928E-02 0. -1.
       -1    1    3    3    0  502  0.54497277812E+02  0.27402244059E+03 -0.23654232730E+04  0.23818659727E+04  0.50400001928E-02 0.  1.
</event>
<event>
 5   0  0.1339825E-06  0.3333854E+04  0.7818609E-02  0.8154334E-01
       -1   -1    0    0    0  501  0.00000000000E+00  0.00000000000E+00  0.19839966326E+04  0.19839966326E+04  0.50400001928E-02 0. -1.
        1   -1    0    0  501    0  0.00000000000E+00  0.00000000000E+00 -0.14005293501E+04  0.14005293502E+04  0.50400001928E-02 0.  1.
    10030    2    1    2    0    0  0.00000000000E+00  0.00000000000E+00  0.58346728248E+03  0.33845259828E+04  0.33338539348E+04 0.  0.
        3    1    3    3  502    0 -0.86016616350E+02  0.16635269657E+04  0.22813417965E+03  0.16812989139E+04  0.10100000352E+00 0.  1.
       -3    1    3    3    0  502  0.86016616350E+02 -0.16635269657E+04  0.35533310283E+03  0.17032270688E+04  0.10100000352E+00 0. -1.
</event>
<event>
 5   0  0.1282578E-06  0.3334009E+04  0.7818609E-02  0.8154295E-01
       -1   -1    0    0    0  501  0.00000000000E+00  0.00000000000E+00  0.13484481856E+04  0.13484481856E+04  0.50400001928E-02 0. -1.
        1   -1    0    0  501    0  0.00000000000E+00  0.00000000000E+00 -0.20608164143E+04  0.20608164143E+04  0.50400001928E-02 0.  1.
    10030    2    1    2    0    0  0.00000000000E+00  0.00000000000E+00 -0.71236822872E+03  0.34092645999E+04  0.33340090910E+04 0.  0.
        4    1    3    3  502    0  0.12242942200E+04  0.19589981823E+03 -0.14956201089E+04  0.19427182500E+04  0.12699999809E+01 0.  1.
       -4    1    3    3    0  502 -0.12242942200E+04 -0.19589981823E+03  0.78325188017E+03  0.14665463499E+04  0.12699999809E+01 0. -1.
</event>
<event>
 5   0  0.4017247E-06  0.3481509E+04  0.7818609E-02  0.8118186E-01
        2   -1    0    0  501    0  0.00000000000E+00  0.00000000000E+00  0.23969548073E+04  0.23969548073E+04  0.25500000920E-02 0. -1.
       -2   -1    0    0    0  501  0.00000000000E+00  0.00000000000E+00 -0.12641981954E+04  0.12641981954E+04  0.25500000920E-02 0.  1.
    10030    2    1    2    0    0  0.00000000000E+00  0.00000000000E+00  0.11327566119E+04  0.36611530027E+04  0.34815088349E+04 0.  0.
        1    1    3    3  502    0 -0.81955490287E+03  0.96944394751E+03 -0.68618846526E+03  0.14430337543E+04  0.50400001928E-02 0.  1.
       -1    1    3    3    0  502  0.81955490287E+03 -0.96944394751E+03  0.18189450772E+04  0.22181192484E+04  0.50400001928E-02 0. -1.
</event>
<event>
 5   0  0.3896210E-06  0.3212796E+04  0.7818609E-02  0.8185446E-01
       -2   -1    0    0    0  501  0.00000000000E+00  0.00000000000E+00  0.17448125987E+04  0.17448125987E+04  0.25500000920E-02 0. -1.
        2   -1    0    0  501    0  0.00000000000E+00  0.00000000000E+00 -0.14789634373E+04  0.14789634373E+04  0.25500000920E-02 0.  1.
    10030    2    1    2    0    0  0.00000000000E+00  0.00000000000E+00  0.26584916141E+03  0.32237760361E+04  0.32127956913E+04 0.  0.
        3    1    3    3  502    0 -0.63819199185E+03  0.10976665440E+04  0.11203371307E+04  0.16933151381E+04  0.10100000352E+00 0. -1.
       -3    1    3    3    0  502  0.63819199185E+03 -0.10976665440E+04 -0.85448796928E+03  0.15304608980E+04  0.10100000352E+00 0.  1.
</event>
<event>
 5   0  0.4017247E-06  0.3361681E+04  0.7818609E-02  0.8147376E-01
       -2   -1    0    0    0  501  0.00000000000E+00  0.00000000000E+00  0.11748707007E+04  0.11748707007E+04  0.25500000920E-02 0.  1.
        2   -1    0    0  501    0  0.00000000000E+00  0.00000000000E+00 -0.24047111993E+04  0.24047111993E+04  0.25500000920E-02 0. -1.
    10030    2    1    2    0    0  0.00000000000E+00  0.00000000000E+00 -0.12298404986E+04  0.35795819000E+04  0.33616809675E+04 0.  0.
        1    1    3    3  502    0  0.96600600405E+03 -0.11527462886E+04  0.18421429209E+03  0.15152315042E+04  0.50400001928E-02 0.  1.
       -1    1    3    3    0  502 -0.96600600405E+03  0.11527462886E+04 -0.14140547907E+04  0.20643503959E+04  0.50400001928E-02 0. -1.
</event>
<event>
 5   0  0.3896210E-06  0.3282060E+04  0.7818609E-02  0.8167475E-01
       -2   -1    0    0    0  501  0.00000000000E+00  0.00000000000E+00  0.14063991418E+04  0.14063991418E+04  0.25500000920E-02 0. -1.
        2   -1    0    0  501    0  0.00000000000E+00  0.00000000000E+00 -0.19148044111E+04  0.19148044111E+04  0.25500000920E-02 0.  1.
    10030    2    1    2    0    0  0.00000000000E+00  0.00000000000E+00 -0.50840526927E+03  0.33212035528E+04  0.32820598900E+04 0.  0.
        3    1    3    3  502    0  0.21113966065E+03 -0.13340125884E+04 -0.11974190049E+04  0.18049880403E+04  0.10100000352E+00 0.  1.
       -3    1    3    3    0  502 -0.21113966065E+03  0.13340125884E+04  0.68901373558E+03  0.15162155125E+04  0.10100000352E+00 0. -1.
</event>
<event>
 5   0  0.3671997E-06  0.3321528E+04  0.7818609E-02  0.8157439E-01
       -2   -1    0    0    0  501  0.00000000000E+00  0.00000000000E+00  0.22278205937E+04  0.22278205937E+04  0.25500000920E-02 0. -1.
        2   -1    0    0  501    0  0.00000000000E+00  0.00000000000E+00 -0.12380424205E+04  0.12380424205E+04  0.25500000920E-02 0.  1.
    10030    2    1    2    0    0  0.00000000000E+00  0.00000000000E+00  0.98977817318E+03  0.34658630142E+04  0.33215276006E+04 0.  0.
        2    1    3    3  502    0  0.84279777209E+03  0.23430137442E+03 -0.97816834362E+03  0.13122570355E+04  0.25500000920E-02 0.  1.
       -2    1    3    3    0  502 -0.84279777209E+03 -0.23430137442E+03  0.19679465168E+04  0.21536059787E+04  0.25500000920E-02 0. -1.
</event>
<event>
 5   0  0.4017247E-06  0.3390532E+04  0.7818609E-02  0.8140234E-01
       -2   -1    0    0    0  501  0.00000000000E+00  0.00000000000E+00  0.21513529475E+04  0.21513529475E+04  0.25500000920E-02 0.  1.
        2   -1    0    0  501    0  0.00000000000E+00  0.00000000000E+00 -0.13358695645E+04  0.13358695645E+04  0.25500000920E-02 0. -1.
    10030    2    1    2    0    0  0.00000000000E+00  0.00000000000E+00  0.81548338298E+03  0.34872225119E+04  0.33905320674E+04 0.  0.
        1    1    3    3  502    0 -0.16485500320E+04 -0.39355346036E+03  0.37029755861E+03  0.17348549842E+04  0.50400001928E-02 0. -1.
       -1    1    3    3    0  502  0.16485500320E+04  0.39355346036E+03  0.44518582437E+03  0.17523675278E+04  0.50400001928E-02 0.  1.
</event>
<event>
 5   0  0.1352708E-06  0.3267780E+04  0.7818609E-02  0.8171143E-01
        1   -1    0    0  501    0  0.00000000000E+00  0.00000000000E+00  0.22676447541E+04  0.22676447541E+04  0.50400001928E-02 0.  1.
       -1   -1    0    0    0  501  0.00000000000E+00  0.00000000000E+00 -0.11772550572E+04  0.11772550572E+04  0.50400001928E-02 0. -1.
    10030    2    1    2    0    0  0.00000000000E+00  0.00000000000E+00  0.10903896969E+04  0.34448998113E+04  0.32677798302E+04 0.  0.
        5    1    3    3  502    0  0.11917999916E+04 -0.82352146564E+03  0.13417972496E+04  0.19745928120E+04  0.46999998093E+01 0.  1.
       -5    1    3    3    0  502 -0.11917999916E+04  0.82352146564E+03 -0.25140755269E+03  0.14703069992E+04  0.46999998093E+01 0. -1.
</event>
<event>
 5   0  0.1352708E-06  0.3095464E+04  0.7818609E-02  0.8216984E-01
        1   -1    0    0  501    0  0.00000000000E+00  0.00000000000E+00  0.12522636218E+04  0.12522636218E+04  0.50400001928E-02 0.  1.
       -1   -1    0    0    0  501  0.00000000000E+00  0.00000000000E+00 -0.19129151822E+04  0.19129151823E+04  0.50400001928E-02 0. -1.
    10030    2    1    2    0    0  0.00000000000E+00  0.00000000000E+00 -0.66065156043E+03  0.31651788041E+04  0.30954638388E+04 0.  0.
        5    1    3    3  502    0  0.47515256599E+03 -0.46296981596E+03 -0.17601536778E+04  0.18810300558E+04  0.46999998093E+01 0. -1.
       -5    1    3    3    0  502 -0.47515256599E+03  0.46296981596E+03  0.10995021174E+04  0.12841487482E+04  0.46999998093E+01 0.  1.
</event>
<event>
 5   0  0.3671997E-06  0.3240100E+04  0.7818609E-02  0.8178306E-01
       -2   -1    0    0    0  501  0.00000000000E+00  0.00000000000E+00  0.18888949461E+04  0.18888949461E+04  0.25500000920E-02 0.  1.
        2   -1    0    0  501    0  0.00000000000E+00  0.00000000000E+00 -0.13894697647E+04  0.13894697647E+04  0.25500000920E-02 0. -1.
    10030    2    1    2    0    0  0.00000000000E+00  0.00000000000E+00  0.49942518146E+03  0.32783647108E+04  0.32401002554E+04 0.  0.
        2    1    3    3  502    0  0.77972293467E+03 -0.13430934268E+04 -0.21692213884E+03  0.15680953486E+04  0.25500000920E-02 0.  1.
       -2    1    3    3    0  502 -0.77972293467E+03  0.13430934268E+04  0.71634732031E+03  0.17102693622E+04  0.25500000920E-02 0. -1.
</event>
<event>
 5   0  0.1339825E-06  0.3588946E+04  0.7818609E-02  0.8093028E-01
       -1   -1    0    0    0  501  0.00000000000E+00  0.00000000000E+00  0.19860121994E+04  0.19860121994E+04  0.50400001928E-02 0. -1.
        1   -1    0    0  501    0  0.00000000000E+00  0.00000000000E+00 -0.16214064997E+04  0.16214064997E+04  0.50400001928E-02 0.  1.
    10030    2    1    2    0    0  0.00000000000E+00  0.00000000000E+00  0.36460569974E+03  0.36074186991E+04  0.35889458556E+04 0.  0.
        3    1    3    3  502    0  0.97216488136E+03  0.69515230915E+03 -0.11631652851E+04  0.16677214336E+04  0.10100000352E+00 0.  1.
       -3    1    3    3    0  502 -0.97216488136E+03 -0.69515230915E+03  0.15277709848E+04  0.19396972655E+04  0.10100000352E+00 0. -1.
</event>
<event>
 5   0  0.1352708E-06  0.3211860E+04  0.7818609E-02  0.8185692E-01
        1   -1    0    0  501    0  0.00000000000E+00  0.00000000000E+00  0.16041252457E+04  0.16041252457E+04  0.50400001928E-02 0.  1.
       -1   -1    0    0    0  501  0.00000000000E+00  0.00000000000E+00 -0.16077372512E+04  0.16077372512E+04  0.50400001928E-02 0. -1.
    10030    2    1    2    0    0  0.00000000000E+00  0.00000000000E+00 -0.36120055159E+01  0.32118624969E+04  0.32118604659E+04 0.  0.
        5    1    3    3  502    0  0.13749792319E+03 -0.11978729481E+04  0.10589418314E+04  0.16047383496E+04  0.46999998093E+01 0.  1.
       -5    1    3    3    0  502 -0.13749792319E+03  0.11978729481E+04 -0.10625538369E+04  0.16071241473E+04  0.46999998093E+01 0. -1.
</event>
<event>
 5   0  0.3812379E-06  0.3217694E+04  0.7818609E-02  0.8184160E-01
        2   -1    0    0  501    0  0.00000000000E+00  0.00000000000E+00  0.14641616496E+04  0.14641616496E+04  0.25500000920E-02 0.  1.
       -2   -1    0    0    0  501  0.00000000000E+00  0.00000000000E+00 -0.17678302800E+04  0.17678302800E+04  0.25500000920E-02 0. -1.
    10030    2    1    2    0    0  0.00000000000E+00  0.00000000000E+00 -0.30366863033E+03  0.32319919296E+04  0.32176943913E+04 0.  0.
        5    1    3    3  502    0  0.67447485551E+03 -0.13310237793E+04 -0.75602733851E+03  0.16727641969E+04  0.46999998093E+01 0. -1.
       -5    1    3    3    0  502 -0.67447485551E+03  0.13310237793E+04  0.45235870818E+03  0.15592277328E+04  0.46999998093E+01 0.  1.
</event>
<event>
 5   0  0.3896210E-06  0.3330837E+04  0.7818609E-02  0.8155093E-01
       -2   -1    0    0    0  501  0.00000000000E+00  0.00000000000E+00  0.26940650877E+04  0.26940650877E+04  0.25500000920E-02 0.  1.
        2   -1    0    0  501    0  0.00000000000E+00  0.00000000000E+00 -0.10295290094E+04  0.10295290094E+04  0.25500000920E-02 0. -1.
    10030    2    1    2    0    0  0.00000000000E+00  0.00000000000E+00  0.16645360783E+04  0.37235940970E+04  0.33308366282E+04 0.  0.
        3    1    3    3  502    0 -0.34916417643E+03 -0.20142807467E+03  0.26387065656E+04  0.26693184974E+04  0.10100000352E+00 0.  1.
       -3    1    3    3    0  502  0.34916417643E+03  0.20142807467E+03 -0.97417048730E+03  0.10542755996E+04  0.10100000352E+00 0. -1.
</event>
<event>
 5   0  0.1352708E-06  0.3306264E+04  0.7818609E-02  0.8161303E-01
        1   -1    0    0  501    0  0.00000000000E+00  0.00000000000E+00  0.17272792711E+04  0.17272792711E+04  0.50400001928E-02 0. -1.
       -1   -1    0    0    0  501  0.00000000000E+00  0.00000000000E+00 -0.15821676507E+04  0.15821676507E+04  0.50400001928E-02 0.  1.
    10030    2    1    2    0    0  0.00000000000E+00  0.00000000000E+00  0.14511162036E+03  0.33094469218E+04  0.33062639861E+04 0.  0.
        5    1    3    3  502    0 -0.12279799314E+04 -0.10494949264E+04 -0.27913551273E+03  0.16393026069E+04  0.46999998093E+01 0.  1.
       -5    1    3    3    0  502  0.12279799314E+04  0.10494949264E+04  0.42424713309E+03  0.16701443149E+04  0.46999998093E+01 0. -1.
</event>
<event>
 5   0  0.3671997E-06  0.3227318E+04  0.7818609E-02  0.8181639E-01
        2   -1    0    0  501    0  0.00000000000E+00  0.00000000000E+00  0.27451898654E+04  0.27451898654E+04  0.25500000920E-02 0.  1.
       -2   -1    0    0    0  501  0.00000000000E+00  0.00000000000E+00 -0.94853038937E+03  0.94853038938E+03  0.25500000920E-02 0. -1.
    10030    2    1    2    0    0  0.00000000000E+00  0.00000000000E+00  0.17966594760E+04  0.36937202548E+04  0.32273183989E+04 0.  0.
        2    1    3    3  502    0 -0.66502229102E+02  0.16122229441E+04  0.91494077449E+03  0.18549398882E+04  0.25500000920E-02 0.  1.
       -2    1    3    3    0  502  0.66502229102E+02 -0.16122229441E+04  0.88171870153E+03  0.18387803666E+04  0.25500000920E-02 0. -1.
</event>
<event>
 5   0  0.1405389E-06  0.2771567E+04  0.7818609E-02  0.8312150E-01
        1   -1    0    0  501    0  0.00000000000E+00  0.00000000000E+00  0.14418269850E+04  0.14418269850E+04  0.50400001928E-02 0. -1.
       -1   -1    0    0    0  501  0.00000000000E+00  0.00000000000E+00 -0.13319181882E+04  0.13319181883E+04  0.50400001928E-02 0.  1.
    10030    2    1    2    0    0  0.00000000000E+00  0.00000000000E+00  0.10990879673E+03  0.27737451732E+04  0.27715667667E+04 0.  0.
        1    1    3    3  502    0  0.12124840065E+04  0.54535721661E+03 -0.33633068573E+03  0.13713680359E+04  0.50400001928E-02 0. -1.
       -1    1    3    3    0  502 -0.12124840065E+04 -0.54535721661E+03  0.44623948246E+03  0.14023771374E+04  0.50400001928E-02 0.  1.
</event>
<event>
 5   0  0.3896210E-06  0.2545347E+04  0.7818609E-02  0.8387006E-01
        2   -1    0    0  501    0  0.00000000000E+00  0.00000000000E+00  0.89793422659E+03  0.89793422660E+03  0.25500000920E-02 0.  1.
       -2   -1    0    0    0  501  0.00000000000E+00  0.00000000000E+00 -0.18038045430E+04  0.18038045430E+04  0.25500000920E-02 0. -1.
    10030    2    1    2    0    0  0.00000000000E+00  0.00000000000E+00 -0.90587031641E+03  0.27017387696E+04  0.25453469997E+04 0.  0.
        3    1    3    3  502    0 -0.10963382599E+04  0.60765472458E+03 -0.68668387756E+03  0.14292433670E+04  0.10100000352E+00 0.  1.
       -3    1    3    3    0  502  0.10963382599E+04 -0.60765472458E+03 -0.21918643885E+03  0.12724954026E+04  0.10100000352E+00 0. -1.
</event>
<event>
 5   0  0.1391878E-06  0.2360874E+04  0.7818609E-02  0.8454299E-01
        1   -1    0    0  501    0  0.00000000000E+00  0.00000000000E+00  0.16406278387E+04  0.16406278388E+04  0.50400001928E-02 0. -1.
       -1   -1    0    0    0  501  0.00000000000E+00  0.00000000000E+00 -0.84932843810E+03  0.84932843811E+03  0.50400001928E-02 0.  1.
    10030    2    1    2    0    0  0.00000000000E+00  0.00000000000E+00  0.79129940065E+03  0.24899562769E+04  0.23608743125E+04 0.  0.
        2    1    3    3  502    0 -0.40487755518E+03  0.71413850737E+02  0.15626785648E+04  0.16158558320E+04  0.25500000920E-02 0. -1.
       -2    1    3    3    0  502  0.40487755518E+03 -0.71413850737E+02 -0.77137916419E+03  0.87410044487E+03  0.25500000920E-02 0.  1.
</event>
<event>
 5   0  0.1339825E-06  0.3348772E+04  0.7818609E-02  0.8150595E-01
        1   -1    0    0  501    0  0.00000000000E+00  0.00000000000E+00  0.19618950742E+04  0.19618950743E+04  0.50400001928E-02 0.  1.
       -1   -1    0    0    0  501  0.00000000000E+00  0.00000000000E+00 -0.14290102568E+04  0.14290102568E+04  0.50400001928E-02 0. -1.
    10030    2    1    2    0    0  0.00000000000E+00  0.00000000000E+00  0.53288481747E+03  0.33909053310E+04  0.33487718249E+04 0.  0.
        3    1    3    3  502    0 -0.64655010352E+03 -0.18090041298E+03 -0.12867458788E+04  0.14513672735E+04  0.10100000352E+00 0. -1.
       -3    1    3    3    0  502  0.64655010352E+03  0.18090041298E+03  0.18196306962E+04  0.19395380576E+04  0.10100000352E+00 0.  1.
</event>
<event>
 5   0  0.1352708E-06  0.3224820E+04  0.7818609E-02  0.8182293E-01
        1   -1    0    0  501    0  0.00000000000E+00  0.00000000000E+00  0.16337455023E+04  0.16337455023E+04  0.50400001928E-02 0.  1.
       -1   -1    0    0    0  501  0.00000000000E+00  0.00000000000E+00 -0.15913528220E+04  0.15913528220E+04  0.50400001928E-02 0. -1.
    10030    2    1    2    0    0  0.00000000000E+00  0.00000000000E+00  0.42392680304E+02  0.32250983243E+04  0.32248196945E+04 0.  0.
        5    1    3    3  502    0  0.13413305772E+04  0.33732634465E+01  0.91607213750E+03  0.16243119612E+04  0.46999998093E+01 0.  1.
       -5    1    3    3    0  502 -0.13413305772E+04 -0.33732634465E+01 -0.87367945720E+03  0.16007863631E+04  0.46999998093E+01 0. -1.
</event>
<event>
 5   0  0.1391878E-06  0.2128753E+04  0.7818609E-02  0.8548682E-01
        1   -1    0    0  501    0  0.00000000000E+00  0.00000000000E+00  0.87033747723E+03  0.87033747724E+03  0.50400001928E-02 0.  1.
       -1   -1    0    0    0  501  0.00000000000E+00  0.00000000000E+00 -0.13016760678E+04  0.13016760678E+04  0.50400001928E-02 0. -1.
    10030    2    1    2    0    0  0.00000000000E+00  0.00000000000E+00 -0.43133859059E+03  0.21720135451E+04  0.21287531234E+04 0.  0.
        2    1    3    3  502    0  0.25884156300E+03 -0.89109619032E+03  0.31631495684E+03  0.98036040672E+03  0.25500000920E-02 0.  1.
       -2    1    3    3    0  502 -0.25884156300E+03  0.89109619032E+03 -0.74765354743E+03  0.11916531383E+04  0.25500000920E-02 0. -1.
</event>
<event>
 5   0  0.3920487E-06  0.3256129E+04  0.7818609E-02  0.8174149E-01
       -2   -1    0    0    0  501  0.00000000000E+00  0.00000000000E+00  0.12690584814E+04  0.12690584814E+04  0.25500000920E-02 0.  1.
        2   -1    0    0  501    0  0.00000000000E+00  0.00000000000E+00 -0.20886308660E+04  0.20886308660E+04  0.25500000920E-02 0. -1.
    10030    2    1    2    0    0  0.00000000000E+00  0.00000000000E+00 -0.81957238459E+03  0.33576893474E+04  0.32561294293E+04 0.  0.
        4    1    3    3  502    0  0.65026815943E+03 -0.14881729203E+04 -0.29182512398E+03  0.16500517676E+04  0.12699999809E+01 0. -1.
       -4    1    3    3    0  502 -0.65026815943E+03  0.14881729203E+04 -0.52774726060E+03  0.17076375798E+04  0.12699999809E+01 0.  1.
</event>
<event>
 5   0  0.1282578E-06  0.3263514E+04  0.7818609E-02  0.8172242E-01
        1   -1    0    0  501    0  0.00000000000E+00  0.00000000000E+00  0.32169920067E+04  0.32169920067E+04  0.50400001928E-02 0. -1.
       -1   -1    0    0    0  501  0.00000000000E+00  0.00000000000E+00 -0.82767709608E+03  0.82767709610E+03  0.50400001928E-02 0.  1.
    10030    2    1    2    0    0  0.00000000000E+00  0.00000000000E+00  0.23893149106E+04  0.40446691028E+04  0.32635138132E+04 0.  0.
        4    1    3    3  502    0  0.30812544585E+02  0.11601402336E+03 -0.82219718780E+03  0.83091425252E+03  0.12699999809E+01 0.  1.
       -4    1    3    3    0  502 -0.30812544585E+02 -0.11601402336E+03  0.32115120984E+04  0.32137548503E+04  0.12699999809E+01 0. -1.
</event>
<event>
 5   0  0.1352708E-06  0.3330595E+04  0.7818609E-02  0.8155154E-01
        1   -1    0    0  501    0  0.00000000000E+00  0.00000000000E+00  0.12502296031E+04  0.12502296031E+04  0.50400001928E-02 0. -1.
       -1   -1    0    0    0  501  0.00000000000E+00  0.00000000000E+00 -0.22181647299E+04  0.22181647299E+04  0.50400001928E-02 0.  1.
    10030    2    1    2    0    0  0.00000000000E+00  0.00000000000E+00 -0.96793512679E+03  0.34683943329E+04  0.33305946675E+04 0.  0.
        5    1    3    3  502    0 -0.14706751622E+03 -0.14224419052E+04  0.40469926276E+03  0.14861942710E+04  0.46999998093E+01 0. -1.
       -5    1    3    3    0  502  0.14706751622E+03  0.14224419052E+04 -0.13726343896E+04  0.19822000619E+04  0.46999998093E+01 0.  1.
</event>
<event>
 5   0  0.1391878E-06  0.3200302E+04  0.7818609E-02  0.8188737E-01
       -1   -1    0    0    0  501  0.00000000000E+00  0.00000000000E+00  0.15673983866E+04  0.15673983866E+04  0.50400001928E-02 0. -1.
        1   -1    0    0  501    0  0.00000000000E+00  0.00000000000E+00 -0.16335877577E+04  0.16335877577E+04  0.50400001928E-02 0.  1.
    10030    2    1    2    0    0  0.00000000000E+00  0.00000000000E+00 -0.66189371110E+02  0.32009861443E+04  0.32003017456E+04 0.  0.
        2    1    3    3  502    0 -0.12054015282E+04 -0.15303765038E+03 -0.10745039061E+04  0.16220271302E+04  0.25500000920E-02 0.  1.
       -2    1    3    3    0  502  0.12054015282E+04  0.15303765038E+03  0.10083145350E+04  0.15789590141E+04  0.25500000920E-02 0. -1.
</event>
<event>
 5   0  0.4017247E-06  0.3312284E+04  0.7818609E-02  0.8159777E-01
       -2   -1    0    0    0  501  0.00000000000E+00  0.00000000000E+00  0.17423839576E+04  0.17423839576E+04  0.25500000920E-02 0. -1.
        2   -1    0    0  501    0  0.00000000000E+00  0.00000000000E+00 -0.15741684725E+04  0.15741684725E+04  0.25500000920E-02 0.  1.
    10030    2    1    2    0    0  0.00000000000E+00  0.00000000000E+00  0.16821548507E+03  0.33165524300E+04  0.33122837396E+04 0.  0.
        1    1    3    3  502    0 -0.85452506231E+03 -0.12638436228E+04 -0.56115438191E+03  0.16255485306E+04  0.50400001928E-02 0. -1.
       -1    1    3    3    0  502  0.85452506231E+03  0.12638436228E+04  0.72936986698E+03  0.16910038994E+04  0.50400001928E-02 0.  1.
</event>
<event>
 5   0  0.3896210E-06  0.3285843E+04  0.7818609E-02  0.8166507E-01
        2   -1    0    0  501    0  0.00000000000E+00  0.00000000000E+00  0.18686724312E+04  0.18686724312E+04  0.25500000920E-02 0. -1.
       -2   -1    0    0    0  501  0.00000000000E+00  0.00000000000E+00 -0.14444429577E+04  0.14444429577E+04  0.25500000920E-02 0.  1.
    10030    2    1    2    0    0  0.00000000000E+00  0.00000000000E+00  0.42422947358E+03  0.33131153889E+04  0.32858428042E+04 0.  0.
        3    1    3    3  502    0 -0.12486316561E+04 -0.69528051783E+03  0.10292078283E+04  0.17611827773E+04  0.10100000352E+00 0. -1.
       -3    1    3    3    0  502  0.12486316561E+04  0.69528051783E+03 -0.60497835470E+03  0.15519326116E+04  0.10100000352E+00 0.  1.
</event>
<event>
 5   0  0.3896210E-06  0.3235921E+04  0.7818609E-02  0.8179394E-01
        2   -1    0    0  501    0  0.00000000000E+00  0.00000000000E+00  0.21632050390E+04  0.21632050390E+04  0.25500000920E-02 0.  1.
       -2   -1    0    0    0  501  0.00000000000E+00  0.00000000000E+00 -0.12101468877E+04  0.12101468877E+04  0.25500000920E-02 0. -1.
    10030    2    1    2    0    0  0.00000000000E+00  0.00000000000E+00  0.95305815132E+03  0.33733519267E+04  0.32359207934E+04 0.  0.
        3    1    3    3  502    0 -0.62523594605E+03 -0.89018968791E+03  0.17250754702E+04  0.20394222360E+04  0.10100000352E+00 0.  1.
       -3    1    3    3    0  502  0.62523594605E+03  0.89018968791E+03 -0.77201731889E+03  0.13339296906E+04  0.10100000352E+00 0. -1.
</event>
<event>
 5   0  0.1282578E-06  0.3398343E+04  0.7818609E-02  0.8138313E-01
        1   -1    0    0  501    0  0.00000000000E+00  0.00000000000E+00  0.20782548312E+04  0.20782548313E+04  0.50400001928E-02 0.  1.
       -1   -1    0    0    0  501  0.00000000000E+00  0.00000000000E+00 -0.13892350911E+04  0.13892350911E+04  0.50400001928E-02 0. -1.
    10030    2    1    2    0    0  0.00000000000E+00  0.00000000000E+00  0.68901974017E+03  0.34674899223E+04  0.33983434434E+04 0.  0.
        4    1    3    3  502    0 -0.95857960560E+03  0.13334624169E+04 -0.10046682772E+03  0.16453243066E+04  0.12699999809E+01 0. -1.
       -4    1    3    3    0  502  0.95857960560E+03 -0.13334624169E+04  0.78948656788E+03  0.18221656158E+04  0.12699999809E+01 0.  1.
</event>
<event>
 5   0  0.4017247E-06  0.3317339E+04  0.7818609E-02  0.8158497E-01
       -2   -1    0    0    0  501  0.00000000000E+00  0.00000000000E+00  0.20081803453E+04  0.20081803453E+04  0.25500000920E-02 0.  1.
        2   -1    0    0  501    0  0.00000000000E+00  0.00000000000E+00 -0.13699889739E+04  0.13699889739E+04  0.25500000920E-02 0. -1.
    10030    2    1    2    0    0  0.00000000000E+00  0.00000000000E+00  0.63819137147E+03  0.33781693192E+04  0.33173392535E+04 0.  0.
        1    1    3    3  502    0 -0.88048108595E+03 -0.11775791673E+03  0.17455205214E+04  0.19585596137E+04  0.50400001928E-02 0.  1.
       -1    1    3    3    0  502  0.88048108595E+03  0.11775791673E+03 -0.11073291500E+04  0.14196097055E+04  0.50400001928E-02 0. -1.
</event>
<event>
 5   0  0.1391878E-06  0.2251858E+04  0.7818609E-02  0.8497148E-01
        1   -1    0    0  501    0  0.00000000000E+00  0.00000000000E+00  0.15485186811E+04  0.15485186811E+04  0.50400001928E-02 0.  1.
       -1   -1    0    0    0  501  0.00000000000E+00  0.00000000000E+00 -0.81866363712E+03  0.81866363713E+03  0.50400001928E-02 0. -1.
    10030    2    1    2    0    0  0.00000000000E+00  0.00000000000E+00  0.72985504397E+03  0.23671823182E+04  0.22518578424E+04 0.  0.
        2    1    3    3  502    0 -0.52515253170E+03  0.65184527367E+03 -0.42664950031E+03  0.93953032867E+03  0.25500000920E-02 0. -1.
       -2    1    3    3    0  502  0.52515253170E+03 -0.65184527367E+03  0.11565045443E+04  0.14276519896E+04  0.25500000920E-02 0.  1.
</event>
<event>
 5   0  0.1405389E-06  0.3309865E+04  0.7818609E-02  0.8160390E-01
       -1   -1    0    0    0  501  0.00000000000E+00  0.00000000000E+00  0.12373437631E+04  0.12373437631E+04  0.50400001928E-02 0. -1.
        1   -1    0    0  501    0  0.00000000000E+00  0.00000000000E+00 -0.22134524912E+04  0.22134524912E+04  0.50400001928E-02 0.  1.
    10030    2    1    2    0    0  0.00000000000E+00  0.00000000000E+00 -0.97610872810E+03  0.34507962543E+04  0.33098650334E+04 0.  0.
        1    1    3    3  502    0  0.16280399732E+04 -0.27121441751E+03 -0.36151849405E+03  0.16896055859E+04  0.50400001928E-02 0. -1.
       -1    1    3    3    0  502 -0.16280399732E+04  0.27121441751E+03 -0.61459023404E+03  0.17611906683E+04  0.50400001928E-02 0.  1.
</event>
<event>
 5   0  0.1352708E-06  0.3247648E+04  0.7818609E-02  0.8176346E-01
        1   -1    0    0  501    0  0.00000000000E+00  0.00000000000E+00  0.20735149697E+04  0.20735149697E+04  0.50400001928E-02 0.  1.
       -1   -1    0    0    0  501  0.00000000000E+00  0.00000000000E+00 -0.12716589790E+04  0.12716589790E+04  0.50400001928E-02 0. -1.
    10030    2    1    2    0    0  0.00000000000E+00  0.00000000000E+00  0.80185599072E+03  0.33451739487E+04  0.32476477206E+04 0.  0.
        5    1    3    3  502    0 -0.14317339487E+04  0.31304514622E+03  0.11211556497E+04  0.18452293745E+04  0.46999998093E+01 0.  1.
       -5    1    3    3    0  502  0.14317339487E+04 -0.31304514622E+03 -0.31929965897E+03  0.14999445742E+04  0.46999998093E+01 0. -1.
</event>
<event>
 5   0  0.3671997E-06  0.3357102E+04  0.7818609E-02  0.8148516E-01
        2   -1    0    0  501    0  0.00000000000E+00  0.00000000000E+00  0.17925762496E+04  0.17925762496E+04  0.25500000920E-02 0.  1.
       -2   -1    0    0    0  501  0.00000000000E+00  0.00000000000E+00 -0.15717788881E+04  0.15717788881E+04  0.25500000920E-02 0. -1.
    10030    2    1    2    0    0  0.00000000000E+00  0.00000000000E+00  0.22079736148E+03  0.33643551377E+04  0.33571020267E+04 0.  0.
        2    1    3    3  502    0 -0.12214079217E+04 -0.24781593667E+03  0.12372315852E+04  0.17561298485E+04  0.25500000920E-02 0. -1.
       -2    1    3    3    0  502  0.12214079217E+04  0.24781593667E+03 -0.10164342237E+04  0.16082252891E+04  0.25500000920E-02 0.  1.
</event>
<event>
 5   0  0.4017247E-06  0.3308925E+04  0.7818609E-02  0.8160628E-01
       -2   -1    0    0    0  501  0.00000000000E+00  0.00000000000E+00  0.17059740969E+04  0.17059740969E+04  0.25500000920E-02 0.  1.
        2   -1    0    0  501    0  0.00000000000E+00  0.00000000000E+00 -0.16045064113E+04  0.16045064113E+04  0.25500000920E-02 0. -1.
    10030    2    1    2    0    0  0.00000000000E+00  0.00000000000E+00  0.10146768564E+03  0.33104805081E+04  0.33089251281E+04 0.  0.
        1    1    3    3  502    0  0.13030039697E+03 -0.15085758582E+04 -0.61626316578E+03  0.16347965020E+04  0.50400001928E-02 0. -1.
       -1    1    3    3    0  502 -0.13030039697E+03  0.15085758582E+04  0.71773085141E+03  0.16756840062E+04  0.50400001928E-02 0.  1.
</event>
<event>
 5   0  0.3812379E-06  0.3285351E+04  0.7818609E-02  0.8166633E-01
       -2   -1    0    0    0  501  0.00000000000E+00  0.00000000000E+00  0.11400506395E+04  0.11400506395E+04  0.25500000920E-02 0.  1.
        2   -1    0    0  501    0  0.00000000000E+00  0.00000000000E+00 -0.23668971043E+04  0.23668971043E+04  0.25500000920E-02 0. -1.
    10030    2    1    2    0    0  0.00000000000E+00  0.00000000000E+00 -0.12268464648E+04  0.35069477439E+04  0.32853508534E+04 0.  0.
        5    1    3    3  502    0 -0.10858540226E+04  0.15259934937E+03 -0.19190306293E+04  0.22102185788E+04  0.46999998093E+01 0. -1.
       -5    1    3    3    0  502  0.10858540226E+04 -0.15259934937E+03  0.69218416450E+03  0.12967291650E+04  0.46999998093E+01 0.  1.
</event>
<event>
 5   0  0.1259875E-06  0.3328904E+04  0.7818609E-02  0.8155579E-01
       -3   -1    0    0    0  501  0.00000000000E+00  0.00000000000E+00  0.18547476169E+04  0.18547476196E+04  0.10100000352E+00 0. -1.
        3   -1    0    0  501    0  0.00000000000E+00  0.00000000000E+00 -0.14936805224E+04  0.14936805258E+04  0.10100000352E+00 0.  1.
    10030    2    1    2    0    0  0.00000000000E+00  0.00000000000E+00  0.36106709451E+03  0.33484281454E+04  0.33289039635E+04 0.  0.
        5    1    3    3  502    0 -0.37443875589E+02 -0.36288698691E+03 -0.14529644409E+04  0.14980710149E+04  0.46999998093E+01 0.  1.
       -5    1    3    3    0  502  0.37443875589E+02  0.36288698691E+03  0.18140315354E+04  0.18503571305E+04  0.46999998093E+01 0. -1.
</event>
<event>
 5   0  0.1391878E-06  0.3293129E+04  0.7818609E-02  0.8164646E-01
       -1   -1    0    0    0  501  0.00000000000E+00  0.00000000000E+00  0.11615080940E+04  0.11615080940E+04  0.50400001928E-02 0.  1.
        1   -1    0    0  501    0  0.00000000000E+00  0.00000000000E+00 -0.23341852512E+04  0.23341852512E+04  0.50400001928E-02 0. -1.
    10030    2    1    2    0    0  0.00000000000E+00  0.00000000000E+00 -0.11726771571E+04  0.34956933452E+04  0.32931292487E+04 0.  0.
        2    1    3    3  502    0 -0.33717693055E+02  0.16129674210E+04 -0.23688647373E+03  0.16306182831E+04  0.25500000920E-02 0.  1.
       -2    1    3    3    0  502  0.33717693055E+02 -0.16129674210E+04 -0.93579068342E+03  0.18650750620E+04  0.25500000920E-02 0. -1.
</event>
<event>
 5   0  0.3920487E-06  0.3260033E+04  0.7818609E-02  0.8173140E-01
       -2   -1    0    0    0  501  0.00000000000E+00  0.00000000000E+00  0.12394386432E+04  0.12394386432E+04  0.25500000920E-02 0.  1.
        2   -1    0    0  501    0  0.00000000000E+00  0.00000000000E+00 -0.21436748071E+04  0.21436748072E+04  0.25500000920E-02 0. -1.
    10030    2    1    2    0    0  0.00000000000E+00  0.00000000000E+00 -0.90423616392E+03  0.33831134504E+04  0.32600327572E+04 0.  0.
        4    1    3    3  502    0 -0.54036921821E+03 -0.12156579482E+04 -0.14295531100E+04  0.19528048663E+04  0.12699999809E+01 0. -1.
       -4    1    3    3    0  502  0.54036921821E+03  0.12156579482E+04  0.52531694604E+03  0.14303085840E+04  0.12699999809E+01 0.  1.
</event>
<event>
 5   0  0.4017247E-06  0.3295313E+04  0.7818609E-02  0.8164089E-01
        2   -1    0    0  501    0  0.00000000000E+00  0.00000000000E+00  0.14377606463E+04  0.14377606463E+04  0.25500000920E-02 0.  1.
       -2   -1    0    0    0  501  0.00000000000E+00  0.00000000000E+00 -0.18881948480E+04  0.18881948480E+04  0.25500000920E-02 0. -1.
    10030    2    1    2    0    0  0.00000000000E+00  0.00000000000E+00 -0.45043420168E+03  0.33259554942E+04  0.32953131838E+04 0.  0.
        1    1    3    3  502    0 -0.95052330576E+03  0.11485973565E+04  0.48273371188E+03  0.15670999581E+04  0.50400001928E-02 0.  1.
       -1    1    3    3    0  502  0.95052330576E+03 -0.11485973565E+04 -0.93316791356E+03  0.17588555361E+04  0.50400001928E-02 0. -1.
</event>
<event>
 5   0  0.1405389E-06  0.3169849E+04  0.7818609E-02  0.8196826E-01
       -1   -1    0    0    0  501  0.00000000000E+00  0.00000000000E+00  0.15148234602E+04  0.15148234602E+04  0.50400001928E-02 0. -1.
        1   -1    0    0  501    0  0.00000000000E+00  0.00000000000E+00 -0.16582696943E+04  0.16582696943E+04  0.50400001928E-02 0.  1.
    10030    2    1    2    0    0  0.00000000000E+00  0.00000000000E+00 -0.14344623409E+03  0.31730931544E+04  0.31698491044E+04 0.  0.
        1    1    3    3  502    0  0.56669501863E+03  0.14044956940E+04 -0.53935689692E+03  0.16076869287E+04  0.50400001928E-02 0. -1.
       -1    1    3    3    0  502 -0.56669501863E+03 -0.14044956940E+04  0.39591066283E+03  0.15654062257E+04  0.50400001928E-02 0.  1.
</event>
<event>
 5   0  0.1352708E-06  0.3192607E+04  0.7818609E-02  0.8190772E-01
        1   -1    0    0  501    0  0.00000000000E+00  0.00000000000E+00  0.22985694307E+04  0.22985694307E+04  0.50400001928E-02 0.  1.
       -1   -1    0    0    0  501  0.00000000000E+00  0.00000000000E+00 -0.11085960857E+04  0.11085960857E+04  0.50400001928E-02 0. -1.
    10030    2    1    2    0    0  0.00000000000E+00  0.00000000000E+00  0.11899733451E+04  0.34071655164E+04  0.31926071312E+04 0.  0.
        5    1    3    3  502    0 -0.13731157303E+04 -0.62809880839E+03  0.42294051841E+02  0.15105514882E+04  0.46999998093E+01 0. -1.
       -5    1    3    3    0  502  0.13731157303E+04  0.62809880839E+03  0.11476792932E+04  0.18966140282E+04  0.46999998093E+01 0.  1.
</event>
<event>
 5   0  0.3812379E-06  0.3301954E+04  0.7818609E-02  0.8162398E-01
        2   -1    0    0  501    0  0.00000000000E+00  0.00000000000E+00  0.12095463072E+04  0.12095463072E+04  0.25500000920E-02 0.  1.
       -2   -1    0    0    0  501  0.00000000000E+00  0.00000000000E+00 -0.22535106377E+04  0.22535106377E+04  0.25500000920E-02 0. -1.
    10030    2    1    2    0    0  0.00000000000E+00  0.00000000000E+00 -0.10439643305E+04  0.34630569448E+04  0.33019542516E+04 0.  0.
        5    1    3    3  502    0 -0.48850435962E+03 -0.55348924311E+03  0.10267923319E+04  0.12646388553E+04  0.46999998093E+01 0.  1.
       -5    1    3    3    0  502  0.48850435962E+03  0.55348924311E+03 -0.20707566624E+04  0.21984180895E+04  0.46999998093E+01 0. -1.
</event>
<event>
 5   0  0.3812379E-06  0.3292004E+04  0.7818609E-02  0.8164933E-01
        2   -1    0    0  501    0  0.00000000000E+00  0.00000000000E+00  0.24357015357E+04  0.24357015357E+04  0.25500000920E-02 0.  1.
       -2   -1    0    0    0  501  0.00000000000E+00  0.00000000000E+00 -0.11123378664E+04  0.11123378664E+04  0.25500000920E-02 0. -1.
    10030    2    1    2    0    0  0.00000000000E+00  0.00000000000E+00  0.13233636693E+04  0.35480394021E+04  0.32920042828E+04 0.  0.
        5    1    3    3  502    0 -0.22485722394E+03 -0.10607548395E+04 -0.67299310486E+03  0.12762066485E+04  0.46999998093E+01 0. -1.
       -5    1    3    3    0  502  0.22485722394E+03  0.10607548395E+04  0.19963567741E+04  0.22718327536E+04  0.46999998093E+01 0.  1.
</event>
<event>
 5   0  0.3812379E-06  0.3324286E+04  0.7818609E-02  0.8156743E-01
        2   -1    0    0  501    0  0.00000000000E+00  0.00000000000E+00  0.19205291800E+04  0.19205291800E+04  0.25500000920E-02 0.  1.
       -2   -1    0    0    0  501  0.00000000000E+00  0.00000000000E+00 -0.14385202655E+04  0.14385202655E+04  0.25500000920E-02 0. -1.
    10030    2    1    2    0    0  0.00000000000E+00  0.00000000000E+00  0.48200891450E+03  0.33590494456E+04  0.33242864775E+04 0.  0.
        5    1    3    3  502    0 -0.10956978440E+04  0.11976658025E+04 -0.12014167450E+03  0.16277018313E+04  0.46999998093E+01 0.  1.
       -5    1    3    3    0  502  0.10956978440E+04 -0.11976658025E+04  0.60215058899E+03  0.17313476143E+04  0.46999998093E+01 0. -1.
</event>
<event>
 5   0  0.3920487E-06  0.3330651E+04  0.7818609E-02  0.8155140E-01
       -2   -1    0    0    0  501  0.00000000000E+00  0.00000000000E+00  0.20434610967E+04  0.20434610967E+04  0.25500000920E-02 0.  1.
        2   -1    0    0  501    0  0.00000000000E+00  0.00000000000E+00 -0.13571629154E+04  0.13571629154E+04  0.25500000920E-02 0. -1.
    10030    2    1    2    0    0  0.00000000000E+00  0.00000000000E+00  0.68629818126E+03  0.34006240122E+04  0.33306513595E+04 0.  0.
        4    1    3    3  502    0 -0.63350341184E+03  0.10958973361E+04 -0.76170803598E+03  0.14773348602E+04  0.12699999809E+01 0. -1.
       -4    1    3    3    0  502  0.63350341184E+03 -0.10958973361E+04  0.14480062172E+04  0.19232891520E+04  0.12699999809E+01 0.  1.
</event>
<event>
 5   0  0.3920487E-06  0.3282564E+04  0.7818609E-02  0.8167346E-01
        2   -1    0    0  501    0  0.00000000000E+00  0.00000000000E+00  0.22403949560E+04  0.22403949560E+04  0.25500000920E-02 0. -1.
       -2   -1    0    0    0  501  0.00000000000E+00  0.00000000000E+00 -0.12023802338E+04  0.12023802338E+04  0.25500000920E-02 0.  1.
    10030    2    1    2    0    0  0.00000000000E+00  0.00000000000E+00  0.10380147222E+04  0.34427751898E+04  0.32825640046E+04 0.  0.
        4    1    3    3  502    0 -0.24166700560E+03  0.48193077852E+03  0.21448759094E+04  0.22115954640E+04  0.12699999809E+01 0. -1.
       -4    1    3    3    0  502  0.24166700560E+03 -0.48193077852E+03 -0.11068611871E+04  0.12311797259E+04  0.12699999809E+01 0.  1.
</event>
<event>
 5   0  0.1352708E-06  0.2912987E+04  0.7818609E-02  0.8269024E-01
       -1   -1    0    0    0  501  0.00000000000E+00  0.00000000000E+00  0.84509639003E+03  0.84509639005E+03  0.50400001928E-02 0.  1.
        1   -1    0    0  501    0  0.00000000000E+00  0.00000000000E+00 -0.25102149996E+04  0.25102149996E+04  0.50400001928E-02 0. -1.
    10030    2    1    2    0    0  0.00000000000E+00  0.00000000000E+00 -0.16651186096E+04  0.33553113897E+04  0.29129872189E+04 0.  0.
        5    1    3    3  502    0 -0.37630050418E+03  0.24829747143E+03  0.76269391614E+03  0.88598973103E+03  0.46999998093E+01 0.  1.
       -5    1    3    3    0  502  0.37630050418E+03 -0.24829747143E+03 -0.24278125258E+04  0.24693216587E+04  0.46999998093E+01 0. -1.
</event>
<event>
 5   0  0.3896210E-06  0.3345199E+04  0.7818609E-02  0.8151489E-01
        2   -1    0    0  501    0  0.00000000000E+00  0.00000000000E+00  0.23007651582E+04  0.23007651582E+04  0.25500000920E-02 0. -1.
       -2   -1    0    0    0  501  0.00000000000E+00  0.00000000000E+00 -0.12159388661E+04  0.12159388662E+04  0.25500000920E-02 0.  1.
    10030    2    1    2    0    0  0.00000000000E+00  0.00000000000E+00  0.10848262921E+04  0.35167040244E+04  0.33451994128E+04 0.  0.
        3    1    3    3  502    0  0.79514474537E+03  0.92310559955E+03  0.17471189571E+04  0.21299774117E+04  0.10100000352E+00 0. -1.
       -3    1    3    3    0  502 -0.79514474537E+03 -0.92310559955E+03 -0.66229266499E+03  0.13867266127E+04  0.10100000352E+00 0.  1.
</event>
<event>
 5   0  0.3671997E-06  0.2103545E+04  0.7818609E-02  0.8559684E-01
        2   -1    0    0  501    0  0.00000000000E+00  0.00000000000E+00  0.13882375393E+04  0.13882375393E+04  0.25500000920E-02 0. -1.
       -2   -1    0    0    0  501  0.00000000000E+00  0.00000000000E+00 -0.79685572676E+03  0.79685572677E+03  0.25500000920E-02 0.  1.
    10030    2    1    2    0    0  0.00000000000E+00  0.00000000000E+00  0.59138181251E+03  0.21850932660E+04  0.21035446592E+04 0.  0.
        2    1    3    3  502    0  0.41319759503E+03 -0.89530431853E+03 -0.84451008983E+02  0.98966360357E+03  0.25500000920E-02 0.  1.
       -2    1    3    3    0  502 -0.41319759503E+03  0.89530431853E+03  0.67583282149E+03  0.11954296625E+04  0.25500000920E-02 0. -1.
</event>
<event>
 5   0  0.1339825E-06  0.3261010E+04  0.7818609E-02  0.8172888E-01
       -1   -1    0    0    0  501  0.00000000000E+00  0.00000000000E+00  0.15222073861E+04  0.15222073862E+04  0.50400001928E-02 0.  1.
        1   -1    0    0  501    0  0.00000000000E+00  0.00000000000E+00 -0.17465069752E+04  0.17465069752E+04  0.50400001928E-02 0. -1.
    10030    2    1    2    0    0  0.00000000000E+00  0.00000000000E+00 -0.22429958901E+03  0.32687143613E+04  0.32610095477E+04 0.  0.
        3    1    3    3  502    0 -0.11648227768E+04 -0.49629423504E+03 -0.11419162515E+04  0.17050198840E+04  0.10100000352E+00 0. -1.
       -3    1    3    3    0  502  0.11648227768E+04  0.49629423504E+03  0.91761666250E+03  0.15636944774E+04  0.10100000352E+00 0.  1.
</event>
<event>
 5   0  0.3812379E-06  0.3294008E+04  0.7818609E-02  0.8164422E-01
       -2   -1    0    0    0  501  0.00000000000E+00  0.00000000000E+00  0.12146341005E+04  0.12146341005E+04  0.25500000920E-02 0. -1.
        2   -1    0    0  501    0  0.00000000000E+00  0.00000000000E+00 -0.22332836945E+04  0.22332836945E+04  0.25500000920E-02 0.  1.
    10030    2    1    2    0    0  0.00000000000E+00  0.00000000000E+00 -0.10186495941E+04  0.34479177950E+04  0.32940082158E+04 0.  0.
        5    1    3    3  502    0 -0.76503275350E+03  0.13729540745E+04 -0.10245878931E+04  0.18761877425E+04  0.46999998093E+01 0. -1.
       -5    1    3    3    0  502  0.76503275350E+03 -0.13729540745E+04  0.59382989761E+01  0.15717300525E+04  0.46999998093E+01 0.  1.
</event>
<event>
 5   0  0.3671997E-06  0.3207956E+04  0.7818609E-02  0.8186719E-01
        2   -1    0    0  501    0  0.00000000000E+00  0.00000000000E+00  0.26532126045E+04  0.26532126045E+04  0.25500000920E-02 0.  1.
       -2   -1    0    0    0  501  0.00000000000E+00  0.00000000000E+00 -0.96967182786E+03  0.96967182787E+03  0.25500000920E-02 0. -1.
    10030    2    1    2    0    0  0.00000000000E+00  0.00000000000E+00  0.16835407766E+04  0.36228844324E+04  0.32079560570E+04 0.  0.
        2    1    3    3  502    0 -0.97888640654E+03 -0.93278099722E+03 -0.13264206320E+03  0.13586364130E+04  0.25500000920E-02 0. -1.
       -2    1    3    3    0  502  0.97888640654E+03  0.93278099722E+03  0.18161828398E+04  0.22642480194E+04  0.25500000920E-02 0.  1.
</event>
<event>
 5   0  0.1405389E-06  0.3250370E+04  0.7818609E-02  0.8175640E-01
       -1   -1    0    0    0  501  0.00000000000E+00  0.00000000000E+00  0.15218037938E+04  0.15218037938E+04  0.50400001928E-02 0.  1.
        1   -1    0    0  501    0  0.00000000000E+00  0.00000000000E+00 -0.17355893203E+04  0.17355893203E+04  0.50400001928E-02 0. -1.
    10030    2    1    2    0    0  0.00000000000E+00  0.00000000000E+00 -0.21378552653E+03  0.32573931140E+04  0.32503700786E+04 0.  0.
        1    1    3    3  502    0  0.56979609131E+03 -0.97975166890E+03 -0.12741606855E+04  0.17053053600E+04  0.50400001928E-02 0. -1.
       -1    1    3    3    0  502 -0.56979609131E+03  0.97975166890E+03  0.10603751590E+04  0.15520877540E+04  0.50400001928E-02 0.  1.
</event>
<event>
 5   0  0.3812379E-06  0.3317274E+04  0.7818609E-02  0.8158514E-01
       -2   -1    0    0    0  501  0.00000000000E+00  0.00000000000E+00  0.13871225879E+04  0.13871225879E+04  0.25500000920E-02 0.  1.
        2   -1    0    0  501    0  0.00000000000E+00  0.00000000000E+00 -0.19832973811E+04  0.19832973811E+04  0.25500000920E-02 0. -1.
    10030    2    1    2    0    0  0.00000000000E+00  0.00000000000E+00 -0.59617479321E+03  0.33704199690E+04  0.33172739386E+04 0.  0.
        5    1    3    3  502    0  0.51551368344E+03 -0.89902574967E+03 -0.16138455106E+04  0.19179471000E+04  0.46999998093E+01 0. -1.
       -5    1    3    3    0  502 -0.51551368344E+03  0.89902574967E+03  0.10176707173E+04  0.14524728690E+04  0.46999998093E+01 0.  1.
</event>
<event>
 5   0  0.3812379E-06  0.3353336E+04  0.7818609E-02  0.8149455E-01
       -2   -1    0    0    0  501  0.00000000000E+00  0.00000000000E+00  0.11132962041E+04  0.11132962041E+04  0.25500000920E-02 0. -1.
        2   -1    0    0  501    0  0.00000000000E+00  0.00000000000E+00 -0.25251287523E+04  0.25251287523E+04  0.25500000920E-02 0.  1.
    10030    2    1    2    0    0  0.00000000000E+00  0.00000000000E+00 -0.14118325482E+04  0.36384249564E+04  0.33533364011E+04 0.  0.
        5    1    3    3  502    0 -0.11133277777E+03  0.43926831636E+03 -0.24574172434E+04  0.24988543854E+04  0.46999998093E+01 0.  1.
       -5    1    3    3    0  502  0.11133277777E+03 -0.43926831636E+03  0.10455846953E+04  0.11395705709E+04  0.46999998093E+01 0. -1.
</event>
<event>
 5   0  0.3896210E-06  0.3182211E+04  0.7818609E-02  0.8193531E-01
       -2   -1    0    0    0  501  0.00000000000E+00  0.00000000000E+00  0.14230477190E+04  0.14230477190E+04  0.25500000920E-02 0.  1.
        2   -1    0    0  501    0  0.00000000000E+00  0.00000000000E+00 -0.17790101657E+04  0.17790101657E+04  0.25500000920E-02 0. -1.
    10030    2    1    2    0    0  0.00000000000E+00  0.00000000000E+00 -0.35596244670E+03  0.32020578846E+04  0.31822107776E+04 0.  0.
        3    1    3    3  502    0 -0.18920717707E+02 -0.18970128456E+03 -0.17674762138E+04  0.17777279734E+04  0.10100000352E+00 0. -1.
       -3    1    3    3    0  502  0.18920717707E+02  0.18970128456E+03  0.14115137671E+04  0.14243299112E+04  0.10100000352E+00 0.  1.
</event>
<event>
 5   0  0.1391878E-06  0.3113253E+04  0.7818609E-02  0.8212110E-01
       -1   -1    0    0    0  501  0.00000000000E+00  0.00000000000E+00  0.11245728221E+04  0.11245728222E+04  0.50400001928E-02 0. -1.
        1   -1    0    0  501    0  0.00000000000E+00  0.00000000000E+00 -0.21546720302E+04  0.21546720302E+04  0.50400001928E-02 0.  1.
    10030    2    1    2    0    0  0.00000000000E+00  0.00000000000E+00 -0.10300992081E+04  0.32792448524E+04  0.31132527079E+04 0.  0.
        2    1    3    3  502    0  0.49059173414E+03  0.14410014967E+04 -0.85785570663E+03  0.17473070642E+04  0.25500000920E-02 0.  1.
       -2    1    3    3    0  502 -0.49059173414E+03 -0.14410014967E+04 -0.17224350143E+03  0.15319377882E+04  0.25500000920E-02 0. -1.
</event>
<event>
 5   0  0.1352708E-06  0.3312624E+04  0.7818609E-02  0.8159691E-01
       -1   -1    0    0    0  501  0.00000000000E+00  0.00000000000E+00  0.16759298036E+04  0.16759298036E+04  0.50400001928E-02 0. -1.
        1   -1    0    0  501    0  0.00000000000E+00  0.00000000000E+00 -0.16369239464E+04  0.16369239464E+04  0.50400001928E-02 0.  1.
    10030    2    1    2    0    0  0.00000000000E+00  0.00000000000E+00  0.39005857261E+02  0.33128537500E+04  0.33126241127E+04 0.  0.
        5    1    3    3  502    0  0.15264199297E+03 -0.11857190687E+04  0.11659323642E+04  0.16699250449E+04  0.46999998093E+01 0. -1.
       -5    1    3    3    0  502 -0.15264199297E+03  0.11857190687E+04 -0.11269265070E+04  0.16429287051E+04  0.46999998093E+01 0.  1.
</event>
<event>
 5   0  0.3671997E-06  0.3212037E+04  0.7818609E-02  0.8185646E-01
       -2   -1    0    0    0  501  0.00000000000E+00  0.00000000000E+00  0.11308119718E+04  0.11308119718E+04  0.25500000920E-02 0.  1.
        2   -1    0    0  501    0  0.00000000000E+00  0.00000000000E+00 -0.22809227104E+04  0.22809227104E+04  0.25500000920E-02 0. -1.
    10030    2    1    2    0    0  0.00000000000E+00  0.00000000000E+00 -0.11501107386E+04  0.34117346822E+04  0.32120365550E+04 0.  0.
        2    1    3    3  502    0  0.10987517424E+04  0.67266584398E+03  0.44350037395E+03  0.13625077287E+04  0.25500000920E-02 0.  1.
       -2    1    3    3    0  502 -0.10987517424E+04 -0.67266584398E+03 -0.15936111126E+04  0.20492269535E+04  0.25500000920E-02 0. -1.
</event>
<event>
 5   0  0.4017247E-06  0.3295018E+04  0.7818609E-02  0.8164164E-01
        2   -1    0    0  501    0  0.00000000000E+00  0.00000000000E+00  0.26942325005E+04  0.26942325005E+04  0.25500000920E-02 0. -1.
       -2   -1    0    0    0  501  0.00000000000E+00  0.00000000000E+00 -0.10074430916E+04  0.10074430916E+04  0.25500000920E-02 0.  1.
    10030    2    1    2    0    0  0.00000000000E+00  0.00000000000E+00  0.16867894089E+04  0.37016755922E+04  0.32950180090E+04 0.  0.
        1    1    3    3  502    0  0.14528171192E+04 -0.16518720884E+03 -0.94559413186E+01  0.14622085387E+04  0.50400001928E-02 0.  1.
       -1    1    3    3    0  502 -0.14528171192E+04  0.16518720884E+03  0.16962453502E+04  0.22394670535E+04  0.50400001928E-02 0. -1.
</event>
<event>
 5   0  0.1282578E-06  0.3335372E+04  0.7818609E-02  0.8153953E-01
       -1   -1    0    0    0  501  0.00000000000E+00  0.00000000000E+00  0.15170691391E+04  0.15170691391E+04  0.50400001928E-02 0. -1.
        1   -1    0    0  501    0  0.00000000000E+00  0.00000000000E+00 -0.18332562641E+04  0.18332562641E+04  0.50400001928E-02 0.  1.
    10030    2    1    2    0    0  0.00000000000E+00  0.00000000000E+00 -0.31618712500E+03  0.33503254032E+04  0.33353719446E+04 0.  0.
        4    1    3    3  502    0 -0.70038640815E+03  0.15134133548E+04 -0.17278054430E+03  0.16765487862E+04  0.12699999809E+01 0. -1.
       -4    1    3    3    0  502  0.70038640815E+03 -0.15134133548E+04 -0.14340658070E+03  0.16737766170E+04  0.12699999809E+01 0.  1.
</event>
<event>
 5   0  0.1339825E-06  0.3267757E+04  0.7818609E-02  0.8171148E-01
        1   -1    0    0  501    0  0.00000000000E+00  0.00000000000E+00  0.17323482333E+04  0.17323482333E+04  0.50400001928E-02 0. -1.
       -1   -1    0    0    0  501  0.00000000000E+00  0.00000000000E+00 -0.15410061664E+04  0.15410061664E+04  0.50400001928E-02 0.  1.
    10030    2    1    2    0    0  0.00000000000E+00  0.00000000000E+00  0.19134206690E+03  0.32733543997E+04  0.32677572185E+04 0.  0.
        3    1    3    3  502    0 -0.71184097102E+03 -0.47245653595E+03  0.14907612909E+04  0.17182264062E+04  0.10100000352E+00 0. -1.
       -3    1    3    3    0  502  0.71184097102E+03  0.47245653595E+03 -0.12994192240E+04  0.15551279935E+04  0.10100000352E+00 0.  1.
</event>
<event>
 5   0  0.3671997E-06  0.3285611E+04  0.7818609E-02  0.8166566E-01
        2   -1    0    0  501    0  0.00000000000E+00  0.00000000000E+00  0.21728491409E+04  0.21728491409E+04  0.25500000920E-02 0.  1.
       -2   -1    0    0    0  501  0.00000000000E+00  0.00000000000E+00 -0.12420605908E+04  0.12420605908E+04  0.25500000920E-02 0. -1.
    10030    2    1    2    0    0  0.00000000000E+00  0.00000000000E+00  0.93078855017E+03  0.34149097317E+04  0.32856112294E+04 0.  0.
        2    1    3    3  502    0  0.53725392767E+03  0.15218093025E+04  0.78450263238E+03  0.17944329791E+04  0.25500000920E-02 0.  1.
       -2    1    3    3    0  502 -0.53725392767E+03 -0.15218093025E+04  0.14628591779E+03  0.16204767526E+04  0.25500000920E-02 0. -1.
</event>
<event>
 5   0  0.1405389E-06  0.3331292E+04  0.7818609E-02  0.8154978E-01
       -1   -1    0    0    0  501  0.00000000000E+00  0.00000000000E+00  0.11653269883E+04  0.11653269883E+04  0.50400001928E-02 0. -1.
        1   -1    0    0  501    0  0.00000000000E+00  0.00000000000E+00 -0.23807708890E+04  0.23807708890E+04  0.50400001928E-02 0.  1.
    10030    2    1    2    0    0  0.00000000000E+00  0.00000000000E+00 -0.12154439007E+04  0.35460978772E+04  0.33312919835E+04 0.  0.
        1    1    3    3  502    0  0.11581774642E+04 -0.64918304480E+03 -0.16783397671E+04  0.21400088874E+04  0.50400001928E-02 0.  1.
       -1    1    3    3    0  502 -0.11581774642E+04  0.64918304480E+03  0.46289586642E+03  0.14060889898E+04  0.50400001928E-02 0. -1.
</event>
<event>
 5   0  0.1405389E-06  0.3293431E+04  0.7818609E-02  0.8164569E-01
       -1   -1    0    0    0  501  0.00000000000E+00  0.00000000000E+00  0.13677642069E+04  0.13677642069E+04  0.50400001928E-02 0.  1.
        1   -1    0    0  501    0  0.00000000000E+00  0.00000000000E+00 -0.19825584971E+04  0.19825584971E+04  0.50400001928E-02 0. -1.
    10030    2    1    2    0    0  0.00000000000E+00  0.00000000000E+00 -0.61479429013E+03  0.33503227040E+04  0.32934313720E+04 0.  0.
        1    1    3    3  502    0 -0.12222515169E+04  0.99809383511E+03 -0.78625402123E+03  0.17630330286E+04  0.50400001928E-02 0. -1.
       -1    1    3    3    0  502  0.12222515169E+04 -0.99809383511E+03  0.17145973110E+03  0.15872896754E+04  0.50400001928E-02 0.  1.
</event>
<event>
 5   0  0.1391878E-06  0.2145363E+04  0.7818609E-02  0.8541520E-01
       -1   -1    0    0    0  501  0.00000000000E+00  0.00000000000E+00  0.53554964238E+03  0.53554964240E+03  0.50400001928E-02 0.  1.
        1   -1    0    0  501    0  0.00000000000E+00  0.00000000000E+00 -0.21485314706E+04  0.21485314707E+04  0.50400001928E-02 0. -1.
    10030    2    1    2    0    0  0.00000000000E+00  0.00000000000E+00 -0.16129818283E+04  0.26840811131E+04  0.21453626834E+04 0.  0.
        2    1    3    3  502    0  0.52267945535E+03 -0.74090101399E+03 -0.15235813454E+04  0.17729715851E+04  0.25500000920E-02 0. -1.
       -2    1    3    3    0  502 -0.52267945535E+03  0.74090101399E+03 -0.89400482885E+02  0.91110952795E+03  0.25500000920E-02 0.  1.
</event>
<event>
 5   0  0.3920487E-06  0.3292313E+04  0.7818609E-02  0.8164854E-01
        2   -1    0    0  501    0  0.00000000000E+00  0.00000000000E+00  0.12684573674E+04  0.12684573674E+04  0.25500000920E-02 0.  1.
       -2   -1    0    0    0  501  0.00000000000E+00  0.00000000000E+00 -0.21363199442E+04  0.21363199442E+04  0.25500000920E-02 0. -1.
    10030    2    1    2    0    0  0.00000000000E+00  0.00000000000E+00 -0.86786257675E+03  0.34047773116E+04  0.32923127265E+04 0.  0.
        4    1    3    3  502    0  0.80234218843E+03  0.75780147682E+03  0.82918937218E+03  0.13804248235E+04  0.12699999809E+01 0.  1.
       -4    1    3    3    0  502 -0.80234218843E+03 -0.75780147682E+03 -0.16970519489E+04  0.20243524880E+04  0.12699999809E+01 0. -1.
</event>
<event>
 5   0  0.3812379E-06  0.3286632E+04  0.7818609E-02  0.8166305E-01
        2   -1    0    0  501    0  0.00000000000E+00  0.00000000000E+00  0.16034428331E+04  0.16034428331E+04  0.25500000920E-02 0.  1.
       -2   -1    0    0    0  501  0.00000000000E+00  0.00000000000E+00 -0.16841808757E+04  0.16841808757E+04  0.25500000920E-02 0. -1.
    10030    2    1    2    0    0  0.00000000000E+00  0.00000000000E+00 -0.80738042528E+02  0.32876237088E+04  0.32866321698E+04 0.  0.
        5    1    3    3  502    0 -0.11096914402E+04  0.98675772018E+03  0.66366131033E+03  0.16265221534E+04  0.46999998093E+01 0.  1.
       -5    1    3    3    0  502  0.11096914402E+04 -0.98675772018E+03 -0.74439935285E+03  0.16611015554E+04  0.46999998093E+01 0. -1.
</event>
<event>
 5   0  0.3920487E-06  0.3274893E+04  0.7818609E-02  0.8169313E-01
       -2   -1    0    0    0  501  0.00000000000E+00  0.00000000000E+00  0.86799515202E+03  0.86799515202E+03  0.25500000920E-02 0. -1.
        2   -1    0    0  501    0  0.00000000000E+00  0.00000000000E+00 -0.30889939462E+04  0.30889939462E+04  0.25500000920E-02 0.  1.
    10030    2    1    2    0    0  0.00000000000E+00  0.00000000000E+00 -0.22209987942E+04  0.39569890982E+04  0.32748934455E+04 0.  0.
        4    1    3    3  502    0  0.90782690470E+03  0.60997528737E+03 -0.25829219438E+04  0.28049433008E+04  0.12699999809E+01 0.  1.
       -4    1    3    3    0  502 -0.90782690470E+03 -0.60997528737E+03  0.36192314966E+03  0.11520457974E+04  0.12699999809E+01 0. -1.
</event>
<event>
 5   0  0.4017247E-06  0.3148971E+04  0.7818609E-02  0.8202425E-01
        2   -1    0    0  501    0  0.00000000000E+00  0.00000000000E+00  0.22581788482E+04  0.22581788482E+04  0.25500000920E-02 0. -1.
       -2   -1    0    0    0  501  0.00000000000E+00  0.00000000000E+00 -0.10977894580E+04  0.10977894580E+04  0.25500000920E-02 0.  1.
    10030    2    1    2    0    0  0.00000000000E+00  0.00000000000E+00  0.11603893903E+04  0.33559683062E+04  0.31489712185E+04 0.  0.
        1    1    3    3  502    0 -0.25288201772E+02  0.25269257136E+03 -0.10758186605E+04  0.11053862759E+04  0.50400001928E-02 0.  1.
       -1    1    3    3    0  502  0.25288201772E+02 -0.25269257136E+03  0.22362080507E+04  0.22505820303E+04  0.50400001928E-02 0. -1.
</event>
<event>
 5   0  0.3812379E-06  0.3280877E+04  0.7818609E-02  0.8167778E-01
        2   -1    0    0  501    0  0.00000000000E+00  0.00000000000E+00  0.13963494357E+04  0.13963494357E+04  0.25500000920E-02 0.  1.
       -2   -1    0    0    0  501  0.00000000000E+00  0.00000000000E+00 -0.19271958962E+04  0.19271958962E+04  0.25500000920E-02 0. -1.
    10030    2    1    2    0    0  0.00000000000E+00  0.00000000000E+00 -0.53084646052E+03  0.33235453318E+04  0.32808772620E+04 0.  0.
        5    1    3    3  502    0 -0.48124248052E+03  0.10172031543E+04  0.94371629672E+03  0.14686453353E+04  0.46999998093E+01 0.  1.
       -5    1    3    3    0  502  0.48124248052E+03 -0.10172031543E+04 -0.14745627572E+04  0.18548999965E+04  0.46999998093E+01 0. -1.
</event>
<event>
 5   0  0.3896210E-06  0.3287691E+04  0.7818609E-02  0.8166035E-01
       -2   -1    0    0    0  501  0.00000000000E+00  0.00000000000E+00  0.14644624289E+04  0.14644624289E+04  0.25500000920E-02 0. -1.
        2   -1    0    0  501    0  0.00000000000E+00  0.00000000000E+00 -0.18452009225E+04  0.18452009225E+04  0.25500000920E-02 0.  1.
    10030    2    1    2    0    0  0.00000000000E+00  0.00000000000E+00 -0.38073849355E+03  0.33096633514E+04  0.32876906331E+04 0.  0.
        3    1    3    3  502    0 -0.40098333835E+03 -0.10728546724E+04 -0.13774118065E+04  0.17913871945E+04  0.10100000352E+00 0.  1.
       -3    1    3    3    0  502  0.40098333835E+03  0.10728546724E+04  0.99667331293E+03  0.15182761569E+04  0.10100000352E+00 0. -1.
</event>
<event>
 5   0  0.3920487E-06  0.3247976E+04  0.7818609E-02  0.8176261E-01
       -2   -1    0    0    0  501  0.00000000000E+00  0.00000000000E+00  0.17815249658E+04  0.17815249658E+04  0.25500000920E-02 0.  1.
        2   -1    0    0  501    0  0.00000000000E+00  0.00000000000E+00 -0.14803816843E+04  0.14803816843E+04  0.25500000920E-02 0. -1.
    10030    2    1    2    0    0  0.00000000000E+00  0.00000000000E+00  0.30114328144E+03  0.32619066501E+04  0.32479759418E+04 0.  0.
        4    1    3    3  502    0 -0.73742822949E+03  0.76310492658E+03  0.13851553143E+04  0.17449316263E+04  0.12699999809E+01 0.  1.
       -4    1    3    3    0  502  0.73742822949E+03 -0.76310492658E+03 -0.10840120329E+04  0.15169750239E+04  0.12699999809E+01 0. -1.
</event>
<event>
 5   0  0.1339825E-06  0.3308944E+04  0.7818609E-02  0.8160623E-01
        1   -1    0    0  501    0  0.00000000000E+00  0.00000000000E+00  0.19124135997E+04  0.19124135997E+04  0.50400001928E-02 0. -1.
       -1   -1    0    0    0  501  0.00000000000E+00  0.00000000000E+00 -0.14313207696E+04  0.14313207696E+04  0.50400001928E-02 0.  1.
    10030    2    1    2    0    0  0.00000000000E+00  0.00000000000E+00  0.48109283014E+03  0.33437343694E+04  0.33089438227E+04 0.  0.
        3    1    3    3  502    0  0.12170440675E+04 -0.11206768739E+04  0.22759064910E+03  0.16700031233E+04  0.10100000352E+00 0. -1.
       -3    1    3    3    0  502 -0.12170440675E+04  0.11206768739E+04  0.25350218104E+03  0.16737312461E+04  0.10100000352E+00 0.  1.
</event>
<event>
 5   0  0.1391878E-06  0.3300689E+04  0.7818609E-02  0.8162720E-01
        1   -1    0    0  501    0  0.00000000000E+00  0.00000000000E+00  0.25504321995E+04  0.25504321995E+04  0.50400001928E-02 0.  1.
       -1   -1    0    0    0  501  0.00000000000E+00  0.00000000000E+00 -0.10679116483E+04  0.10679116483E+04  0.50400001928E-02 0. -1.
    10030    2    1    2    0    0  0.00000000000E+00  0.00000000000E+00  0.14825205512E+04  0.36183438478E+04  0.33006885669E+04 0.  0.
        2    1    3    3  502    0  0.94232440783E+03  0.13547011826E+04  0.76440287334E+03  0.18186539903E+04  0.25500000920E-02 0.  1.
       -2    1    3    3    0  502 -0.94232440783E+03 -0.13547011826E+04  0.71811767784E+03  0.17996898574E+04  0.25500000920E-02 0. -1.
</event>
<event>
 5   0  0.1352708E-06  0.3221596E+04  0.7818609E-02  0.8183137E-01
        1   -1    0    0  501    0  0.00000000000E+00  0.00000000000E+00  0.20306898440E+04  0.20306898440E+04  0.50400001928E-02 0.  1.
       -1   -1    0    0    0  501  0.00000000000E+00  0.00000000000E+00 -0.12777288156E+04  0.12777288156E+04  0.50400001928E-02 0. -1.
    10030    2    1    2    0    0  0.00000000000E+00  0.00000000000E+00  0.75296102842E+03  0.33084186595E+04  0.32215964546E+04 0.  0.
        5    1    3    3  502    0  0.37613745145E+03  0.15485051399E+04  0.13498061853E+03  0.15992465126E+04  0.46999998093E+01 0. -1.
       -5    1    3    3    0  502 -0.37613745145E+03 -0.15485051399E+04  0.61798040989E+03  0.17091721469E+04  0.46999998093E+01 0.  1.
</event>
<event>
 5   0  0.3920487E-06  0.3337046E+04  0.7818609E-02  0.8153532E-01
       -2   -1    0    0    0  501  0.00000000000E+00  0.00000000000E+00  0.83718094110E+03  0.83718094110E+03  0.25500000920E-02 0.  1.
        2   -1    0    0  501    0  0.00000000000E+00  0.00000000000E+00 -0.33254099074E+04  0.33254099074E+04  0.25500000920E-02 0. -1.
    10030    2    1    2    0    0  0.00000000000E+00  0.00000000000E+00 -0.24882289663E+04  0.41625908485E+04  0.33370464760E+04 0.  0.
        4    1    3    3  502    0  0.12003374859E+04 -0.94800552332E+03 -0.41252342061E+03  0.15842038183E+04  0.12699999809E+01 0.  1.
       -4    1    3    3    0  502 -0.12003374859E+04  0.94800552332E+03 -0.20757055457E+04  0.25783870302E+04  0.12699999809E+01 0. -1.
</event>
<event>
 5   0  0.1405389E-06  0.3384605E+04  0.7818609E-02  0.8141695E-01
        1   -1    0    0  501    0  0.00000000000E+00  0.00000000000E+00  0.22629082959E+04  0.22629082959E+04  0.50400001928E-02 0. -1.
       -1   -1    0    0    0  501  0.00000000000E+00  0.00000000000E+00 -0.12655784167E+04  0.12655784167E+04  0.50400001928E-02 0.  1.
    10030    2    1    2    0    0  0.00000000000E+00  0.00000000000E+00  0.99732987917E+03  0.35284867126E+04  0.33846050868E+04 0.  0.
        1    1    3    3  502    0 -0.87696839833E+03 -0.13193503634E+04 -0.12171992863E+03  0.15888910265E+04  0.50400001928E-02 0.  1.
       -1    1    3    3    0  502  0.87696839833E+03  0.13193503634E+04  0.11190498078E+04  0.19395956861E+04  0.50400001928E-02 0. -1.
</event>
<event>
 5   0  0.1352708E-06  0.3255746E+04  0.7818609E-02  0.8174248E-01
        1   -1    0    0  501    0  0.00000000000E+00  0.00000000000E+00  0.18983903323E+04  0.18983903323E+04  0.50400001928E-02 0. -1.
       -1   -1    0    0    0  501  0.00000000000E+00  0.00000000000E+00 -0.13959036523E+04  0.13959036523E+04  0.50400001928E-02 0.  1.
    10030    2    1    2    0    0  0.00000000000E+00  0.00000000000E+00  0.50248668007E+03  0.32942939846E+04  0.32557456893E+04 0.  0.
        5    1    3    3  502    0  0.14505370276E+04  0.73827471021E+03  0.28058133185E+03  0.16516219876E+04  0.46999998093E+01 0. -1.
       -5    1    3    3    0  502 -0.14505370276E+04 -0.73827471021E+03  0.22190534822E+03  0.16426719970E+04  0.46999998093E+01 0.  1.
</event>
<event>
 5   0  0.1405389E-06  0.2150647E+04  0.7818609E-02  0.8539255E-01
        1   -1    0    0  501    0  0.00000000000E+00  0.00000000000E+00  0.24570736766E+04  0.24570736766E+04  0.50400001928E-02 0. -1.
       -1   -1    0    0    0  501  0.00000000000E+00  0.00000000000E+00 -0.47060903404E+03  0.47060903406E+03  0.50400001928E-02 0.  1.
    10030    2    1    2    0    0  0.00000000000E+00  0.00000000000E+00  0.19864646426E+04  0.29276827107E+04  0.21506474091E+04 0.  0.
        1    1    3    3  502    0 -0.30033723209E+03 -0.82885678970E+02 -0.40781801342E+03  0.51321342622E+03  0.50400001928E-02 0.  1.
       -1    1    3    3    0  502  0.30033723209E+03  0.82885678970E+02  0.23942826560E+04  0.24144692844E+04  0.50400001928E-02 0. -1.
</event>
<event>
 5   0  0.1391878E-06  0.3280026E+04  0.7818609E-02  0.8167996E-01
       -1   -1    0    0    0  501  0.00000000000E+00  0.00000000000E+00  0.11467504929E+04  0.11467504929E+04  0.50400001928E-02 0.  1.
        1   -1    0    0  501    0  0.00000000000E+00  0.00000000000E+00 -0.23454471937E+04  0.23454471937E+04  0.50400001928E-02 0. -1.
    10030    2    1    2    0    0  0.00000000000E+00  0.00000000000E+00 -0.11986967008E+04  0.34921976866E+04  0.32800260520E+04 0.  0.
        2    1    3    3  502    0  0.13881631245E+04 -0.61718820455E+03 -0.12571524763E+04  0.19718900803E+04  0.25500000920E-02 0. -1.
       -2    1    3    3    0  502 -0.13881631245E+04  0.61718820455E+03  0.58455775515E+02  0.15203076063E+04  0.25500000920E-02 0.  1.
</event>
<event>
 5   0  0.3812379E-06  0.3344746E+04  0.7818609E-02  0.8151602E-01
       -2   -1    0    0    0  501  0.00000000000E+00  0.00000000000E+00  0.25196646848E+04  0.25196646848E+04  0.25500000920E-02 0.  1.
        2   -1    0    0  501    0  0.00000000000E+00  0.00000000000E+00 -0.11100011936E+04  0.11100011936E+04  0.25500000920E-02 0. -1.
    10030    2    1    2    0    0  0.00000000000E+00  0.00000000000E+00  0.14096634912E+04  0.36296658784E+04  0.33447456152E+04 0.  0.
        5    1    3    3  502    0 -0.15498019075E+03  0.15698308810E+04  0.13074959956E+04  0.20488913399E+04  0.46999998093E+01 0. -1.
       -5    1    3    3    0  502  0.15498019075E+03 -0.15698308810E+04  0.10216749563E+03  0.15807745385E+04  0.46999998093E+01 0.  1.
</event>
<event>
 5   0  0.3920487E-06  0.3296406E+04  0.7818609E-02  0.8163810E-01
       -2   -1    0    0    0  501  0.00000000000E+00  0.00000000000E+00  0.12733344231E+04  0.12733344231E+04  0.25500000920E-02 0.  1.
        2   -1    0    0  501    0  0.00000000000E+00  0.00000000000E+00 -0.21334329012E+04  0.21334329012E+04  0.25500000920E-02 0. -1.
    10030    2    1    2    0    0  0.00000000000E+00  0.00000000000E+00 -0.86009847811E+03  0.34067673242E+04  0.32964062567E+04 0.  0.
        4    1    3    3  502    0 -0.63155356438E+02 -0.67069837694E+01  0.12720688507E+04  0.12736539391E+04  0.12699999809E+01 0.  1.
       -4    1    3    3    0  502  0.63155356438E+02  0.67069837694E+01 -0.21321673289E+04  0.21331133851E+04  0.12699999809E+01 0. -1.
</event>
<event>
 5   0  0.1339825E-06  0.3285583E+04  0.7818609E-02  0.8166573E-01
       -1   -1    0    0    0  501  0.00000000000E+00  0.00000000000E+00  0.16254473537E+04  0.16254473537E+04  0.50400001928E-02 0.  1.
        1   -1    0    0  501    0  0.00000000000E+00  0.00000000000E+00 -0.16603211844E+04  0.16603211844E+04  0.50400001928E-02 0. -1.
    10030    2    1    2    0    0  0.00000000000E+00  0.00000000000E+00 -0.34873830654E+02  0.32857685381E+04  0.32855834644E+04 0.  0.
        3    1    3    3  502    0 -0.43845070433E+03  0.76875528969E+02  0.15639857102E+04  0.16260996830E+04  0.10100000352E+00 0.  1.
       -3    1    3    3    0  502  0.43845070433E+03 -0.76875528969E+02 -0.15988595408E+04  0.16596688551E+04  0.10100000352E+00 0. -1.
</event>
<event>
 5   0  0.1391878E-06  0.3307047E+04  0.7818609E-02  0.8161105E-01
        1   -1    0    0  501    0  0.00000000000E+00  0.00000000000E+00  0.90253838061E+03  0.90253838063E+03  0.50400001928E-02 0.  1.
       -1   -1    0    0    0  501  0.00000000000E+00  0.00000000000E+00 -0.30293893936E+04  0.30293893936E+04  0.50400001928E-02 0. -1.
    10030    2    1    2    0    0  0.00000000000E+00  0.00000000000E+00 -0.21268510130E+04  0.39319277742E+04  0.33070471406E+04 0.  0.
        2    1    3    3  502    0  0.27608456938E+03  0.33040139438E+03 -0.29615687009E+04  0.29927039514E+04  0.25500000920E-02 0. -1.
       -2    1    3    3    0  502 -0.27608456938E+03 -0.33040139438E+03  0.83471768789E+03  0.93922382281E+03  0.25500000920E-02 0.  1.
</event>
<event>
 5   0  0.3671997E-06  0.3229346E+04  0.7818609E-02  0.8181110E-01
        2   -1    0    0  501    0  0.00000000000E+00  0.00000000000E+00  0.13354174431E+04  0.13354174431E+04  0.25500000920E-02 0.  1.
       -2   -1    0    0    0  501  0.00000000000E+00  0.00000000000E+00 -0.19523247358E+04  0.19523247358E+04  0.25500000920E-02 0. -1.
    10030    2    1    2    0    0  0.00000000000E+00  0.00000000000E+00 -0.61690729271E+03  0.32877421788E+04  0.32293457583E+04 0.  0.
        2    1    3    3  502    0 -0.10272821473E+04  0.23352861746E+03  0.93732574052E+03  0.14101148071E+04  0.25500000920E-02 0.  1.
       -2    1    3    3    0  502  0.10272821473E+04 -0.23352861746E+03 -0.15542330332E+04  0.18776273717E+04  0.25500000920E-02 0. -1.
</event>
<event>
 5   0  0.1405389E-06  0.3590806E+04  0.7818609E-02  0.8092601E-01
       -1   -1    0    0    0  501  0.00000000000E+00  0.00000000000E+00  0.15278120320E+04  0.15278120321E+04  0.50400001928E-02 0.  1.
        1   -1    0    0  501    0  0.00000000000E+00  0.00000000000E+00 -0.21098612120E+04  0.21098612120E+04  0.50400001928E-02 0. -1.
    10030    2    1    2    0    0  0.00000000000E+00  0.00000000000E+00 -0.58204917993E+03  0.36376732440E+04  0.35908056732E+04 0.  0.
        1    1    3    3  502    0 -0.36645698055E+03 -0.14079171738E+04 -0.13568737755E+04  0.19893787798E+04  0.50400001928E-02 0. -1.
       -1    1    3    3    0  502  0.36645698055E+03  0.14079171738E+04  0.77482459559E+03  0.16482944642E+04  0.50400001928E-02 0.  1.
</event>
<event>
 5   0  0.3920487E-06  0.2189963E+04  0.7818609E-02  0.8522617E-01
       -2   -1    0    0    0  501  0.00000000000E+00  0.00000000000E+00  0.48867924155E+03  0.48867924156E+03  0.25500000920E-02 0.  1.
        2   -1    0    0  501    0  0.00000000000E+00  0.00000000000E+00 -0.24535199757E+04  0.24535199757E+04  0.25500000920E-02 0. -1.
    10030    2    1    2    0    0  0.00000000000E+00  0.00000000000E+00 -0.19648407342E+04  0.29421992173E+04  0.21899628133E+04 0.  0.
        4    1    3    3  502    0 -0.10746073571E+04 -0.17957359882E+03 -0.11293165344E+04  0.15691988711E+04  0.12699999809E+01 0. -1.
       -4    1    3    3    0  502  0.10746073571E+04  0.17957359882E+03 -0.83552419974E+03  0.13730003462E+04  0.12699999809E+01 0.  1.
</event>
<event>
 5   0  0.1405389E-06  0.3339935E+04  0.7818609E-02  0.8152808E-01
       -1   -1    0    0    0  501  0.00000000000E+00  0.00000000000E+00  0.18526047792E+04  0.18526047792E+04  0.50400001928E-02 0.  1.
        1   -1    0    0  501    0  0.00000000000E+00  0.00000000000E+00 -0.15053352360E+04  0.15053352360E+04  0.50400001928E-02 0. -1.
    10030    2    1    2    0    0  0.00000000000E+00  0.00000000000E+00  0.34726954322E+03  0.33579400153E+04  0.33399348812E+04 0.  0.
        1    1    3    3  502    0  0.31640606551E+03  0.27548496529E+03  0.17987602350E+04  0.18470363146E+04  0.50400001928E-02 0.  1.
       -1    1    3    3    0  502 -0.31640606551E+03 -0.27548496529E+03 -0.14514906918E+04  0.15109037007E+04  0.50400001928E-02 0. -1.
</event>
<event>
 5   0  0.1405389E-06  0.3304557E+04  0.7818609E-02  0.8161737E-01
        1   -1    0    0  501    0  0.00000000000E+00  0.00000000000E+00  0.24438339910E+04  0.24438339910E+04  0.50400001928E-02 0.  1.
       -1   -1    0    0    0  501  0.00000000000E+00  0.00000000000E+00 -0.11171072585E+04  0.11171072585E+04  0.50400001928E-02 0. -1.
    10030    2    1    2    0    0  0.00000000000E+00  0.00000000000E+00  0.13267267325E+04  0.35609412495E+04  0.33045572714E+04 0.  0.
        1    1    3    3  502    0 -0.85383808791E+03 -0.45027760668E+03  0.21083864445E+04  0.23188537692E+04  0.50400001928E-02 0.  1.
       -1    1    3    3    0  502  0.85383808791E+03  0.45027760668E+03 -0.78165971199E+03  0.12420874803E+04  0.50400001928E-02 0. -1.
</event>
<event>
 5   0  0.3896210E-06  0.3131372E+04  0.7818609E-02  0.8207181E-01
       -2   -1    0    0    0  501  0.00000000000E+00  0.00000000000E+00  0.11173514187E+04  0.11173514187E+04  0.25500000920E-02 0.  1.
        2   -1    0    0  501    0  0.00000000000E+00  0.00000000000E+00 -0.21939135512E+04  0.21939135512E+04  0.25500000920E-02 0. -1.
    10030    2    1    2    0    0  0.00000000000E+00  0.00000000000E+00 -0.10765621324E+04  0.33112649699E+04  0.31313718520E+04 0.  0.
        3    1    3    3  502    0  0.32748329586E+03 -0.11796439526E+03  0.10759175180E+04  0.11308224544E+04  0.10100000352E+00 0.  1.
       -3    1    3    3    0  502 -0.32748329586E+03  0.11796439526E+03 -0.21524796504E+04  0.21804425155E+04  0.10100000352E+00 0. -1.
</event>
<event>
 5   0  0.1352708E-06  0.3019433E+04  0.7818609E-02  0.8238203E-01
       -1   -1    0    0    0  501  0.00000000000E+00  0.00000000000E+00  0.18778078118E+04  0.18778078118E+04  0.50400001928E-02 0.  1.
        1   -1    0    0  501    0  0.00000000000E+00  0.00000000000E+00 -0.12137789114E+04  0.12137789114E+04  0.50400001928E-02 0. -1.
    10030    2    1    2    0    0  0.00000000000E+00  0.00000000000E+00  0.66402890040E+03  0.30915867233E+04  0.30194327426E+04 0.  0.
        5    1    3    3  502    0  0.18899782382E+03 -0.29770496910E+03 -0.11710130049E+04  0.12229644205E+04  0.46999998093E+01 0. -1.
       -5    1    3    3    0  502 -0.18899782382E+03  0.29770496910E+03  0.18350419053E+04  0.18686223028E+04  0.46999998093E+01 0.  1.
</event>
<event>
 5   0  0.3896210E-06  0.3254745E+04  0.7818609E-02  0.8174507E-01
        2   -1    0    0  501    0  0.00000000000E+00  0.00000000000E+00  0.19594828651E+04  0.19594828651E+04  0.25500000920E-02 0.  1.
       -2   -1    0    0    0  501  0.00000000000E+00  0.00000000000E+00 -0.13515512696E+04  0.13515512696E+04  0.25500000920E-02 0. -1.
    10030    2    1    2    0    0  0.00000000000E+00  0.00000000000E+00  0.60793159554E+03  0.33110341346E+04  0.32547451845E+04 0.  0.
        3    1    3    3  502    0  0.11162691713E+04 -0.53971523016E+03  0.13762308719E+04  0.18523932670E+04  0.10100000352E+00 0.  1.
       -3    1    3    3    0  502 -0.11162691713E+04  0.53971523016E+03 -0.76829927638E+03  0.14586408677E+04  0.10100000352E+00 0. -1.
</event>
<event>
 5   0  0.3920487E-06  0.2186219E+04  0.7818609E-02  0.8524186E-01
       -2   -1    0    0    0  501  0.00000000000E+00  0.00000000000E+00  0.13637718543E+04  0.13637718543E+04  0.25500000920E-02 0.  1.
        2   -1    0    0  501    0  0.00000000000E+00  0.00000000000E+00 -0.87616436719E+03  0.87616436719E+03  0.25500000920E-02 0. -1.
    10030    2    1    2    0    0  0.00000000000E+00  0.00000000000E+00  0.48760748711E+03  0.22399362215E+04  0.21862189311E+04 0.  0.
        4    1    3    3  502    0  0.13209836763E+01  0.10929102279E+04  0.26510347624E+03  0.11246048093E+04  0.12699999809E+01 0.  1.
       -4    1    3    3    0  502 -0.13209836763E+01 -0.10929102279E+04  0.22250401087E+03  0.11153314122E+04  0.12699999809E+01 0. -1.
</event>
<event>
 5   0  0.3896210E-06  0.3402173E+04  0.7818609E-02  0.8137373E-01
        2   -1    0    0  501    0  0.00000000000E+00  0.00000000000E+00  0.28187665100E+04  0.28187665100E+04  0.25500000920E-02 0. -1.
       -2   -1    0    0    0  501  0.00000000000E+00  0.00000000000E+00 -0.10265820820E+04  0.10265820820E+04  0.25500000920E-02 0.  1.
    10030    2    1    2    0    0  0.00000000000E+00  0.00000000000E+00  0.17921844280E+04  0.38453485920E+04  0.34021729483E+04 0.  0.
        3    1    3    3  502    0 -0.13573140104E+04 -0.44657602544E+03  0.19393457797E+04  0.24088988216E+04  0.10100000352E+00 0. -1.
       -3    1    3    3    0  502  0.13573140104E+04  0.44657602544E+03 -0.14716135168E+03  0.14364497704E+04  0.10100000352E+00 0.  1.
</event>
<event>
 5   0  0.4017247E-06  0.3139950E+04  0.7818609E-02  0.8204859E-01
        2   -1    0    0  501    0  0.00000000000E+00  0.00000000000E+00  0.18234497353E+04  0.18234497353E+04  0.25500000920E-02 0.  1.
       -2   -1    0    0    0  501  0.00000000000E+00  0.00000000000E+00 -0.13517354016E+04  0.13517354016E+04  0.25500000920E-02 0. -1.
    10030    2    1    2    0    0  0.00000000000E+00  0.00000000000E+00  0.47171433370E+03  0.31751851370E+04  0.31399500380E+04 0.  0.
        1    1    3    3  502    0  0.98139793980E+03  0.11458990753E+04 -0.20329127753E+03  0.15223514544E+04  0.50400001928E-02 0. -1.
       -1    1    3    3    0  502 -0.98139793980E+03 -0.11458990753E+04  0.67500561123E+03  0.16528336826E+04  0.50400001928E-02 0.  1.
</event>
<event>
 5   0  0.1391878E-06  0.2752250E+04  0.7818609E-02  0.8318248E-01
        1   -1    0    0  501    0  0.00000000000E+00  0.00000000000E+00  0.20358227284E+04  0.20358227284E+04  0.50400001928E-02 0. -1.
       -1   -1    0    0    0  501  0.00000000000E+00  0.00000000000E+00 -0.93019897465E+03  0.93019897467E+03  0.50400001928E-02 0.  1.
    10030    2    1    2    0    0  0.00000000000E+00  0.00000000000E+00  0.11056237538E+04  0.29660217031E+04  0.27522501446E+04 0.  0.
        2    1    3    3  502    0  0.58172585143E+03 -0.11489644013E+04  0.30173332343E+02  0.12881904330E+04  0.25500000920E-02 0.  1.
       -2    1    3    3    0  502 -0.58172585143E+03  0.11489644013E+04  0.10754504214E+04  0.16778312700E+04  0.25500000920E-02 0. -1.
</event>
<event>
 5   0  0.1282578E-06  0.3210660E+04  0.7818609E-02  0.8186007E-01
        1   -1    0    0  501    0  0.00000000000E+00  0.00000000000E+00  0.14772582227E+04  0.14772582227E+04  0.50400001928E-02 0.  1.
       -1   -1    0    0    0  501  0.00000000000E+00  0.00000000000E+00 -0.17445054902E+04  0.17445054902E+04  0.50400001928E-02 0. -1.
    10030    2    1    2    0    0  0.00000000000E+00  0.00000000000E+00 -0.26724726745E+03  0.32217637129E+04  0.32106604180E+04 0.  0.
        4    1    3    3  502    0  0.85643304440E+03 -0.13464930402E+04 -0.30904926263E+03  0.16254335195E+04  0.12699999809E+01 0. -1.
       -4    1    3    3    0  502 -0.85643304440E+03  0.13464930402E+04  0.41801995179E+02  0.15963301934E+04  0.12699999809E+01 0.  1.
</event>
<event>
 5   0  0.3812379E-06  0.2849529E+04  0.7818609E-02  0.8288054E-01
       -2   -1    0    0    0  501  0.00000000000E+00  0.00000000000E+00  0.10889858227E+04  0.10889858227E+04  0.25500000920E-02 0. -1.
        2   -1    0    0  501    0  0.00000000000E+00  0.00000000000E+00 -0.18640778585E+04  0.18640778586E+04  0.25500000920E-02 0.  1.
    10030    2    1    2    0    0  0.00000000000E+00  0.00000000000E+00 -0.77509203583E+03  0.29530636813E+04  0.28495293369E+04 0.  0.
        5    1    3    3  502    0 -0.93105384490E+03 -0.14039155968E+03 -0.14956777937E+04  0.17673837175E+04  0.46999998093E+01 0.  1.
       -5    1    3    3    0  502  0.93105384490E+03  0.14039155968E+03  0.72058575787E+03  0.11856799638E+04  0.46999998093E+01 0. -1.
</event>
<event>
 5   0  0.1405389E-06  0.3377254E+04  0.7818609E-02  0.8143511E-01
       -1   -1    0    0    0  501  0.00000000000E+00  0.00000000000E+00  0.14845409795E+04  0.14845409795E+04  0.50400001928E-02 0.  1.
        1   -1    0    0  501    0  0.00000000000E+00  0.00000000000E+00 -0.19207701045E+04  0.19207701045E+04  0.50400001928E-02 0. -1.
    10030    2    1    2    0    0  0.00000000000E+00  0.00000000000E+00 -0.43622912495E+03  0.34053110840E+04  0.33772544662E+04 0.  0.
        1    1    3    3  502    0  0.14603500857E+04  0.56359868066E+03 -0.85677696664E+03  0.17844698417E+04  0.50400001928E-02 0. -1.
       -1    1    3    3    0  502 -0.14603500857E+04 -0.56359868066E+03  0.42054784169E+03  0.16208412423E+04  0.50400001928E-02 0.  1.
</event>
<event>
 5   0  0.1282578E-06  0.3338847E+04  0.7818609E-02  0.8153081E-01
       -1   -1    0    0    0  501  0.00000000000E+00  0.00000000000E+00  0.13268613480E+04  0.13268613480E+04  0.50400001928E-02 0.  1.
        1   -1    0    0  501    0  0.00000000000E+00  0.00000000000E+00 -0.21004259504E+04  0.21004259505E+04  0.50400001928E-02 0. -1.
    10030    2    1    2    0    0  0.00000000000E+00  0.00000000000E+00 -0.77356460245E+03  0.34272872985E+04  0.33388465122E+04 0.  0.
        4    1    3    3  502    0  0.29457083599E+03  0.10386186475E+04  0.92031749287E+03  0.14186213635E+04  0.12699999809E+01 0.  1.
       -4    1    3    3    0  502 -0.29457083599E+03 -0.10386186475E+04 -0.16938820953E+04  0.20086659349E+04  0.12699999809E+01 0. -1.
</event>
<event>
 5   0  0.1352708E-06  0.3373689E+04  0.7818609E-02  0.8144394E-01
        1   -1    0    0  501    0  0.00000000000E+00  0.00000000000E+00  0.19234325599E+04  0.19234325599E+04  0.50400001928E-02 0.  1.
       -1   -1    0    0    0  501  0.00000000000E+00  0.00000000000E+00 -0.14793570931E+04  0.14793570931E+04  0.50400001928E-02 0. -1.
    10030    2    1    2    0    0  0.00000000000E+00  0.00000000000E+00  0.44407546685E+03  0.34027896530E+04  0.33736885455E+04 0.  0.
        5    1    3    3  502    0 -0.69406546776E+03 -0.56520616109E+03 -0.12200633403E+04  0.15131957978E+04  0.46999998093E+01 0. -1.
       -5    1    3    3    0  502  0.69406546776E+03  0.56520616109E+03  0.16641388072E+04  0.18895938552E+04  0.46999998093E+01 0.  1.
</event>
<event>
 5   0  0.3920487E-06  0.3364922E+04  0.7818609E-02  0.8146570E-01
        2   -1    0    0  501    0  0.00000000000E+00  0.00000000000E+00  0.26949017537E+04  0.26949017537E+04  0.25500000920E-02 0. -1.
       -2   -1    0    0    0  501  0.00000000000E+00  0.00000000000E+00 -0.10503813973E+04  0.10503813973E+04  0.25500000920E-02 0.  1.
    10030    2    1    2    0    0  0.00000000000E+00  0.00000000000E+00  0.16445203564E+04  0.37452831510E+04  0.33649217938E+04 0.  0.
        4    1    3    3  502    0 -0.74679962758E+03 -0.12205147674E+04  0.18073497160E+04  0.23051855868E+04  0.12699999809E+01 0. -1.
       -4    1    3    3    0  502  0.74679962758E+03  0.12205147674E+04 -0.16282935953E+03  0.14400975642E+04  0.12699999809E+01 0.  1.
</event>
<event>
 5   0  0.1405389E-06  0.3406424E+04  0.7818609E-02  0.8136331E-01
        1   -1    0    0  501    0  0.00000000000E+00  0.00000000000E+00  0.26945655476E+04  0.26945655476E+04  0.50400001928E-02 0.  1.
       -1   -1    0    0    0  501  0.00000000000E+00  0.00000000000E+00 -0.10765857735E+04  0.10765857735E+04  0.50400001928E-02 0. -1.
    10030    2    1    2    0    0  0.00000000000E+00  0.00000000000E+00  0.16179797741E+04  0.37711513210E+04  0.34064238927E+04 0.  0.
        1    1    3    3  502    0  0.10719803797E+04  0.80480482679E+03 -0.35426580031E+03  0.13864908946E+04  0.50400001928E-02 0. -1.
       -1    1    3    3    0  502 -0.10719803797E+04 -0.80480482679E+03  0.19722455744E+04  0.23846604264E+04  0.50400001928E-02 0.  1.
</event>
<event>
 5   0  0.3671997E-06  0.3989851E+04  0.7818609E-02  0.8006597E-01
       -2   -1    0    0    0  501  0.00000000000E+00  0.00000000000E+00  0.32655462176E+04  0.32655462176E+04  0.25500000920E-02 0.  1.
        2   -1    0    0  501    0  0.00000000000E+00  0.00000000000E+00 -0.12187021487E+04  0.12187021487E+04  0.25500000920E-02 0. -1.
    10030    2    1    2    0    0  0.00000000000E+00  0.00000000000E+00  0.20468440689E+04  0.44842483663E+04  0.39898512214E+04 0.  0.
        2    1    3    3  502    0 -0.95882178130E+03  0.15350892158E+03  0.29820085865E+04  0.31361249030E+04  0.25500000920E-02 0.  1.
       -2    1    3    3    0  502  0.95882178130E+03 -0.15350892158E+03 -0.93516451765E+03  0.13481234633E+04  0.25500000920E-02 0. -1.
</event>
<event>
 5   0  0.3812379E-06  0.3365783E+04  0.7818609E-02  0.8146356E-01
       -2   -1    0    0    0  501  0.00000000000E+00  0.00000000000E+00  0.10693014873E+04  0.10693014873E+04  0.25500000920E-02 0. -1.
        2   -1    0    0  501    0  0.00000000000E+00  0.00000000000E+00 -0.26485729964E+04  0.26485729964E+04  0.25500000920E-02 0.  1.
    10030    2    1    2    0    0  0.00000000000E+00  0.00000000000E+00 -0.15792715091E+04  0.37178744837E+04  0.33657825505E+04 0.  0.
        5    1    3    3  502    0  0.10739850842E+04  0.82420718682E+03  0.31460862521E+03  0.13898784569E+04  0.46999998093E+01 0. -1.
       -5    1    3    3    0  502 -0.10739850842E+04 -0.82420718682E+03 -0.18938801343E+04  0.23279960268E+04  0.46999998093E+01 0.  1.
</event>
<event>
 5   0  0.1339825E-06  0.3317160E+04  0.7818609E-02  0.8158543E-01
       -1   -1    0    0    0  501  0.00000000000E+00  0.00000000000E+00  0.18871132290E+04  0.18871132290E+04  0.50400001928E-02 0. -1.
        1   -1    0    0  501    0  0.00000000000E+00  0.00000000000E+00 -0.14577226299E+04  0.14577226300E+04  0.50400001928E-02 0.  1.
    10030    2    1    2    0    0  0.00000000000E+00  0.00000000000E+00  0.42939059906E+03  0.33448358590E+04  0.33171600258E+04 0.  0.
        3    1    3    3  502    0 -0.16375141757E+04 -0.22297966739E+03  0.73113563341E+02  0.16542424886E+04  0.10100000352E+00 0.  1.
       -3    1    3    3    0  502  0.16375141757E+04  0.22297966739E+03  0.35627703572E+03  0.16905933704E+04  0.10100000352E+00 0. -1.
</event>
<event>
 5   0  0.1352708E-06  0.2742275E+04  0.7818609E-02  0.8321417E-01
        1   -1    0    0  501    0  0.00000000000E+00  0.00000000000E+00  0.23905827934E+04  0.23905827934E+04  0.50400001928E-02 0.  1.
       -1   -1    0    0    0  501  0.00000000000E+00  0.00000000000E+00 -0.78642645299E+03  0.78642645301E+03  0.50400001928E-02 0. -1.
    10030    2    1    2    0    0  0.00000000000E+00  0.00000000000E+00  0.16041563404E+04  0.31770092464E+04  0.27422746375E+04 0.  0.
        5    1    3    3  502    0 -0.99309160824E+02  0.76179797107E+03  0.21178125196E+04  0.22528538382E+04  0.46999998093E+01 0.  1.
       -5    1    3    3    0  502  0.99309160824E+02 -0.76179797107E+03 -0.51365617917E+03  0.92415540822E+03  0.46999998093E+01 0. -1.
</event>
<event>
 5   0  0.3671997E-06  0.3279173E+04  0.7818609E-02  0.8168215E-01
        2   -1    0    0  501    0  0.00000000000E+00  0.00000000000E+00  0.14100989800E+04  0.14100989800E+04  0.25500000920E-02 0.  1.
       -2   -1    0    0    0  501  0.00000000000E+00  0.00000000000E+00 -0.19064222844E+04  0.19064222844E+04  0.25500000920E-02 0. -1.
    10030    2    1    2    0    0  0.00000000000E+00  0.00000000000E+00 -0.49632330438E+03  0.33165212644E+04  0.32791731389E+04 0.  0.
        2    1    3    3  502    0 -0.10964204528E+04 -0.76138833539E+03  0.71472901255E+03  0.15141623321E+04  0.25500000920E-02 0.  1.
       -2    1    3    3    0  502  0.10964204528E+04  0.76138833539E+03 -0.12110523169E+04  0.18023589323E+04  0.25500000920E-02 0. -1.
</event>
<event>
 5   0  0.1282578E-06  0.3298972E+04  0.7818609E-02  0.8163157E-01
        1   -1    0    0  501    0  0.00000000000E+00  0.00000000000E+00  0.19922202792E+04  0.19922202792E+04  0.50400001928E-02 0. -1.
       -1   -1    0    0    0  501  0.00000000000E+00  0.00000000000E+00 -0.13657145815E+04  0.13657145815E+04  0.50400001928E-02 0.  1.
    10030    2    1    2    0    0  0.00000000000E+00  0.00000000000E+00  0.62650569777E+03  0.33579348607E+04  0.32989721338E+04 0.  0.
        4    1    3    3  502    0  0.10015051188E+04  0.10385160629E+04  0.11270896599E+04  0.18308087913E+04  0.12699999809E+01 0. -1.
       -4    1    3    3    0  502 -0.10015051188E+04 -0.10385160629E+04 -0.50058396210E+03  0.15271260694E+04  0.12699999809E+01 0.  1.
</event>
<event>
 5   0  0.3896210E-06  0.2340004E+04  0.7818609E-02  0.8462313E-01
       -2   -1    0    0    0  501  0.00000000000E+00  0.00000000000E+00  0.11918671635E+04  0.11918671635E+04  0.25500000920E-02 0. -1.
        2   -1    0    0  501    0  0.00000000000E+00  0.00000000000E+00 -0.11485375252E+04  0.11485375252E+04  0.25500000920E-02 0.  1.
    10030    2    1    2    0    0  0.00000000000E+00  0.00000000000E+00  0.43329638372E+02  0.23404046887E+04  0.23400035576E+04 0.  0.
        3    1    3    3  502    0  0.64830185818E+03 -0.14562069851E+03 -0.94151815896E+03  0.11523702274E+04  0.10100000352E+00 0.  1.
       -3    1    3    3    0  502 -0.64830185818E+03  0.14562069851E+03  0.98484779733E+03  0.11880344613E+04  0.10100000352E+00 0. -1.
</event>
<event>
 5   0  0.3812379E-06  0.3282989E+04  0.7818609E-02  0.8167237E-01
        2   -1    0    0  501    0  0.00000000000E+00  0.00000000000E+00  0.28917088992E+04  0.28917088992E+04  0.25500000920E-02 0. -1.
       -2   -1    0    0    0  501  0.00000000000E+00  0.00000000000E+00 -0.93180343865E+03  0.93180343865E+03  0.25500000920E-02 0.  1.
    10030    2    1    2    0    0  0.00000000000E+00  0.00000000000E+00  0.19599054605E+04  0.38235123379E+04  0.32829890623E+04 0.  0.
        5    1    3    3  502    0  0.85594748130E+03 -0.17825018514E+03  0.25979537881E+04  0.27411321008E+04  0.46999998093E+01 0. -1.
       -5    1    3    3    0  502 -0.85594748130E+03  0.17825018514E+03 -0.63804832753E+03  0.10823802370E+04  0.46999998093E+01 0.  1.
</event>
<event>
 5   0  0.3920487E-06  0.3226847E+04  0.7818609E-02  0.8181763E-01
       -2   -1    0    0    0  501  0.00000000000E+00  0.00000000000E+00  0.10196899300E+04  0.10196899300E+04  0.25500000920E-02 0.  1.
        2   -1    0    0  501    0  0.00000000000E+00  0.00000000000E+00 -0.25528693594E+04  0.25528693594E+04  0.25500000920E-02 0. -1.
    10030    2    1    2    0    0  0.00000000000E+00  0.00000000000E+00 -0.15331794294E+04  0.35725592893E+04  0.32268468685E+04 0.  0.
        4    1    3    3  502    0  0.79296223274E+03 -0.13907420163E+04 -0.98851768264E+03  0.18815210018E+04  0.12699999809E+01 0.  1.
       -4    1    3    3    0  502 -0.79296223274E+03  0.13907420163E+04 -0.54466174678E+03  0.16910382875E+04  0.12699999809E+01 0. -1.
</event>
<event>
 5   0  0.1282578E-06  0.3324801E+04  0.7818609E-02  0.8156613E-01
        1   -1    0    0  501    0  0.00000000000E+00  0.00000000000E+00  0.20119234479E+04  0.20119234479E+04  0.50400001928E-02 0.  1.
       -1   -1    0    0    0  501  0.00000000000E+00  0.00000000000E+00 -0.13735984212E+04  0.13735984212E+04  0.50400001928E-02 0. -1.
    10030    2    1    2    0    0  0.00000000000E+00  0.00000000000E+00  0.63832502672E+03  0.33855218692E+04  0.33248006688E+04 0.  0.
        4    1    3    3  502    0 -0.39329044238E+03  0.16145478568E+04  0.36616950081E+03  0.17016238921E+04  0.12699999809E+01 0. -1.
       -4    1    3    3    0  502  0.39329044238E+03 -0.16145478568E+04  0.27215552591E+03  0.16838979771E+04  0.12699999809E+01 0.  1.
</event>
<event>
 5   0  0.4017247E-06  0.3120739E+04  0.7818609E-02  0.8210069E-01
       -2   -1    0    0    0  501  0.00000000000E+00  0.00000000000E+00  0.93910530488E+03  0.93910530489E+03  0.25500000920E-02 0. -1.
        2   -1    0    0  501    0  0.00000000000E+00  0.00000000000E+00 -0.25926310598E+04  0.25926310598E+04  0.25500000920E-02 0.  1.
    10030    2    1    2    0    0  0.00000000000E+00  0.00000000000E+00 -0.16535257550E+04  0.35317363647E+04  0.31207393880E+04 0.  0.
        1    1    3    3  502    0  0.84072395451E+03 -0.24537072205E+03 -0.22882454747E+04  0.24501205912E+04  0.50400001928E-02 0.  1.
       -1    1    3    3    0  502 -0.84072395451E+03  0.24537072205E+03  0.63471971973E+03  0.10816157735E+04  0.50400001928E-02 0. -1.
</event>
<event>
 5   0  0.1405389E-06  0.3310309E+04  0.7818609E-02  0.8160277E-01
        1   -1    0    0  501    0  0.00000000000E+00  0.00000000000E+00  0.27256196654E+04  0.27256196654E+04  0.50400001928E-02 0. -1.
       -1   -1    0    0    0  501  0.00000000000E+00  0.00000000000E+00 -0.10051057116E+04  0.10051057117E+04  0.50400001928E-02 0.  1.
    10030    2    1    2    0    0  0.00000000000E+00  0.00000000000E+00  0.17205139538E+04  0.37307253771E+04  0.33103086826E+04 0.  0.
        1    1    3    3  502    0 -0.85307021529E+02 -0.11344596228E+04  0.22151274404E+04  0.24901938681E+04  0.50400001928E-02 0. -1.
       -1    1    3    3    0  502  0.85307021529E+02  0.11344596228E+04 -0.49461348660E+03  0.12405315090E+04  0.50400001928E-02 0.  1.
</event>
<event>
 5   0  0.3920487E-06  0.3286863E+04  0.7818609E-02  0.8166246E-01
        2   -1    0    0  501    0  0.00000000000E+00  0.00000000000E+00  0.14000792180E+04  0.14000792180E+04  0.25500000920E-02 0. -1.
       -2   -1    0    0    0  501  0.00000000000E+00  0.00000000000E+00 -0.19290814303E+04  0.19290814303E+04  0.25500000920E-02 0.  1.
    10030    2    1    2    0    0  0.00000000000E+00  0.00000000000E+00 -0.52900221228E+03  0.33291606483E+04  0.32868628328E+04 0.  0.
        4    1    3    3  502    0 -0.44556401927E+03 -0.10853461653E+04  0.90111748102E+03  0.14793640260E+04  0.12699999809E+01 0. -1.
       -4    1    3    3    0  502  0.44556401927E+03  0.10853461653E+04 -0.14301196933E+04  0.18497966223E+04  0.12699999809E+01 0.  1.
</event>
<event>
 5   0  0.1405389E-06  0.3232288E+04  0.7818609E-02  0.8180342E-01
        1   -1    0    0  501    0  0.00000000000E+00  0.00000000000E+00  0.18829302514E+04  0.18829302514E+04  0.50400001928E-02 0. -1.
       -1   -1    0    0    0  501  0.00000000000E+00  0.00000000000E+00 -0.13871575499E+04  0.13871575499E+04  0.50400001928E-02 0.  1.
    10030    2    1    2    0    0  0.00000000000E+00  0.00000000000E+00  0.49577270146E+03  0.32700878013E+04  0.32322876816E+04 0.  0.
        1    1    3    3  502    0 -0.47481517755E+03 -0.83759431928E+03  0.15611060891E+04  0.18341390127E+04  0.50400001928E-02 0. -1.
       -1    1    3    3    0  502  0.47481517755E+03  0.83759431928E+03 -0.10653333877E+04  0.14359487886E+04  0.50400001928E-02 0.  1.
</event>
<event>
 5   0  0.3812379E-06  0.3307270E+04  0.7818609E-02  0.8161048E-01
       -2   -1    0    0    0  501  0.00000000000E+00  0.00000000000E+00  0.14965835031E+04  0.14965835031E+04  0.25500000920E-02 0. -1.
        2   -1    0    0  501    0  0.00000000000E+00  0.00000000000E+00 -0.18271678073E+04  0.18271678073E+04  0.25500000920E-02 0.  1.
    10030    2    1    2    0    0  0.00000000000E+00  0.00000000000E+00 -0.33058430423E+03  0.33237513104E+04  0.33072702930E+04 0.  0.
        5    1    3    3  502    0  0.11823638409E+04  0.70653329937E+02  0.99436925638E+03  0.15465343363E+04  0.46999998093E+01 0. -1.
       -5    1    3    3    0  502 -0.11823638409E+04 -0.70653329937E+02 -0.13249535606E+04  0.17772169741E+04  0.46999998093E+01 0.  1.
</event>
<event>
 5   0  0.3812379E-06  0.3289233E+04  0.7818609E-02  0.8165640E-01
        2   -1    0    0  501    0  0.00000000000E+00  0.00000000000E+00  0.35260338387E+04  0.35260338387E+04  0.25500000920E-02 0. -1.
       -2   -1    0    0    0  501  0.00000000000E+00  0.00000000000E+00 -0.76708397897E+03  0.76708397897E+03  0.25500000920E-02 0.  1.
    10030    2    1    2    0    0  0.00000000000E+00  0.00000000000E+00  0.27589498597E+04  0.42931178177E+04  0.32892333861E+04 0.  0.
        5    1    3    3  502    0 -0.67268623038E+03 -0.67286520723E+03  0.31303394801E+04  0.32717429150E+04  0.46999998093E+01 0. -1.
       -5    1    3    3    0  502  0.67268623038E+03  0.67286520723E+03 -0.37138962034E+03  0.10213749026E+04  0.46999998093E+01 0.  1.
</event>
<event>
 5   0  0.3671997E-06  0.3314393E+04  0.7818609E-02  0.8159243E-01
       -2   -1    0    0    0  501  0.00000000000E+00  0.00000000000E+00  0.26734473745E+04  0.26734473745E+04  0.25500000920E-02 0.  1.
        2   -1    0    0  501    0  0.00000000000E+00  0.00000000000E+00 -0.10272505040E+04  0.10272505040E+04  0.25500000920E-02 0. -1.
    10030    2    1    2    0    0  0.00000000000E+00  0.00000000000E+00  0.16461968705E+04  0.37006978785E+04  0.33143929537E+04 0.  0.
        2    1    3    3  502    0  0.11449025185E+04 -0.80189423980E+01  0.21608370425E+04  0.24454207827E+04  0.25500000920E-02 0.  1.
       -2    1    3    3    0  502 -0.11449025185E+04  0.80189423980E+01 -0.51464017205E+03  0.12552770957E+04  0.25500000920E-02 0. -1.
</event>
<event>
 5   0  0.3671997E-06  0.3297925E+04  0.7818609E-02  0.8163423E-01
        2   -1    0    0  501    0  0.00000000000E+00  0.00000000000E+00  0.28960283435E+04  0.28960283435E+04  0.25500000920E-02 0. -1.
       -2   -1    0    0    0  501  0.00000000000E+00  0.00000000000E+00 -0.93889888839E+03  0.93889888839E+03  0.25500000920E-02 0.  1.
    10030    2    1    2    0    0  0.00000000000E+00  0.00000000000E+00  0.19571294551E+04  0.38349272319E+04  0.32979252826E+04 0.  0.
        2    1    3    3  502    0  0.12067570410E+04 -0.88969253048E+02  0.22811939740E+04  0.25822517366E+04  0.25500000920E-02 0. -1.
       -2    1    3    3    0  502 -0.12067570410E+04  0.88969253048E+02 -0.32406451892E+03  0.12526754953E+04  0.25500000920E-02 0.  1.
</event>
<event>
 5   0  0.4017247E-06  0.3359964E+04  0.7818609E-02  0.8147803E-01
       -2   -1    0    0    0  501  0.00000000000E+00  0.00000000000E+00  0.14251149467E+04  0.14251149467E+04  0.25500000920E-02 0. -1.
        2   -1    0    0  501    0  0.00000000000E+00  0.00000000000E+00 -0.19804291457E+04  0.19804291457E+04  0.25500000920E-02 0.  1.
    10030    2    1    2    0    0  0.00000000000E+00  0.00000000000E+00 -0.55531419891E+03  0.34055440924E+04  0.33599637953E+04 0.  0.
        1    1    3    3  502    0 -0.10825239875E+04  0.33874794178E+03  0.97840022546E+03  0.14979570597E+04  0.50400001928E-02 0. -1.
       -1    1    3    3    0  502  0.10825239875E+04 -0.33874794178E+03 -0.15337144244E+04  0.19075870327E+04  0.50400001928E-02 0.  1.
</event>
<event>
 5   0  0.1352708E-06  0.2228367E+04  0.7818609E-02  0.8506713E-01
       -1   -1    0    0    0  501  0.00000000000E+00  0.00000000000E+00  0.14263753490E+04  0.14263753490E+04  0.50400001928E-02 0.  1.
        1   -1    0    0  501    0  0.00000000000E+00  0.00000000000E+00 -0.87032104272E+03  0.87032104273E+03  0.50400001928E-02 0. -1.
    10030    2    1    2    0    0  0.00000000000E+00  0.00000000000E+00  0.55605430631E+03  0.22966963918E+04  0.22283666495E+04 0.  0.
        5    1    3    3  502    0 -0.25161473554E+03 -0.74905484052E+03 -0.53154533468E+03  0.95234219799E+03  0.46999998093E+01 0. -1.
       -5    1    3    3    0  502  0.25161473554E+03  0.74905484052E+03  0.10875996410E+04  0.13443541938E+04  0.46999998093E+01 0.  1.
</event>
<event>
 5   0  0.1339825E-06  0.3346486E+04  0.7818609E-02  0.8151167E-01
        1   -1    0    0  501    0  0.00000000000E+00  0.00000000000E+00  0.18129462276E+04  0.18129462276E+04  0.50400001928E-02 0.  1.
       -1   -1    0    0    0  501  0.00000000000E+00  0.00000000000E+00 -0.15443055741E+04  0.15443055741E+04  0.50400001928E-02 0. -1.
    10030    2    1    2    0    0  0.00000000000E+00  0.00000000000E+00  0.26864065349E+03  0.33572518017E+04  0.33464864947E+04 0.  0.
        3    1    3    3  502    0 -0.11611864981E+04 -0.12034950475E+04  0.79476909532E+02  0.16742374390E+04  0.10100000352E+00 0.  1.
       -3    1    3    3    0  502  0.11611864981E+04  0.12034950475E+04  0.18916374396E+03  0.16830143627E+04  0.10100000352E+00 0. -1.
</event>
<event>
 5   0  0.3896210E-06  0.3261562E+04  0.7818609E-02  0.8172745E-01
        2   -1    0    0  501    0  0.00000000000E+00  0.00000000000E+00  0.29485874771E+04  0.29485874771E+04  0.25500000920E-02 0.  1.
       -2   -1    0    0    0  501  0.00000000000E+00  0.00000000000E+00 -0.90193931707E+03  0.90193931707E+03  0.25500000920E-02 0. -1.
    10030    2    1    2    0    0  0.00000000000E+00  0.00000000000E+00  0.20466481600E+04  0.38505267941E+04  0.32615621873E+04 0.  0.
        3    1    3    3  502    0  0.65749313380E+03  0.13733996063E+04  0.17126471382E+04  0.22916552817E+04  0.10100000352E+00 0. -1.
       -3    1    3    3    0  502 -0.65749313380E+03 -0.13733996063E+04  0.33400102175E+03  0.15588715125E+04  0.10100000352E+00 0.  1.
</event>
<event>
 5   0  0.1405389E-06  0.3301828E+04  0.7818609E-02  0.8162431E-01
        1   -1    0    0  501    0  0.00000000000E+00  0.00000000000E+00  0.21746336145E+04  0.21746336145E+04  0.50400001928E-02 0. -1.
       -1   -1    0    0    0  501  0.00000000000E+00  0.00000000000E+00 -0.12533220334E+04  0.12533220335E+04  0.50400001928E-02 0.  1.
    10030    2    1    2    0    0  0.00000000000E+00  0.00000000000E+00  0.92131158104E+03  0.34279556480E+04  0.33018275084E+04 0.  0.
        1    1    3    3  502    0  0.14787963072E+04  0.58123955011E+03  0.92592474129E+03  0.18390254374E+04  0.50400001928E-02 0. -1.
       -1    1    3    3    0  502 -0.14787963072E+04 -0.58123955011E+03 -0.46131602485E+01  0.15889302106E+04  0.50400001928E-02 0.  1.
</event>
<event>
 5   0  0.3671997E-06  0.3474596E+04  0.7818609E-02  0.8119837E-01
       -2   -1    0    0    0  501  0.00000000000E+00  0.00000000000E+00  0.27104636555E+04  0.27104636555E+04  0.25500000920E-02 0.  1.
        2   -1    0    0  501    0  0.00000000000E+00  0.00000000000E+00 -0.11135383194E+04  0.11135383194E+04  0.25500000920E-02 0. -1.
    10030    2    1    2    0    0  0.00000000000E+00  0.00000000000E+00  0.15969253361E+04  0.38240019750E+04  0.34745964622E+04 0.  0.
        2    1    3    3  502    0  0.46592750572E+03 -0.33409109264E+03 -0.10064221696E+04  0.11582706429E+04  0.25500000920E-02 0. -1.
       -2    1    3    3    0  502 -0.46592750572E+03  0.33409109264E+03  0.26033475058E+04  0.26657313320E+04  0.25500000920E-02 0.  1.
</event>
<event>
 5   0  0.1282578E-06  0.3323032E+04  0.7818609E-02  0.8157059E-01
        1   -1    0    0  501    0  0.00000000000E+00  0.00000000000E+00  0.19513691988E+04  0.19513691988E+04  0.50400001928E-02 0. -1.
       -1   -1    0    0    0  501  0.00000000000E+00  0.00000000000E+00 -0.14147173081E+04  0.14147173081E+04  0.50400001928E-02 0.  1.
    10030    2    1    2    0    0  0.00000000000E+00  0.00000000000E+00  0.53665189067E+03  0.33660865069E+04  0.33230322177E+04 0.  0.
        4    1    3    3  502    0 -0.10835268689E+04  0.44443974844E+03 -0.92553537414E+03  0.14927071070E+04  0.12699999809E+01 0.  1.
       -4    1    3    3    0  502  0.10835268689E+04 -0.44443974844E+03  0.14621872648E+04  0.18733793999E+04  0.12699999809E+01 0. -1.
</event>
<event>
 5   0  0.1405389E-06  0.3259118E+04  0.7818609E-02  0.8173376E-01
        1   -1    0    0  501    0  0.00000000000E+00  0.00000000000E+00  0.14472308731E+04  0.14472308731E+04  0.50400001928E-02 0. -1.
       -1   -1    0    0    0  501  0.00000000000E+00  0.00000000000E+00 -0.18348575587E+04  0.18348575587E+04  0.50400001928E-02 0.  1.
    10030    2    1    2    0    0  0.00000000000E+00  0.00000000000E+00 -0.38762668563E+03  0.32820884318E+04  0.32591179830E+04 0.  0.
        1    1    3    3  502    0 -0.13086084559E+04 -0.51768895790E+03 -0.10211905425E+04  0.17387604988E+04  0.50400001928E-02 0.  1.
       -1    1    3    3    0  502  0.13086084559E+04  0.51768895790E+03  0.63356385687E+03  0.15433279330E+04  0.50400001928E-02 0. -1.
</event>
<event>
 5   0  0.1391878E-06  0.3290338E+04  0.7818609E-02  0.8165358E-01
        1   -1    0    0  501    0  0.00000000000E+00  0.00000000000E+00  0.77021739005E+03  0.77021739006E+03  0.50400001928E-02 0. -1.
       -1   -1    0    0    0  501  0.00000000000E+00  0.00000000000E+00 -0.35140482024E+04  0.35140482024E+04  0.50400001928E-02 0.  1.
    10030    2    1    2    0    0  0.00000000000E+00  0.00000000000E+00 -0.27438308123E+04  0.42842655924E+04  0.32903379978E+04 0.  0.
        2    1    3    3  502    0  0.18554848071E+03 -0.13141356138E+04 -0.26378107953E+04  0.29528674948E+04  0.25500000920E-02 0.  1.
       -2    1    3    3    0  502 -0.18554848071E+03  0.13141356138E+04 -0.10602001701E+03  0.13313980976E+04  0.25500000920E-02 0. -1.
</event>
<event>
 5   0  0.1339825E-06  0.3335719E+04  0.7818609E-02  0.8153866E-01
        1   -1    0    0  501    0  0.00000000000E+00  0.00000000000E+00  0.22951325805E+04  0.22951325805E+04  0.50400001928E-02 0.  1.
       -1   -1    0    0    0  501  0.00000000000E+00  0.00000000000E+00 -0.12120236394E+04  0.12120236394E+04  0.50400001928E-02 0. -1.
    10030    2    1    2    0    0  0.00000000000E+00  0.00000000000E+00  0.10831089411E+04  0.35071562200E+04  0.33357187790E+04 0.  0.
        3    1    3    3  502    0 -0.10690616185E+04  0.11183370829E+04  0.11966199247E+04  0.19558808322E+04  0.10100000352E+00 0.  1.
       -3    1    3    3    0  502  0.10690616185E+04 -0.11183370829E+04 -0.11351098359E+03  0.15512753878E+04  0.10100000352E+00 0. -1.
</event>
<event>
 5   0  0.3920487E-06  0.3242328E+04  0.7818609E-02  0.8177727E-01
        2   -1    0    0  501    0  0.00000000000E+00  0.00000000000E+00  0.22505450605E+04  0.22505450605E+04  0.25500000920E-02 0.  1.
       -2   -1    0    0    0  501  0.00000000000E+00  0.00000000000E+00 -0.11677940833E+04  0.11677940833E+04  0.25500000920E-02 0. -1.
    10030    2    1    2    0    0  0.00000000000E+00  0.00000000000E+00  0.10827509771E+04  0.34183391438E+04  0.32423283029E+04 0.  0.
        4    1    3    3  502    0  0.15622654465E+04  0.29839847479E+03  0.21056397431E+03  0.16043857938E+04  0.12699999809E+01 0. -1.
       -4    1    3    3    0  502 -0.15622654465E+04 -0.29839847479E+03  0.87218700284E+03  0.18139533500E+04  0.12699999809E+01 0.  1.
</event>
<event>
 5   0  0.3920487E-06  0.2668670E+04  0.7818609E-02  0.8345243E-01
        2   -1    0    0  501    0  0.00000000000E+00  0.00000000000E+00  0.27490525902E+04  0.27490525902E+04  0.25500000920E-02 0.  1.
       -2   -1    0    0    0  501  0.00000000000E+00  0.00000000000E+00 -0.64765936700E+03  0.64765936701E+03  0.25500000920E-02 0. -1.
    10030    2    1    2    0    0  0.00000000000E+00  0.00000000000E+00  0.21013932232E+04  0.33967119572E+04  0.26686698263E+04 0.  0.
        4    1    3    3  502    0  0.40483450838E+03  0.12305934880E+04  0.14575916430E+04  0.19500836706E+04  0.12699999809E+01 0.  1.
       -4    1    3    3    0  502 -0.40483450838E+03 -0.12305934880E+04  0.64380158021E+03  0.14466282866E+04  0.12699999809E+01 0. -1.
</event>
<event>
 5   0  0.1391878E-06  0.3032103E+04  0.7818609E-02  0.8234623E-01
        1   -1    0    0  501    0  0.00000000000E+00  0.00000000000E+00  0.16665168048E+04  0.16665168048E+04  0.50400001928E-02 0. -1.
       -1   -1    0    0    0  501  0.00000000000E+00  0.00000000000E+00 -0.13791716975E+04  0.13791716975E+04  0.50400001928E-02 0.  1.
    10030    2    1    2    0    0  0.00000000000E+00  0.00000000000E+00  0.28734510731E+03  0.30456885022E+04  0.30321034352E+04 0.  0.
        2    1    3    3  502    0  0.57681274342E+03 -0.54056486812E+03 -0.11557576773E+04  0.14002496657E+04  0.25500000920E-02 0.  1.
       -2    1    3    3    0  502 -0.57681274342E+03  0.54056486812E+03  0.14431027847E+04  0.16454388365E+04  0.25500000920E-02 0. -1.
</event>
<event>
 5   0  0.3920487E-06  0.3397783E+04  0.7818609E-02  0.8138451E-01
       -2   -1    0    0    0  501  0.00000000000E+00  0.00000000000E+00  0.17948337218E+04  0.17948337218E+04  0.25500000920E-02 0. -1.
        2   -1    0    0  501    0  0.00000000000E+00  0.00000000000E+00 -0.16080779204E+04  0.16080779204E+04  0.25500000920E-02 0.  1.
    10030    2    1    2    0    0  0.00000000000E+00  0.00000000000E+00  0.18675580138E+03  0.34029116422E+04  0.33977830884E+04 0.  0.
        4    1    3    3  502    0 -0.10869831320E+04  0.36124886666E+03 -0.11631862689E+04  0.16324940986E+04  0.12699999809E+01 0.  1.
       -4    1    3    3    0  502  0.10869831320E+04 -0.36124886666E+03  0.13499420703E+04  0.17704175436E+04  0.12699999809E+01 0. -1.
</event>
<event>
 5   0  0.4017247E-06  0.3332787E+04  0.7818609E-02  0.8154602E-01
        2   -1    0    0  501    0  0.00000000000E+00  0.00000000000E+00  0.20612468833E+04  0.20612468833E+04  0.25500000920E-02 0. -1.
       -2   -1    0    0    0  501  0.00000000000E+00  0.00000000000E+00 -0.13471786325E+04  0.13471786325E+04  0.25500000920E-02 0.  1.
    10030    2    1    2    0    0  0.00000000000E+00  0.00000000000E+00  0.71406825083E+03  0.34084255158E+04  0.33327872765E+04 0.  0.
        1    1    3    3  502    0  0.14186233364E+04 -0.87318920063E+03  0.40180209558E+03  0.17135916884E+04  0.50400001928E-02 0. -1.
       -1    1    3    3    0  502 -0.14186233364E+04  0.87318920063E+03  0.31226615525E+03  0.16948338274E+04  0.50400001928E-02 0.  1.
</event>
<event>
 5   0  0.3920487E-06  0.3277185E+04  0.7818609E-02  0.8168725E-01
       -2   -1    0    0    0  501  0.00000000000E+00  0.00000000000E+00  0.14402430425E+04  0.14402430425E+04  0.25500000920E-02 0. -1.
        2   -1    0    0  501    0  0.00000000000E+00  0.00000000000E+00 -0.18642587541E+04  0.18642587541E+04  0.25500000920E-02 0.  1.
    10030    2    1    2    0    0  0.00000000000E+00  0.00000000000E+00 -0.42401571162E+03  0.33045017967E+04  0.32771851947E+04 0.  0.
        4    1    3    3  502    0 -0.12224840978E+04  0.39354403209E+03 -0.12381543763E+04  0.17839204431E+04  0.12699999809E+01 0.  1.
       -4    1    3    3    0  502  0.12224840978E+04 -0.39354403209E+03  0.81413866470E+03  0.15205813536E+04  0.12699999809E+01 0. -1.
</event>
<event>
 5   0  0.1352708E-06  0.3300228E+04  0.7818609E-02  0.8162837E-01
       -1   -1    0    0    0  501  0.00000000000E+00  0.00000000000E+00  0.13075960948E+04  0.13075960948E+04  0.50400001928E-02 0. -1.
        1   -1    0    0  501    0  0.00000000000E+00  0.00000000000E+00 -0.20823529813E+04  0.20823529814E+04  0.50400001928E-02 0.  1.
    10030    2    1    2    0    0  0.00000000000E+00  0.00000000000E+00 -0.77475688657E+03  0.33899490761E+04  0.33002282505E+04 0.  0.
        5    1    3    3  502    0  0.46377045730E+03  0.15051597101E+04  0.11820774791E+03  0.15794251966E+04  0.46999998093E+01 0. -1.
       -5    1    3    3    0  502 -0.46377045730E+03 -0.15051597101E+04 -0.89296463448E+03  0.18105238795E+04  0.46999998093E+01 0.  1.
</event>
<event>
 5   0  0.3812379E-06  0.3633603E+04  0.7818609E-02  0.8082838E-01
       -2   -1    0    0    0  501  0.00000000000E+00  0.00000000000E+00  0.14607257139E+04  0.14607257139E+04  0.25500000920E-02 0.  1.
        2   -1    0    0  501    0  0.00000000000E+00  0.00000000000E+00 -0.22596770721E+04  0.22596770721E+04  0.25500000920E-02 0. -1.
    10030    2    1    2    0    0  0.00000000000E+00  0.00000000000E+00 -0.79895135820E+03  0.37204027860E+04  0.36336033930E+04 0.  0.
        5    1    3    3  502    0  0.80749125628E+03 -0.56798031802E+03  0.11621137722E+04  0.15248522158E+04  0.46999998093E+01 0.  1.
       -5    1    3    3    0  502 -0.80749125628E+03  0.56798031802E+03 -0.19610651304E+04  0.21955505702E+04  0.46999998093E+01 0. -1.
</event>
<event>
 5   0  0.1352708E-06  0.3347569E+04  0.7818609E-02  0.8150896E-01
       -1   -1    0    0    0  501  0.00000000000E+00  0.00000000000E+00  0.16500321373E+04  0.16500321373E+04  0.50400001928E-02 0. -1.
        1   -1    0    0  501    0  0.00000000000E+00  0.00000000000E+00 -0.16978791762E+04  0.16978791762E+04  0.50400001928E-02 0.  1.
    10030    2    1    2    0    0  0.00000000000E+00  0.00000000000E+00 -0.47847038830E+02  0.33479113135E+04  0.33475693904E+04 0.  0.
        5    1    3    3  502    0 -0.23257891521E+03 -0.54828071339E+03 -0.15883174246E+04  0.16963133625E+04  0.46999998093E+01 0.  1.
       -5    1    3    3    0  502  0.23257891521E+03  0.54828071339E+03  0.15404703857E+04  0.16515979510E+04  0.46999998093E+01 0. -1.
</event>
<event>
 5   0  0.1339825E-06  0.3069075E+04  0.7818609E-02  0.8224277E-01
       -1   -1    0    0    0  501  0.00000000000E+00  0.00000000000E+00  0.17692904150E+04  0.17692904150E+04  0.50400001928E-02 0.  1.
        1   -1    0    0  501    0  0.00000000000E+00  0.00000000000E+00 -0.13309318939E+04  0.13309318939E+04  0.50400001928E-02 0. -1.
    10030    2    1    2    0    0  0.00000000000E+00  0.00000000000E+00  0.43835852110E+03  0.31002223089E+04  0.30690748071E+04 0.  0.
        3    1    3    3  502    0 -0.72007288736E+03 -0.11123858340E+04 -0.56255965342E+03  0.14395765282E+04  0.10100000352E+00 0. -1.
       -3    1    3    3    0  502  0.72007288736E+03  0.11123858340E+04  0.10009181745E+04  0.16606457807E+04  0.10100000352E+00 0.  1.
</event>
<event>
 5   0  0.3896210E-06  0.3263454E+04  0.7818609E-02  0.8172257E-01
       -2   -1    0    0    0  501  0.00000000000E+00  0.00000000000E+00  0.10207650748E+04  0.10207650748E+04  0.25500000920E-02 0. -1.
        2   -1    0    0  501    0  0.00000000000E+00  0.00000000000E+00 -0.26083705287E+04  0.26083705287E+04  0.25500000920E-02 0.  1.
    10030    2    1    2    0    0  0.00000000000E+00  0.00000000000E+00 -0.15876054540E+04  0.36291356035E+04  0.32634543280E+04 0.  0.
        3    1    3    3  502    0 -0.39686212027E+02 -0.14381303420E+04  0.62362622446E+02  0.14400288132E+04  0.10100000352E+00 0. -1.
       -3    1    3    3    0  502  0.39686212027E+02  0.14381303420E+04 -0.16499680764E+04  0.21891067903E+04  0.10100000352E+00 0.  1.
</event>
<event>
 5   0  0.1405389E-06  0.3281263E+04  0.7818609E-02  0.8167679E-01
       -1   -1    0    0    0  501  0.00000000000E+00  0.00000000000E+00  0.13013738900E+04  0.13013738900E+04  0.50400001928E-02 0. -1.
        1   -1    0    0  501    0  0.00000000000E+00  0.00000000000E+00 -0.20683312594E+04  0.20683312594E+04  0.50400001928E-02 0.  1.
    10030    2    1    2    0    0  0.00000000000E+00  0.00000000000E+00 -0.76695736946E+03  0.33697051494E+04  0.32812633523E+04 0.  0.
        1    1    3    3  502    0  0.14586259286E+04  0.35089086976E+03 -0.10654240337E+04  0.18400658613E+04  0.50400001928E-02 0.  1.
       -1    1    3    3    0  502 -0.14586259286E+04 -0.35089086976E+03  0.29846666421E+03  0.15296392882E+04  0.50400001928E-02 0. -1.
</event>
<event>
 5   0  0.1282578E-06  0.2195614E+04  0.7818609E-02  0.8520256E-01
        1   -1    0    0  501    0  0.00000000000E+00  0.00000000000E+00  0.73611735624E+03  0.73611735625E+03  0.50400001928E-02 0.  1.
       -1   -1    0    0    0  501  0.00000000000E+00  0.00000000000E+00 -0.16372119114E+04  0.16372119114E+04  0.50400001928E-02 0. -1.
    10030    2    1    2    0    0  0.00000000000E+00  0.00000000000E+00 -0.90109455518E+03  0.23733292677E+04  0.21956139040E+04 0.  0.
        4    1    3    3  502    0 -0.44199178540E+03 -0.70705512797E+03  0.32131943764E+03  0.89360588978E+03  0.12699999809E+01 0.  1.
       -4    1    3    3    0  502  0.44199178540E+03  0.70705512797E+03 -0.12224139928E+04  0.14797233779E+04  0.12699999809E+01 0. -1.
</event>
<event>
 5   0  0.1352708E-06  0.3212302E+04  0.7818609E-02  0.8185576E-01
       -1   -1    0    0    0  501  0.00000000000E+00  0.00000000000E+00  0.11244507968E+04  0.11244507968E+04  0.50400001928E-02 0. -1.
        1   -1    0    0  501    0  0.00000000000E+00  0.00000000000E+00 -0.22942051815E+04  0.22942051815E+04  0.50400001928E-02 0.  1.
    10030    2    1    2    0    0  0.00000000000E+00  0.00000000000E+00 -0.11697543847E+04  0.34186559783E+04  0.32123018814E+04 0.  0.
        5    1    3    3  502    0  0.58943664214E+03 -0.14580623366E+04 -0.93188661356E+03  0.18280634789E+04  0.46999998093E+01 0.  1.
       -5    1    3    3    0  502 -0.58943664214E+03  0.14580623366E+04 -0.23786777110E+03  0.15905924993E+04  0.46999998093E+01 0. -1.
</event>
<event>
 5   0  0.1282578E-06  0.3303934E+04  0.7818609E-02  0.8161895E-01
        1   -1    0    0  501    0  0.00000000000E+00  0.00000000000E+00  0.15987319573E+04  0.15987319573E+04  0.50400001928E-02 0.  1.
       -1   -1    0    0    0  501  0.00000000000E+00  0.00000000000E+00 -0.17069750052E+04  0.17069750052E+04  0.50400001928E-02 0. -1.
    10030    2    1    2    0    0  0.00000000000E+00  0.00000000000E+00 -0.10824304794E+03  0.33057069625E+04  0.33039343160E+04 0.  0.
        4    1    3    3  502    0 -0.19432550319E+03  0.16312695542E+04  0.11972761748E+03  0.16471609135E+04  0.12699999809E+01 0.  1.
       -4    1    3    3    0  502  0.19432550319E+03 -0.16312695542E+04 -0.22797066542E+03  0.16585460490E+04  0.12699999809E+01 0. -1.
</event>
<event>
 5   0  0.1405389E-06  0.3331123E+04  0.7818609E-02  0.8155021E-01
       -1   -1    0    0    0  501  0.00000000000E+00  0.00000000000E+00  0.97301478149E+03  0.97301478151E+03  0.50400001928E-02 0.  1.
        1   -1    0    0  501    0  0.00000000000E+00  0.00000000000E+00 -0.28510312399E+04  0.28510312399E+04  0.50400001928E-02 0. -1.
    10030    2    1    2    0    0  0.00000000000E+00  0.00000000000E+00 -0.18780164584E+04  0.38240460214E+04  0.33311232574E+04 0.  0.
        1    1    3    3  502    0  0.82456133378E+03 -0.82546058402E+03  0.42549362265E+03  0.12419063539E+04  0.50400001928E-02 0.  1.
       -1    1    3    3    0  502 -0.82456133378E+03  0.82546058402E+03 -0.23035100810E+04  0.25821396675E+04  0.50400001928E-02 0. -1.
</event>
<event>
 5   0  0.3920487E-06  0.2387628E+04  0.7818609E-02  0.8444150E-01
       -2   -1    0    0    0  501  0.00000000000E+00  0.00000000000E+00  0.10874355421E+04  0.10874355421E+04  0.25500000920E-02 0.  1.
        2   -1    0    0  501    0  0.00000000000E+00  0.00000000000E+00 -0.13105984550E+04  0.13105984550E+04  0.25500000920E-02 0. -1.
    10030    2    1    2    0    0  0.00000000000E+00  0.00000000000E+00 -0.22316291292E+03  0.23980339971E+04  0.23876275601E+04 0.  0.
        4    1    3    3  502    0 -0.85496859136E+03  0.65569390660E+02  0.72265244372E+03  0.11213825416E+04  0.12699999809E+01 0.  1.
       -4    1    3    3    0  502  0.85496859136E+03 -0.65569390660E+02 -0.94581535664E+03  0.12766514556E+04  0.12699999809E+01 0. -1.
</event>
<event>
 5   0  0.1282578E-06  0.3296735E+04  0.7818609E-02  0.8163727E-01
        1   -1    0    0  501    0  0.00000000000E+00  0.00000000000E+00  0.16128303712E+04  0.16128303712E+04  0.50400001928E-02 0. -1.
       -1   -1    0    0    0  501  0.00000000000E+00  0.00000000000E+00 -0.16846876883E+04  0.16846876883E+04  0.50400001928E-02 0.  1.
    10030    2    1    2    0    0  0.00000000000E+00  0.00000000000E+00 -0.71857317152E+02  0.32975180595E+04  0.32967350332E+04 0.  0.
        4    1    3    3  502    0  0.35870692680E+03 -0.13399161721E+04 -0.92668374622E+03  0.16681697713E+04  0.12699999809E+01 0.  1.
       -4    1    3    3    0  502 -0.35870692680E+03  0.13399161721E+04  0.85482642907E+03  0.16293482882E+04  0.12699999809E+01 0. -1.
</event>
<event>
 5   0  0.1405389E-06  0.3319734E+04  0.7818609E-02  0.8157892E-01
       -1   -1    0    0    0  501  0.00000000000E+00  0.00000000000E+00  0.13103457118E+04  0.13103457119E+04  0.50400001928E-02 0.  1.
        1   -1    0    0  501    0  0.00000000000E+00  0.00000000000E+00 -0.21026195001E+04  0.21026195001E+04  0.50400001928E-02 0. -1.
    10030    2    1    2    0    0  0.00000000000E+00  0.00000000000E+00 -0.79227378823E+03  0.34129652119E+04  0.33197339927E+04 0.  0.
        1    1    3    3  502    0 -0.38382688183E+02  0.20738211198E+03  0.12965145324E+04  0.13135564334E+04  0.50400001928E-02 0.  1.
       -1    1    3    3    0  502  0.38382688183E+02 -0.20738211198E+03 -0.20887883206E+04  0.20994087785E+04  0.50400001928E-02 0. -1.
</event>
<event>
 5   0  0.1339825E-06  0.3157113E+04  0.7818609E-02  0.8200236E-01
       -1   -1    0    0    0  501  0.00000000000E+00  0.00000000000E+00  0.13811852620E+04  0.13811852620E+04  0.50400001928E-02 0. -1.
        1   -1    0    0  501    0  0.00000000000E+00  0.00000000000E+00 -0.18041323170E+04  0.18041323170E+04  0.50400001928E-02 0.  1.
    10030    2    1    2    0    0  0.00000000000E+00  0.00000000000E+00 -0.42294705502E+03  0.31853175789E+04  0.31571132174E+04 0.  0.
        3    1    3    3  502    0  0.59073082864E+03  0.93220689283E+03 -0.13502142620E+04  0.17438609940E+04  0.10100000352E+00 0.  1.
       -3    1    3    3    0  502 -0.59073082864E+03 -0.93220689283E+03  0.92726720697E+03  0.14414565849E+04  0.10100000352E+00 0. -1.
</event>
<event>
 5   0  0.1339825E-06  0.3287135E+04  0.7818609E-02  0.8166177E-01
        1   -1    0    0  501    0  0.00000000000E+00  0.00000000000E+00  0.18537880556E+04  0.18537880556E+04  0.50400001928E-02 0. -1.
       -1   -1    0    0    0  501  0.00000000000E+00  0.00000000000E+00 -0.14571861342E+04  0.14571861343E+04  0.50400001928E-02 0.  1.
    10030    2    1    2    0    0  0.00000000000E+00  0.00000000000E+00  0.39660192140E+03  0.33109741899E+04  0.32871350751E+04 0.  0.
        3    1    3    3  502    0  0.20815709926E+03  0.14748233877E+04  0.89823679810E+03  0.17393282493E+04  0.10100000352E+00 0. -1.
       -3    1    3    3    0  502 -0.20815709926E+03 -0.14748233877E+04 -0.50163487671E+03  0.15716459406E+04  0.10100000352E+00 0.  1.
</event>
<event>
 5   0  0.3920487E-06  0.3332966E+04  0.7818609E-02  0.8154558E-01
        2   -1    0    0  501    0  0.00000000000E+00  0.00000000000E+00  0.12986624425E+04  0.12986624425E+04  0.25500000920E-02 0.  1.
       -2   -1    0    0    0  501  0.00000000000E+00  0.00000000000E+00 -0.21384810838E+04  0.21384810838E+04  0.25500000920E-02 0. -1.
    10030    2    1    2    0    0  0.00000000000E+00  0.00000000000E+00 -0.83981864132E+03  0.34371435262E+04  0.33329656868E+04 0.  0.
        4    1    3    3  502    0  0.56066094665E+03  0.13314853401E+04 -0.12765166504E+04  0.19278719562E+04  0.12699999809E+01 0. -1.
       -4    1    3    3    0  502 -0.56066094665E+03 -0.13314853401E+04  0.43669800913E+03  0.15092715700E+04  0.12699999809E+01 0.  1.
</event>
<event>
 5   0  0.1391878E-06  0.3286377E+04  0.7818609E-02  0.8166370E-01
        1   -1    0    0  501    0  0.00000000000E+00  0.00000000000E+00  0.94722703398E+03  0.94722703399E+03  0.50400001928E-02 0.  1.
       -1   -1    0    0    0  501  0.00000000000E+00  0.00000000000E+00 -0.28504975682E+04  0.28504975682E+04  0.50400001928E-02 0. -1.
    10030    2    1    2    0    0  0.00000000000E+00  0.00000000000E+00 -0.19032705342E+04  0.37977246022E+04  0.32863769455E+04 0.  0.
        2    1    3    3  502    0 -0.51029203041E+03  0.14340009643E+04 -0.23618064494E+03  0.15403045215E+04  0.25500000920E-02 0.  1.
       -2    1    3    3    0  502  0.51029203041E+03 -0.14340009643E+04 -0.16670898893E+04  0.22574200807E+04  0.25500000920E-02 0. -1.
</event>
<event>
 5   0  0.1282578E-06  0.2668525E+04  0.7818609E-02  0.8345290E-01
        1   -1    0    0  501    0  0.00000000000E+00  0.00000000000E+00  0.21672270648E+04  0.21672270648E+04  0.50400001928E-02 0.  1.
       -1   -1    0    0    0  501  0.00000000000E+00  0.00000000000E+00 -0.82144464150E+03  0.82144464151E+03  0.50400001928E-02 0. -1.
    10030    2    1    2    0    0  0.00000000000E+00  0.00000000000E+00  0.13457824233E+04  0.29886717064E+04  0.26685254800E+04 0.  0.
        4    1    3    3  502    0  0.84553897954E+03 -0.51840444174E+03  0.16724779792E+04  0.19444442741E+04  0.12699999809E+01 0.  1.
       -4    1    3    3    0  502 -0.84553897954E+03  0.51840444174E+03 -0.32669555590E+03  0.10442274323E+04  0.12699999809E+01 0. -1.
</event>
<event>
 5   0  0.3920487E-06  0.3209982E+04  0.7818609E-02  0.8186186E-01
        2   -1    0    0  501    0  0.00000000000E+00  0.00000000000E+00  0.13198785354E+04  0.13198785354E+04  0.25500000920E-02 0. -1.
       -2   -1    0    0    0  501  0.00000000000E+00  0.00000000000E+00 -0.19516914198E+04  0.19516914198E+04  0.25500000920E-02 0.  1.
    10030    2    1    2    0    0  0.00000000000E+00  0.00000000000E+00 -0.63181288436E+03  0.32715699552E+04  0.32099816902E+04 0.  0.
        4    1    3    3  502    0 -0.62780460588E+03 -0.14687705688E+04 -0.15615601356E+03  0.16049336186E+04  0.12699999809E+01 0. -1.
       -4    1    3    3    0  502  0.62780460588E+03  0.14687705688E+04 -0.47565687081E+03  0.16666363366E+04  0.12699999809E+01 0.  1.
</event>
<event>
 5   0  0.3812379E-06  0.3259034E+04  0.7818609E-02  0.8173398E-01
       -2   -1    0    0    0  501  0.00000000000E+00  0.00000000000E+00  0.13945028269E+04  0.13945028269E+04  0.25500000920E-02 0. -1.
        2   -1    0    0  501    0  0.00000000000E+00  0.00000000000E+00 -0.19041377020E+04  0.19041377020E+04  0.25500000920E-02 0.  1.
    10030    2    1    2    0    0  0.00000000000E+00  0.00000000000E+00 -0.50963487515E+03  0.32986405289E+04  0.32590338497E+04 0.  0.
        5    1    3    3  502    0  0.13599219388E+04  0.72261504441E+03  0.28433155964E+03  0.15660225758E+04  0.46999998093E+01 0.  1.
       -5    1    3    3    0  502 -0.13599219388E+04 -0.72261504441E+03 -0.79396643479E+03  0.17326179532E+04  0.46999998093E+01 0. -1.
</event>
<event>
 5   0  0.1282578E-06  0.2976147E+04  0.7818609E-02  0.8250575E-01
        1   -1    0    0  501    0  0.00000000000E+00  0.00000000000E+00  0.14398031842E+04  0.14398031842E+04  0.50400001928E-02 0.  1.
       -1   -1    0    0    0  501  0.00000000000E+00  0.00000000000E+00 -0.15379616159E+04  0.15379616160E+04  0.50400001928E-02 0. -1.
    10030    2    1    2    0    0  0.00000000000E+00  0.00000000000E+00 -0.98158431775E+02  0.29777648001E+04  0.29761465231E+04 0.  0.
        4    1    3    3  502    0 -0.61977514006E+03  0.62986793445E+03  0.11488627436E+04  0.14493936855E+04  0.12699999809E+01 0.  1.
       -4    1    3    3    0  502  0.61977514006E+03 -0.62986793445E+03 -0.12470211754E+04  0.15283711146E+04  0.12699999809E+01 0. -1.
</event>
<event>
 5   0  0.3920487E-06  0.3276692E+04  0.7818609E-02  0.8168852E-01
       -2   -1    0    0    0  501  0.00000000000E+00  0.00000000000E+00  0.29651870067E+04  0.29651870067E+04  0.25500000920E-02 0. -1.
        2   -1    0    0  501    0  0.00000000000E+00  0.00000000000E+00 -0.90523043982E+03  0.90523043982E+03  0.25500000920E-02 0.  1.
    10030    2    1    2    0    0  0.00000000000E+00  0.00000000000E+00  0.20599565669E+04  0.38704174465E+04  0.32766919527E+04 0.  0.
        4    1    3    3  502    0  0.14149871859E+04 -0.72865120319E+03  0.57089741889E+03  0.16908716060E+04  0.12699999809E+01 0.  1.
       -4    1    3    3    0  502 -0.14149871859E+04  0.72865120319E+03  0.14890591480E+04  0.21795458406E+04  0.12699999809E+01 0. -1.
</event>
<event>
 5   0  0.3896210E-06  0.3304725E+04  0.7818609E-02  0.8161694E-01
       -2   -1    0    0    0  501  0.00000000000E+00  0.00000000000E+00  0.11310406351E+04  0.11310406351E+04  0.25500000920E-02 0. -1.
        2   -1    0    0  501    0  0.00000000000E+00  0.00000000000E+00 -0.24139729170E+04  0.24139729170E+04  0.25500000920E-02 0.  1.
    10030    2    1    2    0    0  0.00000000000E+00  0.00000000000E+00 -0.12829322819E+04  0.35450135521E+04  0.33047247760E+04 0.  0.
        3    1    3    3  502    0  0.40927783597E+03  0.47254403740E+03  0.99928866867E+03  0.11787213699E+04  0.10100000352E+00 0. -1.
       -3    1    3    3    0  502 -0.40927783597E+03 -0.47254403740E+03 -0.22822209506E+04  0.23662921823E+04  0.10100000352E+00 0.  1.
</event>
<event>
 5   0  0.1352708E-06  0.3075625E+04  0.7818609E-02  0.8222459E-01
        1   -1    0    0  501    0  0.00000000000E+00  0.00000000000E+00  0.16239500514E+04  0.16239500514E+04  0.50400001928E-02 0.  1.
       -1   -1    0    0    0  501  0.00000000000E+00  0.00000000000E+00 -0.14562436165E+04  0.14562436165E+04  0.50400001928E-02 0. -1.
    10030    2    1    2    0    0  0.00000000000E+00  0.00000000000E+00  0.16770643494E+03  0.30801936679E+04  0.30756247468E+04 0.  0.
        5    1    3    3  502    0 -0.51917893498E+03  0.93249191453E+03  0.11926369482E+04  0.16004664687E+04  0.46999998093E+01 0.  1.
       -5    1    3    3    0  502  0.51917893498E+03 -0.93249191453E+03 -0.10249305132E+04  0.14797271992E+04  0.46999998093E+01 0. -1.
</event>
<event>
 5   0  0.3671997E-06  0.3253452E+04  0.7818609E-02  0.8174841E-01
       -2   -1    0    0    0  501  0.00000000000E+00  0.00000000000E+00  0.93553489127E+03  0.93553489127E+03  0.25500000920E-02 0. -1.
        2   -1    0    0  501    0  0.00000000000E+00  0.00000000000E+00 -0.28285831663E+04  0.28285831663E+04  0.25500000920E-02 0.  1.
    10030    2    1    2    0    0  0.00000000000E+00  0.00000000000E+00 -0.18930482750E+04  0.37641180576E+04  0.32534524708E+04 0.  0.
        2    1    3    3  502    0  0.45300828605E+03  0.13863727436E+03  0.85395476364E+03  0.97656312618E+03  0.25500000920E-02 0. -1.
       -2    1    3    3    0  502 -0.45300828605E+03 -0.13863727436E+03 -0.27470030386E+04  0.27875549314E+04  0.25500000920E-02 0.  1.
</event>
<event>
 5   0  0.1259875E-06  0.3148442E+04  0.7818609E-02  0.8202568E-01
       -3   -1    0    0    0  501  0.00000000000E+00  0.00000000000E+00  0.18317140484E+04  0.18317140512E+04  0.10100000352E+00 0.  1.
        3   -1    0    0  501    0  0.00000000000E+00  0.00000000000E+00 -0.13529251045E+04  0.13529251082E+04  0.10100000352E+00 0. -1.
    10030    2    1    2    0    0  0.00000000000E+00  0.00000000000E+00  0.47878894399E+03  0.31846391594E+04  0.31484421105E+04 0.  0.
        4    1    3    3  502    0 -0.13883115718E+04  0.51353296323E+03 -0.30253111642E+03  0.15108447353E+04  0.12699999809E+01 0. -1.
       -4    1    3    3    0  502  0.13883115718E+04 -0.51353296323E+03  0.78132006040E+03  0.16737944242E+04  0.12699999809E+01 0.  1.
</event>
<event>
 5   0  0.3671997E-06  0.3388884E+04  0.7818609E-02  0.8140640E-01
        2   -1    0    0  501    0  0.00000000000E+00  0.00000000000E+00  0.27913328850E+04  0.27913328850E+04  0.25500000920E-02 0. -1.
       -2   -1    0    0    0  501  0.00000000000E+00  0.00000000000E+00 -0.10285890050E+04  0.10285890050E+04  0.25500000920E-02 0.  1.
    10030    2    1    2    0    0  0.00000000000E+00  0.00000000000E+00  0.17627438799E+04  0.38199218900E+04  0.33888843680E+04 0.  0.
        2    1    3    3  502    0 -0.13328725293E+04  0.94777279091E+03  0.13807977869E+04  0.21404263525E+04  0.25500000920E-02 0.  1.
       -2    1    3    3    0  502  0.13328725293E+04 -0.94777279091E+03  0.38194609309E+03  0.16794955375E+04  0.25500000920E-02 0. -1.
</event>
<event>
 5   0  0.1339825E-06  0.3296624E+04  0.7818609E-02  0.8163755E-01
        1   -1    0    0  501    0  0.00000000000E+00  0.00000000000E+00  0.78044614051E+03  0.78044614052E+03  0.50400001928E-02 0.  1.
       -1   -1    0    0    0  501  0.00000000000E+00  0.00000000000E+00 -0.34812557138E+04  0.34812557138E+04  0.50400001928E-02 0. -1.
    10030    2    1    2    0    0  0.00000000000E+00  0.00000000000E+00 -0.27008095733E+04  0.42617018544E+04  0.32966240829E+04 0.  0.
        3    1    3    3  502    0 -0.14267865214E+04  0.82509823034E+03 -0.13770776587E+04  0.21477545846E+04  0.10100000352E+00 0. -1.
       -3    1    3    3    0  502  0.14267865214E+04 -0.82509823034E+03 -0.13237319147E+04  0.21139472698E+04  0.10100000352E+00 0.  1.
</event>
<event>
 5   0  0.3896210E-06  0.2424586E+04  0.7818609E-02  0.8430356E-01
       -2   -1    0    0    0  501  0.00000000000E+00  0.00000000000E+00  0.98120218018E+03  0.98120218018E+03  0.25500000920E-02 0.  1.
        2   -1    0    0  501    0  0.00000000000E+00  0.00000000000E+00 -0.14978098338E+04  0.14978098338E+04  0.25500000920E-02 0. -1.
    10030    2    1    2    0    0  0.00000000000E+00  0.00000000000E+00 -0.51660765366E+03  0.24790120140E+04  0.24245859642E+04 0.  0.
        3    1    3    3  502    0  0.17944099820E+03 -0.55925501029E+03 -0.13426233406E+04  0.14654701236E+04  0.10100000352E+00 0. -1.
       -3    1    3    3    0  502 -0.17944099820E+03  0.55925501029E+03  0.82601568691E+03  0.10135418904E+04  0.10100000352E+00 0.  1.
</event>
<event>
 5   0  0.1282578E-06  0.3265800E+04  0.7818609E-02  0.8171653E-01
        1   -1    0    0  501    0  0.00000000000E+00  0.00000000000E+00  0.24259742600E+04  0.24259742600E+04  0.50400001928E-02 0.  1.
       -1   -1    0    0    0  501  0.00000000000E+00  0.00000000000E+00 -0.10990890163E+04  0.10990890163E+04  0.50400001928E-02 0. -1.
    10030    2    1    2    0    0  0.00000000000E+00  0.00000000000E+00  0.13268852437E+04  0.35250632763E+04  0.32657995425E+04 0.  0.
        4    1    3    3  502    0 -0.13402527319E+04  0.92717560346E+03  0.77366740655E+03  0.18040218551E+04  0.12699999809E+01 0. -1.
       -4    1    3    3    0  502  0.13402527319E+04 -0.92717560346E+03  0.55321783717E+03  0.17210414211E+04  0.12699999809E+01 0.  1.
</event>
<event>
 5   0  0.1405389E-06  0.3191903E+04  0.7818609E-02  0.8190959E-01
        1   -1    0    0  501    0  0.00000000000E+00  0.00000000000E+00  0.18934797475E+04  0.18934797475E+04  0.50400001928E-02 0.  1.
       -1   -1    0    0    0  501  0.00000000000E+00  0.00000000000E+00 -0.13451747332E+04  0.13451747332E+04  0.50400001928E-02 0. -1.
    10030    2    1    2    0    0  0.00000000000E+00  0.00000000000E+00  0.54830501429E+03  0.32386544807E+04  0.31919029523E+04 0.  0.
        1    1    3    3  502    0  0.14373016410E+04  0.30830494369E+03  0.90468284390E+03  0.17260761842E+04  0.50400001928E-02 0.  1.
       -1    1    3    3    0  502 -0.14373016410E+04 -0.30830494369E+03 -0.35637782961E+03  0.15125782965E+04  0.50400001928E-02 0. -1.
</event>
<event>
 5   0  0.3671997E-06  0.3252302E+04  0.7818609E-02  0.8175139E-01
        2   -1    0    0  501    0  0.00000000000E+00  0.00000000000E+00  0.20202595684E+04  0.20202595684E+04  0.25500000920E-02 0.  1.
       -2   -1    0    0    0  501  0.00000000000E+00  0.00000000000E+00 -0.13089247772E+04  0.13089247772E+04  0.25500000920E-02 0. -1.
    10030    2    1    2    0    0  0.00000000000E+00  0.00000000000E+00  0.71133479112E+03  0.33291843456E+04  0.32523024493E+04 0.  0.
        2    1    3    3  502    0 -0.10070864892E+03  0.49580229194E+03  0.19376473040E+04  0.20026081043E+04  0.25500000920E-02 0.  1.
       -2    1    3    3    0  502  0.10070864892E+03 -0.49580229194E+03 -0.12263125129E+04  0.13265762413E+04  0.25500000920E-02 0. -1.
</event>
<event>
 5   0  0.1339825E-06  0.3139006E+04  0.7818609E-02  0.8205114E-01
       -1   -1    0    0    0  501  0.00000000000E+00  0.00000000000E+00  0.18143126000E+04  0.18143126000E+04  0.50400001928E-02 0.  1.
        1   -1    0    0  501    0  0.00000000000E+00  0.00000000000E+00 -0.13577260050E+04  0.13577260050E+04  0.50400001928E-02 0. -1.
    10030    2    1    2    0    0  0.00000000000E+00  0.00000000000E+00  0.45658659501E+03  0.31720386050E+04  0.31390058287E+04 0.  0.
        3    1    3    3  502    0  0.23746927504E+03 -0.48399625591E+03 -0.12612247173E+04  0.13716165025E+04  0.10100000352E+00 0. -1.
       -3    1    3    3    0  502 -0.23746927504E+03  0.48399625591E+03  0.17178113123E+04  0.18004221025E+04  0.10100000352E+00 0.  1.
</event>
<event>
 5   0  0.3920487E-06  0.3350316E+04  0.7818609E-02  0.8150209E-01
       -2   -1    0    0    0  501  0.00000000000E+00  0.00000000000E+00  0.15655484808E+04  0.15655484808E+04  0.25500000920E-02 0.  1.
        2   -1    0    0  501    0  0.00000000000E+00  0.00000000000E+00 -0.17924418135E+04  0.17924418135E+04  0.25500000920E-02 0. -1.
    10030    2    1    2    0    0  0.00000000000E+00  0.00000000000E+00 -0.22689333272E+03  0.33579902943E+04  0.33503161392E+04 0.  0.
        4    1    3    3  502    0 -0.17469164500E+03 -0.86235652473E+03  0.13152927980E+04  0.15824578048E+04  0.12699999809E+01 0.  1.
       -4    1    3    3    0  502  0.17469164500E+03  0.86235652473E+03 -0.15421861307E+04  0.17755324895E+04  0.12699999809E+01 0. -1.
</event>
<event>
 5   0  0.3896210E-06  0.3191342E+04  0.7818609E-02  0.8191108E-01
       -2   -1    0    0    0  501  0.00000000000E+00  0.00000000000E+00  0.10299894295E+04  0.10299894295E+04  0.25500000920E-02 0.  1.
        2   -1    0    0  501    0  0.00000000000E+00  0.00000000000E+00 -0.24720309216E+04  0.24720309216E+04  0.25500000920E-02 0. -1.
    10030    2    1    2    0    0  0.00000000000E+00  0.00000000000E+00 -0.14420414921E+04  0.35020203511E+04  0.31913418611E+04 0.  0.
        3    1    3    3  502    0 -0.68555075957E+03 -0.31517750514E+03 -0.22639005201E+04  0.23863282001E+04  0.10100000352E+00 0. -1.
       -3    1    3    3    0  502  0.68555075957E+03  0.31517750514E+03  0.82185902795E+03  0.11156921510E+04  0.10100000352E+00 0.  1.
</event>
<event>
 5   0  0.3812379E-06  0.3248877E+04  0.7818609E-02  0.8176027E-01
       -2   -1    0    0    0  501  0.00000000000E+00  0.00000000000E+00  0.17950802123E+04  0.17950802123E+04  0.25500000920E-02 0.  1.
        2   -1    0    0  501    0  0.00000000000E+00  0.00000000000E+00 -0.14700178828E+04  0.14700178828E+04  0.25500000920E-02 0. -1.
    10030    2    1    2    0    0  0.00000000000E+00  0.00000000000E+00  0.32506232957E+03  0.32650980951E+04  0.32488767371E+04 0.  0.
        5    1    3    3  502    0 -0.38779533277E+03  0.15102590667E+04  0.62033853551E+03  0.16781268299E+04  0.46999998093E+01 0.  1.
       -5    1    3    3    0  502  0.38779533277E+03 -0.15102590667E+04 -0.29527620593E+03  0.15869712652E+04  0.46999998093E+01 0. -1.
</event>
<event>
 5   0  0.1282578E-06  0.3440868E+04  0.7818609E-02  0.8127948E-01
       -1   -1    0    0    0  501  0.00000000000E+00  0.00000000000E+00  0.18354330306E+04  0.18354330306E+04  0.50400001928E-02 0. -1.
        1   -1    0    0  501    0  0.00000000000E+00  0.00000000000E+00 -0.16126401906E+04  0.16126401906E+04  0.50400001928E-02 0.  1.
    10030    2    1    2    0    0  0.00000000000E+00  0.00000000000E+00  0.22279283996E+03  0.34480732212E+04  0.34408679558E+04 0.  0.
        4    1    3    3  502    0  0.16964516863E+04  0.18389676701E+03  0.33123016595E+03  0.17382408868E+04  0.12699999809E+01 0. -1.
       -4    1    3    3    0  502 -0.16964516863E+04 -0.18389676701E+03 -0.10843732599E+03  0.17098323343E+04  0.12699999809E+01 0.  1.
</event>
<event>
 5   0  0.1339825E-06  0.3144433E+04  0.7818609E-02  0.8203648E-01
        1   -1    0    0  501    0  0.00000000000E+00  0.00000000000E+00  0.14187316791E+04  0.14187316791E+04  0.50400001928E-02 0. -1.
       -1   -1    0    0    0  501  0.00000000000E+00  0.00000000000E+00 -0.17423062630E+04  0.17423062630E+04  0.50400001928E-02 0.  1.
    10030    2    1    2    0    0  0.00000000000E+00  0.00000000000E+00 -0.32357458385E+03  0.31610379421E+04  0.31444332336E+04 0.  0.
        3    1    3    3  502    0 -0.13799306103E+04  0.29902761459E+02 -0.91859901779E+03  0.16579887907E+04  0.10100000352E+00 0.  1.
       -3    1    3    3    0  502  0.13799306103E+04 -0.29902761459E+02  0.59502443394E+03  0.15030491514E+04  0.10100000352E+00 0. -1.
</event>
<event>
 5   0  0.1352708E-06  0.3120636E+04  0.7818609E-02  0.8210097E-01
       -1   -1    0    0    0  501  0.00000000000E+00  0.00000000000E+00  0.12029147823E+04  0.12029147823E+04  0.50400001928E-02 0.  1.
        1   -1    0    0  501    0  0.00000000000E+00  0.00000000000E+00 -0.20239114195E+04  0.20239114195E+04  0.50400001928E-02 0. -1.
    10030    2    1    2    0    0  0.00000000000E+00  0.00000000000E+00 -0.82099663721E+03  0.32268262018E+04  0.31206364508E+04 0.  0.
        5    1    3    3  502    0  0.71060474263E+03  0.12202775826E+04 -0.10968114509E+04  0.17880307402E+04  0.46999998093E+01 0.  1.
       -5    1    3    3    0  502 -0.71060474263E+03 -0.12202775826E+04  0.27581481373E+03  0.14387954616E+04  0.46999998093E+01 0. -1.
</event>
<event>
 5   0  0.3671997E-06  0.3130780E+04  0.7818609E-02  0.8207341E-01
       -2   -1    0    0    0  501  0.00000000000E+00  0.00000000000E+00  0.11986814611E+04  0.11986814611E+04  0.25500000920E-02 0.  1.
        2   -1    0    0  501    0  0.00000000000E+00  0.00000000000E+00 -0.20442846968E+04  0.20442846968E+04  0.25500000920E-02 0. -1.
    10030    2    1    2    0    0  0.00000000000E+00  0.00000000000E+00 -0.84560323569E+03  0.32429661579E+04  0.31307802014E+04 0.  0.
        2    1    3    3  502    0 -0.34899239706E+03 -0.14552576312E+04 -0.89846871055E+03  0.17455132455E+04  0.25500000920E-02 0. -1.
       -2    1    3    3    0  502  0.34899239706E+03  0.14552576312E+04  0.52865474861E+02  0.14974529124E+04  0.25500000920E-02 0.  1.
</event>
<event>
 5   0  0.3920487E-06  0.3314537E+04  0.7818609E-02  0.8159206E-01
        2   -1    0    0  501    0  0.00000000000E+00  0.00000000000E+00  0.17759060137E+04  0.17759060137E+04  0.25500000920E-02 0.  1.
       -2   -1    0    0    0  501  0.00000000000E+00  0.00000000000E+00 -0.15465561226E+04  0.15465561226E+04  0.25500000920E-02 0. -1.
    10030    2    1    2    0    0  0.00000000000E+00  0.00000000000E+00  0.22934989110E+03  0.33224621364E+04  0.33145366607E+04 0.  0.
        4    1    3    3  502    0  0.13834267923E+04  0.57777783153E+03 -0.59329978813E+03  0.16123595021E+04  0.12699999809E+01 0. -1.
       -4    1    3    3    0  502 -0.13834267923E+04 -0.57777783153E+03  0.82264967923E+03  0.17101026343E+04  0.12699999809E+01 0.  1.
</event>
<event>
 5   0  0.3812379E-06  0.3467705E+04  0.7818609E-02  0.8121486E-01
       -2   -1    0    0    0  501  0.00000000000E+00  0.00000000000E+00  0.15050232167E+04  0.15050232167E+04  0.25500000920E-02 0.  1.
        2   -1    0    0  501    0  0.00000000000E+00  0.00000000000E+00 -0.19974734730E+04  0.19974734730E+04  0.25500000920E-02 0. -1.
    10030    2    1    2    0    0  0.00000000000E+00  0.00000000000E+00 -0.49245025629E+03  0.35024966897E+04  0.34677046885E+04 0.  0.
        5    1    3    3  502    0 -0.97336988494E+03 -0.13002804345E+04  0.36652771335E+03  0.16650954315E+04  0.46999998093E+01 0.  1.
       -5    1    3    3    0  502  0.97336988494E+03  0.13002804345E+04 -0.85897796963E+03  0.18374012582E+04  0.46999998093E+01 0. -1.
</event>
<event>
 5   0  0.3920487E-06  0.3273310E+04  0.7818609E-02  0.8169720E-01
       -2   -1    0    0    0  501  0.00000000000E+00  0.00000000000E+00  0.89332428326E+03  0.89332428326E+03  0.25500000920E-02 0. -1.
        2   -1    0    0  501    0  0.00000000000E+00  0.00000000000E+00 -0.29985072066E+04  0.29985072066E+04  0.25500000920E-02 0.  1.
    10030    2    1    2    0    0  0.00000000000E+00  0.00000000000E+00 -0.21051829233E+04  0.38918314898E+04  0.32733098241E+04 0.  0.
        4    1    3    3  502    0 -0.98657353754E+03  0.12637640458E+04 -0.14437043948E+04  0.21574779028E+04  0.12699999809E+01 0.  1.
       -4    1    3    3    0  502  0.98657353754E+03 -0.12637640458E+04 -0.66147852850E+03  0.17343535871E+04  0.12699999809E+01 0. -1.
</event>
<event>
 5   0  0.3671997E-06  0.3275125E+04  0.7818609E-02  0.8169254E-01
        2   -1    0    0  501    0  0.00000000000E+00  0.00000000000E+00  0.15309676858E+04  0.15309676858E+04  0.25500000920E-02 0. -1.
       -2   -1    0    0    0  501  0.00000000000E+00  0.00000000000E+00 -0.17515786948E+04  0.17515786948E+04  0.25500000920E-02 0.  1.
    10030    2    1    2    0    0  0.00000000000E+00  0.00000000000E+00 -0.22061100892E+03  0.32825463806E+04  0.32751246577E+04 0.  0.
        2    1    3    3  502    0  0.15794553989E+04 -0.23713231730E+03  0.25203730485E+03  0.16169211162E+04  0.25500000920E-02 0. -1.
       -2    1    3    3    0  502 -0.15794553989E+04  0.23713231730E+03 -0.47264831376E+03  0.16656252644E+04  0.25500000920E-02 0.  1.
</event>
<event>
 5   0  0.3812379E-06  0.3110034E+04  0.7818609E-02  0.8212989E-01
        2   -1    0    0  501    0  0.00000000000E+00  0.00000000000E+00  0.16852160399E+04  0.16852160399E+04  0.25500000920E-02 0.  1.
       -2   -1    0    0    0  501  0.00000000000E+00  0.00000000000E+00 -0.14348773586E+04  0.14348773586E+04  0.25500000920E-02 0. -1.
    10030    2    1    2    0    0  0.00000000000E+00  0.00000000000E+00  0.25033868129E+03  0.31200933985E+04  0.31100343021E+04 0.  0.
        5    1    3    3  502    0  0.81163281134E+03  0.28686857791E+03  0.14243539571E+04  0.16642859390E+04  0.46999998093E+01 0.  1.
       -5    1    3    3    0  502 -0.81163281134E+03 -0.28686857791E+03 -0.11740152758E+04  0.14558074596E+04  0.46999998093E+01 0. -1.
</event>
<event>
 5   0  0.3812379E-06  0.3359780E+04  0.7818609E-02  0.8147849E-01
       -2   -1    0    0    0  501  0.00000000000E+00  0.00000000000E+00  0.31403982684E+04  0.31403982684E+04  0.25500000920E-02 0. -1.
        2   -1    0    0  501    0  0.00000000000E+00  0.00000000000E+00 -0.89862201456E+03  0.89862201457E+03  0.25500000920E-02 0.  1.
    10030    2    1    2    0    0  0.00000000000E+00  0.00000000000E+00  0.22417762538E+04  0.40390202829E+04  0.33597803610E+04 0.  0.
        5    1    3    3  502    0  0.68317019893E+03  0.85453634583E+03  0.26533835445E+04  0.28700906277E+04  0.46999998093E+01 0. -1.
       -5    1    3    3    0  502 -0.68317019893E+03 -0.85453634583E+03 -0.41160729072E+03  0.11689296552E+04  0.46999998093E+01 0.  1.
</event>
<event>
 5   0  0.1391878E-06  0.3245552E+04  0.7818609E-02  0.8176890E-01
        1   -1    0    0  501    0  0.00000000000E+00  0.00000000000E+00  0.14021655475E+04  0.14021655475E+04  0.50400001928E-02 0. -1.
       -1   -1    0    0    0  501  0.00000000000E+00  0.00000000000E+00 -0.18780964443E+04  0.18780964443E+04  0.50400001928E-02 0.  1.
    10030    2    1    2    0    0  0.00000000000E+00  0.00000000000E+00 -0.47593089682E+03  0.32802619917E+04  0.32455521126E+04 0.  0.
        2    1    3    3  502    0 -0.11525340380E+04 -0.32994231118E+03  0.86744315632E+03  0.14797480417E+04  0.25500000920E-02 0. -1.
       -2    1    3    3    0  502  0.11525340380E+04  0.32994231118E+03 -0.13433740531E+04  0.18005139500E+04  0.25500000920E-02 0.  1.
</event>
<event>
 5   0  0.1391878E-06  0.3271439E+04  0.7818609E-02  0.8170201E-01
        1   -1    0    0  501    0  0.00000000000E+00  0.00000000000E+00  0.10983894554E+04  0.10983894554E+04  0.50400001928E-02 0. -1.
       -1   -1    0    0    0  501  0.00000000000E+00  0.00000000000E+00 -0.24359100969E+04  0.24359100969E+04  0.50400001928E-02 0.  1.
    10030    2    1    2    0    0  0.00000000000E+00  0.00000000000E+00 -0.13375206416E+04  0.35342995523E+04  0.32714388056E+04 0.  0.
        2    1    3    3  502    0  0.13126285917E+04 -0.53561925364E+02 -0.17215976239E+04  0.21655856201E+04  0.25500000920E-02 0.  1.
       -2    1    3    3    0  502 -0.13126285917E+04  0.53561925364E+02  0.38407698231E+03  0.13687139321E+04  0.25500000920E-02 0. -1.
</event>
<event>
 5   0  0.1391878E-06  0.3315465E+04  0.7818609E-02  0.8158972E-01
       -1   -1    0    0    0  501  0.00000000000E+00  0.00000000000E+00  0.80575894241E+03  0.80575894242E+03  0.50400001928E-02 0.  1.
        1   -1    0    0  501    0  0.00000000000E+00  0.00000000000E+00 -0.34105438637E+04  0.34105438637E+04  0.50400001928E-02 0. -1.
    10030    2    1    2    0    0  0.00000000000E+00  0.00000000000E+00 -0.26047849212E+04  0.42163028061E+04  0.33154645024E+04 0.  0.
        2    1    3    3  502    0  0.10624317902E+04  0.80147483613E+03 -0.25593605294E+04  0.28846922785E+04  0.25500000920E-02 0. -1.
       -2    1    3    3    0  502 -0.10624317902E+04 -0.80147483613E+03 -0.45424391814E+02  0.13316105276E+04  0.25500000920E-02 0.  1.
</event>
<event>
 5   0  0.1352708E-06  0.3290016E+04  0.7818609E-02  0.8165441E-01
        1   -1    0    0  501    0  0.00000000000E+00  0.00000000000E+00  0.20747996052E+04  0.20747996052E+04  0.50400001928E-02 0. -1.
       -1   -1    0    0    0  501  0.00000000000E+00  0.00000000000E+00 -0.13042468013E+04  0.13042468013E+04  0.50400001928E-02 0.  1.
    10030    2    1    2    0    0  0.00000000000E+00  0.00000000000E+00  0.77055280395E+03  0.33790464065E+04  0.32900156525E+04 0.  0.
        5    1    3    3  502    0  0.13347566490E+04  0.90734451368E+03  0.58581780761E+02  0.16150242393E+04  0.46999998093E+01 0.  1.
       -5    1    3    3    0  502 -0.13347566490E+04 -0.90734451368E+03  0.71197102318E+03  0.17640221672E+04  0.46999998093E+01 0. -1.
</event>
<event>
 5   0  0.3896210E-06  0.2456300E+04  0.7818609E-02  0.8418721E-01
        2   -1    0    0  501    0  0.00000000000E+00  0.00000000000E+00  0.17761494556E+04  0.17761494556E+04  0.25500000920E-02 0.  1.
       -2   -1    0    0    0  501  0.00000000000E+00  0.00000000000E+00 -0.84922599053E+03  0.84922599054E+03  0.25500000920E-02 0. -1.
    10030    2    1    2    0    0  0.00000000000E+00  0.00000000000E+00  0.92692346505E+03  0.26253754461E+04  0.24562998846E+04 0.  0.
        3    1    3    3  502    0 -0.10705925706E+04  0.59412350927E+03  0.36093684693E+03  0.12764899585E+04  0.10100000352E+00 0. -1.
       -3    1    3    3    0  502  0.10705925706E+04 -0.59412350927E+03  0.56598661811E+03  0.13488854876E+04  0.10100000352E+00 0.  1.
</event>
<event>
 5   0  0.1405389E-06  0.3245507E+04  0.7818609E-02  0.8176901E-01
       -1   -1    0    0    0  501  0.00000000000E+00  0.00000000000E+00  0.14496791809E+04  0.14496791809E+04  0.50400001928E-02 0.  1.
        1   -1    0    0  501    0  0.00000000000E+00  0.00000000000E+00 -0.18164905774E+04  0.18164905774E+04  0.50400001928E-02 0. -1.
    10030    2    1    2    0    0  0.00000000000E+00  0.00000000000E+00 -0.36681139653E+03  0.32661697584E+04  0.32455067847E+04 0.  0.
        1    1    3    3  502    0 -0.75336116664E+03  0.14061552343E+04 -0.48279424649E+03  0.16667080952E+04  0.50400001928E-02 0. -1.
       -1    1    3    3    0  502  0.75336116664E+03 -0.14061552343E+04  0.11598284996E+03  0.15994616631E+04  0.50400001928E-02 0.  1.
</event>
<event>
 5   0  0.1391878E-06  0.2855389E+04  0.7818609E-02  0.8286276E-01
        1   -1    0    0  501    0  0.00000000000E+00  0.00000000000E+00  0.12354653679E+04  0.12354653680E+04  0.50400001928E-02 0.  1.
       -1   -1    0    0    0  501  0.00000000000E+00  0.00000000000E+00 -0.16498332918E+04  0.16498332918E+04  0.50400001928E-02 0. -1.
    10030    2    1    2    0    0  0.00000000000E+00  0.00000000000E+00 -0.41436792385E+03  0.28852986598E+04  0.28553892168E+04 0.  0.
        2    1    3    3  502    0 -0.87460400267E+02  0.10106677733E+04 -0.12223028893E+04  0.15884341418E+04  0.25500000920E-02 0. -1.
       -2    1    3    3    0  502  0.87460400267E+02 -0.10106677733E+04  0.80793496545E+03  0.12968645180E+04  0.25500000920E-02 0.  1.
</event>
<event>
 5   0  0.1352708E-06  0.3339727E+04  0.7818609E-02  0.8152860E-01
        1   -1    0    0  501    0  0.00000000000E+00  0.00000000000E+00  0.21174912808E+04  0.21174912808E+04  0.50400001928E-02 0. -1.
       -1   -1    0    0    0  501  0.00000000000E+00  0.00000000000E+00 -0.13168621684E+04  0.13168621684E+04  0.50400001928E-02 0.  1.
    10030    2    1    2    0    0  0.00000000000E+00  0.00000000000E+00  0.80062911239E+03  0.34343534492E+04  0.33397270306E+04 0.  0.
        5    1    3    3  502    0 -0.14415749073E+04 -0.55039881995E+03 -0.25600479560E+03  0.15641731425E+04  0.46999998093E+01 0.  1.
       -5    1    3    3    0  502  0.14415749073E+04  0.55039881995E+03  0.10566339080E+04  0.18701803068E+04  0.46999998093E+01 0. -1.
</event>
<event>
 5   0  0.3671997E-06  0.3337316E+04  0.7818609E-02  0.8153465E-01
       -2   -1    0    0    0  501  0.00000000000E+00  0.00000000000E+00  0.10599970064E+04  0.10599970064E+04  0.25500000920E-02 0.  1.
        2   -1    0    0  501    0  0.00000000000E+00  0.00000000000E+00 -0.26268178988E+04  0.26268178989E+04  0.25500000920E-02 0. -1.
    10030    2    1    2    0    0  0.00000000000E+00  0.00000000000E+00 -0.15668208924E+04  0.36868149053E+04  0.33373157533E+04 0.  0.
        2    1    3    3  502    0 -0.15303738424E+04 -0.63024285527E+03 -0.54862344023E+03  0.17436277795E+04  0.25500000920E-02 0.  1.
       -2    1    3    3    0  502  0.15303738424E+04  0.63024285527E+03 -0.10181974522E+04  0.19431871258E+04  0.25500000920E-02 0. -1.
</event>
<event>
 5   0  0.3920487E-06  0.3296270E+04  0.7818609E-02  0.8163845E-01
        2   -1    0    0  501    0  0.00000000000E+00  0.00000000000E+00  0.22387833885E+04  0.22387833885E+04  0.25500000920E-02 0. -1.
       -2   -1    0    0    0  501  0.00000000000E+00  0.00000000000E+00 -0.12133146862E+04  0.12133146862E+04  0.25500000920E-02 0.  1.
    10030    2    1    2    0    0  0.00000000000E+00  0.00000000000E+00  0.10254687023E+04  0.34520980748E+04  0.32962698704E+04 0.  0.
        4    1    3    3  502    0 -0.13969695354E+04 -0.37217706503E+03 -0.31607410105E+03  0.14798459720E+04  0.12699999809E+01 0.  1.
       -4    1    3    3    0  502  0.13969695354E+04  0.37217706503E+03  0.13415428033E+04  0.19722521027E+04  0.12699999809E+01 0. -1.
</event>
<event>
 5   0  0.1339825E-06  0.3246280E+04  0.7818609E-02  0.8176700E-01
        1   -1    0    0  501    0  0.00000000000E+00  0.00000000000E+00  0.29187191497E+04  0.29187191497E+04  0.50400001928E-02 0. -1.
       -1   -1    0    0    0  501  0.00000000000E+00  0.00000000000E+00 -0.90265070277E+03  0.90265070278E+03  0.50400001928E-02 0.  1.
    10030    2    1    2    0    0  0.00000000000E+00  0.00000000000E+00  0.20160684469E+04  0.38213698525E+04  0.32462802662E+04 0.  0.
        3    1    3    3  502    0 -0.28094519621E+02 -0.40791896697E+03  0.28571008098E+04  0.28862107049E+04  0.10100000352E+00 0. -1.
       -3    1    3    3    0  502  0.28094519621E+02  0.40791896697E+03 -0.84103236288E+03  0.93515914755E+03  0.10100000352E+00 0.  1.
</event>
<event>
 5   0  0.3671997E-06  0.3231967E+04  0.7818609E-02  0.8180425E-01
       -2   -1    0    0    0  501  0.00000000000E+00  0.00000000000E+00  0.11487743968E+04  0.11487743968E+04  0.25500000920E-02 0. -1.
        2   -1    0    0  501    0  0.00000000000E+00  0.00000000000E+00 -0.22732076276E+04  0.22732076276E+04  0.25500000920E-02 0.  1.
    10030    2    1    2    0    0  0.00000000000E+00  0.00000000000E+00 -0.11244332308E+04  0.34219820244E+04  0.32319670303E+04 0.  0.
        2    1    3    3  502    0  0.74148751787E+02  0.99185796887E+03 -0.19107217982E+04  0.21540979685E+04  0.25500000920E-02 0.  1.
       -2    1    3    3    0  502 -0.74148751787E+02 -0.99185796887E+03  0.78628856747E+03  0.12678840559E+04  0.25500000920E-02 0. -1.
</event>
<event>
 5   0  0.1352708E-06  0.2462299E+04  0.7818609E-02  0.8416541E-01
       -1   -1    0    0    0  501  0.00000000000E+00  0.00000000000E+00  0.11371318629E+04  0.11371318629E+04  0.50400001928E-02 0. -1.
        1   -1    0    0  501    0  0.00000000000E+00  0.00000000000E+00 -0.13329403608E+04  0.13329403608E+04  0.50400001928E-02 0.  1.
    10030    2    1    2    0    0  0.00000000000E+00  0.00000000000E+00 -0.19580849783E+03  0.24700722237E+04  0.24622988898E+04 0.  0.
        5    1    3    3  502    0 -0.77481292214E+03  0.57326376045E+03 -0.86631229202E+03  0.12959496443E+04  0.46999998093E+01 0.  1.
       -5    1    3    3    0  502  0.77481292214E+03 -0.57326376045E+03  0.67050379419E+03  0.11741225794E+04  0.46999998093E+01 0. -1.
</event>
<event>
 5   0  0.1282578E-06  0.3287929E+04  0.7818609E-02  0.8165974E-01
        1   -1    0    0  501    0  0.00000000000E+00  0.00000000000E+00  0.10898406189E+04  0.10898406189E+04  0.50400001928E-02 0. -1.
       -1   -1    0    0    0  501  0.00000000000E+00  0.00000000000E+00 -0.24798295374E+04  0.24798295374E+04  0.50400001928E-02 0.  1.
    10030    2    1    2    0    0  0.00000000000E+00  0.00000000000E+00 -0.13899889185E+04  0.35696701563E+04  0.32879288057E+04 0.  0.
        4    1    3    3  502    0  0.84126227764E+03  0.97962900026E+03 -0.17996387710E+04  0.22149709969E+04  0.12699999809E+01 0.  1.
       -4    1    3    3    0  502 -0.84126227764E+03 -0.97962900026E+03  0.40964985253E+03  0.13546991594E+04  0.12699999809E+01 0. -1.
</event>
<event>
 5   0  0.1391878E-06  0.3295918E+04  0.7818609E-02  0.8163935E-01
        1   -1    0    0  501    0  0.00000000000E+00  0.00000000000E+00  0.17930696564E+04  0.17930696564E+04  0.50400001928E-02 0.  1.
       -1   -1    0    0    0  501  0.00000000000E+00  0.00000000000E+00 -0.15145916056E+04  0.15145916057E+04  0.50400001928E-02 0. -1.
    10030    2    1    2    0    0  0.00000000000E+00  0.00000000000E+00  0.27847805070E+03  0.33076612620E+04  0.32959176263E+04 0.  0.
        2    1    3    3  502    0 -0.33347078010E+03 -0.93371738044E+03  0.14602640524E+04  0.17650501439E+04  0.25500000920E-02 0.  1.
       -2    1    3    3    0  502  0.33347078010E+03  0.93371738044E+03 -0.11817860017E+04  0.15426111181E+04  0.25500000920E-02 0. -1.
</event>
<event>
 5   0  0.1352708E-06  0.3287447E+04  0.7818609E-02  0.8166097E-01
       -1   -1    0    0    0  501  0.00000000000E+00  0.00000000000E+00  0.12507298373E+04  0.12507298373E+04  0.50400001928E-02 0.  1.
        1   -1    0    0  501    0  0.00000000000E+00  0.00000000000E+00 -0.21602007179E+04  0.21602007179E+04  0.50400001928E-02 0. -1.
    10030    2    1    2    0    0  0.00000000000E+00  0.00000000000E+00 -0.90947088060E+03  0.34109305551E+04  0.32874473333E+04 0.  0.
        5    1    3    3  502    0 -0.44013939244E+03 -0.11899257234E+04  0.62958365390E+03  0.14163486786E+04  0.46999998093E+01 0.  1.
       -5    1    3    3    0  502  0.44013939244E+03  0.11899257234E+04 -0.15390545345E+04  0.19945818765E+04  0.46999998093E+01 0. -1.
</event>
<event>
 5   0  0.1405389E-06  0.3188161E+04  0.7818609E-02  0.8191951E-01
       -1   -1    0    0    0  501  0.00000000000E+00  0.00000000000E+00  0.12169394734E+04  0.12169394734E+04  0.50400001928E-02 0.  1.
        1   -1    0    0  501    0  0.00000000000E+00  0.00000000000E+00 -0.20881010033E+04  0.20881010033E+04  0.50400001928E-02 0. -1.
    10030    2    1    2    0    0  0.00000000000E+00  0.00000000000E+00 -0.87116152986E+03  0.33050404767E+04  0.31881609341E+04 0.  0.
        1    1    3    3  502    0 -0.10323533353E+04  0.11018080561E+04 -0.96555475651E+03  0.17922138235E+04  0.50400001928E-02 0. -1.
       -1    1    3    3    0  502  0.10323533353E+04 -0.11018080561E+04  0.94393226648E+02  0.15128266532E+04  0.50400001928E-02 0.  1.
</event>
<event>
 5   0  0.3896210E-06  0.3292607E+04  0.7818609E-02  0.8164779E-01
        2   -1    0    0  501    0  0.00000000000E+00  0.00000000000E+00  0.18497860445E+04  0.18497860445E+04  0.25500000920E-02 0.  1.
       -2   -1    0    0    0  501  0.00000000000E+00  0.00000000000E+00 -0.14652046919E+04  0.14652046919E+04  0.25500000920E-02 0. -1.
    10030    2    1    2    0    0  0.00000000000E+00  0.00000000000E+00  0.38458135260E+03  0.33149907363E+04  0.32926069861E+04 0.  0.
        3    1    3    3  502    0  0.58949921998E+03 -0.15333855712E+04  0.30041977376E+03  0.16700397274E+04  0.10100000352E+00 0. -1.
       -3    1    3    3    0  502 -0.58949921998E+03  0.15333855712E+04  0.84161578836E+02  0.16449510090E+04  0.10100000352E+00 0.  1.
</event>
<event>
 5   0  0.3896210E-06  0.3287383E+04  0.7818609E-02  0.8166113E-01
        2   -1    0    0  501    0  0.00000000000E+00  0.00000000000E+00  0.22358291792E+04  0.22358291792E+04  0.25500000920E-02 0.  1.
       -2   -1    0    0    0  501  0.00000000000E+00  0.00000000000E+00 -0.12083756311E+04  0.12083756311E+04  0.25500000920E-02 0. -1.
    10030    2    1    2    0    0  0.00000000000E+00  0.00000000000E+00  0.10274535481E+04  0.34442048103E+04  0.32873828469E+04 0.  0.
        3    1    3    3  502    0  0.93747458070E+03  0.13470576298E+04  0.60916933679E+03  0.17505742311E+04  0.10100000352E+00 0.  1.
       -3    1    3    3    0  502 -0.93747458070E+03 -0.13470576298E+04  0.41828421129E+03  0.16936305793E+04  0.10100000352E+00 0. -1.
</event>
<event>
 5   0  0.1352708E-06  0.3291509E+04  0.7818609E-02  0.8165059E-01
        1   -1    0    0  501    0  0.00000000000E+00  0.00000000000E+00  0.17227498375E+04  0.17227498375E+04  0.50400001928E-02 0. -1.
       -1   -1    0    0    0  501  0.00000000000E+00  0.00000000000E+00 -0.15722003596E+04  0.15722003596E+04  0.50400001928E-02 0.  1.
    10030    2    1    2    0    0  0.00000000000E+00  0.00000000000E+00  0.15054947785E+03  0.32949501971E+04  0.32915090241E+04 0.  0.
        5    1    3    3  502    0 -0.65942660446E+03 -0.22570412940E+03  0.15677056364E+04  0.17156657172E+04  0.46999998093E+01 0. -1.
       -5    1    3    3    0  502  0.65942660446E+03  0.22570412940E+03 -0.14171561586E+04  0.15792844799E+04  0.46999998093E+01 0.  1.
</event>
<event>
 5   0  0.1339825E-06  0.3297366E+04  0.7818609E-02  0.8163566E-01
        1   -1    0    0  501    0  0.00000000000E+00  0.00000000000E+00  0.11869736917E+04  0.11869736917E+04  0.50400001928E-02 0. -1.
       -1   -1    0    0    0  501  0.00000000000E+00  0.00000000000E+00 -0.22899887060E+04  0.22899887060E+04  0.50400001928E-02 0.  1.
    10030    2    1    2    0    0  0.00000000000E+00  0.00000000000E+00 -0.11030150143E+04  0.34769623977E+04  0.32973664329E+04 0.  0.
        3    1    3    3  502    0 -0.51806603048E+03 -0.15236138065E+04 -0.92930225495E+03  0.18583310078E+04  0.10100000352E+00 0.  1.
       -3    1    3    3    0  502  0.51806603048E+03  0.15236138065E+04 -0.17371275937E+03  0.16186313899E+04  0.10100000352E+00 0. -1.
</event>
<event>
 5   0  0.1339825E-06  0.3011972E+04  0.7818609E-02  0.8240321E-01
        1   -1    0    0  501    0  0.00000000000E+00  0.00000000000E+00  0.14005167649E+04  0.14005167649E+04  0.50400001928E-02 0. -1.
       -1   -1    0    0    0  501  0.00000000000E+00  0.00000000000E+00 -0.16193974736E+04  0.16193974736E+04  0.50400001928E-02 0.  1.
    10030    2    1    2    0    0  0.00000000000E+00  0.00000000000E+00 -0.21888070876E+03  0.30199142385E+04  0.30119716538E+04 0.  0.
        3    1    3    3  502    0  0.14604418638E+04 -0.24582683640E+03  0.16454207169E+03  0.14900991157E+04  0.10100000352E+00 0.  1.
       -3    1    3    3    0  502 -0.14604418638E+04  0.24582683640E+03 -0.38342278045E+03  0.15298151228E+04  0.10100000352E+00 0. -1.
</event>
<event>
 5   0  0.3671997E-06  0.2088801E+04  0.7818609E-02  0.8566193E-01
        2   -1    0    0  501    0  0.00000000000E+00  0.00000000000E+00  0.11984997626E+04  0.11984997626E+04  0.25500000920E-02 0. -1.
       -2   -1    0    0    0  501  0.00000000000E+00  0.00000000000E+00 -0.91011479433E+03  0.91011479434E+03  0.25500000920E-02 0.  1.
    10030    2    1    2    0    0  0.00000000000E+00  0.00000000000E+00  0.28838496830E+03  0.21086145570E+04  0.20888009623E+04 0.  0.
        2    1    3    3  502    0  0.50696924425E+03  0.18079063336E+03  0.10477071052E+04  0.11778765835E+04  0.25500000920E-02 0. -1.
       -2    1    3    3    0  502 -0.50696924425E+03 -0.18079063336E+03 -0.75932213687E+03  0.93073797348E+03  0.25500000920E-02 0.  1.
</event>
<event>
 5   0  0.3671997E-06  0.3314303E+04  0.7818609E-02  0.8159265E-01
       -2   -1    0    0    0  501  0.00000000000E+00  0.00000000000E+00  0.10935328906E+04  0.10935328906E+04  0.25500000920E-02 0. -1.
        2   -1    0    0  501    0  0.00000000000E+00  0.00000000000E+00 -0.25112657515E+04  0.25112657515E+04  0.25500000920E-02 0.  1.
    10030    2    1    2    0    0  0.00000000000E+00  0.00000000000E+00 -0.14177328609E+04  0.36047986420E+04  0.33143033634E+04 0.  0.
        2    1    3    3  502    0 -0.10205990459E+04  0.30666703492E+02  0.71075042117E+03  0.12440775782E+04  0.25500000920E-02 0. -1.
       -2    1    3    3    0  502  0.10205990459E+04 -0.30666703492E+02 -0.21284832821E+04  0.23607210639E+04  0.25500000920E-02 0.  1.
</event>
<event>
 5   0  0.1282578E-06  0.2785664E+04  0.7818609E-02  0.8307733E-01
        1   -1    0    0  501    0  0.00000000000E+00  0.00000000000E+00  0.15766812812E+04  0.15766812812E+04  0.50400001928E-02 0. -1.
       -1   -1    0    0    0  501  0.00000000000E+00  0.00000000000E+00 -0.12304202017E+04  0.12304202017E+04  0.50400001928E-02 0.  1.
    10030    2    1    2    0    0  0.00000000000E+00  0.00000000000E+00  0.34626107951E+03  0.28071014829E+04  0.27856636552E+04 0.  0.
        4    1    3    3  502    0 -0.52428466618E+03  0.48996038381E+03  0.13760691533E+04  0.15519354099E+04  0.12699999809E+01 0. -1.
       -4    1    3    3    0  502  0.52428466618E+03 -0.48996038381E+03 -0.10298080738E+04  0.12551660730E+04  0.12699999809E+01 0.  1.
</event>
<event>
 5   0  0.4017247E-06  0.3233782E+04  0.7818609E-02  0.8179952E-01
        2   -1    0    0  501    0  0.00000000000E+00  0.00000000000E+00  0.17520366384E+04  0.17520366384E+04  0.25500000920E-02 0.  1.
       -2   -1    0    0    0  501  0.00000000000E+00  0.00000000000E+00 -0.14921697676E+04  0.14921697676E+04  0.25500000920E-02 0. -1.
    10030    2    1    2    0    0  0.00000000000E+00  0.00000000000E+00  0.25986687084E+03  0.32442064060E+04  0.32337817512E+04 0.  0.
        1    1    3    3  502    0  0.14863755460E+04 -0.58916923680E+03  0.37134050976E+03  0.16414403515E+04  0.50400001928E-02 0.  1.
       -1    1    3    3    0  502 -0.14863755460E+04  0.58916923680E+03 -0.11147363892E+03  0.16027660545E+04  0.50400001928E-02 0. -1.
</event>
<event>
 5   0  0.3812379E-06  0.3400234E+04  0.7818609E-02  0.8137849E-01
        2   -1    0    0  501    0  0.00000000000E+00  0.00000000000E+00  0.91764972829E+03  0.91764972829E+03  0.25500000920E-02 0. -1.
       -2   -1    0    0    0  501  0.00000000000E+00  0.00000000000E+00 -0.31497838466E+04  0.31497838466E+04  0.25500000920E-02 0.  1.
    10030    2    1    2    0    0  0.00000000000E+00  0.00000000000E+00 -0.22321341183E+04  0.40674335749E+04  0.34002342808E+04 0.  0.
        5    1    3    3  502    0  0.15851901478E+04 -0.11574532338E+03 -0.18379264812E+04  0.24298602068E+04  0.46999998093E+01 0.  1.
       -5    1    3    3    0  502 -0.15851901478E+04  0.11574532338E+03 -0.39420763717E+03  0.16375733681E+04  0.46999998093E+01 0. -1.
</event>
<event>
 5   0  0.3812379E-06  0.2532804E+04  0.7818609E-02  0.8391391E-01
        2   -1    0    0  501    0  0.00000000000E+00  0.00000000000E+00  0.20465553423E+04  0.20465553423E+04  0.25500000920E-02 0.  1.
       -2   -1    0    0    0  501  0.00000000000E+00  0.00000000000E+00 -0.78364578237E+03  0.78364578237E+03  0.25500000920E-02 0. -1.
    10030    2    1    2    0    0  0.00000000000E+00  0.00000000000E+00  0.12629095600E+04  0.28302011247E+04  0.25328043449E+04 0.  0.
        5    1    3    3  502    0 -0.11981750878E+04 -0.40707489870E+03  0.57649805303E+03  0.13905774374E+04  0.46999998093E+01 0. -1.
       -5    1    3    3    0  502  0.11981750878E+04  0.40707489870E+03  0.68641150695E+03  0.14396236873E+04  0.46999998093E+01 0.  1.
</event>
<event>
 5   0  0.3671997E-06  0.3276297E+04  0.7818609E-02  0.8168953E-01
       -2   -1    0    0    0  501  0.00000000000E+00  0.00000000000E+00  0.29199799498E+04  0.29199799498E+04  0.25500000920E-02 0. -1.
        2   -1    0    0  501    0  0.00000000000E+00  0.00000000000E+00 -0.91902371739E+03  0.91902371739E+03  0.25500000920E-02 0.  1.
    10030    2    1    2    0    0  0.00000000000E+00  0.00000000000E+00  0.20009562324E+04  0.38390036672E+04  0.32762971954E+04 0.  0.
        2    1    3    3  502    0  0.32415080937E+03 -0.24517213580E+03 -0.85900861240E+03  0.95030464567E+03  0.25500000920E-02 0.  1.
       -2    1    3    3    0  502 -0.32415080937E+03  0.24517213580E+03  0.28599648448E+04  0.28886990215E+04  0.25500000920E-02 0. -1.
</event>
<event>
 5   0  0.1352708E-06  0.3162944E+04  0.7818609E-02  0.8198673E-01
       -1   -1    0    0    0  501  0.00000000000E+00  0.00000000000E+00  0.94572681500E+03  0.94572681502E+03  0.50400001928E-02 0. -1.
        1   -1    0    0  501    0  0.00000000000E+00  0.00000000000E+00 -0.26445831502E+04  0.26445831502E+04  0.50400001928E-02 0.  1.
    10030    2    1    2    0    0  0.00000000000E+00  0.00000000000E+00 -0.16988563352E+04  0.35903099652E+04  0.31629436920E+04 0.  0.
        5    1    3    3  502    0 -0.94724969961E+02 -0.15245154779E+04 -0.38429226733E+03  0.15750628238E+04  0.46999998093E+01 0. -1.
       -5    1    3    3    0  502  0.94724969961E+02  0.15245154779E+04 -0.13145640679E+04  0.20152471414E+04  0.46999998093E+01 0.  1.
</event>
<event>
 5   0  0.3896210E-06  0.3589907E+04  0.7818609E-02  0.8092807E-01
       -2   -1    0    0    0  501  0.00000000000E+00  0.00000000000E+00  0.12346245103E+04  0.12346245103E+04  0.25500000920E-02 0. -1.
        2   -1    0    0  501    0  0.00000000000E+00  0.00000000000E+00 -0.26095856244E+04  0.26095856244E+04  0.25500000920E-02 0.  1.
    10030    2    1    2    0    0  0.00000000000E+00  0.00000000000E+00 -0.13749611141E+04  0.38442101346E+04  0.35899071707E+04 0.  0.
        3    1    3    3  502    0 -0.17351754851E+03  0.12956950370E+04  0.62966118560E+03  0.14510021321E+04  0.10100000352E+00 0. -1.
       -3    1    3    3    0  502  0.17351754851E+03 -0.12956950370E+04 -0.20046222997E+04  0.23932080025E+04  0.10100000352E+00 0.  1.
</event>
<event>
 5   0  0.1339825E-06  0.3304544E+04  0.7818609E-02  0.8161740E-01
       -1   -1    0    0    0  501  0.00000000000E+00  0.00000000000E+00  0.14536292570E+04  0.14536292571E+04  0.50400001928E-02 0. -1.
        1   -1    0    0  501    0  0.00000000000E+00  0.00000000000E+00 -0.18780601974E+04  0.18780601974E+04  0.50400001928E-02 0.  1.
    10030    2    1    2    0    0  0.00000000000E+00  0.00000000000E+00 -0.42443094038E+03  0.33316894545E+04  0.33045442951E+04 0.  0.
        3    1    3    3  502    0 -0.46646175992E+02  0.15128165767E+04 -0.88039123111E+03  0.17509650455E+04  0.10100000352E+00 0.  1.
       -3    1    3    3    0  502  0.46646175992E+02 -0.15128165767E+04  0.45596029072E+03  0.15807244090E+04  0.10100000352E+00 0. -1.
</event>
<event>
 5   0  0.3920487E-06  0.3123120E+04  0.7818609E-02  0.8209421E-01
        2   -1    0    0  501    0  0.00000000000E+00  0.00000000000E+00  0.16894289049E+04  0.16894289049E+04  0.25500000920E-02 0.  1.
       -2   -1    0    0    0  501  0.00000000000E+00  0.00000000000E+00 -0.14433691688E+04  0.14433691688E+04  0.25500000920E-02 0. -1.
    10030    2    1    2    0    0  0.00000000000E+00  0.00000000000E+00  0.24605973611E+03  0.31327980737E+04  0.31231199747E+04 0.  0.
        4    1    3    3  502    0  0.96160465740E+03 -0.41725913196E+03 -0.10380020402E+04  0.14752079679E+04  0.12699999809E+01 0. -1.
       -4    1    3    3    0  502 -0.96160465740E+03  0.41725913196E+03  0.12840617763E+04  0.16575901057E+04  0.12699999809E+01 0.  1.
</event>
<event>
 5   0  0.1391878E-06  0.3228619E+04  0.7818609E-02  0.8181300E-01
        1   -1    0    0  501    0  0.00000000000E+00  0.00000000000E+00  0.17341737219E+04  0.17341737219E+04  0.50400001928E-02 0.  1.
       -1   -1    0    0    0  501  0.00000000000E+00  0.00000000000E+00 -0.15027303294E+04  0.15027303294E+04  0.50400001928E-02 0. -1.
    10030    2    1    2    0    0  0.00000000000E+00  0.00000000000E+00  0.23144339248E+03  0.32369040512E+04  0.32286191774E+04 0.  0.
        2    1    3    3  502    0  0.11862848290E+04 -0.18398064902E+02 -0.98179524849E+03  0.15399779526E+04  0.25500000920E-02 0. -1.
       -2    1    3    3    0  502 -0.11862848290E+04  0.18398064902E+02  0.12132386410E+04  0.16969260987E+04  0.25500000920E-02 0.  1.
</event>
<event>
 5   0  0.1405389E-06  0.3089927E+04  0.7818609E-02  0.8218508E-01
       -1   -1    0    0    0  501  0.00000000000E+00  0.00000000000E+00  0.25400530155E+04  0.25400530155E+04  0.50400001928E-02 0.  1.
        1   -1    0    0  501    0  0.00000000000E+00  0.00000000000E+00 -0.93970960831E+03  0.93970960832E+03  0.50400001928E-02 0. -1.
    10030    2    1    2    0    0  0.00000000000E+00  0.00000000000E+00  0.16003434072E+04  0.34797626238E+04  0.30899270052E+04 0.  0.
        1    1    3    3  502    0 -0.51209421232E+03  0.11683045680E+04  0.17817677556E+04  0.21913174988E+04  0.50400001928E-02 0.  1.
       -1    1    3    3    0  502  0.51209421232E+03 -0.11683045680E+04 -0.18142434836E+03  0.12884451250E+04  0.50400001928E-02 0. -1.
</event>
<event>
 5   0  0.3812379E-06  0.3414597E+04  0.7818609E-02  0.8134333E-01
       -2   -1    0    0    0  501  0.00000000000E+00  0.00000000000E+00  0.18108161553E+04  0.18108161553E+04  0.25500000920E-02 0.  1.
        2   -1    0    0  501    0  0.00000000000E+00  0.00000000000E+00 -0.16096988511E+04  0.16096988511E+04  0.25500000920E-02 0. -1.
    10030    2    1    2    0    0  0.00000000000E+00  0.00000000000E+00  0.20111730420E+03  0.34205150064E+04  0.34145973026E+04 0.  0.
        5    1    3    3  502    0 -0.13336428330E+04  0.33703634141E+03  0.11135727651E+04  0.17698200741E+04  0.46999998093E+01 0.  1.
       -5    1    3    3    0  502  0.13336428330E+04 -0.33703634141E+03 -0.91245546092E+03  0.16506949323E+04  0.46999998093E+01 0. -1.
</event>
<event>
 5   0  0.1352708E-06  0.3209765E+04  0.7818609E-02  0.8186243E-01
       -1   -1    0    0    0  501  0.00000000000E+00  0.00000000000E+00  0.10705513292E+04  0.10705513292E+04  0.50400001928E-02 0. -1.
        1   -1    0    0  501    0  0.00000000000E+00  0.00000000000E+00 -0.24059080608E+04  0.24059080608E+04  0.50400001928E-02 0.  1.
    10030    2    1    2    0    0  0.00000000000E+00  0.00000000000E+00 -0.13353567316E+04  0.34764593900E+04  0.32097651456E+04 0.  0.
        5    1    3    3  502    0 -0.72424206873E+03 -0.98811985502E+03 -0.17905013095E+04  0.21695217102E+04  0.46999998093E+01 0.  1.
       -5    1    3    3    0  502  0.72424206873E+03  0.98811985502E+03  0.45514457787E+03  0.13069376798E+04  0.46999998093E+01 0. -1.
</event>
<event>
 5   0  0.3896210E-06  0.3204066E+04  0.7818609E-02  0.8187744E-01
        2   -1    0    0  501    0  0.00000000000E+00  0.00000000000E+00  0.17597967710E+04  0.17597967710E+04  0.25500000920E-02 0. -1.
       -2   -1    0    0    0  501  0.00000000000E+00  0.00000000000E+00 -0.14584124864E+04  0.14584124864E+04  0.25500000920E-02 0.  1.
    10030    2    1    2    0    0  0.00000000000E+00  0.00000000000E+00  0.30138428461E+03  0.32182092574E+04  0.32040659071E+04 0.  0.
        3    1    3    3  502    0 -0.13345298172E+03  0.47245660519E+03 -0.13809932687E+04  0.14656627718E+04  0.10100000352E+00 0.  1.
       -3    1    3    3    0  502  0.13345298172E+03 -0.47245660519E+03  0.16823775533E+04  0.17525464856E+04  0.10100000352E+00 0. -1.
</event>
<event>
 5   0  0.4017247E-06  0.3286942E+04  0.7818609E-02  0.8166226E-01
        2   -1    0    0  501    0  0.00000000000E+00  0.00000000000E+00  0.24369293529E+04  0.24369293529E+04  0.25500000920E-02 0. -1.
       -2   -1    0    0    0  501  0.00000000000E+00  0.00000000000E+00 -0.11083608557E+04  0.11083608557E+04  0.25500000920E-02 0.  1.
    10030    2    1    2    0    0  0.00000000000E+00  0.00000000000E+00  0.13285684971E+04  0.35452902086E+04  0.32869421065E+04 0.  0.
        1    1    3    3  502    0 -0.50861809981E+03  0.12419501196E+04 -0.35888699975E+03  0.13892200509E+04  0.50400001928E-02 0.  1.
       -1    1    3    3    0  502  0.50861809981E+03 -0.12419501196E+04  0.16874554969E+04  0.21560701577E+04  0.50400001928E-02 0. -1.
</event>
<event>
 5   0  0.1391878E-06  0.3268684E+04  0.7818609E-02  0.8170910E-01
       -1   -1    0    0    0  501  0.00000000000E+00  0.00000000000E+00  0.18485369717E+04  0.18485369717E+04  0.50400001928E-02 0. -1.
        1   -1    0    0  501    0  0.00000000000E+00  0.00000000000E+00 -0.14449662659E+04  0.14449662659E+04  0.50400001928E-02 0.  1.
    10030    2    1    2    0    0  0.00000000000E+00  0.00000000000E+00  0.40357070581E+03  0.32935032376E+04  0.32686838730E+04 0.  0.
        2    1    3    3  502    0  0.12731071557E+04  0.32867835603E+03  0.11798475353E+04  0.17665988504E+04  0.25500000920E-02 0. -1.
       -2    1    3    3    0  502 -0.12731071557E+04 -0.32867835603E+03 -0.77627682953E+03  0.15269043872E+04  0.25500000920E-02 0.  1.
</event>
<event>
 5   0  0.1391878E-06  0.3164136E+04  0.7818609E-02  0.8198354E-01
       -1   -1    0    0    0  501  0.00000000000E+00  0.00000000000E+00  0.14789629166E+04  0.14789629166E+04  0.50400001928E-02 0. -1.
        1   -1    0    0  501    0  0.00000000000E+00  0.00000000000E+00 -0.16923604976E+04  0.16923604976E+04  0.50400001928E-02 0.  1.
    10030    2    1    2    0    0  0.00000000000E+00  0.00000000000E+00 -0.21339758094E+03  0.31713234142E+04  0.31641355328E+04 0.  0.
        2    1    3    3  502    0  0.12256633763E+04  0.96996800209E+03 -0.35189668499E+03  0.16021610138E+04  0.25500000920E-02 0.  1.
       -2    1    3    3    0  502 -0.12256633763E+04 -0.96996800209E+03  0.13849910405E+03  0.15691624005E+04  0.25500000920E-02 0. -1.
</event>
<event>
 5   0  0.3896210E-06  0.3324466E+04  0.7818609E-02  0.8156698E-01
        2   -1    0    0  501    0  0.00000000000E+00  0.00000000000E+00  0.17938428400E+04  0.17938428400E+04  0.25500000920E-02 0.  1.
       -2   -1    0    0    0  501  0.00000000000E+00  0.00000000000E+00 -0.15402794424E+04  0.15402794424E+04  0.25500000920E-02 0. -1.
    10030    2    1    2    0    0  0.00000000000E+00  0.00000000000E+00  0.25356339761E+03  0.33341222824E+04  0.33244664230E+04 0.  0.
        3    1    3    3  502    0  0.78710937200E+03 -0.10237171309E+04 -0.92291071751E+03  0.15872309631E+04  0.10100000352E+00 0.  1.
       -3    1    3    3    0  502 -0.78710937200E+03  0.10237171309E+04  0.11764741151E+04  0.17468913193E+04  0.10100000352E+00 0. -1.
</event>
<event>
 5   0  0.3896210E-06  0.3352813E+04  0.7818609E-02  0.8149586E-01
       -2   -1    0    0    0  501  0.00000000000E+00  0.00000000000E+00  0.11050260252E+04  0.11050260252E+04  0.25500000920E-02 0.  1.
        2   -1    0    0  501    0  0.00000000000E+00  0.00000000000E+00 -0.25432333768E+04  0.25432333768E+04  0.25500000920E-02 0. -1.
    10030    2    1    2    0    0  0.00000000000E+00  0.00000000000E+00 -0.14382073517E+04  0.36482594020E+04  0.33528131886E+04 0.  0.
        3    1    3    3  502    0 -0.86115917703E+02  0.16015710067E+04 -0.12498262586E+04  0.20333497800E+04  0.10100000352E+00 0. -1.
       -3    1    3    3    0  502  0.86115917703E+02 -0.16015710067E+04 -0.18838109306E+03  0.16149096220E+04  0.10100000352E+00 0.  1.
</event>
<event>
 5   0  0.1282578E-06  0.2146237E+04  0.7818609E-02  0.8541145E-01
        1   -1    0    0  501    0  0.00000000000E+00  0.00000000000E+00  0.12524537993E+04  0.12524537994E+04  0.50400001928E-02 0. -1.
       -1   -1    0    0    0  501  0.00000000000E+00  0.00000000000E+00 -0.91946142588E+03  0.91946142589E+03  0.50400001928E-02 0.  1.
    10030    2    1    2    0    0  0.00000000000E+00  0.00000000000E+00  0.33299237347E+03  0.21719152252E+04  0.21462366656E+04 0.  0.
        4    1    3    3  502    0  0.34040738684E+03 -0.98860084525E+03 -0.77998537692E+02  0.10484723196E+04  0.12699999809E+01 0.  1.
       -4    1    3    3    0  502 -0.34040738684E+03  0.98860084525E+03  0.41099091116E+03  0.11234429056E+04  0.12699999809E+01 0. -1.
</event>
<event>
 5   0  0.1282578E-06  0.3315921E+04  0.7818609E-02  0.8158856E-01
        1   -1    0    0  501    0  0.00000000000E+00  0.00000000000E+00  0.26744665500E+04  0.26744665500E+04  0.50400001928E-02 0. -1.
       -1   -1    0    0    0  501  0.00000000000E+00  0.00000000000E+00 -0.10278061047E+04  0.10278061047E+04  0.50400001928E-02 0.  1.
    10030    2    1    2    0    0  0.00000000000E+00  0.00000000000E+00  0.16466604453E+04  0.37022726547E+04  0.33159210165E+04 0.  0.
        4    1    3    3  502    0 -0.22127262795E+03 -0.14769351571E+04  0.19337401554E+02  0.14935443021E+04  0.12699999809E+01 0.  1.
       -4    1    3    3    0  502  0.22127262795E+03  0.14769351571E+04  0.16273230438E+04  0.22087283527E+04  0.12699999809E+01 0. -1.
</event>
<event>
 5   0  0.1405389E-06  0.3337726E+04  0.7818609E-02  0.8153362E-01
       -1   -1    0    0    0  501  0.00000000000E+00  0.00000000000E+00  0.16697630316E+04  0.16697630316E+04  0.50400001928E-02 0.  1.
        1   -1    0    0  501    0  0.00000000000E+00  0.00000000000E+00 -0.16679637124E+04  0.16679637124E+04  0.50400001928E-02 0. -1.
    10030    2    1    2    0    0  0.00000000000E+00  0.00000000000E+00  0.17993192041E+01  0.33377267441E+04  0.33377262591E+04 0.  0.
        1    1    3    3  502    0  0.10376098987E+04 -0.57635180558E+01 -0.13061723054E+04  0.16681587488E+04  0.50400001928E-02 0. -1.
       -1    1    3    3    0  502 -0.10376098987E+04  0.57635180558E+01  0.13079716246E+04  0.16695679952E+04  0.50400001928E-02 0.  1.
</event>
<event>
 5   0  0.1405389E-06  0.3176986E+04  0.7818609E-02  0.8194922E-01
        1   -1    0    0  501    0  0.00000000000E+00  0.00000000000E+00  0.14961775450E+04  0.14961775450E+04  0.50400001928E-02 0.  1.
       -1   -1    0    0    0  501  0.00000000000E+00  0.00000000000E+00 -0.16865039038E+04  0.16865039038E+04  0.50400001928E-02 0. -1.
    10030    2    1    2    0    0  0.00000000000E+00  0.00000000000E+00 -0.19032635881E+03  0.31826814489E+04  0.31769855338E+04 0.  0.
        1    1    3    3  502    0  0.57739778405E+03 -0.14453958643E+04  0.22282024518E+03  0.15723251150E+04  0.50400001928E-02 0.  1.
       -1    1    3    3    0  502 -0.57739778405E+03  0.14453958643E+04 -0.41314660399E+03  0.16103563339E+04  0.50400001928E-02 0. -1.
</event>
<event>
 5   0  0.1391878E-06  0.3285558E+04  0.7818609E-02  0.8166580E-01
       -1   -1    0    0    0  501  0.00000000000E+00  0.00000000000E+00  0.19395152737E+04  0.19395152737E+04  0.50400001928E-02 0. -1.
        1   -1    0    0  501    0  0.00000000000E+00  0.00000000000E+00 -0.13914418611E+04  0.13914418611E+04  0.50400001928E-02 0.  1.
    10030    2    1    2    0    0  0.00000000000E+00  0.00000000000E+00  0.54807341260E+03  0.33309571348E+04  0.32855579387E+04 0.  0.
        2    1    3    3  502    0 -0.13551050657E+04 -0.91816924336E+03  0.13290742864E+03  0.16422572524E+04  0.25500000920E-02 0. -1.
       -2    1    3    3    0  502  0.13551050657E+04  0.91816924336E+03  0.41516598396E+03  0.16886998824E+04  0.25500000920E-02 0.  1.
</event>
<event>
 5   0  0.1352708E-06  0.3160159E+04  0.7818609E-02  0.8199419E-01
       -1   -1    0    0    0  501  0.00000000000E+00  0.00000000000E+00  0.20181072307E+04  0.20181072307E+04  0.50400001928E-02 0. -1.
        1   -1    0    0  501    0  0.00000000000E+00  0.00000000000E+00 -0.12371255285E+04  0.12371255285E+04  0.50400001928E-02 0.  1.
    10030    2    1    2    0    0  0.00000000000E+00  0.00000000000E+00  0.78098170215E+03  0.32552327592E+04  0.31601594734E+04 0.  0.
        5    1    3    3  502    0  0.15333410383E+04 -0.50246901935E+02  0.77998066492E+03  0.17210611316E+04  0.46999998093E+01 0. -1.
       -5    1    3    3    0  502 -0.15333410383E+04  0.50246901935E+02  0.10010372261E+01  0.15341716276E+04  0.46999998093E+01 0.  1.
</event>
<event>
 5   0  0.1391878E-06  0.3279323E+04  0.7818609E-02  0.8168177E-01
        1   -1    0    0  501    0  0.00000000000E+00  0.00000000000E+00  0.17615268348E+04  0.17615268348E+04  0.50400001928E-02 0. -1.
       -1   -1    0    0    0  501  0.00000000000E+00  0.00000000000E+00 -0.15262270563E+04  0.15262270563E+04  0.50400001928E-02 0.  1.
    10030    2    1    2    0    0  0.00000000000E+00  0.00000000000E+00  0.23529977852E+03  0.32877538912E+04  0.32793230495E+04 0.  0.
        2    1    3    3  502    0  0.10887518998E+04  0.97020334193E+03  0.86911988478E+03  0.16976585635E+04  0.25500000920E-02 0. -1.
       -2    1    3    3    0  502 -0.10887518998E+04 -0.97020334193E+03 -0.63382010626E+03  0.15900953277E+04  0.25500000920E-02 0.  1.
</event>
<event>
 5   0  0.4017247E-06  0.3292581E+04  0.7818609E-02  0.8164786E-01
       -2   -1    0    0    0  501  0.00000000000E+00  0.00000000000E+00  0.25435179865E+04  0.25435179865E+04  0.25500000920E-02 0.  1.
        2   -1    0    0  501    0  0.00000000000E+00  0.00000000000E+00 -0.10655608377E+04  0.10655608377E+04  0.25500000920E-02 0. -1.
    10030    2    1    2    0    0  0.00000000000E+00  0.00000000000E+00  0.14779571488E+04  0.36090788243E+04  0.32925814532E+04 0.  0.
        1    1    3    3  502    0 -0.66423485660E+03 -0.97079003613E+03 -0.52353210597E+03  0.12875275162E+04  0.50400001928E-02 0. -1.
       -1    1    3    3    0  502  0.66423485660E+03  0.97079003613E+03  0.20014892548E+04  0.23215513080E+04  0.50400001928E-02 0.  1.
</event>
<event>
 5   0  0.4017247E-06  0.3533579E+04  0.7818609E-02  0.8105878E-01
        2   -1    0    0  501    0  0.00000000000E+00  0.00000000000E+00  0.20474184070E+04  0.20474184070E+04  0.25500000920E-02 0. -1.
       -2   -1    0    0    0  501  0.00000000000E+00  0.00000000000E+00 -0.15246245339E+04  0.15246245339E+04  0.25500000920E-02 0.  1.
    10030    2    1    2    0    0  0.00000000000E+00  0.00000000000E+00  0.52279387309E+03  0.35720429409E+04  0.35335785456E+04 0.  0.
        1    1    3    3  502    0  0.13552736949E+03  0.57381015706E+03  0.19450351551E+04  0.20324338904E+04  0.50400001928E-02 0. -1.
       -1    1    3    3    0  502 -0.13552736949E+03 -0.57381015706E+03 -0.14222412820E+04  0.15396090505E+04  0.50400001928E-02 0.  1.
</event>
<event>
 5   0  0.3671997E-06  0.2855443E+04  0.7818609E-02  0.8286259E-01
       -2   -1    0    0    0  501  0.00000000000E+00  0.00000000000E+00  0.13020537156E+04  0.13020537156E+04  0.25500000920E-02 0.  1.
        2   -1    0    0  501    0  0.00000000000E+00  0.00000000000E+00 -0.15655179958E+04  0.15655179958E+04  0.25500000920E-02 0. -1.
    10030    2    1    2    0    0  0.00000000000E+00  0.00000000000E+00 -0.26346428023E+03  0.28675717114E+04  0.28554428891E+04 0.  0.
        2    1    3    3  502    0 -0.54357809873E+03  0.11981982350E+04  0.42490770412E+03  0.13826433802E+04  0.25500000920E-02 0.  1.
       -2    1    3    3    0  502  0.54357809873E+03 -0.11981982350E+04 -0.68837198435E+03  0.14849283312E+04  0.25500000920E-02 0. -1.
</event>
<event>
 5   0  0.1282578E-06  0.3318950E+04  0.7818609E-02  0.8158090E-01
        1   -1    0    0  501    0  0.00000000000E+00  0.00000000000E+00  0.12825653087E+04  0.12825653087E+04  0.50400001928E-02 0.  1.
       -1   -1    0    0    0  501  0.00000000000E+00  0.00000000000E+00 -0.21471473167E+04  0.21471473167E+04  0.50400001928E-02 0. -1.
    10030    2    1    2    0    0  0.00000000000E+00  0.00000000000E+00 -0.86458200804E+03  0.34297126254E+04  0.33189496297E+04 0.  0.
        4    1    3    3  502    0  0.64061060827E+03 -0.68325799155E+03  0.98332865419E+03  0.13579986338E+04  0.12699999809E+01 0.  1.
       -4    1    3    3    0  502 -0.64061060827E+03  0.68325799155E+03 -0.18479106622E+04  0.20717139916E+04  0.12699999809E+01 0. -1.
</event>
<event>
 5   0  0.1282578E-06  0.2231514E+04  0.7818609E-02  0.8505424E-01
        1   -1    0    0  501    0  0.00000000000E+00  0.00000000000E+00  0.15845023478E+04  0.15845023478E+04  0.50400001928E-02 0.  1.
       -1   -1    0    0    0  501  0.00000000000E+00  0.00000000000E+00 -0.78568142804E+03  0.78568142805E+03  0.50400001928E-02 0. -1.
    10030    2    1    2    0    0  0.00000000000E+00  0.00000000000E+00  0.79882091978E+03  0.23701837759E+04  0.22315143445E+04 0.  0.
        4    1    3    3  502    0 -0.52462856874E+03  0.98151652340E+03  0.31508798010E+03  0.11566727579E+04  0.12699999809E+01 0. -1.
       -4    1    3    3    0  502  0.52462856874E+03 -0.98151652340E+03  0.48373293968E+03  0.12135110179E+04  0.12699999809E+01 0.  1.
</event>
<event>
 5   0  0.1405389E-06  0.3049335E+04  0.7818609E-02  0.8229782E-01
        1   -1    0    0  501    0  0.00000000000E+00  0.00000000000E+00  0.22204351290E+04  0.22204351290E+04  0.50400001928E-02 0. -1.
       -1   -1    0    0    0  501  0.00000000000E+00  0.00000000000E+00 -0.10469170207E+04  0.10469170207E+04  0.50400001928E-02 0.  1.
    10030    2    1    2    0    0  0.00000000000E+00  0.00000000000E+00  0.11735181084E+04  0.32673521497E+04  0.30493352258E+04 0.  0.
        1    1    3    3  502    0 -0.11168450516E+04  0.31531805826E+03  0.16463185196E+04  0.20142326119E+04  0.50400001928E-02 0. -1.
       -1    1    3    3    0  502  0.11168450516E+04 -0.31531805826E+03 -0.47280041118E+03  0.12531195378E+04  0.50400001928E-02 0.  1.
</event>
<event>
 5   0  0.1391878E-06  0.3299495E+04  0.7818609E-02  0.8163024E-01
        1   -1    0    0  501    0  0.00000000000E+00  0.00000000000E+00  0.27853054510E+04  0.27853054510E+04  0.50400001928E-02 0.  1.
       -1   -1    0    0    0  501  0.00000000000E+00  0.00000000000E+00 -0.97715178646E+03  0.97715178648E+03  0.50400001928E-02 0. -1.
    10030    2    1    2    0    0  0.00000000000E+00  0.00000000000E+00  0.18081536646E+04  0.37624572375E+04  0.32994946264E+04 0.  0.
        2    1    3    3  502    0 -0.75744346557E+03 -0.12619613651E+04  0.17538964173E+04  0.22896331002E+04  0.25500000920E-02 0.  1.
       -2    1    3    3    0  502  0.75744346557E+03  0.12619613651E+04  0.54257247233E+02  0.14728241373E+04  0.25500000920E-02 0. -1.
</event>
<event>
 5   0  0.1391878E-06  0.3228634E+04  0.7818609E-02  0.8181296E-01
        1   -1    0    0  501    0  0.00000000000E+00  0.00000000000E+00  0.24082159008E+04  0.24082159008E+04  0.50400001928E-02 0. -1.
       -1   -1    0    0    0  501  0.00000000000E+00  0.00000000000E+00 -0.10821366529E+04  0.10821366529E+04  0.50400001928E-02 0.  1.
    10030    2    1    2    0    0  0.00000000000E+00  0.00000000000E+00  0.13260792479E+04  0.34903525538E+04  0.32286335775E+04 0.  0.
        2    1    3    3  502    0 -0.33941676539E+03  0.15420964337E+04  0.10260471557E+04  0.18830926470E+04  0.25500000920E-02 0. -1.
       -2    1    3    3    0  502  0.33941676539E+03 -0.15420964337E+04  0.30003209219E+03  0.16072599068E+04  0.25500000920E-02 0.  1.
</event>
<event>
 5   0  0.3896210E-06  0.3292097E+04  0.7818609E-02  0.8164909E-01
       -2   -1    0    0    0  501  0.00000000000E+00  0.00000000000E+00  0.10741989259E+04  0.10741989259E+04  0.25500000920E-02 0. -1.
        2   -1    0    0  501    0  0.00000000000E+00  0.00000000000E+00 -0.25223213930E+04  0.25223213930E+04  0.25500000920E-02 0.  1.
    10030    2    1    2    0    0  0.00000000000E+00  0.00000000000E+00 -0.14481224671E+04  0.35965203189E+04  0.32920965545E+04 0.  0.
        3    1    3    3  502    0 -0.11486423430E+04  0.11167494389E+04 -0.11371343333E+04  0.19645821550E+04  0.10100000352E+00 0.  1.
       -3    1    3    3    0  502  0.11486423430E+04 -0.11167494389E+04 -0.31098813380E+03  0.16319381639E+04  0.10100000352E+00 0. -1.
</event>
<event>
 5   0  0.4017247E-06  0.2999348E+04  0.7818609E-02  0.8243917E-01
       -2   -1    0    0    0  501  0.00000000000E+00  0.00000000000E+00  0.12576360725E+04  0.12576360725E+04  0.25500000920E-02 0. -1.
        2   -1    0    0  501    0  0.00000000000E+00  0.00000000000E+00 -0.17882931735E+04  0.17882931735E+04  0.25500000920E-02 0.  1.
    10030    2    1    2    0    0  0.00000000000E+00  0.00000000000E+00 -0.53065710104E+03  0.30459292459E+04  0.29993479312E+04 0.  0.
        1    1    3    3  502    0  0.11038256137E+04 -0.17662604713E+03 -0.12805514093E+04  0.16998351855E+04  0.50400001928E-02 0.  1.
       -1    1    3    3    0  502 -0.11038256137E+04  0.17662604713E+03  0.74989430829E+03  0.13460940604E+04  0.50400001928E-02 0. -1.
</event>
<event>
 5   0  0.3896210E-06  0.3316411E+04  0.7818609E-02  0.8158732E-01
       -2   -1    0    0    0  501  0.00000000000E+00  0.00000000000E+00  0.20949193438E+04  0.20949193438E+04  0.25500000920E-02 0. -1.
        2   -1    0    0  501    0  0.00000000000E+00  0.00000000000E+00 -0.13125303287E+04  0.13125303287E+04  0.25500000920E-02 0.  1.
    10030    2    1    2    0    0  0.00000000000E+00  0.00000000000E+00  0.78238901506E+03  0.34074496725E+04  0.33164108159E+04 0.  0.
        3    1    3    3  502    0  0.10579716717E+04  0.12229588233E+04  0.14086637477E+02  0.16171366006E+04  0.10100000352E+00 0.  1.
       -3    1    3    3    0  502 -0.10579716717E+04 -0.12229588233E+04  0.76830237759E+03  0.17903130718E+04  0.10100000352E+00 0. -1.
</event>
<event>
 5   0  0.1405389E-06  0.3978727E+04  0.7818609E-02  0.8008852E-01
        1   -1    0    0  501    0  0.00000000000E+00  0.00000000000E+00  0.14311394323E+04  0.14311394323E+04  0.50400001928E-02 0. -1.
       -1   -1    0    0    0  501  0.00000000000E+00  0.00000000000E+00 -0.27653264832E+04  0.27653264832E+04  0.50400001928E-02 0.  1.
    10030    2    1    2    0    0  0.00000000000E+00  0.00000000000E+00 -0.13341870509E+04  0.41964659156E+04  0.39787273209E+04 0.  0.
        1    1    3    3  502    0  0.25256302813E+03 -0.91002610348E+03  0.11796200728E+04  0.15111052605E+04  0.50400001928E-02 0. -1.
       -1    1    3    3    0  502 -0.25256302813E+03  0.91002610348E+03 -0.25138071237E+04  0.26853606550E+04  0.50400001928E-02 0.  1.
</event>
<event>
 5   0  0.3671997E-06  0.3129789E+04  0.7818609E-02  0.8207610E-01
        2   -1    0    0  501    0  0.00000000000E+00  0.00000000000E+00  0.19814870140E+04  0.19814870140E+04  0.25500000920E-02 0. -1.
       -2   -1    0    0    0  501  0.00000000000E+00  0.00000000000E+00 -0.12358877562E+04  0.12358877562E+04  0.25500000920E-02 0.  1.
    10030    2    1    2    0    0  0.00000000000E+00  0.00000000000E+00  0.74559925783E+03  0.32173747702E+04  0.31297894751E+04 0.  0.
        2    1    3    3  502    0  0.11182055638E+04  0.60899459237E+03 -0.56240487846E+03  0.13919616890E+04  0.25500000920E-02 0.  1.
       -2    1    3    3    0  502 -0.11182055638E+04 -0.60899459237E+03  0.13080041363E+04  0.18254130812E+04  0.25500000920E-02 0. -1.
</event>
<event>
 5   0  0.3671997E-06  0.3219641E+04  0.7818609E-02  0.8183649E-01
       -2   -1    0    0    0  501  0.00000000000E+00  0.00000000000E+00  0.18278672553E+04  0.18278672553E+04  0.25500000920E-02 0. -1.
        2   -1    0    0  501    0  0.00000000000E+00  0.00000000000E+00 -0.14177843867E+04  0.14177843867E+04  0.25500000920E-02 0.  1.
    10030    2    1    2    0    0  0.00000000000E+00  0.00000000000E+00  0.41008286863E+03  0.32456516420E+04  0.32196407598E+04 0.  0.
        2    1    3    3  502    0  0.28416724710E+03  0.15743517598E+04  0.38589866180E+03  0.16456768410E+04  0.25500000920E-02 0.  1.
       -2    1    3    3    0  502 -0.28416724710E+03 -0.15743517598E+04  0.24184206837E+02  0.15999748010E+04  0.25500000920E-02 0. -1.
</event>
<event>
 5   0  0.1405389E-06  0.3195061E+04  0.7818609E-02  0.8190123E-01
        1   -1    0    0  501    0  0.00000000000E+00  0.00000000000E+00  0.19295040988E+04  0.19295040988E+04  0.50400001928E-02 0. -1.
       -1   -1    0    0    0  501  0.00000000000E+00  0.00000000000E+00 -0.13226729684E+04  0.13226729684E+04  0.50400001928E-02 0.  1.
    10030    2    1    2    0    0  0.00000000000E+00  0.00000000000E+00  0.60683113036E+03  0.32521770672E+04  0.31950605089E+04 0.  0.
        1    1    3    3  502    0 -0.78430674295E+02  0.12908897088E+04  0.12580270859E+04  0.18042116727E+04  0.50400001928E-02 0. -1.
       -1    1    3    3    0  502  0.78430674295E+02 -0.12908897088E+04 -0.65119595555E+03  0.14479653945E+04  0.50400001928E-02 0.  1.
</event>
<event>
 5   0  0.1282578E-06  0.3317429E+04  0.7818609E-02  0.8158475E-01
        1   -1    0    0  501    0  0.00000000000E+00  0.00000000000E+00  0.10153540302E+04  0.10153540302E+04  0.50400001928E-02 0.  1.
       -1   -1    0    0    0  501  0.00000000000E+00  0.00000000000E+00 -0.27097277826E+04  0.27097277826E+04  0.50400001928E-02 0. -1.
    10030    2    1    2    0    0  0.00000000000E+00  0.00000000000E+00 -0.16943737524E+04  0.37250818128E+04  0.33174285372E+04 0.  0.
        4    1    3    3  502    0 -0.93114464783E+02 -0.39466370548E+02 -0.27062620762E+04  0.27081513872E+04  0.12699999809E+01 0. -1.
       -4    1    3    3    0  502  0.93114464783E+02  0.39466370548E+02  0.10118883238E+04  0.10169304257E+04  0.12699999809E+01 0.  1.
</event>
<event>
 5   0  0.1352708E-06  0.3267039E+04  0.7818609E-02  0.8171333E-01
        1   -1    0    0  501    0  0.00000000000E+00  0.00000000000E+00  0.21452664266E+04  0.21452664266E+04  0.50400001928E-02 0. -1.
       -1   -1    0    0    0  501  0.00000000000E+00  0.00000000000E+00 -0.12438480130E+04  0.12438480130E+04  0.50400001928E-02 0.  1.
    10030    2    1    2    0    0  0.00000000000E+00  0.00000000000E+00  0.90141841365E+03  0.33891144396E+04  0.32670386481E+04 0.  0.
        5    1    3    3  502    0 -0.58708604245E+03 -0.12920155145E+02 -0.11305598112E+04  0.12739797990E+04  0.46999998093E+01 0.  1.
       -5    1    3    3    0  502  0.58708604245E+03  0.12920155145E+02  0.20319782248E+04  0.21151346406E+04  0.46999998093E+01 0. -1.
</event>
<event>
 5   0  0.3920487E-06  0.3057922E+04  0.7818609E-02  0.8227382E-01
        2   -1    0    0  501    0  0.00000000000E+00  0.00000000000E+00  0.13392778650E+04  0.13392778650E+04  0.25500000920E-02 0. -1.
       -2   -1    0    0    0  501  0.00000000000E+00  0.00000000000E+00 -0.17455096101E+04  0.17455096101E+04  0.25500000920E-02 0.  1.
    10030    2    1    2    0    0  0.00000000000E+00  0.00000000000E+00 -0.40623174510E+03  0.30847874751E+04  0.30579224215E+04 0.  0.
        4    1    3    3  502    0  0.14501289272E+04 -0.31122127269E+03 -0.57784697151E+03  0.15917416001E+04  0.12699999809E+01 0.  1.
       -4    1    3    3    0  502 -0.14501289272E+04  0.31122127269E+03  0.17161522641E+03  0.14930458750E+04  0.12699999809E+01 0. -1.
</event>
<event>
 5   0  0.1352708E-06  0.3266953E+04  0.7818609E-02  0.8171355E-01
        1   -1    0    0  501    0  0.00000000000E+00  0.00000000000E+00  0.26657490257E+04  0.26657490257E+04  0.50400001928E-02 0.  1.
       -1   -1    0    0    0  501  0.00000000000E+00  0.00000000000E+00 -0.10009363959E+04  0.10009363959E+04  0.50400001928E-02 0. -1.
    10030    2    1    2    0    0  0.00000000000E+00  0.00000000000E+00  0.16648126298E+04  0.36666854215E+04  0.32669528445E+04 0.  0.
        5    1    3    3  502    0 -0.13507856269E+04  0.18953528683E+03  0.18410780036E+04  0.22913174683E+04  0.46999998093E+01 0.  1.
       -5    1    3    3    0  502  0.13507856269E+04 -0.18953528683E+03 -0.17626537383E+03  0.13753679533E+04  0.46999998093E+01 0. -1.
</event>
<event>
 5   0  0.4017247E-06  0.3249010E+04  0.7818609E-02  0.8175992E-01
       -2   -1    0    0    0  501  0.00000000000E+00  0.00000000000E+00  0.10830399937E+04  0.10830399937E+04  0.25500000920E-02 0. -1.
        2   -1    0    0  501    0  0.00000000000E+00  0.00000000000E+00 -0.24366747170E+04  0.24366747170E+04  0.25500000920E-02 0.  1.
    10030    2    1    2    0    0  0.00000000000E+00  0.00000000000E+00 -0.13536347234E+04  0.35197147107E+04  0.32490098000E+04 0.  0.
        1    1    3    3  502    0 -0.44527564609E+02  0.15629718507E+04 -0.11541574300E+04  0.19434358963E+04  0.50400001928E-02 0.  1.
       -1    1    3    3    0  502  0.44527564609E+02 -0.15629718507E+04 -0.19947729341E+03  0.15762788144E+04  0.50400001928E-02 0. -1.
</event>
<event>
 5   0  0.1352708E-06  0.3466497E+04  0.7818609E-02  0.8121776E-01
       -1   -1    0    0    0  501  0.00000000000E+00  0.00000000000E+00  0.17703330921E+04  0.17703330921E+04  0.50400001928E-02 0. -1.
        1   -1    0    0  501    0  0.00000000000E+00  0.00000000000E+00 -0.16969404980E+04  0.16969404980E+04  0.50400001928E-02 0.  1.
    10030    2    1    2    0    0  0.00000000000E+00  0.00000000000E+00  0.73392594088E+02  0.34672735901E+04  0.34664967440E+04 0.  0.
        5    1    3    3  502    0  0.13173952520E+04  0.44457797204E+03  0.10717943895E+04  0.17555469594E+04  0.46999998093E+01 0. -1.
       -5    1    3    3    0  502 -0.13173952520E+04 -0.44457797204E+03 -0.99840179540E+03  0.17117266307E+04  0.46999998093E+01 0.  1.
</event>
<event>
 5   0  0.1339825E-06  0.3311997E+04  0.7818609E-02  0.8159849E-01
        1   -1    0    0  501    0  0.00000000000E+00  0.00000000000E+00  0.89525629406E+03  0.89525629408E+03  0.50400001928E-02 0. -1.
       -1   -1    0    0    0  501  0.00000000000E+00  0.00000000000E+00 -0.30631802769E+04  0.30631802769E+04  0.50400001928E-02 0.  1.
    10030    2    1    2    0    0  0.00000000000E+00  0.00000000000E+00 -0.21679239828E+04  0.39584365710E+04  0.33119972360E+04 0.  0.
        3    1    3    3  502    0 -0.90868369464E+03  0.41413913992E+03 -0.26628293343E+04  0.28439193655E+04  0.10100000352E+00 0.  1.
       -3    1    3    3    0  502  0.90868369464E+03 -0.41413913992E+03  0.49490535143E+03  0.11145172054E+04  0.10100000352E+00 0. -1.
</event>
<event>
 5   0  0.1339825E-06  0.3162706E+04  0.7818609E-02  0.8198736E-01
        1   -1    0    0  501    0  0.00000000000E+00  0.00000000000E+00  0.11259818039E+04  0.11259818039E+04  0.50400001928E-02 0. -1.
       -1   -1    0    0    0  501  0.00000000000E+00  0.00000000000E+00 -0.22208866754E+04  0.22208866754E+04  0.50400001928E-02 0.  1.
    10030    2    1    2    0    0  0.00000000000E+00  0.00000000000E+00 -0.10949048715E+04  0.33468684793E+04  0.31627064265E+04 0.  0.
        3    1    3    3  502    0  0.88224457435E+03  0.55091123884E+03  0.71304889346E+03  0.12610699492E+04  0.10100000352E+00 0. -1.
       -3    1    3    3    0  502 -0.88224457435E+03 -0.55091123884E+03 -0.18079537649E+04  0.20857985301E+04  0.10100000352E+00 0.  1.
</event>
<event>
 5   0  0.1352708E-06  0.3305477E+04  0.7818609E-02  0.8161503E-01
        1   -1    0    0  501    0  0.00000000000E+00  0.00000000000E+00  0.19645885349E+04  0.19645885349E+04  0.50400001928E-02 0.  1.
       -1   -1    0    0    0  501  0.00000000000E+00  0.00000000000E+00 -0.13903901749E+04  0.13903901749E+04  0.50400001928E-02 0. -1.
    10030    2    1    2    0    0  0.00000000000E+00  0.00000000000E+00  0.57419835999E+03  0.33549787097E+04  0.33054770285E+04 0.  0.
        5    1    3    3  502    0  0.12165570199E+04  0.38367031866E+03 -0.77949903955E+03  0.14949430553E+04  0.46999998093E+01 0.  1.
       -5    1    3    3    0  502 -0.12165570199E+04 -0.38367031866E+03  0.13536973995E+04  0.18600356544E+04  0.46999998093E+01 0. -1.
</event>
<event>
 5   0  0.3920487E-06  0.3294534E+04  0.7818609E-02  0.8164288E-01
        2   -1    0    0  501    0  0.00000000000E+00  0.00000000000E+00  0.24014031987E+04  0.24014031987E+04  0.25500000920E-02 0. -1.
       -2   -1    0    0    0  501  0.00000000000E+00  0.00000000000E+00 -0.11299593723E+04  0.11299593723E+04  0.25500000920E-02 0.  1.
    10030    2    1    2    0    0  0.00000000000E+00  0.00000000000E+00  0.12714438264E+04  0.35313625710E+04  0.32945336854E+04 0.  0.
        4    1    3    3  502    0  0.85788900142E+03  0.24687541630E+02 -0.87137466599E+03  0.12230610921E+04  0.12699999809E+01 0.  1.
       -4    1    3    3    0  502 -0.85788900142E+03 -0.24687541630E+02  0.21428184924E+04  0.23083014790E+04  0.12699999809E+01 0. -1.
</event>
<event>
 5   0  0.3896210E-06  0.3314385E+04  0.7818609E-02  0.8159245E-01
        2   -1    0    0  501    0  0.00000000000E+00  0.00000000000E+00  0.25479566727E+04  0.25479566727E+04  0.25500000920E-02 0. -1.
       -2   -1    0    0    0  501  0.00000000000E+00  0.00000000000E+00 -0.10778387195E+04  0.10778387195E+04  0.25500000920E-02 0.  1.
    10030    2    1    2    0    0  0.00000000000E+00  0.00000000000E+00  0.14701179532E+04  0.36257953923E+04  0.33143846232E+04 0.  0.
        3    1    3    3  502    0 -0.28279366093E+03  0.92748499748E+03  0.22052357626E+04  0.24089967733E+04  0.10100000352E+00 0. -1.
       -3    1    3    3    0  502  0.28279366093E+03 -0.92748499748E+03 -0.73511780936E+03  0.12167986189E+04  0.10100000352E+00 0.  1.
</event>
<event>
 5   0  0.3671997E-06  0.3265979E+04  0.7818609E-02  0.8171606E-01
       -2   -1    0    0    0  501  0.00000000000E+00  0.00000000000E+00  0.16707071299E+04  0.16707071299E+04  0.25500000920E-02 0. -1.
        2   -1    0    0  501    0  0.00000000000E+00  0.00000000000E+00 -0.15961234593E+04  0.15961234593E+04  0.25500000920E-02 0.  1.
    10030    2    1    2    0    0  0.00000000000E+00  0.00000000000E+00  0.74583670631E+02  0.32668305892E+04  0.32659790836E+04 0.  0.
        2    1    3    3  502    0  0.89500055008E+03 -0.12743312869E+04  0.52905873447E+03  0.16446426232E+04  0.25500000920E-02 0. -1.
       -2    1    3    3    0  502 -0.89500055008E+03  0.12743312869E+04 -0.45447506384E+03  0.16221879660E+04  0.25500000920E-02 0.  1.
</event>
<event>
 5   0  0.4017247E-06  0.3305648E+04  0.7818609E-02  0.8161460E-01
        2   -1    0    0  501    0  0.00000000000E+00  0.00000000000E+00  0.28735539601E+04  0.28735539601E+04  0.25500000920E-02 0. -1.
       -2   -1    0    0    0  501  0.00000000000E+00  0.00000000000E+00 -0.95067883261E+03  0.95067883262E+03  0.25500000920E-02 0.  1.
    10030    2    1    2    0    0  0.00000000000E+00  0.00000000000E+00  0.19228751275E+04  0.38242327927E+04  0.33056478483E+04 0.  0.
        1    1    3    3  502    0 -0.10968467640E+04 -0.92489543881E+03  0.12146685750E+02  0.14348003131E+04  0.50400001928E-02 0.  1.
       -1    1    3    3    0  502  0.10968467640E+04  0.92489543881E+03  0.19107284417E+04  0.23894324796E+04  0.50400001928E-02 0. -1.
</event>
<event>
 5   0  0.3812379E-06  0.3401983E+04  0.7818609E-02  0.8137420E-01
       -2   -1    0    0    0  501  0.00000000000E+00  0.00000000000E+00  0.18900746466E+04  0.18900746466E+04  0.25500000920E-02 0.  1.
        2   -1    0    0  501    0  0.00000000000E+00  0.00000000000E+00 -0.15308243367E+04  0.15308243367E+04  0.25500000920E-02 0. -1.
    10030    2    1    2    0    0  0.00000000000E+00  0.00000000000E+00  0.35925030987E+03  0.34208989833E+04  0.34019831082E+04 0.  0.
        5    1    3    3  502    0 -0.44482022705E+03 -0.12971648871E+04 -0.83237439629E+03  0.16041729970E+04  0.46999998093E+01 0. -1.
       -5    1    3    3    0  502  0.44482022705E+03  0.12971648871E+04  0.11916247062E+04  0.18167259863E+04  0.46999998093E+01 0.  1.
</event>
<event>
 5   0  0.3896210E-06  0.3284698E+04  0.7818609E-02  0.8166800E-01
       -2   -1    0    0    0  501  0.00000000000E+00  0.00000000000E+00  0.11210869940E+04  0.11210869940E+04  0.25500000920E-02 0. -1.
        2   -1    0    0  501    0  0.00000000000E+00  0.00000000000E+00 -0.24059779372E+04  0.24059779372E+04  0.25500000920E-02 0.  1.
    10030    2    1    2    0    0  0.00000000000E+00  0.00000000000E+00 -0.12848909432E+04  0.35270649312E+04  0.32846982043E+04 0.  0.
        3    1    3    3  502    0 -0.13037563751E+04  0.39848013358E+03 -0.16258507961E+04  0.21217817804E+04  0.10100000352E+00 0.  1.
       -3    1    3    3    0  502  0.13037563751E+04 -0.39848013358E+03  0.34095985290E+03  0.14052831508E+04  0.10100000352E+00 0. -1.
</event>
<event>
 5   0  0.1405389E-06  0.2145717E+04  0.7818609E-02  0.8541368E-01
       -1   -1    0    0    0  501  0.00000000000E+00  0.00000000000E+00  0.75460767941E+03  0.75460767943E+03  0.50400001928E-02 0. -1.
        1   -1    0    0  501    0  0.00000000000E+00  0.00000000000E+00 -0.15253297184E+04  0.15253297184E+04  0.50400001928E-02 0.  1.
    10030    2    1    2    0    0  0.00000000000E+00  0.00000000000E+00 -0.77072203903E+03  0.22799373979E+04  0.21457171474E+04 0.  0.
        1    1    3    3  502    0  0.68064105674E+03 -0.44029704821E+03 -0.11320957483E+04  0.13923988373E+04  0.50400001928E-02 0.  1.
       -1    1    3    3    0  502 -0.68064105674E+03  0.44029704821E+03  0.36137370925E+03  0.88753856060E+03  0.50400001928E-02 0. -1.
</event>
<event>
 5   0  0.1339825E-06  0.3317382E+04  0.7818609E-02  0.8158487E-01
       -1   -1    0    0    0  501  0.00000000000E+00  0.00000000000E+00  0.13087134679E+04  0.13087134679E+04  0.50400001928E-02 0. -1.
        1   -1    0    0  501    0  0.00000000000E+00  0.00000000000E+00 -0.21022595130E+04  0.21022595130E+04  0.50400001928E-02 0.  1.
    10030    2    1    2    0    0  0.00000000000E+00  0.00000000000E+00 -0.79354604518E+03  0.34109729809E+04  0.33173817011E+04 0.  0.
        3    1    3    3  502    0 -0.10329953410E+04  0.54348392310E+03 -0.16084946869E+04  0.19873875609E+04  0.10100000352E+00 0.  1.
       -3    1    3    3    0  502  0.10329953410E+04 -0.54348392310E+03  0.81494864177E+03  0.14235854200E+04  0.10100000352E+00 0. -1.
</event>
<event>
 5   0  0.1352708E-06  0.3345449E+04  0.7818609E-02  0.8151426E-01
        1   -1    0    0  501    0  0.00000000000E+00  0.00000000000E+00  0.23614556844E+04  0.23614556844E+04  0.50400001928E-02 0.  1.
       -1   -1    0    0    0  501  0.00000000000E+00  0.00000000000E+00 -0.11848652826E+04  0.11848652826E+04  0.50400001928E-02 0. -1.
    10030    2    1    2    0    0  0.00000000000E+00  0.00000000000E+00  0.11765904018E+04  0.35463209670E+04  0.33454487632E+04 0.  0.
        5    1    3    3  502    0 -0.11170917716E+04  0.64364994158E+02  0.19063124138E+04  0.22104492728E+04  0.46999998093E+01 0.  1.
       -5    1    3    3    0  502  0.11170917716E+04 -0.64364994158E+02 -0.72972201196E+03  0.13358716942E+04  0.46999998093E+01 0. -1.
</event>
<event>
 5   0  0.1339825E-06  0.3226624E+04  0.7818609E-02  0.8181821E-01
       -1   -1    0    0    0  501  0.00000000000E+00  0.00000000000E+00  0.22202034735E+04  0.22202034736E+04  0.50400001928E-02 0.  1.
        1   -1    0    0  501    0  0.00000000000E+00  0.00000000000E+00 -0.11723136606E+04  0.11723136606E+04  0.50400001928E-02 0. -1.
    10030    2    1    2    0    0  0.00000000000E+00  0.00000000000E+00  0.10478898129E+04  0.33925171342E+04  0.32266235364E+04 0.  0.
        3    1    3    3  502    0 -0.22295088957E+03 -0.10966669352E+03 -0.11520765953E+04  0.11785645398E+04  0.10100000352E+00 0. -1.
       -3    1    3    3    0  502  0.22295088957E+03  0.10966669352E+03  0.21999664082E+04  0.22139525944E+04  0.10100000352E+00 0.  1.
</event>
<event>
 5   0  0.3671997E-06  0.3257560E+04  0.7818609E-02  0.8173779E-01
        2   -1    0    0  501    0  0.00000000000E+00  0.00000000000E+00  0.13235809734E+04  0.13235809734E+04  0.25500000920E-02 0.  1.
       -2   -1    0    0    0  501  0.00000000000E+00  0.00000000000E+00 -0.20043540310E+04  0.20043540310E+04  0.25500000920E-02 0. -1.
    10030    2    1    2    0    0  0.00000000000E+00  0.00000000000E+00 -0.68077305752E+03  0.33279350044E+04  0.32575603506E+04 0.  0.
        2    1    3    3  502    0  0.12016714990E+04 -0.10910915721E+04 -0.20169788544E+03  0.16355969085E+04  0.25500000920E-02 0.  1.
       -2    1    3    3    0  502 -0.12016714990E+04  0.10910915721E+04 -0.47907517209E+03  0.16923380959E+04  0.25500000920E-02 0. -1.
</event>
<event>
 5   0  0.3896210E-06  0.3271982E+04  0.7818609E-02  0.8170061E-01
        2   -1    0    0  501    0  0.00000000000E+00  0.00000000000E+00  0.23826765689E+04  0.23826765689E+04  0.25500000920E-02 0. -1.
       -2   -1    0    0    0  501  0.00000000000E+00  0.00000000000E+00 -0.11233022600E+04  0.11233022600E+04  0.25500000920E-02 0.  1.
    10030    2    1    2    0    0  0.00000000000E+00  0.00000000000E+00  0.12593743089E+04  0.35059788288E+04  0.32719816470E+04 0.  0.
        3    1    3    3  502    0 -0.13029277754E+04 -0.68621111183E+03 -0.13399557290E+03  0.14786687599E+04  0.10100000352E+00 0.  1.
       -3    1    3    3    0  502  0.13029277754E+04  0.68621111183E+03  0.13933698818E+04  0.20273100689E+04  0.10100000352E+00 0. -1.
</event>
<event>
 5   0  0.1339825E-06  0.3471169E+04  0.7818609E-02  0.8120657E-01
        1   -1    0    0  501    0  0.00000000000E+00  0.00000000000E+00  0.19677004907E+04  0.19677004907E+04  0.50400001928E-02 0.  1.
       -1   -1    0    0    0  501  0.00000000000E+00  0.00000000000E+00 -0.15308491869E+04  0.15308491869E+04  0.50400001928E-02 0. -1.
    10030    2    1    2    0    0  0.00000000000E+00  0.00000000000E+00  0.43685130383E+03  0.34985496776E+04  0.34711685042E+04 0.  0.
        3    1    3    3  502    0  0.44040525003E+03  0.15272828474E+04  0.92084706769E+03  0.18369836723E+04  0.10100000352E+00 0.  1.
       -3    1    3    3    0  502 -0.44040525003E+03 -0.15272828474E+04 -0.48399576386E+03  0.16615660052E+04  0.10100000352E+00 0. -1.
</event>
<event>
 5   0  0.1391878E-06  0.3265509E+04  0.7818609E-02  0.8171728E-01
        1   -1    0    0  501    0  0.00000000000E+00  0.00000000000E+00  0.25213811007E+04  0.25213811007E+04  0.50400001928E-02 0. -1.
       -1   -1    0    0    0  501  0.00000000000E+00  0.00000000000E+00 -0.10573120756E+04  0.10573120756E+04  0.50400001928E-02 0.  1.
    10030    2    1    2    0    0  0.00000000000E+00  0.00000000000E+00  0.14640690252E+04  0.35786931763E+04  0.32655086495E+04 0.  0.
        2    1    3    3  502    0 -0.98623529629E+03 -0.59064423944E+03 -0.53863435119E+03  0.12695068497E+04  0.25500000920E-02 0.  1.
       -2    1    3    3    0  502  0.98623529629E+03  0.59064423944E+03  0.20027033763E+04  0.23091863266E+04  0.25500000920E-02 0. -1.
</event>
<event>
 5   0  0.3671997E-06  0.3250441E+04  0.7818609E-02  0.8175621E-01
        2   -1    0    0  501    0  0.00000000000E+00  0.00000000000E+00  0.25517058222E+04  0.25517058222E+04  0.25500000920E-02 0. -1.
       -2   -1    0    0    0  501  0.00000000000E+00  0.00000000000E+00 -0.10351277306E+04  0.10351277306E+04  0.25500000920E-02 0.  1.
    10030    2    1    2    0    0  0.00000000000E+00  0.00000000000E+00  0.15165780916E+04  0.35868335528E+04  0.32504408667E+04 0.  0.
        2    1    3    3  502    0 -0.34462026549E+03  0.39709352800E+03 -0.93868379267E+03  0.10759059717E+04  0.25500000920E-02 0.  1.
       -2    1    3    3    0  502  0.34462026549E+03 -0.39709352800E+03  0.24552618842E+04  0.25109275811E+04  0.25500000920E-02 0. -1.
</event>
<event>
 5   0  0.1282578E-06  0.3357779E+04  0.7818609E-02  0.8148347E-01
        1   -1    0    0  501    0  0.00000000000E+00  0.00000000000E+00  0.33630625637E+04  0.33630625637E+04  0.50400001928E-02 0.  1.
       -1   -1    0    0    0  501  0.00000000000E+00  0.00000000000E+00 -0.83812570080E+03  0.83812570081E+03  0.50400001928E-02 0. -1.
    10030    2    1    2    0    0  0.00000000000E+00  0.00000000000E+00  0.25249368629E+04  0.42011882645E+04  0.33577785323E+04 0.  0.
        4    1    3    3  502    0 -0.16315974437E+04 -0.18234240983E+03  0.82311224288E+03  0.18365386873E+04  0.12699999809E+01 0. -1.
       -4    1    3    3    0  502  0.16315974437E+04  0.18234240983E+03  0.17018246200E+04  0.23646495772E+04  0.12699999809E+01 0.  1.
</event>
<event>
 5   0  0.4017247E-06  0.3298971E+04  0.7818609E-02  0.8163157E-01
       -2   -1    0    0    0  501  0.00000000000E+00  0.00000000000E+00  0.20344834031E+04  0.20344834031E+04  0.25500000920E-02 0.  1.
        2   -1    0    0  501    0  0.00000000000E+00  0.00000000000E+00 -0.13373427477E+04  0.13373427477E+04  0.25500000920E-02 0. -1.
    10030    2    1    2    0    0  0.00000000000E+00  0.00000000000E+00  0.69714065540E+03  0.33718261508E+04  0.32989705210E+04 0.  0.
        1    1    3    3  502    0  0.12812117691E+04  0.63037130728E+03  0.11925979338E+04  0.18604196876E+04  0.50400001928E-02 0.  1.
       -1    1    3    3    0  502 -0.12812117691E+04 -0.63037130728E+03 -0.49545727837E+03  0.15114064632E+04  0.50400001928E-02 0. -1.
</event>
<event>
 5   0  0.1282578E-06  0.3286011E+04  0.7818609E-02  0.8166464E-01
        1   -1    0    0  501    0  0.00000000000E+00  0.00000000000E+00  0.22675254164E+04  0.22675254164E+04  0.50400001928E-02 0. -1.
       -1   -1    0    0    0  501  0.00000000000E+00  0.00000000000E+00 -0.11904904654E+04  0.11904904654E+04  0.50400001928E-02 0.  1.
    10030    2    1    2    0    0  0.00000000000E+00  0.00000000000E+00  0.10770349510E+04  0.34580158819E+04  0.32860111919E+04 0.  0.
        4    1    3    3  502    0 -0.18314455213E+03  0.47843647694E+03  0.21813288628E+04  0.22406786048E+04  0.12699999809E+01 0. -1.
       -4    1    3    3    0  502  0.18314455213E+03 -0.47843647694E+03 -0.11042939118E+04  0.12173372770E+04  0.12699999809E+01 0.  1.
</event>
<event>
 5   0  0.1339825E-06  0.3355450E+04  0.7818609E-02  0.8148928E-01
       -1   -1    0    0    0  501  0.00000000000E+00  0.00000000000E+00  0.15287775264E+04  0.15287775264E+04  0.50400001928E-02 0.  1.
        1   -1    0    0  501    0  0.00000000000E+00  0.00000000000E+00 -0.18411847880E+04  0.18411847880E+04  0.50400001928E-02 0. -1.
    10030    2    1    2    0    0  0.00000000000E+00  0.00000000000E+00 -0.31240726159E+03  0.33699623143E+04  0.33554504471E+04 0.  0.
        3    1    3    3  502    0  0.87005197345E+03 -0.96483852129E+02 -0.15936386044E+04  0.18182363933E+04  0.10100000352E+00 0. -1.
       -3    1    3    3    0  502 -0.87005197345E+03  0.96483852129E+02  0.12812313428E+04  0.15517259211E+04  0.10100000352E+00 0.  1.
</event>
<event>
 5   0  0.1391878E-06  0.3338873E+04  0.7818609E-02  0.8153074E-01
        1   -1    0    0  501    0  0.00000000000E+00  0.00000000000E+00  0.24734740060E+04  0.24734740060E+04  0.50400001928E-02 0. -1.
       -1   -1    0    0    0  501  0.00000000000E+00  0.00000000000E+00 -0.11267625398E+04  0.11267625398E+04  0.50400001928E-02 0.  1.
    10030    2    1    2    0    0  0.00000000000E+00  0.00000000000E+00  0.13467114662E+04  0.36002365458E+04  0.33388727757E+04 0.  0.
        2    1    3    3  502    0  0.90489226821E+03 -0.12268825319E+03  0.21803005323E+04  0.23638089677E+04  0.25500000920E-02 0. -1.
       -2    1    3    3    0  502 -0.90489226821E+03  0.12268825319E+03 -0.83358906613E+03  0.12364275780E+04  0.25500000920E-02 0.  1.
</event>
<event>
 5   0  0.4017247E-06  0.3366670E+04  0.7818609E-02  0.8146135E-01
        2   -1    0    0  501    0  0.00000000000E+00  0.00000000000E+00  0.11434998761E+04  0.11434998761E+04  0.25500000920E-02 0. -1.
       -2   -1    0    0    0  501  0.00000000000E+00  0.00000000000E+00 -0.24780216594E+04  0.24780216594E+04  0.25500000920E-02 0.  1.
    10030    2    1    2    0    0  0.00000000000E+00  0.00000000000E+00 -0.13345217834E+04  0.36215215355E+04  0.33666704385E+04 0.  0.
        1    1    3    3  502    0  0.40764421962E+03 -0.12157027216E+04  0.50594602404E+03  0.13784369033E+04  0.50400001928E-02 0. -1.
       -1    1    3    3    0  502 -0.40764421962E+03  0.12157027216E+04 -0.18404678074E+04  0.22430846322E+04  0.50400001928E-02 0.  1.
</event>
<event>
 5   0  0.3812379E-06  0.3296888E+04  0.7818609E-02  0.8163688E-01
       -2   -1    0    0    0  501  0.00000000000E+00  0.00000000000E+00  0.29530481212E+04  0.29530481212E+04  0.25500000920E-02 0. -1.
        2   -1    0    0  501    0  0.00000000000E+00  0.00000000000E+00 -0.92019070538E+03  0.92019070538E+03  0.25500000920E-02 0.  1.
    10030    2    1    2    0    0  0.00000000000E+00  0.00000000000E+00  0.20328574158E+04  0.38732388266E+04  0.32968878863E+04 0.  0.
        5    1    3    3  502    0  0.29285322998E+03 -0.12834867927E+04  0.21819534090E+04  0.25483414470E+04  0.46999998093E+01 0. -1.
       -5    1    3    3    0  502 -0.29285322998E+03  0.12834867927E+04 -0.14909599314E+03  0.13248973796E+04  0.46999998093E+01 0.  1.
</event>
<event>
 5   0  0.1352708E-06  0.2977148E+04  0.7818609E-02  0.8250287E-01
       -1   -1    0    0    0  501  0.00000000000E+00  0.00000000000E+00  0.25362462222E+04  0.25362462222E+04  0.50400001928E-02 0.  1.
        1   -1    0    0  501    0  0.00000000000E+00  0.00000000000E+00 -0.87367394959E+03  0.87367394960E+03  0.50400001928E-02 0. -1.
    10030    2    1    2    0    0  0.00000000000E+00  0.00000000000E+00  0.16625722726E+04  0.34099201718E+04  0.29771477989E+04 0.  0.
        5    1    3    3  502    0  0.13541432450E+04  0.22783966087E+03  0.17310954992E+03  0.13840534113E+04  0.46999998093E+01 0. -1.
       -5    1    3    3    0  502 -0.13541432450E+04 -0.22783966087E+03  0.14894627227E+04  0.20258667605E+04  0.46999998093E+01 0.  1.
</event>
<event>
 5   0  0.3920487E-06  0.3289925E+04  0.7818609E-02  0.8165464E-01
        2   -1    0    0  501    0  0.00000000000E+00  0.00000000000E+00  0.17297882367E+04  0.17297882367E+04  0.25500000920E-02 0.  1.
       -2   -1    0    0    0  501  0.00000000000E+00  0.00000000000E+00 -0.15642966016E+04  0.15642966016E+04  0.25500000920E-02 0. -1.
    10030    2    1    2    0    0  0.00000000000E+00  0.00000000000E+00  0.16549163513E+03  0.32940848383E+04  0.32899251421E+04 0.  0.
        4    1    3    3  502    0  0.10183702713E+04 -0.52813966782E+03 -0.10976810690E+04  0.15877389145E+04  0.12699999809E+01 0. -1.
       -4    1    3    3    0  502 -0.10183702713E+04  0.52813966782E+03  0.12631727042E+04  0.17063459238E+04  0.12699999809E+01 0.  1.
</event>
<event>
 5   0  0.1405389E-06  0.2528971E+04  0.7818609E-02  0.8392736E-01
        1   -1    0    0  501    0  0.00000000000E+00  0.00000000000E+00  0.10444942875E+04  0.10444942875E+04  0.50400001928E-02 0. -1.
       -1   -1    0    0    0  501  0.00000000000E+00  0.00000000000E+00 -0.15308117041E+04  0.15308117041E+04  0.50400001928E-02 0.  1.
    10030    2    1    2    0    0  0.00000000000E+00  0.00000000000E+00 -0.48631741659E+03  0.25753059916E+04  0.25289713958E+04 0.  0.
        1    1    3    3  502    0  0.15037057639E+03  0.12300338704E+04  0.13105392011E+02  0.12392604181E+04  0.50400001928E-02 0. -1.
       -1    1    3    3    0  502 -0.15037057639E+03 -0.12300338704E+04 -0.49942280860E+03  0.13360455735E+04  0.50400001928E-02 0.  1.
</event>
<event>
 5   0  0.1352708E-06  0.3175467E+04  0.7818609E-02  0.8195327E-01
       -1   -1    0    0    0  501  0.00000000000E+00  0.00000000000E+00  0.15269810611E+04  0.15269810611E+04  0.50400001928E-02 0.  1.
        1   -1    0    0  501    0  0.00000000000E+00  0.00000000000E+00 -0.16509027809E+04  0.16509027809E+04  0.50400001928E-02 0. -1.
    10030    2    1    2    0    0  0.00000000000E+00  0.00000000000E+00 -0.12392171985E+03  0.31778838420E+04  0.31754667564E+04 0.  0.
        5    1    3    3  502    0 -0.50786506762E+02 -0.58048560742E+03 -0.15400185027E+04  0.16465788436E+04  0.46999998093E+01 0. -1.
       -5    1    3    3    0  502  0.50786506762E+02  0.58048560742E+03  0.14160967829E+04  0.15313049984E+04  0.46999998093E+01 0.  1.
</event>
<event>
 5   0  0.1391878E-06  0.3028462E+04  0.7818609E-02  0.8235650E-01
       -1   -1    0    0    0  501  0.00000000000E+00  0.00000000000E+00  0.14116742475E+04  0.14116742475E+04  0.50400001928E-02 0.  1.
        1   -1    0    0  501    0  0.00000000000E+00  0.00000000000E+00 -0.16242385635E+04  0.16242385635E+04  0.50400001928E-02 0. -1.
    10030    2    1    2    0    0  0.00000000000E+00  0.00000000000E+00 -0.21256431601E+03  0.30359128110E+04  0.30284621523E+04 0.  0.
        2    1    3    3  502    0 -0.18474570563E+03 -0.70190480766E+03 -0.14384964951E+04  0.16112335340E+04  0.25500000920E-02 0. -1.
       -2    1    3    3    0  502  0.18474570563E+03  0.70190480766E+03  0.12259321791E+04  0.14246792770E+04  0.25500000920E-02 0.  1.
</event>
<event>
 5   0  0.1391878E-06  0.2229366E+04  0.7818609E-02  0.8506304E-01
       -1   -1    0    0    0  501  0.00000000000E+00  0.00000000000E+00  0.69861327694E+03  0.69861327696E+03  0.50400001928E-02 0. -1.
        1   -1    0    0  501    0  0.00000000000E+00  0.00000000000E+00 -0.17785485891E+04  0.17785485891E+04  0.50400001928E-02 0.  1.
    10030    2    1    2    0    0  0.00000000000E+00  0.00000000000E+00 -0.10799353122E+04  0.24771618661E+04  0.22293655223E+04 0.  0.
        2    1    3    3  502    0  0.94649915698E+02 -0.84419403343E+03 -0.13419197065E+04  0.15881973024E+04  0.25500000920E-02 0.  1.
       -2    1    3    3    0  502 -0.94649915698E+02  0.84419403343E+03  0.26198439432E+03  0.88896456369E+03  0.25500000920E-02 0. -1.
</event>
<event>
 5   0  0.1352708E-06  0.3263762E+04  0.7818609E-02  0.8172178E-01
        1   -1    0    0  501    0  0.00000000000E+00  0.00000000000E+00  0.19034998979E+04  0.19034998979E+04  0.50400001928E-02 0.  1.
       -1   -1    0    0    0  501  0.00000000000E+00  0.00000000000E+00 -0.13990202817E+04  0.13990202817E+04  0.50400001928E-02 0. -1.
    10030    2    1    2    0    0  0.00000000000E+00  0.00000000000E+00  0.50447961619E+03  0.33025201797E+04  0.32637616111E+04 0.  0.
        5    1    3    3  502    0  0.15657900910E+04  0.23485833932E+03 -0.14761851903E+03  0.15901793502E+04  0.46999998093E+01 0. -1.
       -5    1    3    3    0  502 -0.15657900910E+04 -0.23485833932E+03  0.65209813522E+03  0.17123408295E+04  0.46999998093E+01 0.  1.
</event>
<event>
 5   0  0.1352708E-06  0.3173049E+04  0.7818609E-02  0.8195971E-01
       -1   -1    0    0    0  501  0.00000000000E+00  0.00000000000E+00  0.10910177059E+04  0.10910177059E+04  0.50400001928E-02 0.  1.
        1   -1    0    0  501    0  0.00000000000E+00  0.00000000000E+00 -0.23070752780E+04  0.23070752780E+04  0.50400001928E-02 0. -1.
    10030    2    1    2    0    0  0.00000000000E+00  0.00000000000E+00 -0.12160575721E+04  0.33980929839E+04  0.31730489925E+04 0.  0.
        5    1    3    3  502    0 -0.45985640793E+03 -0.14809351503E+04 -0.96706947490E+03  0.18275344852E+04  0.46999998093E+01 0.  1.
       -5    1    3    3    0  502  0.45985640793E+03  0.14809351503E+04 -0.24898809717E+03  0.15705584987E+04  0.46999998093E+01 0. -1.
</event>
<event>
 5   0  0.1391878E-06  0.3110024E+04  0.7818609E-02  0.8212992E-01
        1   -1    0    0  501    0  0.00000000000E+00  0.00000000000E+00  0.14095256362E+04  0.14095256362E+04  0.50400001928E-02 0. -1.
       -1   -1    0    0    0  501  0.00000000000E+00  0.00000000000E+00 -0.17155154790E+04  0.17155154790E+04  0.50400001928E-02 0.  1.
    10030    2    1    2    0    0  0.00000000000E+00  0.00000000000E+00 -0.30598984278E+03  0.31250411152E+04  0.31100244674E+04 0.  0.
        2    1    3    3  502    0  0.14885812764E+04  0.33955453090E+03  0.14320211203E+03  0.15335182884E+04  0.25500000920E-02 0. -1.
       -2    1    3    3    0  502 -0.14885812764E+04 -0.33955453090E+03 -0.44919195480E+03  0.15915228268E+04  0.25500000920E-02 0.  1.
</event>
<event>
 5   0  0.1391878E-06  0.3313378E+04  0.7818609E-02  0.8159500E-01
        1   -1    0    0  501    0  0.00000000000E+00  0.00000000000E+00  0.25045815110E+04  0.25045815110E+04  0.50400001928E-02 0.  1.
       -1   -1    0    0    0  501  0.00000000000E+00  0.00000000000E+00 -0.10958392979E+04  0.10958392979E+04  0.50400001928E-02 0. -1.
    10030    2    1    2    0    0  0.00000000000E+00  0.00000000000E+00  0.14087422131E+04  0.36004208089E+04  0.33133782425E+04 0.  0.
        2    1    3    3  502    0 -0.16441119121E+03  0.16423417805E+04  0.85919713221E+03  0.18607894227E+04  0.25500000920E-02 0. -1.
       -2    1    3    3    0  502  0.16441119121E+03 -0.16423417805E+04  0.54954508092E+03  0.17396313862E+04  0.25500000920E-02 0.  1.
</event>
<event>
 5   0  0.1391878E-06  0.3347941E+04  0.7818609E-02  0.8150803E-01
       -1   -1    0    0    0  501  0.00000000000E+00  0.00000000000E+00  0.13136484876E+04  0.13136484876E+04  0.50400001928E-02 0.  1.
        1   -1    0    0  501    0  0.00000000000E+00  0.00000000000E+00 -0.21331250833E+04  0.21331250833E+04  0.50400001928E-02 0. -1.
    10030    2    1    2    0    0  0.00000000000E+00  0.00000000000E+00 -0.81947659569E+03  0.34467735709E+04  0.33479405847E+04 0.  0.
        2    1    3    3  502    0 -0.75539006354E+03  0.56002712874E+03  0.10160387382E+04  0.13844057391E+04  0.25500000920E-02 0.  1.
       -2    1    3    3    0  502  0.75539006354E+03 -0.56002712874E+03 -0.18355153338E+04  0.20623678318E+04  0.25500000920E-02 0. -1.
</event>
<event>
 5   0  0.4017247E-06  0.3298043E+04  0.7818609E-02  0.8163394E-01
        2   -1    0    0  501    0  0.00000000000E+00  0.00000000000E+00  0.12730210728E+04  0.12730210728E+04  0.25500000920E-02 0. -1.
       -2   -1    0    0    0  501  0.00000000000E+00  0.00000000000E+00 -0.21360772058E+04  0.21360772058E+04  0.25500000920E-02 0.  1.
    10030    2    1    2    0    0  0.00000000000E+00  0.00000000000E+00 -0.86305613304E+03  0.34090982786E+04  0.32980426293E+04 0.  0.
        1    1    3    3  502    0 -0.39731946154E+03  0.16533063967E+03 -0.20770092885E+04  0.21211234192E+04  0.50400001928E-02 0.  1.
       -1    1    3    3    0  502  0.39731946154E+03 -0.16533063967E+03  0.12139531554E+04  0.12879748594E+04  0.50400001928E-02 0. -1.
</event>
<event>
 5   0  0.1352708E-06  0.3071522E+04  0.7818609E-02  0.8223597E-01
       -1   -1    0    0    0  501  0.00000000000E+00  0.00000000000E+00  0.16299422091E+04  0.16299422091E+04  0.50400001928E-02 0.  1.
        1   -1    0    0  501    0  0.00000000000E+00  0.00000000000E+00 -0.14470219049E+04  0.14470219049E+04  0.50400001928E-02 0. -1.
    10030    2    1    2    0    0  0.00000000000E+00  0.00000000000E+00  0.18292030423E+03  0.30769641140E+04  0.30715221505E+04 0.  0.
        5    1    3    3  502    0 -0.48942732473E+03 -0.54188994652E+03 -0.12619910079E+04  0.14580216783E+04  0.46999998093E+01 0. -1.
       -5    1    3    3    0  502  0.48942732473E+03  0.54188994652E+03  0.14449113121E+04  0.16189424357E+04  0.46999998093E+01 0.  1.
</event>
<event>
 5   0  0.1391878E-06  0.3211248E+04  0.7818609E-02  0.8185853E-01
       -1   -1    0    0    0  501  0.00000000000E+00  0.00000000000E+00  0.11269499982E+04  0.11269499982E+04  0.50400001928E-02 0. -1.
        1   -1    0    0  501    0  0.00000000000E+00  0.00000000000E+00 -0.22876155897E+04  0.22876155897E+04  0.50400001928E-02 0.  1.
    10030    2    1    2    0    0  0.00000000000E+00  0.00000000000E+00 -0.11606655915E+04  0.34145655879E+04  0.32112479721E+04 0.  0.
        2    1    3    3  502    0  0.15017568993E+04  0.55207414774E+03 -0.72286741946E+03  0.17557325979E+04  0.25500000920E-02 0. -1.
       -2    1    3    3    0  502 -0.15017568993E+04 -0.55207414774E+03 -0.43779817208E+03  0.16588329900E+04  0.25500000920E-02 0.  1.
</event>
<event>
 5   0  0.1405389E-06  0.2915033E+04  0.7818609E-02  0.8268419E-01
        1   -1    0    0  501    0  0.00000000000E+00  0.00000000000E+00  0.20884435260E+04  0.20884435260E+04  0.50400001928E-02 0. -1.
       -1   -1    0    0    0  501  0.00000000000E+00  0.00000000000E+00 -0.10171949894E+04  0.10171949894E+04  0.50400001928E-02 0.  1.
    10030    2    1    2    0    0  0.00000000000E+00  0.00000000000E+00  0.10712485366E+04  0.31056385155E+04  0.29150329606E+04 0.  0.
        1    1    3    3  502    0  0.71889117111E+03  0.48232771991E+03 -0.71361184208E+03  0.11219119424E+04  0.50400001928E-02 0.  1.
       -1    1    3    3    0  502 -0.71889117111E+03 -0.48232771991E+03  0.17848603787E+04  0.19837265731E+04  0.50400001928E-02 0. -1.
</event>
<event>
 5   0  0.3812379E-06  0.2961176E+04  0.7818609E-02  0.8254905E-01
        2   -1    0    0  501    0  0.00000000000E+00  0.00000000000E+00  0.16323470040E+04  0.16323470040E+04  0.25500000920E-02 0.  1.
       -2   -1    0    0    0  501  0.00000000000E+00  0.00000000000E+00 -0.13429379760E+04  0.13429379760E+04  0.25500000920E-02 0. -1.
    10030    2    1    2    0    0  0.00000000000E+00  0.00000000000E+00  0.28940902806E+03  0.29752849800E+04  0.29611759702E+04 0.  0.
        5    1    3    3  502    0  0.12366379860E+03  0.14225101828E+04  0.53809360152E+03  0.15259078509E+04  0.46999998093E+01 0. -1.
       -5    1    3    3    0  502 -0.12366379860E+03 -0.14225101828E+04 -0.24868457346E+03  0.14493771291E+04  0.46999998093E+01 0.  1.
</event>
<event>
 5   0  0.3812379E-06  0.3269137E+04  0.7818609E-02  0.8170793E-01
       -2   -1    0    0    0  501  0.00000000000E+00  0.00000000000E+00  0.17141820524E+04  0.17141820524E+04  0.25500000920E-02 0.  1.
        2   -1    0    0  501    0  0.00000000000E+00  0.00000000000E+00 -0.15586522957E+04  0.15586522957E+04  0.25500000920E-02 0. -1.
    10030    2    1    2    0    0  0.00000000000E+00  0.00000000000E+00  0.15552975675E+03  0.32728343481E+04  0.32691367614E+04 0.  0.
        5    1    3    3  502    0 -0.14261744128E+04  0.62034375919E+03 -0.42578699303E+03  0.16124876708E+04  0.46999998093E+01 0. -1.
       -5    1    3    3    0  502  0.14261744128E+04 -0.62034375919E+03  0.58131674978E+03  0.16603466773E+04  0.46999998093E+01 0.  1.
</event>
<event>
 5   0  0.3920487E-06  0.3287488E+04  0.7818609E-02  0.8166086E-01
        2   -1    0    0  501    0  0.00000000000E+00  0.00000000000E+00  0.13786133776E+04  0.13786133776E+04  0.25500000920E-02 0. -1.
       -2   -1    0    0    0  501  0.00000000000E+00  0.00000000000E+00 -0.19598637688E+04  0.19598637688E+04  0.25500000920E-02 0.  1.
    10030    2    1    2    0    0  0.00000000000E+00  0.00000000000E+00 -0.58125039121E+03  0.33384771464E+04  0.32874880440E+04 0.  0.
        4    1    3    3  502    0  0.13941144304E+04  0.78848730021E+03 -0.66598706592E+03  0.17345914944E+04  0.12699999809E+01 0. -1.
       -4    1    3    3    0  502 -0.13941144304E+04 -0.78848730021E+03  0.84736674706E+02  0.16038856519E+04  0.12699999809E+01 0.  1.
</event>
<event>
 5   0  0.1352708E-06  0.3229578E+04  0.7818609E-02  0.8181049E-01
        1   -1    0    0  501    0  0.00000000000E+00  0.00000000000E+00  0.13497888841E+04  0.13497888841E+04  0.50400001928E-02 0.  1.
       -1   -1    0    0    0  501  0.00000000000E+00  0.00000000000E+00 -0.19318154006E+04  0.19318154006E+04  0.50400001928E-02 0. -1.
    10030    2    1    2    0    0  0.00000000000E+00  0.00000000000E+00 -0.58202651646E+03  0.32816042847E+04  0.32295776528E+04 0.  0.
        5    1    3    3  502    0 -0.63210227079E+03  0.10903902680E+04  0.73471216077E+03  0.14588791130E+04  0.46999998093E+01 0.  1.
       -5    1    3    3    0  502  0.63210227079E+03 -0.10903902680E+04 -0.13167386772E+04  0.18227251717E+04  0.46999998093E+01 0. -1.
</event>
<event>
 5   0  0.3671997E-06  0.2443230E+04  0.7818609E-02  0.8423494E-01
       -2   -1    0    0    0  501  0.00000000000E+00  0.00000000000E+00  0.91619522899E+03  0.91619522900E+03  0.25500000920E-02 0.  1.
        2   -1    0    0  501    0  0.00000000000E+00  0.00000000000E+00 -0.16288485070E+04  0.16288485070E+04  0.25500000920E-02 0. -1.
    10030    2    1    2    0    0  0.00000000000E+00  0.00000000000E+00 -0.71265327799E+03  0.25450437360E+04  0.24432300185E+04 0.  0.
        2    1    3    3  502    0  0.11309782194E+04  0.39315802936E+03 -0.60861399754E+03  0.13431663958E+04  0.25500000920E-02 0. -1.
       -2    1    3    3    0  502 -0.11309782194E+04 -0.39315802936E+03 -0.10403928045E+03  0.12018773401E+04  0.25500000920E-02 0.  1.
</event>
<event>
 5   0  0.1391878E-06  0.2577126E+04  0.7818609E-02  0.8376013E-01
        1   -1    0    0  501    0  0.00000000000E+00  0.00000000000E+00  0.10900656765E+04  0.10900656765E+04  0.50400001928E-02 0.  1.
       -1   -1    0    0    0  501  0.00000000000E+00  0.00000000000E+00 -0.15232058692E+04  0.15232058692E+04  0.50400001928E-02 0. -1.
    10030    2    1    2    0    0  0.00000000000E+00  0.00000000000E+00 -0.43314019272E+03  0.26132715457E+04  0.25771258691E+04 0.  0.
        2    1    3    3  502    0 -0.78795887545E+03 -0.20993242046E+03  0.79514270288E+03  0.11389480798E+04  0.25500000920E-02 0.  1.
       -2    1    3    3    0  502  0.78795887545E+03  0.20993242046E+03 -0.12282828956E+04  0.14743234659E+04  0.25500000920E-02 0. -1.
</event>
<event>
 5   0  0.3671997E-06  0.2182522E+04  0.7818609E-02  0.8525738E-01
        2   -1    0    0  501    0  0.00000000000E+00  0.00000000000E+00  0.98035987103E+03  0.98035987103E+03  0.25500000920E-02 0. -1.
       -2   -1    0    0    0  501  0.00000000000E+00  0.00000000000E+00 -0.12147074456E+04  0.12147074456E+04  0.25500000920E-02 0.  1.
    10030    2    1    2    0    0  0.00000000000E+00  0.00000000000E+00 -0.23434757454E+03  0.21950673166E+04  0.21825218759E+04 0.  0.
        2    1    3    3  502    0 -0.45795275304E+03 -0.50834557463E+03 -0.97218659093E+03  0.11888156774E+04  0.25500000920E-02 0.  1.
       -2    1    3    3    0  502  0.45795275304E+03  0.50834557463E+03  0.73783901639E+03  0.10062516392E+04  0.25500000920E-02 0. -1.
</event>
<event>
 5   0  0.1352708E-06  0.3389610E+04  0.7818609E-02  0.8140461E-01
       -1   -1    0    0    0  501  0.00000000000E+00  0.00000000000E+00  0.15224115184E+04  0.15224115184E+04  0.50400001928E-02 0. -1.
        1   -1    0    0  501    0  0.00000000000E+00  0.00000000000E+00 -0.18867201674E+04  0.18867201674E+04  0.50400001928E-02 0.  1.
    10030    2    1    2    0    0  0.00000000000E+00  0.00000000000E+00 -0.36430864896E+03  0.34091316859E+04  0.33896103109E+04 0.  0.
        5    1    3    3  502    0  0.15738756950E+04  0.59224440224E+03  0.30021032949E+02  0.16818922342E+04  0.46999998093E+01 0. -1.
       -5    1    3    3    0  502 -0.15738756950E+04 -0.59224440224E+03 -0.39432968191E+03  0.17272394516E+04  0.46999998093E+01 0.  1.
</event>
<event>
 5   0  0.3920487E-06  0.3174139E+04  0.7818609E-02  0.8195681E-01
        2   -1    0    0  501    0  0.00000000000E+00  0.00000000000E+00  0.21849417084E+04  0.21849417084E+04  0.25500000920E-02 0.  1.
       -2   -1    0    0    0  501  0.00000000000E+00  0.00000000000E+00 -0.11527945821E+04  0.11527945821E+04  0.25500000920E-02 0. -1.
    10030    2    1    2    0    0  0.00000000000E+00  0.00000000000E+00  0.10321471263E+04  0.33377362904E+04  0.31741386003E+04 0.  0.
        4    1    3    3  502    0  0.63669932851E+03 -0.14237593125E+04  0.20714465915E+03  0.15733363078E+04  0.12699999809E+01 0. -1.
       -4    1    3    3    0  502 -0.63669932851E+03  0.14237593125E+04  0.82500246718E+03  0.17643999826E+04  0.12699999809E+01 0.  1.
</event>
<event>
 5   0  0.1405389E-06  0.3240768E+04  0.7818609E-02  0.8178133E-01
       -1   -1    0    0    0  501  0.00000000000E+00  0.00000000000E+00  0.12098514255E+04  0.12098514256E+04  0.50400001928E-02 0.  1.
        1   -1    0    0  501    0  0.00000000000E+00  0.00000000000E+00 -0.21702204390E+04  0.21702204390E+04  0.50400001928E-02 0. -1.
    10030    2    1    2    0    0  0.00000000000E+00  0.00000000000E+00 -0.96036901348E+03  0.33800718646E+04  0.32407679904E+04 0.  0.
        1    1    3    3  502    0 -0.34135621597E+03  0.12518844771E+04 -0.14924202195E+04  0.19776392294E+04  0.50400001928E-02 0. -1.
       -1    1    3    3    0  502  0.34135621597E+03 -0.12518844771E+04  0.53205120600E+03  0.14024326351E+04  0.50400001928E-02 0.  1.
</event>
<event>
 5   0  0.1352708E-06  0.2814060E+04  0.7818609E-02  0.8298917E-01
       -1   -1    0    0    0  501  0.00000000000E+00  0.00000000000E+00  0.12446159464E+04  0.12446159464E+04  0.50400001928E-02 0. -1.
        1   -1    0    0  501    0  0.00000000000E+00  0.00000000000E+00 -0.15906377240E+04  0.15906377240E+04  0.50400001928E-02 0.  1.
    10030    2    1    2    0    0  0.00000000000E+00  0.00000000000E+00 -0.34602177759E+03  0.28352536704E+04  0.28140597551E+04 0.  0.
        5    1    3    3  502    0 -0.84216972727E+02  0.11009415435E+04  0.70565022808E+03  0.13103927331E+04  0.46999998093E+01 0. -1.
       -5    1    3    3    0  502  0.84216972727E+02 -0.11009415435E+04 -0.10516720057E+04  0.15248609373E+04  0.46999998093E+01 0.  1.
</event>
<event>
 5   0  0.1405389E-06  0.2198613E+04  0.7818609E-02  0.8519006E-01
        1   -1    0    0  501    0  0.00000000000E+00  0.00000000000E+00  0.65034846529E+03  0.65034846531E+03  0.50400001928E-02 0. -1.
       -1   -1    0    0    0  501  0.00000000000E+00  0.00000000000E+00 -0.18581950242E+04  0.18581950242E+04  0.50400001928E-02 0.  1.
    10030    2    1    2    0    0  0.00000000000E+00  0.00000000000E+00 -0.12078465589E+04  0.25085434895E+04  0.21986125463E+04 0.  0.
        1    1    3    3  502    0 -0.91504548415E+03  0.48728291717E+03 -0.18669532895E+03  0.10533793359E+04  0.50400001928E-02 0. -1.
       -1    1    3    3    0  502  0.91504548415E+03 -0.48728291717E+03 -0.10211512299E+04  0.14551641536E+04  0.50400001928E-02 0.  1.
</event>
<event>
 5   0  0.3671997E-06  0.3225550E+04  0.7818609E-02  0.8182102E-01
        2   -1    0    0  501    0  0.00000000000E+00  0.00000000000E+00  0.21646577717E+04  0.21646577717E+04  0.25500000920E-02 0.  1.
       -2   -1    0    0    0  501  0.00000000000E+00  0.00000000000E+00 -0.12015953954E+04  0.12015953954E+04  0.25500000920E-02 0. -1.
    10030    2    1    2    0    0  0.00000000000E+00  0.00000000000E+00  0.96306237628E+03  0.33662531671E+04  0.32255497584E+04 0.  0.
        2    1    3    3  502    0  0.12158804905E+04 -0.32508193168E+03 -0.57092331547E+03  0.13820264330E+04  0.25500000920E-02 0. -1.
       -2    1    3    3    0  502 -0.12158804905E+04  0.32508193168E+03  0.15339856918E+04  0.19842267340E+04  0.25500000920E-02 0.  1.
</event>
<event>
 5   0  0.3896210E-06  0.3263722E+04  0.7818609E-02  0.8172188E-01
       -2   -1    0    0    0  501  0.00000000000E+00  0.00000000000E+00  0.12172820545E+04  0.12172820545E+04  0.25500000920E-02 0.  1.
        2   -1    0    0  501    0  0.00000000000E+00  0.00000000000E+00 -0.21876367522E+04  0.21876367522E+04  0.25500000920E-02 0. -1.
    10030    2    1    2    0    0  0.00000000000E+00  0.00000000000E+00 -0.97035469770E+03  0.34049188067E+04  0.32637223903E+04 0.  0.
        3    1    3    3  502    0  0.33814643507E+03  0.97693810162E+03  0.83207099176E+03  0.13270618718E+04  0.10100000352E+00 0.  1.
       -3    1    3    3    0  502 -0.33814643507E+03 -0.97693810162E+03 -0.18024256895E+04  0.20778569350E+04  0.10100000352E+00 0. -1.
</event>
<event>
 5   0  0.1352708E-06  0.2751519E+04  0.7818609E-02  0.8318480E-01
       -1   -1    0    0    0  501  0.00000000000E+00  0.00000000000E+00  0.12645810312E+04  0.12645810312E+04  0.50400001928E-02 0. -1.
        1   -1    0    0  501    0  0.00000000000E+00  0.00000000000E+00 -0.14967124609E+04  0.14967124609E+04  0.50400001928E-02 0.  1.
    10030    2    1    2    0    0  0.00000000000E+00  0.00000000000E+00 -0.23213142969E+03  0.27612934921E+04  0.27515189893E+04 0.  0.
        5    1    3    3  502    0  0.10852183271E+04 -0.45874761627E+03  0.59677014102E+03  0.13207213499E+04  0.46999998093E+01 0. -1.
       -5    1    3    3    0  502 -0.10852183271E+04  0.45874761627E+03 -0.82890157071E+03  0.14405721422E+04  0.46999998093E+01 0.  1.
</event>
<event>
 5   0  0.3812379E-06  0.3228295E+04  0.7818609E-02  0.8181384E-01
        2   -1    0    0  501    0  0.00000000000E+00  0.00000000000E+00  0.19400340114E+04  0.19400340114E+04  0.25500000920E-02 0. -1.
       -2   -1    0    0    0  501  0.00000000000E+00  0.00000000000E+00 -0.13430035471E+04  0.13430035471E+04  0.25500000920E-02 0.  1.
    10030    2    1    2    0    0  0.00000000000E+00  0.00000000000E+00  0.59703046435E+03  0.32830375585E+04  0.32282952522E+04 0.  0.
        5    1    3    3  502    0  0.22340959717E+03 -0.15927711235E+04  0.15975082536E+03  0.16162840456E+04  0.46999998093E+01 0.  1.
       -5    1    3    3    0  502 -0.22340959717E+03  0.15927711235E+04  0.43727963899E+03  0.16667535129E+04  0.46999998093E+01 0. -1.
</event>
<event>
 5   0  0.3812379E-06  0.3157185E+04  0.7818609E-02  0.8200217E-01
        2   -1    0    0  501    0  0.00000000000E+00  0.00000000000E+00  0.11061791256E+04  0.11061791256E+04  0.25500000920E-02 0. -1.
       -2   -1    0    0    0  501  0.00000000000E+00  0.00000000000E+00 -0.22527586749E+04  0.22527586749E+04  0.25500000920E-02 0.  1.
    10030    2    1    2    0    0  0.00000000000E+00  0.00000000000E+00 -0.11465795494E+04  0.33589378005E+04  0.31571852154E+04 0.  0.
        5    1    3    3  502    0  0.64480744003E+03  0.75547628845E+03 -0.18786474056E+04  0.21250551103E+04  0.46999998093E+01 0.  1.
       -5    1    3    3    0  502 -0.64480744003E+03 -0.75547628845E+03  0.73206785624E+03  0.12338826902E+04  0.46999998093E+01 0. -1.
</event>
<event>
 5   0  0.3812379E-06  0.3310330E+04  0.7818609E-02  0.8160272E-01
        2   -1    0    0  501    0  0.00000000000E+00  0.00000000000E+00  0.18374372199E+04  0.18374372199E+04  0.25500000920E-02 0.  1.
       -2   -1    0    0    0  501  0.00000000000E+00  0.00000000000E+00 -0.14909738538E+04  0.14909738538E+04  0.25500000920E-02 0. -1.
    10030    2    1    2    0    0  0.00000000000E+00  0.00000000000E+00  0.34646336602E+03  0.33284110737E+04  0.33103298041E+04 0.  0.
        5    1    3    3  502    0  0.56197557863E+03  0.60276103571E+03  0.16164853195E+04  0.18144377353E+04  0.46999998093E+01 0.  1.
       -5    1    3    3    0  502 -0.56197557863E+03 -0.60276103571E+03 -0.12700219535E+04  0.15139733384E+04  0.46999998093E+01 0. -1.
</event>
<event>
 5   0  0.1405389E-06  0.3092447E+04  0.7818609E-02  0.8217814E-01
        1   -1    0    0  501    0  0.00000000000E+00  0.00000000000E+00  0.15577737002E+04  0.15577737002E+04  0.50400001928E-02 0.  1.
       -1   -1    0    0    0  501  0.00000000000E+00  0.00000000000E+00 -0.15347594102E+04  0.15347594102E+04  0.50400001928E-02 0. -1.
    10030    2    1    2    0    0  0.00000000000E+00  0.00000000000E+00  0.23014289918E+02  0.30925331104E+04  0.30924474743E+04 0.  0.
        1    1    3    3  502    0 -0.15418373745E+04 -0.11282328884E+03 -0.17063933584E+02  0.15460539324E+04  0.50400001928E-02 0. -1.
       -1    1    3    3    0  502  0.15418373745E+04  0.11282328884E+03  0.40078223501E+02  0.15464791780E+04  0.50400001928E-02 0.  1.
</event>
<event>
 5   0  0.3920487E-06  0.2968720E+04  0.7818609E-02  0.8252720E-01
        2   -1    0    0  501    0  0.00000000000E+00  0.00000000000E+00  0.30434841787E+04  0.30434841787E+04  0.25500000920E-02 0.  1.
       -2   -1    0    0    0  501  0.00000000000E+00  0.00000000000E+00 -0.72394793462E+03  0.72394793462E+03  0.25500000920E-02 0. -1.
    10030    2    1    2    0    0  0.00000000000E+00  0.00000000000E+00  0.23195362441E+04  0.37674321133E+04  0.29687196467E+04 0.  0.
        4    1    3    3  502    0  0.11937067407E+04 -0.72271692182E+03  0.18019425462E+04  0.22790906267E+04  0.12699999809E+01 0. -1.
       -4    1    3    3    0  502 -0.11937067407E+04  0.72271692182E+03  0.51759369790E+03  0.14883414867E+04  0.12699999809E+01 0.  1.
</event>
<event>
 5   0  0.1405389E-06  0.3251950E+04  0.7818609E-02  0.8175230E-01
        1   -1    0    0  501    0  0.00000000000E+00  0.00000000000E+00  0.17819952707E+04  0.17819952707E+04  0.50400001928E-02 0.  1.
       -1   -1    0    0    0  501  0.00000000000E+00  0.00000000000E+00 -0.14836153247E+04  0.14836153247E+04  0.50400001928E-02 0. -1.
    10030    2    1    2    0    0  0.00000000000E+00  0.00000000000E+00  0.29837994601E+03  0.32656105954E+04  0.32519504868E+04 0.  0.
        1    1    3    3  502    0 -0.13870267102E+04  0.54683490470E+03 -0.50232186049E+03  0.15732764408E+04  0.50400001928E-02 0. -1.
       -1    1    3    3    0  502  0.13870267102E+04 -0.54683490470E+03  0.80070180650E+03  0.16923341546E+04  0.50400001928E-02 0.  1.
</event>
<event>
 5   0  0.1339825E-06  0.3269491E+04  0.7818609E-02  0.8170702E-01
        1   -1    0    0  501    0  0.00000000000E+00  0.00000000000E+00  0.21513987504E+04  0.21513987504E+04  0.50400001928E-02 0. -1.
       -1   -1    0    0    0  501  0.00000000000E+00  0.00000000000E+00 -0.12421654581E+04  0.12421654581E+04  0.50400001928E-02 0.  1.
    10030    2    1    2    0    0  0.00000000000E+00  0.00000000000E+00  0.90923329231E+03  0.33935642085E+04  0.32694912230E+04 0.  0.
        3    1    3    3  502    0 -0.32783177485E+03  0.44060152921E+03  0.20527846152E+04  0.21249771920E+04  0.10100000352E+00 0. -1.
       -3    1    3    3    0  502  0.32783177485E+03 -0.44060152921E+03 -0.11435513229E+04  0.12685870165E+04  0.10100000352E+00 0.  1.
</event>
<event>
 5   0  0.1391878E-06  0.3328421E+04  0.7818609E-02  0.8155701E-01
        1   -1    0    0  501    0  0.00000000000E+00  0.00000000000E+00  0.23491542346E+04  0.23491542346E+04  0.50400001928E-02 0. -1.
       -1   -1    0    0    0  501  0.00000000000E+00  0.00000000000E+00 -0.11789757713E+04  0.11789757714E+04  0.50400001928E-02 0.  1.
    10030    2    1    2    0    0  0.00000000000E+00  0.00000000000E+00  0.11701784633E+04  0.35281300060E+04  0.33284206019E+04 0.  0.
        2    1    3    3  502    0 -0.12706410938E+04 -0.21692853219E+03 -0.53068942955E+03  0.13939935609E+04  0.25500000920E-02 0.  1.
       -2    1    3    3    0  502  0.12706410938E+04  0.21692853219E+03  0.17008678928E+04  0.21341364451E+04  0.25500000920E-02 0. -1.
</event>
<event>
 5   0  0.3920487E-06  0.3310759E+04  0.7818609E-02  0.8160163E-01
        2   -1    0    0  501    0  0.00000000000E+00  0.00000000000E+00  0.19926267410E+04  0.19926267410E+04  0.25500000920E-02 0.  1.
       -2   -1    0    0    0  501  0.00000000000E+00  0.00000000000E+00 -0.13752104564E+04  0.13752104564E+04  0.25500000920E-02 0. -1.
    10030    2    1    2    0    0  0.00000000000E+00  0.00000000000E+00  0.61741628455E+03  0.33678371974E+04  0.33107589039E+04 0.  0.
        4    1    3    3  502    0 -0.10372599167E+03 -0.60218353266E+03 -0.12562872712E+04  0.13970123153E+04  0.12699999809E+01 0. -1.
       -4    1    3    3    0  502  0.10372599167E+03  0.60218353266E+03  0.18737035557E+04  0.19708248821E+04  0.12699999809E+01 0.  1.
</event>
<event>
 5   0  0.1282578E-06  0.3285782E+04  0.7818609E-02  0.8166523E-01
       -1   -1    0    0    0  501  0.00000000000E+00  0.00000000000E+00  0.14147526000E+04  0.14147526000E+04  0.50400001928E-02 0.  1.
        1   -1    0    0  501    0  0.00000000000E+00  0.00000000000E+00 -0.19078178531E+04  0.19078178531E+04  0.50400001928E-02 0. -1.
    10030    2    1    2    0    0  0.00000000000E+00  0.00000000000E+00 -0.49306525317E+03  0.33225704531E+04  0.32857816531E+04 0.  0.
        4    1    3    3  502    0 -0.10856452735E+04 -0.12132496998E+04 -0.23866909653E+02  0.16282419158E+04  0.12699999809E+01 0. -1.
       -4    1    3    3    0  502  0.10856452735E+04  0.12132496998E+04 -0.46919834351E+03  0.16943285373E+04  0.12699999809E+01 0.  1.
</event>
<event>
 5   0  0.1339825E-06  0.3364876E+04  0.7818609E-02  0.8146581E-01
       -1   -1    0    0    0  501  0.00000000000E+00  0.00000000000E+00  0.24420688969E+04  0.24420688969E+04  0.50400001928E-02 0. -1.
        1   -1    0    0  501    0  0.00000000000E+00  0.00000000000E+00 -0.11590982580E+04  0.11590982580E+04  0.50400001928E-02 0.  1.
    10030    2    1    2    0    0  0.00000000000E+00  0.00000000000E+00  0.12829706389E+04  0.36011671549E+04  0.33648761073E+04 0.  0.
        3    1    3    3  502    0 -0.38659846824E+03  0.15026138853E+04 -0.54810332987E+02  0.15525176478E+04  0.10100000352E+00 0. -1.
       -3    1    3    3    0  502  0.38659846824E+03 -0.15026138853E+04  0.13377809719E+04  0.20486495071E+04  0.10100000352E+00 0.  1.
</event>
<event>
 5   0  0.4017247E-06  0.3292454E+04  0.7818609E-02  0.8164818E-01
       -2   -1    0    0    0  501  0.00000000000E+00  0.00000000000E+00  0.17050196486E+04  0.17050196486E+04  0.25500000920E-02 0. -1.
        2   -1    0    0  501    0  0.00000000000E+00  0.00000000000E+00 -0.15894616455E+04  0.15894616455E+04  0.25500000920E-02 0.  1.
    10030    2    1    2    0    0  0.00000000000E+00  0.00000000000E+00  0.11555800315E+03  0.32944812941E+04  0.32924540005E+04 0.  0.
        1    1    3    3  502    0 -0.85338309502E+03 -0.26535261632E+03 -0.13256020658E+04  0.15987168464E+04  0.50400001928E-02 0.  1.
       -1    1    3    3    0  502  0.85338309502E+03  0.26535261632E+03  0.14411600690E+04  0.16957644478E+04  0.50400001928E-02 0. -1.
</event>
<event>
 5   0  0.3812379E-06  0.3307549E+04  0.7818609E-02  0.8160977E-01
        2   -1    0    0  501    0  0.00000000000E+00  0.00000000000E+00  0.17133717257E+04  0.17133717257E+04  0.25500000920E-02 0.  1.
       -2   -1    0    0    0  501  0.00000000000E+00  0.00000000000E+00 -0.15962498676E+04  0.15962498676E+04  0.25500000920E-02 0. -1.
    10030    2    1    2    0    0  0.00000000000E+00  0.00000000000E+00  0.11712185813E+03  0.33096215933E+04  0.33075485727E+04 0.  0.
        5    1    3    3  502    0 -0.54677660458E+03 -0.12224085875E+04  0.10295813661E+04  0.16891735522E+04  0.46999998093E+01 0.  1.
       -5    1    3    3    0  502  0.54677660458E+03  0.12224085875E+04 -0.91245950798E+03  0.16204480410E+04  0.46999998093E+01 0. -1.
</event>
<event>
 5   0  0.1282578E-06  0.3365115E+04  0.7818609E-02  0.8146522E-01
       -1   -1    0    0    0  501  0.00000000000E+00  0.00000000000E+00  0.98047425280E+03  0.98047425281E+03  0.50400001928E-02 0. -1.
        1   -1    0    0  501    0  0.00000000000E+00  0.00000000000E+00 -0.28873777252E+04  0.28873777252E+04  0.50400001928E-02 0.  1.
    10030    2    1    2    0    0  0.00000000000E+00  0.00000000000E+00 -0.19069034724E+04  0.38678519780E+04  0.33651148674E+04 0.  0.
        4    1    3    3  502    0  0.41233502525E+03  0.14872578348E+04 -0.18323426033E+03  0.15541983294E+04  0.12699999809E+01 0. -1.
       -4    1    3    3    0  502 -0.41233502525E+03 -0.14872578348E+04 -0.17236692121E+04  0.23136536486E+04  0.12699999809E+01 0.  1.
</event>
<event>
 5   0  0.3920487E-06  0.2271325E+04  0.7818609E-02  0.8489314E-01
       -2   -1    0    0    0  501  0.00000000000E+00  0.00000000000E+00  0.77663926694E+03  0.77663926695E+03  0.25500000920E-02 0.  1.
        2   -1    0    0  501    0  0.00000000000E+00  0.00000000000E+00 -0.16606538591E+04  0.16606538591E+04  0.25500000920E-02 0. -1.
    10030    2    1    2    0    0  0.00000000000E+00  0.00000000000E+00 -0.88401459213E+03  0.24372931260E+04  0.22713247199E+04 0.  0.
        4    1    3    3  502    0  0.52104254960E+03 -0.58660645216E+03 -0.13230601177E+04  0.15382074490E+04  0.12699999809E+01 0. -1.
       -4    1    3    3    0  502 -0.52104254960E+03  0.58660645216E+03  0.43904552556E+03  0.89908567702E+03  0.12699999809E+01 0.  1.
</event>
<event>
 5   0  0.3671997E-06  0.3309747E+04  0.7818609E-02  0.8160420E-01
       -2   -1    0    0    0  501  0.00000000000E+00  0.00000000000E+00  0.19277370489E+04  0.19277370489E+04  0.25500000920E-02 0. -1.
        2   -1    0    0  501    0  0.00000000000E+00  0.00000000000E+00 -0.14206326682E+04  0.14206326682E+04  0.25500000920E-02 0.  1.
    10030    2    1    2    0    0  0.00000000000E+00  0.00000000000E+00  0.50710438069E+03  0.33483697171E+04  0.33097469555E+04 0.  0.
        2    1    3    3  502    0  0.45365919398E+03 -0.13060463218E+04 -0.66647898967E+03  0.15348478435E+04  0.25500000920E-02 0.  1.
       -2    1    3    3    0  502 -0.45365919398E+03  0.13060463218E+04  0.11735833704E+04  0.18135218736E+04  0.25500000920E-02 0. -1.
</event>
<event>
 5   0  0.1405389E-06  0.3119714E+04  0.7818609E-02  0.8210348E-01
        1   -1    0    0  501    0  0.00000000000E+00  0.00000000000E+00  0.13895709436E+04  0.13895709436E+04  0.50400001928E-02 0. -1.
       -1   -1    0    0    0  501  0.00000000000E+00  0.00000000000E+00 -0.17510109793E+04  0.17510109793E+04  0.50400001928E-02 0.  1.
    10030    2    1    2    0    0  0.00000000000E+00  0.00000000000E+00 -0.36144003566E+03  0.31405819229E+04  0.31197140759E+04 0.  0.
        1    1    3    3  502    0  0.18584151996E+03  0.12440816769E+04  0.74788045899E+03  0.14634211527E+04  0.50400001928E-02 0. -1.
       -1    1    3    3    0  502 -0.18584151996E+03 -0.12440816769E+04 -0.11093204947E+04  0.16771607702E+04  0.50400001928E-02 0.  1.
</event>
<event>
 5   0  0.3671997E-06  0.3286106E+04  0.7818609E-02  0.8166440E-01
       -2   -1    0    0    0  501  0.00000000000E+00  0.00000000000E+00  0.11203872321E+04  0.11203872321E+04  0.25500000920E-02 0. -1.
        2   -1    0    0  501    0  0.00000000000E+00  0.00000000000E+00 -0.24095453011E+04  0.24095453011E+04  0.25500000920E-02 0.  1.
    10030    2    1    2    0    0  0.00000000000E+00  0.00000000000E+00 -0.12891580690E+04  0.35299325331E+04  0.32861063832E+04 0.  0.
        2    1    3    3  502    0  0.23243966737E+03  0.14617913217E+04  0.12162070623E+03  0.14851443241E+04  0.25500000920E-02 0. -1.
       -2    1    3    3    0  502 -0.23243966737E+03 -0.14617913217E+04 -0.14107787752E+04  0.20447882090E+04  0.25500000920E-02 0.  1.
</event>
<event>
 5   0  0.1391878E-06  0.3493667E+04  0.7818609E-02  0.8115293E-01
       -1   -1    0    0    0  501  0.00000000000E+00  0.00000000000E+00  0.18829433411E+04  0.18829433411E+04  0.50400001928E-02 0. -1.
        1   -1    0    0  501    0  0.00000000000E+00  0.00000000000E+00 -0.16205620945E+04  0.16205620945E+04  0.50400001928E-02 0.  1.
    10030    2    1    2    0    0  0.00000000000E+00  0.00000000000E+00  0.26238124655E+03  0.35035054356E+04  0.34936666153E+04 0.  0.
        2    1    3    3  502    0 -0.14248302146E+04  0.38933250839E+03 -0.80401580746E+03  0.16817141140E+04  0.25500000920E-02 0.  1.
       -2    1    3    3    0  502  0.14248302146E+04 -0.38933250839E+03  0.10663970540E+04  0.18217913216E+04  0.25500000920E-02 0. -1.
</event>
<event>
 5   0  0.1282578E-06  0.3300033E+04  0.7818609E-02  0.8162887E-01
       -1   -1    0    0    0  501  0.00000000000E+00  0.00000000000E+00  0.13243717683E+04  0.13243717683E+04  0.50400001928E-02 0.  1.
        1   -1    0    0  501    0  0.00000000000E+00  0.00000000000E+00 -0.20557332295E+04  0.20557332295E+04  0.50400001928E-02 0. -1.
    10030    2    1    2    0    0  0.00000000000E+00  0.00000000000E+00 -0.73136146117E+03  0.33801049979E+04  0.33000333649E+04 0.  0.
        4    1    3    3  502    0  0.19180606140E+03  0.15687997424E+04 -0.85113345206E+03  0.17950910737E+04  0.12699999809E+01 0. -1.
       -4    1    3    3    0  502 -0.19180606140E+03 -0.15687997424E+04  0.11977199089E+03  0.15850139241E+04  0.12699999809E+01 0.  1.
</event>
<event>
 5   0  0.4017247E-06  0.2686427E+04  0.7818609E-02  0.8339423E-01
        2   -1    0    0  501    0  0.00000000000E+00  0.00000000000E+00  0.11284345306E+04  0.11284345306E+04  0.25500000920E-02 0.  1.
       -2   -1    0    0    0  501  0.00000000000E+00  0.00000000000E+00 -0.15988716321E+04  0.15988716321E+04  0.25500000920E-02 0. -1.
    10030    2    1    2    0    0  0.00000000000E+00  0.00000000000E+00 -0.47043710150E+03  0.27273061627E+04  0.26864265928E+04 0.  0.
        1    1    3    3  502    0  0.46457342897E+03  0.18181131457E+03  0.10308911204E+04  0.11452599387E+04  0.50400001928E-02 0.  1.
       -1    1    3    3    0  502 -0.46457342897E+03 -0.18181131457E+03 -0.15013282219E+04  0.15820462240E+04  0.50400001928E-02 0. -1.
</event>
<event>
 5   0  0.3671997E-06  0.3311531E+04  0.7818609E-02  0.8159968E-01
       -2   -1    0    0    0  501  0.00000000000E+00  0.00000000000E+00  0.11966767737E+04  0.11966767737E+04  0.25500000920E-02 0. -1.
        2   -1    0    0  501    0  0.00000000000E+00  0.00000000000E+00 -0.22909774016E+04  0.22909774016E+04  0.25500000920E-02 0.  1.
    10030    2    1    2    0    0  0.00000000000E+00  0.00000000000E+00 -0.10943006279E+04  0.34876541753E+04  0.33115310330E+04 0.  0.
        2    1    3    3  502    0  0.63084693746E+03  0.68572990534E+03 -0.19886545155E+04  0.21961193373E+04  0.25500000920E-02 0.  1.
       -2    1    3    3    0  502 -0.63084693746E+03 -0.68572990534E+03  0.89435388760E+03  0.12915348380E+04  0.25500000920E-02 0. -1.
</event>
<event>
 5   0  0.1405389E-06  0.3134581E+04  0.7818609E-02  0.8206311E-01
       -1   -1    0    0    0  501  0.00000000000E+00  0.00000000000E+00  0.11014847247E+04  0.11014847247E+04  0.50400001928E-02 0.  1.
        1   -1    0    0  501    0  0.00000000000E+00  0.00000000000E+00 -0.22300805193E+04  0.22300805193E+04  0.50400001928E-02 0. -1.
    10030    2    1    2    0    0  0.00000000000E+00  0.00000000000E+00 -0.11285957946E+04  0.33315652439E+04  0.31345810736E+04 0.  0.
        1    1    3    3  502    0 -0.14642596279E+03  0.77241249841E+03 -0.20053560194E+04  0.21539532017E+04  0.50400001928E-02 0. -1.
       -1    1    3    3    0  502  0.14642596279E+03 -0.77241249841E+03  0.87676022482E+03  0.11776120423E+04  0.50400001928E-02 0.  1.
</event>
<event>
 5   0  0.1391878E-06  0.3259209E+04  0.7818609E-02  0.8173353E-01
       -1   -1    0    0    0  501  0.00000000000E+00  0.00000000000E+00  0.11408146409E+04  0.11408146409E+04  0.50400001928E-02 0. -1.
        1   -1    0    0  501    0  0.00000000000E+00  0.00000000000E+00 -0.23278203646E+04  0.23278203646E+04  0.50400001928E-02 0.  1.
    10030    2    1    2    0    0  0.00000000000E+00  0.00000000000E+00 -0.11870057237E+04  0.34686350055E+04  0.32592094460E+04 0.  0.
        2    1    3    3  502    0  0.15582750626E+04 -0.43638351503E+03 -0.38890023748E+03  0.16643001945E+04  0.25500000920E-02 0. -1.
       -2    1    3    3    0  502 -0.15582750626E+04  0.43638351503E+03 -0.79810548621E+03  0.18043348109E+04  0.25500000920E-02 0.  1.
</event>
<event>
 5   0  0.4017247E-06  0.3785613E+04  0.7818609E-02  0.8049249E-01
       -2   -1    0    0    0  501  0.00000000000E+00  0.00000000000E+00  0.11857511520E+04  0.11857511520E+04  0.25500000920E-02 0.  1.
        2   -1    0    0  501    0  0.00000000000E+00  0.00000000000E+00 -0.30214738125E+04  0.30214738125E+04  0.25500000920E-02 0. -1.
    10030    2    1    2    0    0  0.00000000000E+00  0.00000000000E+00 -0.18357226606E+04  0.42072249645E+04  0.37856127926E+04 0.  0.
        1    1    3    3  502    0  0.44398550614E+03  0.17938124388E+04 -0.13731576695E+04  0.23022702232E+04  0.50400001928E-02 0. -1.
       -1    1    3    3    0  502 -0.44398550614E+03 -0.17938124388E+04 -0.46256499106E+03  0.19049547413E+04  0.50400001928E-02 0.  1.
</event>
<event>
 5   0  0.1391878E-06  0.3163502E+04  0.7818609E-02  0.8198523E-01
        1   -1    0    0  501    0  0.00000000000E+00  0.00000000000E+00  0.17834332332E+04  0.17834332332E+04  0.50400001928E-02 0. -1.
       -1   -1    0    0    0  501  0.00000000000E+00  0.00000000000E+00 -0.14028766312E+04  0.14028766312E+04  0.50400001928E-02 0.  1.
    10030    2    1    2    0    0  0.00000000000E+00  0.00000000000E+00  0.38055660201E+03  0.31863098644E+04  0.31635023668E+04 0.  0.
        2    1    3    3  502    0  0.10664661218E+04 -0.24146319945E+03 -0.96088880730E+03  0.14556654030E+04  0.25500000920E-02 0.  1.
       -2    1    3    3    0  502 -0.10664661218E+04  0.24146319945E+03  0.13414454093E+04  0.17306444614E+04  0.25500000920E-02 0. -1.
</event>
<event>
 5   0  0.1339825E-06  0.3241554E+04  0.7818609E-02  0.8177928E-01
        1   -1    0    0  501    0  0.00000000000E+00  0.00000000000E+00  0.15390851798E+04  0.15390851798E+04  0.50400001928E-02 0. -1.
       -1   -1    0    0    0  501  0.00000000000E+00  0.00000000000E+00 -0.17068052519E+04  0.17068052519E+04  0.50400001928E-02 0.  1.
    10030    2    1    2    0    0  0.00000000000E+00  0.00000000000E+00 -0.16772007211E+03  0.32458904318E+04  0.32415543606E+04 0.  0.
        3    1    3    3  502    0  0.14839501034E+04 -0.62355813737E+03 -0.27381354531E+03  0.16327604013E+04  0.10100000352E+00 0. -1.
       -3    1    3    3    0  502 -0.14839501034E+04  0.62355813737E+03  0.10609347321E+03  0.16131300305E+04  0.10100000352E+00 0.  1.
</event>
<event>
 5   0  0.3920487E-06  0.3309565E+04  0.7818609E-02  0.8160466E-01
       -2   -1    0    0    0  501  0.00000000000E+00  0.00000000000E+00  0.22478764078E+04  0.22478764078E+04  0.25500000920E-02 0.  1.
        2   -1    0    0  501    0  0.00000000000E+00  0.00000000000E+00 -0.12181745691E+04  0.12181745691E+04  0.25500000920E-02 0. -1.
    10030    2    1    2    0    0  0.00000000000E+00  0.00000000000E+00  0.10297018387E+04  0.34660509769E+04  0.33095654545E+04 0.  0.
        4    1    3    3  502    0 -0.59241756061E+03  0.65130700245E+03  0.19822226479E+04  0.21689554205E+04  0.12699999809E+01 0.  1.
       -4    1    3    3    0  502  0.59241756061E+03 -0.65130700245E+03 -0.95252080913E+03  0.12970955563E+04  0.12699999809E+01 0. -1.
</event>
<event>
 5   0  0.3920487E-06  0.3395915E+04  0.7818609E-02  0.8138910E-01
        2   -1    0    0  501    0  0.00000000000E+00  0.00000000000E+00  0.21951466662E+04  0.21951466662E+04  0.25500000920E-02 0. -1.
       -2   -1    0    0    0  501  0.00000000000E+00  0.00000000000E+00 -0.13133789829E+04  0.13133789829E+04  0.25500000920E-02 0.  1.
    10030    2    1    2    0    0  0.00000000000E+00  0.00000000000E+00  0.88176768329E+03  0.35085256491E+04  0.33959148963E+04 0.  0.
        4    1    3    3  502    0  0.67362330291E+03  0.96242954377E+03  0.17075147425E+04  0.20725943138E+04  0.12699999809E+01 0. -1.
       -4    1    3    3    0  502 -0.67362330291E+03 -0.96242954377E+03 -0.82574705922E+03  0.14359313353E+04  0.12699999809E+01 0.  1.
</event>
<event>
 5   0  0.3920487E-06  0.3287932E+04  0.7818609E-02  0.8165973E-01
        2   -1    0    0  501    0  0.00000000000E+00  0.00000000000E+00  0.23702808787E+04  0.23702808787E+04  0.25500000920E-02 0.  1.
       -2   -1    0    0    0  501  0.00000000000E+00  0.00000000000E+00 -0.11402126894E+04  0.11402126894E+04  0.25500000920E-02 0. -1.
    10030    2    1    2    0    0  0.00000000000E+00  0.00000000000E+00  0.12300681892E+04  0.35104935681E+04  0.32879320768E+04 0.  0.
        4    1    3    3  502    0  0.15588760472E+04 -0.10329380666E+03  0.11613939105E+04  0.19466899006E+04  0.12699999809E+01 0.  1.
       -4    1    3    3    0  502 -0.15588760472E+04  0.10329380666E+03  0.68674278775E+02  0.15638036675E+04  0.12699999809E+01 0. -1.
</event>
<event>
 5   0  0.3896210E-06  0.3297843E+04  0.7818609E-02  0.8163444E-01
       -2   -1    0    0    0  501  0.00000000000E+00  0.00000000000E+00  0.20717297731E+04  0.20717297731E+04  0.25500000920E-02 0.  1.
        2   -1    0    0  501    0  0.00000000000E+00  0.00000000000E+00 -0.13124023022E+04  0.13124023022E+04  0.25500000920E-02 0. -1.
    10030    2    1    2    0    0  0.00000000000E+00  0.00000000000E+00  0.75932747098E+03  0.33841320753E+04  0.32978434916E+04 0.  0.
        3    1    3    3  502    0  0.45527984882E+02  0.65802837994E+02  0.20697362811E+04  0.20712824758E+04  0.10100000352E+00 0.  1.
       -3    1    3    3    0  502 -0.45527984882E+02 -0.65802837994E+02 -0.13104088102E+04  0.13128495995E+04  0.10100000352E+00 0. -1.
</event>
<event>
 5   0  0.1405389E-06  0.2658441E+04  0.7818609E-02  0.8348617E-01
        1   -1    0    0  501    0  0.00000000000E+00  0.00000000000E+00  0.17106157918E+04  0.17106157918E+04  0.50400001928E-02 0.  1.
       -1   -1    0    0    0  501  0.00000000000E+00  0.00000000000E+00 -0.10328599723E+04  0.10328599723E+04  0.50400001928E-02 0. -1.
    10030    2    1    2    0    0  0.00000000000E+00  0.00000000000E+00  0.67775581954E+03  0.27434757641E+04  0.26584405800E+04 0.  0.
        1    1    3    3  502    0 -0.43016082282E+03 -0.31624578158E+03  0.15950975333E+04  0.16820778426E+04  0.50400001928E-02 0.  1.
       -1    1    3    3    0  502  0.43016082282E+03  0.31624578158E+03 -0.91734171377E+03  0.10613979215E+04  0.50400001928E-02 0. -1.
</event>
<event>
 5   0  0.3671997E-06  0.3286580E+04  0.7818609E-02  0.8166318E-01
       -2   -1    0    0    0  501  0.00000000000E+00  0.00000000000E+00  0.11821802771E+04  0.11821802771E+04  0.25500000920E-02 0. -1.
        2   -1    0    0  501    0  0.00000000000E+00  0.00000000000E+00 -0.22842559894E+04  0.22842559894E+04  0.25500000920E-02 0.  1.
    10030    2    1    2    0    0  0.00000000000E+00  0.00000000000E+00 -0.11020757123E+04  0.34664362664E+04  0.32865802156E+04 0.  0.
        2    1    3    3  502    0 -0.51091861910E+03  0.81223539682E+03  0.85599695769E+03  0.12858829522E+04  0.25500000920E-02 0. -1.
       -2    1    3    3    0  502  0.51091861910E+03 -0.81223539682E+03 -0.19580726700E+04  0.21805533142E+04  0.25500000920E-02 0.  1.
</event>
<event>
 5   0  0.4017247E-06  0.3292893E+04  0.7818609E-02  0.8164706E-01
       -2   -1    0    0    0  501  0.00000000000E+00  0.00000000000E+00  0.14419414874E+04  0.14419414874E+04  0.25500000920E-02 0.  1.
        2   -1    0    0  501    0  0.00000000000E+00  0.00000000000E+00 -0.18799552154E+04  0.18799552154E+04  0.25500000920E-02 0. -1.
    10030    2    1    2    0    0  0.00000000000E+00  0.00000000000E+00 -0.43801372795E+03  0.33218967028E+04  0.32928926005E+04 0.  0.
        1    1    3    3  502    0 -0.57499635149E+03 -0.77934234194E+03  0.11241824248E+04  0.14838400906E+04  0.50400001928E-02 0.  1.
       -1    1    3    3    0  502  0.57499635149E+03  0.77934234194E+03 -0.15621961527E+04  0.18380566122E+04  0.50400001928E-02 0. -1.
</event>
<event>
 5   0  0.1391878E-06  0.2041228E+04  0.7818609E-02  0.8587584E-01
        1   -1    0    0  501    0  0.00000000000E+00  0.00000000000E+00  0.92096470312E+03  0.92096470313E+03  0.50400001928E-02 0. -1.
       -1   -1    0    0    0  501  0.00000000000E+00  0.00000000000E+00 -0.11310453317E+04  0.11310453317E+04  0.50400001928E-02 0.  1.
    10030    2    1    2    0    0  0.00000000000E+00  0.00000000000E+00 -0.21008062853E+03  0.20520100348E+04  0.20412278933E+04 0.  0.
        2    1    3    3  502    0  0.76940729790E+03  0.40971926399E+03 -0.63868833985E+03  0.10806388207E+04  0.25500000920E-02 0. -1.
       -2    1    3    3    0  502 -0.76940729790E+03 -0.40971926399E+03  0.42860771132E+03  0.97137121409E+03  0.25500000920E-02 0.  1.
</event>
<event>
 5   0  0.1391878E-06  0.2296152E+04  0.7818609E-02  0.8479440E-01
        1   -1    0    0  501    0  0.00000000000E+00  0.00000000000E+00  0.10353322759E+04  0.10353322759E+04  0.50400001928E-02 0. -1.
       -1   -1    0    0    0  501  0.00000000000E+00  0.00000000000E+00 -0.12730972011E+04  0.12730972011E+04  0.50400001928E-02 0.  1.
    10030    2    1    2    0    0  0.00000000000E+00  0.00000000000E+00 -0.23776492527E+03  0.23084294770E+04  0.22961521053E+04 0.  0.
        2    1    3    3  502    0 -0.46596209432E+03 -0.51877883450E+03 -0.10358043202E+04  0.12486563747E+04  0.25500000920E-02 0.  1.
       -2    1    3    3    0  502  0.46596209432E+03  0.51877883450E+03  0.79803939491E+03  0.10597731023E+04  0.25500000920E-02 0. -1.
</event>
<event>
 5   0  0.3920487E-06  0.2525235E+04  0.7818609E-02  0.8394050E-01
        2   -1    0    0  501    0  0.00000000000E+00  0.00000000000E+00  0.17772189321E+04  0.17772189321E+04  0.25500000920E-02 0.  1.
       -2   -1    0    0    0  501  0.00000000000E+00  0.00000000000E+00 -0.89702130922E+03  0.89702130922E+03  0.25500000920E-02 0. -1.
    10030    2    1    2    0    0  0.00000000000E+00  0.00000000000E+00  0.88019762290E+03  0.26742402413E+04  0.25252352391E+04 0.  0.
        4    1    3    3  502    0  0.41759082682E+02  0.80825978919E+03  0.14663923472E+04  0.16749136803E+04  0.12699999809E+01 0.  1.
       -4    1    3    3    0  502 -0.41759082682E+02 -0.80825978919E+03 -0.58619472430E+03  0.99932656099E+03  0.12699999809E+01 0. -1.
</event>
<event>
 5   0  0.3920487E-06  0.3270328E+04  0.7818609E-02  0.8170487E-01
        2   -1    0    0  501    0  0.00000000000E+00  0.00000000000E+00  0.12302737655E+04  0.12302737655E+04  0.25500000920E-02 0. -1.
       -2   -1    0    0    0  501  0.00000000000E+00  0.00000000000E+00 -0.21733065692E+04  0.21733065692E+04  0.25500000920E-02 0.  1.
    10030    2    1    2    0    0  0.00000000000E+00  0.00000000000E+00 -0.94303280368E+03  0.34035803347E+04  0.32703284584E+04 0.  0.
        4    1    3    3  502    0 -0.13644155884E+04 -0.41179014607E+03  0.36274332688E+03  0.14706411379E+04  0.12699999809E+01 0. -1.
       -4    1    3    3    0  502  0.13644155884E+04  0.41179014607E+03 -0.13057761306E+04  0.19329391968E+04  0.12699999809E+01 0.  1.
</event>
<event>
 5   0  0.3920487E-06  0.3315037E+04  0.7818609E-02  0.8159080E-01
       -2   -1    0    0    0  501  0.00000000000E+00  0.00000000000E+00  0.18044061121E+04  0.18044061122E+04  0.25500000920E-02 0. -1.
        2   -1    0    0  501    0  0.00000000000E+00  0.00000000000E+00 -0.15225883562E+04  0.15225883562E+04  0.25500000920E-02 0.  1.
    10030    2    1    2    0    0  0.00000000000E+00  0.00000000000E+00  0.28181775596E+03  0.33269944683E+04  0.33150370955E+04 0.  0.
        4    1    3    3  502    0 -0.64880180166E+03 -0.14569927591E+04  0.59375082463E+03  0.17018558496E+04  0.12699999809E+01 0. -1.
       -4    1    3    3    0  502  0.64880180166E+03  0.14569927591E+04 -0.31193306866E+03  0.16251386188E+04  0.12699999809E+01 0.  1.
</event>
<event>
 5   0  0.1339825E-06  0.2839686E+04  0.7818609E-02  0.8291052E-01
        1   -1    0    0  501    0  0.00000000000E+00  0.00000000000E+00  0.10533752052E+04  0.10533752052E+04  0.50400001928E-02 0. -1.
       -1   -1    0    0    0  501  0.00000000000E+00  0.00000000000E+00 -0.19138045081E+04  0.19138045081E+04  0.50400001928E-02 0.  1.
    10030    2    1    2    0    0  0.00000000000E+00  0.00000000000E+00 -0.86042930295E+03  0.29671797133E+04  0.28396860505E+04 0.  0.
        3    1    3    3  502    0  0.11454656241E+04  0.60243263431E+03 -0.10403286544E+04  0.16605120579E+04  0.10100000352E+00 0.  1.
       -3    1    3    3    0  502 -0.11454656241E+04 -0.60243263431E+03  0.17989935149E+03  0.13066676554E+04  0.10100000352E+00 0. -1.
</event>
<event>
 5   0  0.1352708E-06  0.3293801E+04  0.7818609E-02  0.8164474E-01
        1   -1    0    0  501    0  0.00000000000E+00  0.00000000000E+00  0.20411473916E+04  0.20411473916E+04  0.50400001928E-02 0.  1.
       -1   -1    0    0    0  501  0.00000000000E+00  0.00000000000E+00 -0.13288026546E+04  0.13288026546E+04  0.50400001928E-02 0. -1.
    10030    2    1    2    0    0  0.00000000000E+00  0.00000000000E+00  0.71234473702E+03  0.33699500462E+04  0.32938014952E+04 0.  0.
        5    1    3    3  502    0 -0.43535075634E+03  0.75746164542E+03 -0.10721620636E+04  0.13830517004E+04  0.46999998093E+01 0. -1.
       -5    1    3    3    0  502  0.43535075634E+03 -0.75746164542E+03  0.17845068006E+04  0.19868983458E+04  0.46999998093E+01 0.  1.
</event>
<event>
 5   0  0.3671997E-06  0.3073356E+04  0.7818609E-02  0.8223088E-01
       -2   -1    0    0    0  501  0.00000000000E+00  0.00000000000E+00  0.96526705255E+03  0.96526705256E+03  0.25500000920E-02 0. -1.
        2   -1    0    0  501    0  0.00000000000E+00  0.00000000000E+00 -0.24463481067E+04  0.24463481067E+04  0.25500000920E-02 0.  1.
    10030    2    1    2    0    0  0.00000000000E+00  0.00000000000E+00 -0.14810810541E+04  0.34116151592E+04  0.30733559680E+04 0.  0.
        2    1    3    3  502    0 -0.85437310799E+03 -0.59616459682E+03  0.51339388484E+03  0.11614382959E+04  0.25500000920E-02 0. -1.
       -2    1    3    3    0  502  0.85437310799E+03  0.59616459682E+03 -0.19944749389E+04  0.22501768633E+04  0.25500000920E-02 0.  1.
</event>
<event>
 5   0  0.1391878E-06  0.3281004E+04  0.7818609E-02  0.8167746E-01
       -1   -1    0    0    0  501  0.00000000000E+00  0.00000000000E+00  0.12183979810E+04  0.12183979810E+04  0.50400001928E-02 0.  1.
        1   -1    0    0  501    0  0.00000000000E+00  0.00000000000E+00 -0.22088402924E+04  0.22088402924E+04  0.50400001928E-02 0. -1.
    10030    2    1    2    0    0  0.00000000000E+00  0.00000000000E+00 -0.99044231135E+03  0.34272382734E+04  0.32810038419E+04 0.  0.
        2    1    3    3  502    0  0.57767173812E+03  0.23293583988E+03  0.10900778725E+04  0.12554813860E+04  0.25500000920E-02 0.  1.
       -2    1    3    3    0  502 -0.57767173812E+03 -0.23293583988E+03 -0.20805201838E+04  0.21717568874E+04  0.25500000920E-02 0. -1.
</event>
<event>
 5   0  0.1391878E-06  0.3307077E+04  0.7818609E-02  0.8161097E-01
        1   -1    0    0  501    0  0.00000000000E+00  0.00000000000E+00  0.29384289077E+04  0.29384289078E+04  0.50400001928E-02 0.  1.
       -1   -1    0    0    0  501  0.00000000000E+00  0.00000000000E+00 -0.93049384752E+03  0.93049384753E+03  0.50400001928E-02 0. -1.
    10030    2    1    2    0    0  0.00000000000E+00  0.00000000000E+00  0.20079350602E+04  0.38689227553E+04  0.33070772716E+04 0.  0.
        2    1    3    3  502    0 -0.66928661911E+03  0.35654808063E+02 -0.76445632424E+03  0.10166657836E+04  0.25500000920E-02 0. -1.
       -2    1    3    3    0  502  0.66928661911E+03 -0.35654808063E+02  0.27723913845E+04  0.28522569717E+04  0.25500000920E-02 0.  1.
</event>
<event>
 5   0  0.1405389E-06  0.3257732E+04  0.7818609E-02  0.8173735E-01
       -1   -1    0    0    0  501  0.00000000000E+00  0.00000000000E+00  0.12683337388E+04  0.12683337388E+04  0.50400001928E-02 0. -1.
        1   -1    0    0  501    0  0.00000000000E+00  0.00000000000E+00 -0.20918818701E+04  0.20918818701E+04  0.50400001928E-02 0.  1.
    10030    2    1    2    0    0  0.00000000000E+00  0.00000000000E+00 -0.82354813137E+03  0.33602156089E+04  0.32577319432E+04 0.  0.
        1    1    3    3  502    0 -0.27667064077E+03  0.51080287391E+03 -0.19814012885E+04  0.20648044182E+04  0.50400001928E-02 0.  1.
       -1    1    3    3    0  502  0.27667064077E+03 -0.51080287391E+03  0.11578531571E+04  0.12954111907E+04  0.50400001928E-02 0. -1.
</event>
<event>
 5   0  0.3671997E-06  0.3358163E+04  0.7818609E-02  0.8148252E-01
        2   -1    0    0  501    0  0.00000000000E+00  0.00000000000E+00  0.24499670209E+04  0.24499670209E+04  0.25500000920E-02 0. -1.
       -2   -1    0    0    0  501  0.00000000000E+00  0.00000000000E+00 -0.11507558521E+04  0.11507558521E+04  0.25500000920E-02 0.  1.
    10030    2    1    2    0    0  0.00000000000E+00  0.00000000000E+00  0.12992111688E+04  0.36007228730E+04  0.33581625254E+04 0.  0.
        2    1    3    3  502    0  0.10454664369E+03  0.12966894645E+04 -0.48866667654E+03  0.13896505635E+04  0.25500000920E-02 0.  1.
       -2    1    3    3    0  502 -0.10454664369E+03 -0.12966894645E+04  0.17878778454E+04  0.22110723095E+04  0.25500000920E-02 0. -1.
</event>
<event>
 5   0  0.3920487E-06  0.2859365E+04  0.7818609E-02  0.8285071E-01
        2   -1    0    0  501    0  0.00000000000E+00  0.00000000000E+00  0.18183111524E+04  0.18183111524E+04  0.25500000920E-02 0. -1.
       -2   -1    0    0    0  501  0.00000000000E+00  0.00000000000E+00 -0.11241156793E+04  0.11241156793E+04  0.25500000920E-02 0.  1.
    10030    2    1    2    0    0  0.00000000000E+00  0.00000000000E+00  0.69419547310E+03  0.29424268317E+04  0.28593650178E+04 0.  0.
        4    1    3    3  502    0  0.12087269220E+04 -0.37758453409E+03 -0.33580607382E+03  0.13100985400E+04  0.12699999809E+01 0.  1.
       -4    1    3    3    0  502 -0.12087269220E+04  0.37758453409E+03  0.10300015469E+04  0.16323282917E+04  0.12699999809E+01 0. -1.
</event>
<event>
 5   0  0.1405389E-06  0.3406434E+04  0.7818609E-02  0.8136329E-01
       -1   -1    0    0    0  501  0.00000000000E+00  0.00000000000E+00  0.17925420621E+04  0.17925420621E+04  0.50400001928E-02 0.  1.
        1   -1    0    0  501    0  0.00000000000E+00  0.00000000000E+00 -0.16183433115E+04  0.16183433115E+04  0.50400001928E-02 0. -1.
    10030    2    1    2    0    0  0.00000000000E+00  0.00000000000E+00  0.17419875064E+03  0.34108853736E+04  0.34064341806E+04 0.  0.
        1    1    3    3  502    0 -0.13527884729E+04  0.13343796419E+03 -0.94045116015E+03  0.16529642245E+04  0.50400001928E-02 0. -1.
       -1    1    3    3    0  502  0.13527884729E+04 -0.13343796419E+03  0.11146499108E+04  0.17579211491E+04  0.50400001928E-02 0.  1.
</event>
<event>
 5   0  0.4017247E-06  0.3225959E+04  0.7818609E-02  0.8181995E-01
       -2   -1    0    0    0  501  0.00000000000E+00  0.00000000000E+00  0.12817727686E+04  0.12817727686E+04  0.25500000920E-02 0. -1.
        2   -1    0    0  501    0  0.00000000000E+00  0.00000000000E+00 -0.20297693102E+04  0.20297693102E+04  0.25500000920E-02 0.  1.
    10030    2    1    2    0    0  0.00000000000E+00  0.00000000000E+00 -0.74799654158E+03  0.33115420788E+04  0.32259590998E+04 0.  0.
        1    1    3    3  502    0 -0.82360103535E+03  0.83850643440E+03 -0.15079724938E+04  0.19119081432E+04  0.50400001928E-02 0.  1.
       -1    1    3    3    0  502  0.82360103535E+03 -0.83850643440E+03  0.75997595218E+03  0.13996339357E+04  0.50400001928E-02 0. -1.
</event>
<event>
 5   0  0.1391878E-06  0.3086087E+04  0.7818609E-02  0.8219566E-01
       -1   -1    0    0    0  501  0.00000000000E+00  0.00000000000E+00  0.18313723857E+04  0.18313723857E+04  0.50400001928E-02 0.  1.
        1   -1    0    0  501    0  0.00000000000E+00  0.00000000000E+00 -0.13001091181E+04  0.13001091181E+04  0.50400001928E-02 0. -1.
    10030    2    1    2    0    0  0.00000000000E+00  0.00000000000E+00  0.53126326757E+03  0.31314815038E+04  0.30860874500E+04 0.  0.
        2    1    3    3  502    0  0.11954736725E+04  0.92040092265E+03 -0.62684092604E+02  0.15100412099E+04  0.25500000920E-02 0. -1.
       -2    1    3    3    0  502 -0.11954736725E+04 -0.92040092265E+03  0.59394736017E+03  0.16214402939E+04  0.25500000920E-02 0.  1.
</event>
<event>
 5   0  0.1405389E-06  0.3293843E+04  0.7818609E-02  0.8164464E-01
        1   -1    0    0  501    0  0.00000000000E+00  0.00000000000E+00  0.17578294032E+04  0.17578294032E+04  0.50400001928E-02 0. -1.
       -1   -1    0    0    0  501  0.00000000000E+00  0.00000000000E+00 -0.15430112948E+04  0.15430112948E+04  0.50400001928E-02 0.  1.
    10030    2    1    2    0    0  0.00000000000E+00  0.00000000000E+00  0.21481810840E+03  0.33008406980E+04  0.32938431192E+04 0.  0.
        1    1    3    3  502    0 -0.53969557849E+03 -0.15031633158E+04 -0.29541424865E+03  0.16242046822E+04  0.50400001928E-02 0.  1.
       -1    1    3    3    0  502  0.53969557849E+03  0.15031633158E+04  0.51023235705E+03  0.16766360158E+04  0.50400001928E-02 0. -1.
</event>
<event>
 5   0  0.1339825E-06  0.2441143E+04  0.7818609E-02  0.8424259E-01
        1   -1    0    0  501    0  0.00000000000E+00  0.00000000000E+00  0.12079522645E+04  0.12079522645E+04  0.50400001928E-02 0.  1.
       -1   -1    0    0    0  501  0.00000000000E+00  0.00000000000E+00 -0.12333226994E+04  0.12333226994E+04  0.50400001928E-02 0. -1.
    10030    2    1    2    0    0  0.00000000000E+00  0.00000000000E+00 -0.25370434887E+02  0.24412749639E+04  0.24411431319E+04 0.  0.
        3    1    3    3  502    0 -0.72877960952E+03  0.97444733433E+03 -0.10822890696E+03  0.12216303996E+04  0.10100000352E+00 0.  1.
       -3    1    3    3    0  502  0.72877960952E+03 -0.97444733433E+03  0.82858472068E+02  0.12196445643E+04  0.10100000352E+00 0. -1.
</event>
<event>
 5   0  0.1405389E-06  0.2704955E+04  0.7818609E-02  0.8333399E-01
        1   -1    0    0  501    0  0.00000000000E+00  0.00000000000E+00  0.11355579079E+04  0.11355579079E+04  0.50400001928E-02 0.  1.
       -1   -1    0    0    0  501  0.00000000000E+00  0.00000000000E+00 -0.16108343414E+04  0.16108343414E+04  0.50400001928E-02 0. -1.
    10030    2    1    2    0    0  0.00000000000E+00  0.00000000000E+00 -0.47527643349E+03  0.27463922493E+04  0.27049552119E+04 0.  0.
        1    1    3    3  502    0 -0.53429846934E+03  0.89859420645E+03 -0.11088323167E+04  0.15239604682E+04  0.50400001928E-02 0. -1.
       -1    1    3    3    0  502  0.53429846934E+03 -0.89859420645E+03  0.63355588316E+03  0.12224317811E+04  0.50400001928E-02 0.  1.
</event>
<event>
 5   0  0.1405389E-06  0.3307650E+04  0.7818609E-02  0.8160951E-01
        1   -1    0    0  501    0  0.00000000000E+00  0.00000000000E+00  0.23326976193E+04  0.23326976193E+04  0.50400001928E-02 0. -1.
       -1   -1    0    0    0  501  0.00000000000E+00  0.00000000000E+00 -0.11725213022E+04  0.11725213022E+04  0.50400001928E-02 0.  1.
    10030    2    1    2    0    0  0.00000000000E+00  0.00000000000E+00  0.11601763171E+04  0.35052189215E+04  0.33076503142E+04 0.  0.
        1    1    3    3  502    0 -0.11659636647E+04 -0.11033386139E+04  0.10017362358E+04  0.18921688219E+04  0.50400001928E-02 0. -1.
       -1    1    3    3    0  502  0.11659636647E+04  0.11033386139E+04  0.15844008130E+03  0.16130500996E+04  0.50400001928E-02 0.  1.
</event>
<event>
 5   0  0.1391878E-06  0.3355052E+04  0.7818609E-02  0.8149027E-01
        1   -1    0    0  501    0  0.00000000000E+00  0.00000000000E+00  0.18439536030E+04  0.18439536030E+04  0.50400001928E-02 0.  1.
       -1   -1    0    0    0  501  0.00000000000E+00  0.00000000000E+00 -0.15261195416E+04  0.15261195416E+04  0.50400001928E-02 0. -1.
    10030    2    1    2    0    0  0.00000000000E+00  0.00000000000E+00  0.31783406141E+03  0.33700731447E+04  0.33550520875E+04 0.  0.
        2    1    3    3  502    0  0.38042402790E+02 -0.13183240595E+04 -0.88238624408E+03  0.15868304994E+04  0.25500000920E-02 0. -1.
       -2    1    3    3    0  502 -0.38042402790E+02  0.13183240595E+04  0.12002203055E+04  0.17832426453E+04  0.25500000920E-02 0.  1.
</event>
<event>
 5   0  0.1405389E-06  0.3130161E+04  0.7818609E-02  0.8207509E-01
        1   -1    0    0  501    0  0.00000000000E+00  0.00000000000E+00  0.17393508483E+04  0.17393508483E+04  0.50400001928E-02 0.  1.
       -1   -1    0    0    0  501  0.00000000000E+00  0.00000000000E+00 -0.14082708233E+04  0.14082708233E+04  0.50400001928E-02 0. -1.
    10030    2    1    2    0    0  0.00000000000E+00  0.00000000000E+00  0.33108002505E+03  0.31476216716E+04  0.31301610509E+04 0.  0.
        1    1    3    3  502    0 -0.79054975559E+03  0.12772751317E+04 -0.27631563419E+03  0.15273346090E+04  0.50400001928E-02 0.  1.
       -1    1    3    3    0  502  0.79054975559E+03 -0.12772751317E+04  0.60739565924E+03  0.16202870626E+04  0.50400001928E-02 0. -1.
</event>
<event>
 5   0  0.3671997E-06  0.3319995E+04  0.7818609E-02  0.8157826E-01
       -2   -1    0    0    0  501  0.00000000000E+00  0.00000000000E+00  0.18552460477E+04  0.18552460477E+04  0.25500000920E-02 0. -1.
        2   -1    0    0  501    0  0.00000000000E+00  0.00000000000E+00 -0.14852971320E+04  0.14852971320E+04  0.25500000920E-02 0.  1.
    10030    2    1    2    0    0  0.00000000000E+00  0.00000000000E+00  0.36994891570E+03  0.33405431798E+04  0.33199949602E+04 0.  0.
        2    1    3    3  502    0 -0.11828592485E+04  0.14417115752E+03 -0.97788184172E+03  0.15414909084E+04  0.25500000920E-02 0.  1.
       -2    1    3    3    0  502  0.11828592485E+04 -0.14417115752E+03  0.13478307574E+04  0.17990522713E+04  0.25500000920E-02 0. -1.
</event>
<event>
 5   0  0.1391878E-06  0.3406382E+04  0.7818609E-02  0.8136342E-01
       -1   -1    0    0    0  501  0.00000000000E+00  0.00000000000E+00  0.17238301026E+04  0.17238301026E+04  0.50400001928E-02 0.  1.
        1   -1    0    0  501    0  0.00000000000E+00  0.00000000000E+00 -0.16827992162E+04  0.16827992162E+04  0.50400001928E-02 0. -1.
    10030    2    1    2    0    0  0.00000000000E+00  0.00000000000E+00  0.41030886374E+02  0.34066293188E+04  0.34063822131E+04 0.  0.
        2    1    3    3  502    0  0.16708938822E+04  0.14193159926E+03  0.31857900901E+03  0.17069046632E+04  0.25500000920E-02 0.  1.
       -2    1    3    3    0  502 -0.16708938822E+04 -0.14193159926E+03 -0.27754812264E+03  0.16997246556E+04  0.25500000920E-02 0. -1.
</event>
<event>
 5   0  0.1352708E-06  0.2186873E+04  0.7818609E-02  0.8523912E-01
        1   -1    0    0  501    0  0.00000000000E+00  0.00000000000E+00  0.12486175425E+04  0.12486175425E+04  0.50400001928E-02 0.  1.
       -1   -1    0    0    0  501  0.00000000000E+00  0.00000000000E+00 -0.95754132756E+03  0.95754132758E+03  0.50400001928E-02 0. -1.
    10030    2    1    2    0    0  0.00000000000E+00  0.00000000000E+00  0.29107621492E+03  0.22061588701E+04  0.21868725608E+04 0.  0.
        5    1    3    3  502    0 -0.10866416099E+04 -0.50525438731E+02  0.25713922669E+03  0.11178038648E+04  0.46999998093E+01 0.  1.
       -5    1    3    3    0  502  0.10866416099E+04  0.50525438731E+02  0.33936988222E+02  0.10883550053E+04  0.46999998093E+01 0. -1.
</event>
<event>
 5   0  0.4017247E-06  0.3294058E+04  0.7818609E-02  0.8164409E-01
        2   -1    0    0  501    0  0.00000000000E+00  0.00000000000E+00  0.18933916836E+04  0.18933916836E+04  0.25500000920E-02 0. -1.
       -2   -1    0    0    0  501  0.00000000000E+00  0.00000000000E+00 -0.14327223412E+04  0.14327223412E+04  0.25500000920E-02 0.  1.
    10030    2    1    2    0    0  0.00000000000E+00  0.00000000000E+00  0.46066934239E+03  0.33261140248E+04  0.32940580236E+04 0.  0.
        1    1    3    3  502    0  0.93464098514E+03 -0.80629798104E+03 -0.87070531418E+03  0.15105621303E+04  0.50400001928E-02 0.  1.
       -1    1    3    3    0  502 -0.93464098514E+03  0.80629798104E+03  0.13313746566E+04  0.18155518945E+04  0.50400001928E-02 0. -1.
</event>
<event>
 5   0  0.4017247E-06  0.3311141E+04  0.7818609E-02  0.8160066E-01
       -2   -1    0    0    0  501  0.00000000000E+00  0.00000000000E+00  0.17766466167E+04  0.17766466167E+04  0.25500000920E-02 0. -1.
        2   -1    0    0  501    0  0.00000000000E+00  0.00000000000E+00 -0.15427454642E+04  0.15427454642E+04  0.25500000920E-02 0.  1.
    10030    2    1    2    0    0  0.00000000000E+00  0.00000000000E+00  0.23390115251E+03  0.33193920809E+04  0.33111408967E+04 0.  0.
        1    1    3    3  502    0 -0.25001777580E+03 -0.30791037539E+03 -0.14944116511E+04  0.15461513091E+04  0.50400001928E-02 0.  1.
       -1    1    3    3    0  502  0.25001777580E+03  0.30791037539E+03  0.17283128036E+04  0.17732407718E+04  0.50400001928E-02 0. -1.
</event>
<event>
 5   0  0.3671997E-06  0.3324564E+04  0.7818609E-02  0.8156673E-01
       -2   -1    0    0    0  501  0.00000000000E+00  0.00000000000E+00  0.17808186306E+04  0.17808186306E+04  0.25500000920E-02 0.  1.
        2   -1    0    0  501    0  0.00000000000E+00  0.00000000000E+00 -0.15516358614E+04  0.15516358614E+04  0.25500000920E-02 0. -1.
    10030    2    1    2    0    0  0.00000000000E+00  0.00000000000E+00  0.22918276924E+03  0.33324544920E+04  0.33245643624E+04 0.  0.
        2    1    3    3  502    0 -0.11609791542E+04 -0.10390550839E+04 -0.46615742087E+03  0.16262874299E+04  0.25500000920E-02 0. -1.
       -2    1    3    3    0  502  0.11609791542E+04  0.10390550839E+04  0.69534019012E+03  0.17061670621E+04  0.25500000920E-02 0.  1.
</event>
<event>
 5   0  0.3812379E-06  0.3335378E+04  0.7818609E-02  0.8153951E-01
        2   -1    0    0  501    0  0.00000000000E+00  0.00000000000E+00  0.13716250265E+04  0.13716250265E+04  0.25500000920E-02 0. -1.
       -2   -1    0    0    0  501  0.00000000000E+00  0.00000000000E+00 -0.20276585728E+04  0.20276585728E+04  0.25500000920E-02 0.  1.
    10030    2    1    2    0    0  0.00000000000E+00  0.00000000000E+00 -0.65603354624E+03  0.33992835993E+04  0.33353783855E+04 0.  0.
        5    1    3    3  502    0  0.17023645432E+03 -0.15632145409E+03 -0.20112505456E+04  0.20244919596E+04  0.46999998093E+01 0.  1.
       -5    1    3    3    0  502 -0.17023645432E+03  0.15632145409E+03  0.13552169993E+04  0.13747916397E+04  0.46999998093E+01 0. -1.
</event>
<event>
 5   0  0.1282578E-06  0.3167450E+04  0.7818609E-02  0.8197467E-01
        1   -1    0    0  501    0  0.00000000000E+00  0.00000000000E+00  0.16563305131E+04  0.16563305132E+04  0.50400001928E-02 0. -1.
       -1   -1    0    0    0  501  0.00000000000E+00  0.00000000000E+00 -0.15143021741E+04  0.15143021741E+04  0.50400001928E-02 0.  1.
    10030    2    1    2    0    0  0.00000000000E+00  0.00000000000E+00  0.14202833909E+03  0.31706326872E+04  0.31674500135E+04 0.  0.
        4    1    3    3  502    0 -0.91437788506E+02 -0.11188501526E+04  0.11892744259E+04  0.16354087581E+04  0.12699999809E+01 0. -1.
       -4    1    3    3    0  502  0.91437788506E+02  0.11188501526E+04 -0.10472460868E+04  0.15352239291E+04  0.12699999809E+01 0.  1.
</event>
<event>
 5   0  0.4017247E-06  0.3283975E+04  0.7818609E-02  0.8166985E-01
       -2   -1    0    0    0  501  0.00000000000E+00  0.00000000000E+00  0.98806946828E+03  0.98806946829E+03  0.25500000920E-02 0. -1.
        2   -1    0    0  501    0  0.00000000000E+00  0.00000000000E+00 -0.27286776489E+04  0.27286776489E+04  0.25500000920E-02 0.  1.
    10030    2    1    2    0    0  0.00000000000E+00  0.00000000000E+00 -0.17406081806E+04  0.37167471171E+04  0.32839750752E+04 0.  0.
        1    1    3    3  502    0  0.74924294983E+03 -0.31437264440E+03 -0.24851993498E+04  0.26146531253E+04  0.50400001928E-02 0.  1.
       -1    1    3    3    0  502 -0.74924294983E+03  0.31437264440E+03  0.74459116926E+03  0.11020939918E+04  0.50400001928E-02 0. -1.
</event>
<event>
 5   0  0.1405389E-06  0.3775709E+04  0.7818609E-02  0.8051388E-01
        1   -1    0    0  501    0  0.00000000000E+00  0.00000000000E+00  0.18694863507E+04  0.18694863507E+04  0.50400001928E-02 0. -1.
       -1   -1    0    0    0  501  0.00000000000E+00  0.00000000000E+00 -0.19064034369E+04  0.19064034369E+04  0.50400001928E-02 0.  1.
    10030    2    1    2    0    0  0.00000000000E+00  0.00000000000E+00 -0.36917086222E+02  0.37758897875E+04  0.37757093130E+04 0.  0.
        1    1    3    3  502    0 -0.91623028843E+02 -0.16336320754E+04  0.92331183721E+03  0.18787371519E+04  0.50400001928E-02 0. -1.
       -1    1    3    3    0  502  0.91623028843E+02  0.16336320754E+04 -0.96022892343E+03  0.18971526356E+04  0.50400001928E-02 0.  1.
</event>
<event>
 5   0  0.1391878E-06  0.3317936E+04  0.7818609E-02  0.8158347E-01
       -1   -1    0    0    0  501  0.00000000000E+00  0.00000000000E+00  0.26148521693E+04  0.26148521693E+04  0.50400001928E-02 0.  1.
        1   -1    0    0  501    0  0.00000000000E+00  0.00000000000E+00 -0.10525164439E+04  0.10525164439E+04  0.50400001928E-02 0. -1.
    10030    2    1    2    0    0  0.00000000000E+00  0.00000000000E+00  0.15623357254E+04  0.36673686132E+04  0.33179360491E+04 0.  0.
        2    1    3    3  502    0 -0.73224872088E+03  0.40664125764E+03  0.23639828879E+04  0.25079793452E+04  0.25500000920E-02 0.  1.
       -2    1    3    3    0  502  0.73224872088E+03 -0.40664125764E+03 -0.80164716249E+03  0.11593892680E+04  0.25500000920E-02 0. -1.
</event>
<event>
 5   0  0.1405389E-06  0.3148877E+04  0.7818609E-02  0.8202451E-01
       -1   -1    0    0    0  501  0.00000000000E+00  0.00000000000E+00  0.99742412795E+03  0.99742412796E+03  0.50400001928E-02 0.  1.
        1   -1    0    0  501    0  0.00000000000E+00  0.00000000000E+00 -0.24852579858E+04  0.24852579858E+04  0.50400001928E-02 0. -1.
    10030    2    1    2    0    0  0.00000000000E+00  0.00000000000E+00 -0.14878338578E+04  0.34826821137E+04  0.31488768024E+04 0.  0.
        1    1    3    3  502    0 -0.46294852165E+03  0.26459208009E+03  0.89451547639E+03  0.10413876512E+04  0.50400001928E-02 0.  1.
       -1    1    3    3    0  502  0.46294852165E+03 -0.26459208009E+03 -0.23823493342E+04  0.24412944625E+04  0.50400001928E-02 0. -1.
</event>
<event>
 5   0  0.1352708E-06  0.3335804E+04  0.7818609E-02  0.8153844E-01
       -1   -1    0    0    0  501  0.00000000000E+00  0.00000000000E+00  0.21057363099E+04  0.21057363100E+04  0.50400001928E-02 0. -1.
        1   -1    0    0  501    0  0.00000000000E+00  0.00000000000E+00 -0.13211040617E+04  0.13211040617E+04  0.50400001928E-02 0.  1.
    10030    2    1    2    0    0  0.00000000000E+00  0.00000000000E+00  0.78463224826E+03  0.34268403717E+04  0.33358038263E+04 0.  0.
        5    1    3    3  502    0  0.92303502705E+03 -0.13844226045E+04  0.51058889169E+03  0.17405007082E+04  0.46999998093E+01 0.  1.
       -5    1    3    3    0  502 -0.92303502705E+03  0.13844226045E+04  0.27404335657E+03  0.16863396634E+04  0.46999998093E+01 0. -1.
</event>
<event>
 5   0  0.1391878E-06  0.3156250E+04  0.7818609E-02  0.8200468E-01
       -1   -1    0    0    0  501  0.00000000000E+00  0.00000000000E+00  0.12265524922E+04  0.12265524922E+04  0.50400001928E-02 0.  1.
        1   -1    0    0  501    0  0.00000000000E+00  0.00000000000E+00 -0.20304702105E+04  0.20304702105E+04  0.50400001928E-02 0. -1.
    10030    2    1    2    0    0  0.00000000000E+00  0.00000000000E+00 -0.80391771835E+03  0.32570227027E+04  0.31562498615E+04 0.  0.
        2    1    3    3  502    0 -0.31412096089E+03 -0.81863165187E+03 -0.17559681937E+04  0.19627159898E+04  0.25500000920E-02 0. -1.
       -2    1    3    3    0  502  0.31412096089E+03  0.81863165187E+03  0.95205047531E+03  0.12943067129E+04  0.25500000920E-02 0.  1.
</event>
<event>
 5   0  0.4017247E-06  0.3194469E+04  0.7818609E-02  0.8190279E-01
        2   -1    0    0  501    0  0.00000000000E+00  0.00000000000E+00  0.18250468689E+04  0.18250468689E+04  0.25500000920E-02 0.  1.
       -2   -1    0    0    0  501  0.00000000000E+00  0.00000000000E+00 -0.13978587224E+04  0.13978587224E+04  0.25500000920E-02 0. -1.
    10030    2    1    2    0    0  0.00000000000E+00  0.00000000000E+00  0.42718814647E+03  0.32229055914E+04  0.31944687725E+04 0.  0.
        1    1    3    3  502    0  0.12385204253E+04 -0.83871655245E+03 -0.35155255483E+03  0.15365440111E+04  0.50400001928E-02 0. -1.
       -1    1    3    3    0  502 -0.12385204253E+04  0.83871655245E+03  0.77874070130E+03  0.16863615802E+04  0.50400001928E-02 0.  1.
</event>
<event>
 5   0  0.3896210E-06  0.3307451E+04  0.7818609E-02  0.8161002E-01
       -2   -1    0    0    0  501  0.00000000000E+00  0.00000000000E+00  0.10142478228E+04  0.10142478228E+04  0.25500000920E-02 0.  1.
        2   -1    0    0  501    0  0.00000000000E+00  0.00000000000E+00 -0.26963909865E+04  0.26963909865E+04  0.25500000920E-02 0. -1.
    10030    2    1    2    0    0  0.00000000000E+00  0.00000000000E+00 -0.16821431637E+04  0.37106388092E+04  0.33074513979E+04 0.  0.
        3    1    3    3  502    0 -0.23780353948E+03 -0.16129919155E+02 -0.26770194023E+04  0.26876092700E+04  0.10100000352E+00 0. -1.
       -3    1    3    3    0  502  0.23780353948E+03  0.16129919155E+02  0.99487623865E+03  0.10230295392E+04  0.10100000352E+00 0.  1.
</event>
<event>
 5   0  0.1405389E-06  0.3229571E+04  0.7818609E-02  0.8181051E-01
        1   -1    0    0  501    0  0.00000000000E+00  0.00000000000E+00  0.19040849868E+04  0.19040849868E+04  0.50400001928E-02 0.  1.
       -1   -1    0    0    0  501  0.00000000000E+00  0.00000000000E+00 -0.13694408028E+04  0.13694408028E+04  0.50400001928E-02 0. -1.
    10030    2    1    2    0    0  0.00000000000E+00  0.00000000000E+00  0.53464418398E+03  0.32735257896E+04  0.32295706667E+04 0.  0.
        1    1    3    3  502    0 -0.11521457748E+04  0.46889724742E+03  0.13110094841E+04  0.18072217303E+04  0.50400001928E-02 0.  1.
       -1    1    3    3    0  502  0.11521457748E+04 -0.46889724742E+03 -0.77636530009E+03  0.14663040593E+04  0.50400001928E-02 0. -1.
</event>
<event>
 5   0  0.1391878E-06  0.3388790E+04  0.7818609E-02  0.8140663E-01
       -1   -1    0    0    0  501  0.00000000000E+00  0.00000000000E+00  0.11460742368E+04  0.11460742368E+04  0.50400001928E-02 0.  1.
        1   -1    0    0  501    0  0.00000000000E+00  0.00000000000E+00 -0.25050511930E+04  0.25050511930E+04  0.50400001928E-02 0. -1.
    10030    2    1    2    0    0  0.00000000000E+00  0.00000000000E+00 -0.13589769562E+04  0.36511254298E+04  0.33887901288E+04 0.  0.
        2    1    3    3  502    0  0.10889622137E+04 -0.96587956535E+03  0.25495358670E+03  0.14777561940E+04  0.25500000920E-02 0.  1.
       -2    1    3    3    0  502 -0.10889622137E+04  0.96587956535E+03 -0.16139305429E+04  0.21733692358E+04  0.25500000920E-02 0. -1.
</event>
<event>
 5   0  0.1405389E-06  0.3355108E+04  0.7818609E-02  0.8149013E-01
        1   -1    0    0  501    0  0.00000000000E+00  0.00000000000E+00  0.22972142659E+04  0.22972142659E+04  0.50400001928E-02 0. -1.
       -1   -1    0    0    0  501  0.00000000000E+00  0.00000000000E+00 -0.12250435620E+04  0.12250435620E+04  0.50400001928E-02 0.  1.
    10030    2    1    2    0    0  0.00000000000E+00  0.00000000000E+00  0.10721707038E+04  0.35222578279E+04  0.33551080740E+04 0.  0.
        1    1    3    3  502    0 -0.79539057975E+03  0.14764930086E+04  0.49529384338E+03  0.17487120318E+04  0.50400001928E-02 0.  1.
       -1    1    3    3    0  502  0.79539057975E+03 -0.14764930086E+04  0.57687686045E+03  0.17735457961E+04  0.50400001928E-02 0. -1.
</event>
<event>
 5   0  0.1282578E-06  0.3316696E+04  0.7818609E-02  0.8158660E-01
       -1   -1    0    0    0  501  0.00000000000E+00  0.00000000000E+00  0.20047512971E+04  0.20047512971E+04  0.50400001928E-02 0.  1.
        1   -1    0    0  501    0  0.00000000000E+00  0.00000000000E+00 -0.13718000637E+04  0.13718000638E+04  0.50400001928E-02 0. -1.
    10030    2    1    2    0    0  0.00000000000E+00  0.00000000000E+00  0.63295123337E+03  0.33765513609E+04  0.33166959205E+04 0.  0.
        4    1    3    3  502    0 -0.11529395610E+04  0.97074443778E+03  0.10206975696E+04  0.18202855645E+04  0.12699999809E+01 0.  1.
       -4    1    3    3    0  502  0.11529395610E+04 -0.97074443778E+03 -0.38774633623E+03  0.15562657964E+04  0.12699999809E+01 0. -1.
</event>
<event>
 5   0  0.1339825E-06  0.2710364E+04  0.7818609E-02  0.8331650E-01
       -1   -1    0    0    0  501  0.00000000000E+00  0.00000000000E+00  0.22575722501E+04  0.22575722501E+04  0.50400001928E-02 0.  1.
        1   -1    0    0  501    0  0.00000000000E+00  0.00000000000E+00 -0.81349284277E+03  0.81349284279E+03  0.50400001928E-02 0. -1.
    10030    2    1    2    0    0  0.00000000000E+00  0.00000000000E+00  0.14440794073E+04  0.30710650929E+04  0.27103644534E+04 0.  0.
        3    1    3    3  502    0 -0.86849714205E+03  0.89251937172E+03  0.13276195390E+04  0.18202889236E+04  0.10100000352E+00 0.  1.
       -3    1    3    3    0  502  0.86849714205E+03 -0.89251937172E+03  0.11645986830E+03  0.12507761693E+04  0.10100000352E+00 0. -1.
</event>
<event>
 5   0  0.4017247E-06  0.3310810E+04  0.7818609E-02  0.8160150E-01
       -2   -1    0    0    0  501  0.00000000000E+00  0.00000000000E+00  0.19503128240E+04  0.19503128240E+04  0.25500000920E-02 0. -1.
        2   -1    0    0  501    0  0.00000000000E+00  0.00000000000E+00 -0.14050901457E+04  0.14050901457E+04  0.25500000920E-02 0.  1.
    10030    2    1    2    0    0  0.00000000000E+00  0.00000000000E+00  0.54522267823E+03  0.33554029697E+04  0.33108097681E+04 0.  0.
        1    1    3    3  502    0  0.29639929751E+03 -0.29359007709E+03  0.18961613182E+04  0.19415136933E+04  0.50400001928E-02 0. -1.
       -1    1    3    3    0  502 -0.29639929751E+03  0.29359007709E+03 -0.13509386399E+04  0.14138892764E+04  0.50400001928E-02 0.  1.
</event>
<event>
 5   0  0.1352708E-06  0.3327129E+04  0.7818609E-02  0.8156026E-01
        1   -1    0    0  501    0  0.00000000000E+00  0.00000000000E+00  0.16169205236E+04  0.16169205236E+04  0.50400001928E-02 0. -1.
       -1   -1    0    0    0  501  0.00000000000E+00  0.00000000000E+00 -0.17115544295E+04  0.17115544295E+04  0.50400001928E-02 0.  1.
    10030    2    1    2    0    0  0.00000000000E+00  0.00000000000E+00 -0.94633905914E+02  0.33284749530E+04  0.33271293838E+04 0.  0.
        5    1    3    3  502    0  0.87196188391E+03  0.78107950168E+03  0.11351181976E+04  0.16306189400E+04  0.46999998093E+01 0. -1.
       -5    1    3    3    0  502 -0.87196188391E+03 -0.78107950168E+03 -0.12297521035E+04  0.16978560130E+04  0.46999998093E+01 0.  1.
</event>
<event>
 5   0  0.3671997E-06  0.3404633E+04  0.7818609E-02  0.8136770E-01
        2   -1    0    0  501    0  0.00000000000E+00  0.00000000000E+00  0.14780920359E+04  0.14780920359E+04  0.25500000920E-02 0. -1.
       -2   -1    0    0    0  501  0.00000000000E+00  0.00000000000E+00 -0.19605555708E+04  0.19605555709E+04  0.25500000920E-02 0.  1.
    10030    2    1    2    0    0  0.00000000000E+00  0.00000000000E+00 -0.48246353490E+03  0.34386476068E+04  0.34046330641E+04 0.  0.
        2    1    3    3  502    0  0.12309425477E+04  0.11314464850E+04  0.82108617851E+02  0.16739571468E+04  0.25500000920E-02 0.  1.
       -2    1    3    3    0  502 -0.12309425477E+04 -0.11314464850E+04 -0.56457215275E+03  0.17646904600E+04  0.25500000920E-02 0. -1.
</event>
<event>
 5   0  0.1282578E-06  0.3274661E+04  0.7818609E-02  0.8169373E-01
       -1   -1    0    0    0  501  0.00000000000E+00  0.00000000000E+00  0.24678154984E+04  0.24678154984E+04  0.50400001928E-02 0.  1.
        1   -1    0    0  501    0  0.00000000000E+00  0.00000000000E+00 -0.10863255713E+04  0.10863255713E+04  0.50400001928E-02 0. -1.
    10030    2    1    2    0    0  0.00000000000E+00  0.00000000000E+00  0.13814899271E+04  0.35541410697E+04  0.32746609480E+04 0.  0.
        4    1    3    3  502    0 -0.34491847704E+02  0.11023443432E+04  0.20041918765E+04  0.22876056105E+04  0.12699999809E+01 0.  1.
       -4    1    3    3    0  502  0.34491847704E+02 -0.11023443432E+04 -0.62270194943E+03  0.12665354591E+04  0.12699999809E+01 0. -1.
</event>
<event>
 5   0  0.3896210E-06  0.3320705E+04  0.7818609E-02  0.8157647E-01
       -2   -1    0    0    0  501  0.00000000000E+00  0.00000000000E+00  0.16625058002E+04  0.16625058002E+04  0.25500000920E-02 0. -1.
        2   -1    0    0  501    0  0.00000000000E+00  0.00000000000E+00 -0.16582023271E+04  0.16582023271E+04  0.25500000920E-02 0.  1.
    10030    2    1    2    0    0  0.00000000000E+00  0.00000000000E+00  0.43034731189E+01  0.33207081273E+04  0.33207053388E+04 0.  0.
        3    1    3    3  502    0  0.60519100270E+03 -0.12620718095E+04 -0.89098370346E+03  0.16591966044E+04  0.10100000352E+00 0.  1.
       -3    1    3    3    0  502 -0.60519100270E+03  0.12620718095E+04  0.89528717658E+03  0.16615115229E+04  0.10100000352E+00 0. -1.
</event>
<event>
 5   0  0.1405389E-06  0.3246337E+04  0.7818609E-02  0.8176686E-01
       -1   -1    0    0    0  501  0.00000000000E+00  0.00000000000E+00  0.12987294718E+04  0.12987294718E+04  0.50400001928E-02 0. -1.
        1   -1    0    0  501    0  0.00000000000E+00  0.00000000000E+00 -0.20286562691E+04  0.20286562691E+04  0.50400001928E-02 0.  1.
    10030    2    1    2    0    0  0.00000000000E+00  0.00000000000E+00 -0.72992679737E+03  0.33273857409E+04  0.32463368185E+04 0.  0.
        1    1    3    3  502    0 -0.13074736153E+04  0.26529292314E+03 -0.13126044960E+04  0.18715763817E+04  0.50400001928E-02 0.  1.
       -1    1    3    3    0  502  0.13074736153E+04 -0.26529292314E+03  0.58267769859E+03  0.14558093592E+04  0.50400001928E-02 0. -1.
</event>
<event>
 5   0  0.3896210E-06  0.3081274E+04  0.7818609E-02  0.8220896E-01
       -2   -1    0    0    0  501  0.00000000000E+00  0.00000000000E+00  0.11431048913E+04  0.11431048913E+04  0.25500000920E-02 0. -1.
        2   -1    0    0  501    0  0.00000000000E+00  0.00000000000E+00 -0.20764164413E+04  0.20764164413E+04  0.25500000920E-02 0.  1.
    10030    2    1    2    0    0  0.00000000000E+00  0.00000000000E+00 -0.93331154998E+03  0.32195213326E+04  0.30812736265E+04 0.  0.
        3    1    3    3  502    0  0.86734646052E+03 -0.12630678122E+04 -0.63491376353E+03  0.16585372103E+04  0.10100000352E+00 0.  1.
       -3    1    3    3    0  502 -0.86734646052E+03  0.12630678122E+04 -0.29839778645E+03  0.15609841222E+04  0.10100000352E+00 0. -1.
</event>
<event>
 5   0  0.1339825E-06  0.3309732E+04  0.7818609E-02  0.8160423E-01
        1   -1    0    0  501    0  0.00000000000E+00  0.00000000000E+00  0.16125923012E+04  0.16125923012E+04  0.50400001928E-02 0.  1.
       -1   -1    0    0    0  501  0.00000000000E+00  0.00000000000E+00 -0.16982479422E+04  0.16982479422E+04  0.50400001928E-02 0. -1.
    10030    2    1    2    0    0  0.00000000000E+00  0.00000000000E+00 -0.85655640986E+02  0.33108402434E+04  0.33097320478E+04 0.  0.
        3    1    3    3  502    0 -0.41168883617E+03 -0.51876508110E+03 -0.15599029990E+04  0.16946687828E+04  0.10100000352E+00 0. -1.
       -3    1    3    3    0  502  0.41168883617E+03  0.51876508110E+03  0.14742473580E+04  0.16161714605E+04  0.10100000352E+00 0.  1.
</event>
<event>
 5   0  0.1352708E-06  0.3333977E+04  0.7818609E-02  0.8154303E-01
       -1   -1    0    0    0  501  0.00000000000E+00  0.00000000000E+00  0.20794723671E+04  0.20794723671E+04  0.50400001928E-02 0. -1.
        1   -1    0    0  501    0  0.00000000000E+00  0.00000000000E+00 -0.13363252720E+04  0.13363252720E+04  0.50400001928E-02 0.  1.
    10030    2    1    2    0    0  0.00000000000E+00  0.00000000000E+00  0.74314709508E+03  0.34157976391E+04  0.33339774904E+04 0.  0.
        5    1    3    3  502    0  0.83417199592E+03 -0.14361909492E+04  0.51769923403E+03  0.17396901874E+04  0.46999998093E+01 0. -1.
       -5    1    3    3    0  502 -0.83417199592E+03  0.14361909492E+04  0.22544786105E+03  0.16761074516E+04  0.46999998093E+01 0.  1.
</event>
<event>
 5   0  0.1339825E-06  0.2133466E+04  0.7818609E-02  0.8546643E-01
        1   -1    0    0  501    0  0.00000000000E+00  0.00000000000E+00  0.10077098583E+04  0.10077098583E+04  0.50400001928E-02 0.  1.
       -1   -1    0    0    0  501  0.00000000000E+00  0.00000000000E+00 -0.11292134849E+04  0.11292134849E+04  0.50400001928E-02 0. -1.
    10030    2    1    2    0    0  0.00000000000E+00  0.00000000000E+00 -0.12150362664E+03  0.21369233432E+04  0.21334662509E+04 0.  0.
        3    1    3    3  502    0 -0.97713519754E+03  0.35212286974E+03  0.18282085561E+03  0.10546123388E+04  0.10100000352E+00 0.  1.
       -3    1    3    3    0  502  0.97713519754E+03 -0.35212286974E+03 -0.30432448226E+03  0.10823110045E+04  0.10100000352E+00 0. -1.
</event>
<event>
 5   0  0.3812379E-06  0.3305606E+04  0.7818609E-02  0.8161470E-01
        2   -1    0    0  501    0  0.00000000000E+00  0.00000000000E+00  0.19677979760E+04  0.19677979760E+04  0.25500000920E-02 0.  1.
       -2   -1    0    0    0  501  0.00000000000E+00  0.00000000000E+00 -0.13882310025E+04  0.13882310025E+04  0.25500000920E-02 0. -1.
    10030    2    1    2    0    0  0.00000000000E+00  0.00000000000E+00  0.57956697356E+03  0.33560289785E+04  0.33056062421E+04 0.  0.
        5    1    3    3  502    0  0.11283157612E+04  0.87138982044E+03  0.11387926304E+04  0.18246335033E+04  0.46999998093E+01 0.  1.
       -5    1    3    3    0  502 -0.11283157612E+04 -0.87138982044E+03 -0.55922565688E+03  0.15313954752E+04  0.46999998093E+01 0. -1.
</event>
<event>
 5   0  0.4017247E-06  0.3372037E+04  0.7818609E-02  0.8144804E-01
        2   -1    0    0  501    0  0.00000000000E+00  0.00000000000E+00  0.25328742008E+04  0.25328742008E+04  0.25500000920E-02 0. -1.
       -2   -1    0    0    0  501  0.00000000000E+00  0.00000000000E+00 -0.11223054438E+04  0.11223054438E+04  0.25500000920E-02 0.  1.
    10030    2    1    2    0    0  0.00000000000E+00  0.00000000000E+00  0.14105687570E+04  0.36551796445E+04  0.33720370721E+04 0.  0.
        1    1    3    3  502    0 -0.14350340044E+04  0.83374203665E+03  0.10272248738E+04  0.19518297362E+04  0.50400001928E-02 0. -1.
       -1    1    3    3    0  502  0.14350340044E+04 -0.83374203665E+03  0.38334388320E+03  0.17033499084E+04  0.50400001928E-02 0.  1.
</event>
<event>
 5   0  0.4017247E-06  0.3216956E+04  0.7818609E-02  0.8184354E-01
        2   -1    0    0  501    0  0.00000000000E+00  0.00000000000E+00  0.22910112191E+04  0.22910112191E+04  0.25500000920E-02 0. -1.
       -2   -1    0    0    0  501  0.00000000000E+00  0.00000000000E+00 -0.11292834037E+04  0.11292834037E+04  0.25500000920E-02 0.  1.
    10030    2    1    2    0    0  0.00000000000E+00  0.00000000000E+00  0.11617278154E+04  0.34202946228E+04  0.32169556710E+04 0.  0.
        1    1    3    3  502    0  0.76100397065E+03  0.12236251635E+04  0.13407533602E+04  0.19682492619E+04  0.50400001928E-02 0. -1.
       -1    1    3    3    0  502 -0.76100397065E+03 -0.12236251635E+04 -0.17902554480E+03  0.14520453608E+04  0.50400001928E-02 0.  1.
</event>
<event>
 5   0  0.1391878E-06  0.3236948E+04  0.7818609E-02  0.8179127E-01
       -1   -1    0    0    0  501  0.00000000000E+00  0.00000000000E+00  0.93256488111E+03  0.93256488112E+03  0.50400001928E-02 0.  1.
        1   -1    0    0  501    0  0.00000000000E+00  0.00000000000E+00 -0.28088747965E+04  0.28088747965E+04  0.50400001928E-02 0. -1.
    10030    2    1    2    0    0  0.00000000000E+00  0.00000000000E+00 -0.18763099154E+04  0.37414396777E+04  0.32369479395E+04 0.  0.
        2    1    3    3  502    0 -0.63534750130E+03  0.22177625508E+03  0.76319277835E+03  0.10175039910E+04  0.25500000920E-02 0.  1.
       -2    1    3    3    0  502  0.63534750130E+03 -0.22177625508E+03 -0.26395026938E+04  0.27239356867E+04  0.25500000920E-02 0. -1.
</event>
<event>
 5   0  0.1259875E-06  0.3189796E+04  0.7818609E-02  0.8191517E-01
       -4   -1    0    0    0  501  0.00000000000E+00  0.00000000000E+00  0.14733976379E+04  0.14733981853E+04  0.12699999809E+01 0. -1.
        4   -1    0    0  501    0  0.00000000000E+00  0.00000000000E+00 -0.17264164922E+04  0.17264169593E+04  0.12699999809E+01 0.  1.
    10030    2    1    2    0    0  0.00000000000E+00  0.00000000000E+00 -0.25301885425E+03  0.31998151446E+04  0.31897959839E+04 0.  0.
        3    1    3    3  502    0 -0.52073273704E+03  0.82742333376E+03 -0.13905895477E+04  0.16998621288E+04  0.10100000352E+00 0.  1.
       -3    1    3    3    0  502  0.52073273704E+03 -0.82742333376E+03  0.11375706935E+04  0.14999530158E+04  0.10100000352E+00 0. -1.
</event>
<event>
 5   0  0.3671997E-06  0.3254408E+04  0.7818609E-02  0.8174594E-01
       -2   -1    0    0    0  501  0.00000000000E+00  0.00000000000E+00  0.10894526274E+04  0.10894526274E+04  0.25500000920E-02 0.  1.
        2   -1    0    0  501    0  0.00000000000E+00  0.00000000000E+00 -0.24303879160E+04  0.24303879160E+04  0.25500000920E-02 0. -1.
    10030    2    1    2    0    0  0.00000000000E+00  0.00000000000E+00 -0.13409352885E+04  0.35198405434E+04  0.32544077807E+04 0.  0.
        2    1    3    3  502    0 -0.11193320808E+04 -0.32549477720E+03 -0.18983806433E+04  0.22277118808E+04  0.25500000920E-02 0. -1.
       -2    1    3    3    0  502  0.11193320808E+04  0.32549477720E+03  0.55744535476E+03  0.12921286626E+04  0.25500000920E-02 0.  1.
</event>
<event>
 5   0  0.1352708E-06  0.3339669E+04  0.7818609E-02  0.8152874E-01
       -1   -1    0    0    0  501  0.00000000000E+00  0.00000000000E+00  0.11152588032E+04  0.11152588032E+04  0.50400001928E-02 0.  1.
        1   -1    0    0  501    0  0.00000000000E+00  0.00000000000E+00 -0.25001788280E+04  0.25001788280E+04  0.50400001928E-02 0. -1.
    10030    2    1    2    0    0  0.00000000000E+00  0.00000000000E+00 -0.13849200248E+04  0.36154376313E+04  0.33396685151E+04 0.  0.
        5    1    3    3  502    0 -0.76284220192E+03 -0.13953977486E+04 -0.12436817326E+04  0.20188683572E+04  0.46999998093E+01 0. -1.
       -5    1    3    3    0  502  0.76284220192E+03  0.13953977486E+04 -0.14123829218E+03  0.15965692741E+04  0.46999998093E+01 0.  1.
</event>
<event>
 5   0  0.1282578E-06  0.3135142E+04  0.7818609E-02  0.8206159E-01
        1   -1    0    0  501    0  0.00000000000E+00  0.00000000000E+00  0.29691265424E+04  0.29691265424E+04  0.50400001928E-02 0. -1.
       -1   -1    0    0    0  501  0.00000000000E+00  0.00000000000E+00 -0.82760978408E+03  0.82760978410E+03  0.50400001928E-02 0.  1.
    10030    2    1    2    0    0  0.00000000000E+00  0.00000000000E+00  0.21415167583E+04  0.37967363265E+04  0.31351415768E+04 0.  0.
        4    1    3    3  502    0  0.32687172116E+02 -0.38730091443E+03 -0.76832889685E+03  0.86104666318E+03  0.12699999809E+01 0.  1.
       -4    1    3    3    0  502 -0.32687172116E+02  0.38730091443E+03  0.29098456551E+04  0.29356896633E+04  0.12699999809E+01 0. -1.
</event>
<event>
 5   0  0.1339825E-06  0.3352982E+04  0.7818609E-02  0.8149544E-01
       -1   -1    0    0    0  501  0.00000000000E+00  0.00000000000E+00  0.13249008592E+04  0.13249008592E+04  0.50400001928E-02 0.  1.
        1   -1    0    0  501    0  0.00000000000E+00  0.00000000000E+00 -0.21213824372E+04  0.21213824372E+04  0.50400001928E-02 0. -1.
    10030    2    1    2    0    0  0.00000000000E+00  0.00000000000E+00 -0.79648157799E+03  0.34462832964E+04  0.33529816067E+04 0.  0.
        3    1    3    3  502    0  0.70524042148E+03 -0.13271517217E+04  0.36534897231E+03  0.15466659711E+04  0.10100000352E+00 0.  1.
       -3    1    3    3    0  502 -0.70524042148E+03  0.13271517217E+04 -0.11618305503E+04  0.18996173252E+04  0.10100000352E+00 0. -1.
</event>
<event>
 5   0  0.1352708E-06  0.2958322E+04  0.7818609E-02  0.8255734E-01
        1   -1    0    0  501    0  0.00000000000E+00  0.00000000000E+00  0.15836097014E+04  0.15836097014E+04  0.50400001928E-02 0. -1.
       -1   -1    0    0    0  501  0.00000000000E+00  0.00000000000E+00 -0.13816009873E+04  0.13816009873E+04  0.50400001928E-02 0.  1.
    10030    2    1    2    0    0  0.00000000000E+00  0.00000000000E+00  0.20200871404E+03  0.29652106887E+04  0.29583216370E+04 0.  0.
        5    1    3    3  502    0 -0.38513426696E+03 -0.22164772254E+03  0.15151187773E+04  0.15789436709E+04  0.46999998093E+01 0. -1.
       -5    1    3    3    0  502  0.38513426696E+03  0.22164772254E+03 -0.13131100633E+04  0.13862670178E+04  0.46999998093E+01 0.  1.
</event>
<event>
 5   0  0.3671997E-06  0.3334456E+04  0.7818609E-02  0.8154183E-01
        2   -1    0    0  501    0  0.00000000000E+00  0.00000000000E+00  0.20684153574E+04  0.20684153574E+04  0.25500000920E-02 0.  1.
       -2   -1    0    0    0  501  0.00000000000E+00  0.00000000000E+00 -0.13438544210E+04  0.13438544210E+04  0.25500000920E-02 0. -1.
    10030    2    1    2    0    0  0.00000000000E+00  0.00000000000E+00  0.72456093635E+03  0.34122697784E+04  0.33344559511E+04 0.  0.
        2    1    3    3  502    0  0.11059563105E+04 -0.49939127032E+03 -0.80769240602E+03  0.14577029960E+04  0.25500000920E-02 0. -1.
       -2    1    3    3    0  502 -0.11059563105E+04  0.49939127032E+03  0.15322533424E+04  0.19545667824E+04  0.25500000920E-02 0.  1.
</event>
<event>
 5   0  0.3671997E-06  0.2898435E+04  0.7818609E-02  0.8273343E-01
       -2   -1    0    0    0  501  0.00000000000E+00  0.00000000000E+00  0.16401523793E+04  0.16401523793E+04  0.25500000920E-02 0.  1.
        2   -1    0    0  501    0  0.00000000000E+00  0.00000000000E+00 -0.12805103099E+04  0.12805103099E+04  0.25500000920E-02 0. -1.
    10030    2    1    2    0    0  0.00000000000E+00  0.00000000000E+00  0.35964206937E+03  0.29206626893E+04  0.28984354618E+04 0.  0.
        2    1    3    3  502    0  0.12382051261E+04 -0.10292830096E+03 -0.57187945953E+03  0.13677690908E+04  0.25500000920E-02 0. -1.
       -2    1    3    3    0  502 -0.12382051261E+04  0.10292830096E+03  0.93152152890E+03  0.15528935985E+04  0.25500000920E-02 0.  1.
</event>
<event>
 5   0  0.1282578E-06  0.2593827E+04  0.7818609E-02  0.8370301E-01
        1   -1    0    0  501    0  0.00000000000E+00  0.00000000000E+00  0.16585039219E+04  0.16585039219E+04  0.50400001928E-02 0. -1.
       -1   -1    0    0    0  501  0.00000000000E+00  0.00000000000E+00 -0.10141580442E+04  0.10141580443E+04  0.50400001928E-02 0.  1.
    10030    2    1    2    0    0  0.00000000000E+00  0.00000000000E+00  0.64434587765E+03  0.26726619662E+04  0.25938273604E+04 0.  0.
        4    1    3    3  502    0  0.24982875383E+03  0.51884933898E+02 -0.98803872658E+03  0.10204550900E+04  0.12699999809E+01 0.  1.
       -4    1    3    3    0  502 -0.24982875383E+03 -0.51884933898E+02  0.16323846042E+04  0.16522068762E+04  0.12699999809E+01 0. -1.
</event>
<event>
 5   0  0.1405389E-06  0.3136546E+04  0.7818609E-02  0.8205779E-01
        1   -1    0    0  501    0  0.00000000000E+00  0.00000000000E+00  0.17671685991E+04  0.17671685991E+04  0.50400001928E-02 0. -1.
       -1   -1    0    0    0  501  0.00000000000E+00  0.00000000000E+00 -0.13917634570E+04  0.13917634570E+04  0.50400001928E-02 0.  1.
    10030    2    1    2    0    0  0.00000000000E+00  0.00000000000E+00  0.37540514207E+03  0.31589320561E+04  0.31365463036E+04 0.  0.
        1    1    3    3  502    0 -0.61657626523E+03 -0.13894601850E+04 -0.20068529305E+03  0.15333103024E+04  0.50400001928E-02 0.  1.
       -1    1    3    3    0  502  0.61657626523E+03  0.13894601850E+04  0.57609043512E+03  0.16256217537E+04  0.50400001928E-02 0. -1.
</event>
<event>
 5   0  0.1405389E-06  0.3442495E+04  0.7818609E-02  0.8127555E-01
       -1   -1    0    0    0  501  0.00000000000E+00  0.00000000000E+00  0.10863939391E+04  0.10863939391E+04  0.50400001928E-02 0. -1.
        1   -1    0    0  501    0  0.00000000000E+00  0.00000000000E+00 -0.27270896072E+04  0.27270896072E+04  0.50400001928E-02 0.  1.
    10030    2    1    2    0    0  0.00000000000E+00  0.00000000000E+00 -0.16406956682E+04  0.38134835463E+04  0.34424953860E+04 0.  0.
        1    1    3    3  502    0  0.28280607533E+03  0.42616744038E+03 -0.26409644097E+04  0.26900354973E+04  0.50400001928E-02 0.  1.
       -1    1    3    3    0  502 -0.28280607533E+03 -0.42616744038E+03  0.10002687415E+04  0.11234480490E+04  0.50400001928E-02 0. -1.
</event>
<event>
 5   0  0.1352708E-06  0.3364302E+04  0.7818609E-02  0.8146724E-01
        1   -1    0    0  501    0  0.00000000000E+00  0.00000000000E+00  0.13239163998E+04  0.13239163998E+04  0.50400001928E-02 0. -1.
       -1   -1    0    0    0  501  0.00000000000E+00  0.00000000000E+00 -0.21373194525E+04  0.21373194525E+04  0.50400001928E-02 0.  1.
    10030    2    1    2    0    0  0.00000000000E+00  0.00000000000E+00 -0.81340305267E+03  0.34612358523E+04  0.33643021712E+04 0.  0.
        5    1    3    3  502    0 -0.78352620274E+03  0.13323513863E+04  0.27615147725E+03  0.15701449791E+04  0.46999998093E+01 0.  1.
       -5    1    3    3    0  502  0.78352620274E+03 -0.13323513863E+04 -0.10895545299E+04  0.18910908732E+04  0.46999998093E+01 0. -1.
</event>
<event>
 5   0  0.3920487E-06  0.3063291E+04  0.7818609E-02  0.8225885E-01
       -2   -1    0    0    0  501  0.00000000000E+00  0.00000000000E+00  0.12483665570E+04  0.12483665570E+04  0.25500000920E-02 0. -1.
        2   -1    0    0  501    0  0.00000000000E+00  0.00000000000E+00 -0.18792054964E+04  0.18792054964E+04  0.25500000920E-02 0.  1.
    10030    2    1    2    0    0  0.00000000000E+00  0.00000000000E+00 -0.63083893936E+03  0.31275720535E+04  0.30632905808E+04 0.  0.
        4    1    3    3  502    0 -0.95771670920E+03  0.21290142237E+03  0.88543680530E+03  0.13215703764E+04  0.12699999809E+01 0. -1.
       -4    1    3    3    0  502  0.95771670920E+03 -0.21290142237E+03 -0.15162757447E+04  0.18060016770E+04  0.12699999809E+01 0.  1.
</event>
<event>
 5   0  0.3896210E-06  0.3219492E+04  0.7818609E-02  0.8183688E-01
        2   -1    0    0  501    0  0.00000000000E+00  0.00000000000E+00  0.20552099525E+04  0.20552099525E+04  0.25500000920E-02 0. -1.
       -2   -1    0    0    0  501  0.00000000000E+00  0.00000000000E+00 -0.12608357463E+04  0.12608357463E+04  0.25500000920E-02 0.  1.
    10030    2    1    2    0    0  0.00000000000E+00  0.00000000000E+00  0.79437420624E+03  0.33160456988E+04  0.32194919937E+04 0.  0.
        3    1    3    3  502    0  0.99209329929E+03  0.72720226773E+03  0.14666970239E+04  0.19142289369E+04  0.10100000352E+00 0. -1.
       -3    1    3    3    0  502 -0.99209329929E+03 -0.72720226773E+03 -0.67232281768E+03  0.14018167619E+04  0.10100000352E+00 0.  1.
</event>
<event>
 5   0  0.4017247E-06  0.3348681E+04  0.7818609E-02  0.8150618E-01
       -2   -1    0    0    0  501  0.00000000000E+00  0.00000000000E+00  0.96024922955E+03  0.96024922955E+03  0.25500000920E-02 0. -1.
        2   -1    0    0  501    0  0.00000000000E+00  0.00000000000E+00 -0.29194675607E+04  0.29194675608E+04  0.25500000920E-02 0.  1.
    10030    2    1    2    0    0  0.00000000000E+00  0.00000000000E+00 -0.19592183312E+04  0.38797167903E+04  0.33486812186E+04 0.  0.
        1    1    3    3  502    0  0.10198517326E+04  0.10714478124E+04 -0.70792659928E+02  0.14809151130E+04  0.50400001928E-02 0. -1.
       -1    1    3    3    0  502 -0.10198517326E+04 -0.10714478124E+04 -0.18884256713E+04  0.23988016773E+04  0.50400001928E-02 0.  1.
</event>
<event>
 5   0  0.3896210E-06  0.3284933E+04  0.7818609E-02  0.8166740E-01
       -2   -1    0    0    0  501  0.00000000000E+00  0.00000000000E+00  0.14579157614E+04  0.14579157614E+04  0.25500000920E-02 0. -1.
        2   -1    0    0  501    0  0.00000000000E+00  0.00000000000E+00 -0.18503790804E+04  0.18503790804E+04  0.25500000920E-02 0.  1.
    10030    2    1    2    0    0  0.00000000000E+00  0.00000000000E+00 -0.39246331899E+03  0.33082948417E+04  0.32849333788E+04 0.  0.
        3    1    3    3  502    0  0.46832687919E+03 -0.29636664353E+03 -0.17533623493E+04  0.18388699767E+04  0.10100000352E+00 0.  1.
       -3    1    3    3    0  502 -0.46832687919E+03  0.29636664353E+03  0.13608990303E+04  0.14694248650E+04  0.10100000352E+00 0. -1.
</event>
<event>
 5   0  0.3812379E-06  0.3291066E+04  0.7818609E-02  0.8165172E-01
       -2   -1    0    0    0  501  0.00000000000E+00  0.00000000000E+00  0.10029409386E+04  0.10029409386E+04  0.25500000920E-02 0. -1.
        2   -1    0    0  501    0  0.00000000000E+00  0.00000000000E+00 -0.26998391379E+04  0.26998391379E+04  0.25500000920E-02 0.  1.
    10030    2    1    2    0    0  0.00000000000E+00  0.00000000000E+00 -0.16968981993E+04  0.37027800765E+04  0.32910662097E+04 0.  0.
        5    1    3    3  502    0  0.10900137521E+04 -0.10698599506E+04 -0.15374542364E+04  0.21671451065E+04  0.46999998093E+01 0.  1.
       -5    1    3    3    0  502 -0.10900137521E+04  0.10698599506E+04 -0.15944396294E+03  0.15356349700E+04  0.46999998093E+01 0. -1.
</event>
<event>
 5   0  0.1259875E-06  0.3277248E+04  0.7818609E-02  0.8168709E-01
        4   -1    0    0  501    0  0.00000000000E+00  0.00000000000E+00  0.17287100376E+04  0.17287105041E+04  0.12699999809E+01 0.  1.
       -4   -1    0    0    0  501  0.00000000000E+00  0.00000000000E+00 -0.15532313259E+04  0.15532318451E+04  0.12699999809E+01 0. -1.
    10030    2    1    2    0    0  0.00000000000E+00  0.00000000000E+00  0.17547871168E+03  0.32819423492E+04  0.32772477485E+04 0.  0.
        4    1    3    3  502    0 -0.15175885042E+04  0.18132477642E+03 -0.50398187597E+03  0.16093330566E+04  0.12699999809E+01 0. -1.
       -4    1    3    3    0  502  0.15175885042E+04 -0.18132477642E+03  0.67946058764E+03  0.16726092926E+04  0.12699999809E+01 0.  1.
</event>
<event>
 5   0  0.1339825E-06  0.3340839E+04  0.7818609E-02  0.8152581E-01
        1   -1    0    0  501    0  0.00000000000E+00  0.00000000000E+00  0.22817874723E+04  0.22817874723E+04  0.50400001928E-02 0.  1.
       -1   -1    0    0    0  501  0.00000000000E+00  0.00000000000E+00 -0.12228575022E+04  0.12228575022E+04  0.50400001928E-02 0. -1.
    10030    2    1    2    0    0  0.00000000000E+00  0.00000000000E+00  0.10589299701E+04  0.35046449745E+04  0.33408387743E+04 0.  0.
        3    1    3    3  502    0 -0.63491032974E+03 -0.11478926263E+04 -0.55542441757E+03  0.14245226927E+04  0.10100000352E+00 0. -1.
       -3    1    3    3    0  502  0.63491032974E+03  0.11478926263E+04  0.16143543876E+04  0.20801222818E+04  0.10100000352E+00 0.  1.
</event>
<event>
 5   0  0.4017247E-06  0.3110619E+04  0.7818609E-02  0.8212830E-01
        2   -1    0    0  501    0  0.00000000000E+00  0.00000000000E+00  0.22799711202E+04  0.22799711202E+04  0.25500000920E-02 0.  1.
       -2   -1    0    0    0  501  0.00000000000E+00  0.00000000000E+00 -0.10609728552E+04  0.10609728552E+04  0.25500000920E-02 0. -1.
    10030    2    1    2    0    0  0.00000000000E+00  0.00000000000E+00  0.12189982651E+04  0.33409439754E+04  0.31106188896E+04 0.  0.
        1    1    3    3  502    0 -0.54192513011E+03 -0.10428459811E+03 -0.95227770199E+03  0.11006320665E+04  0.50400001928E-02 0. -1.
       -1    1    3    3    0  502  0.54192513011E+03  0.10428459811E+03  0.21712759671E+04  0.22403119089E+04  0.50400001928E-02 0.  1.
</event>
<event>
 5   0  0.1339825E-06  0.3294968E+04  0.7818609E-02  0.8164177E-01
        1   -1    0    0  501    0  0.00000000000E+00  0.00000000000E+00  0.11909700622E+04  0.11909700622E+04  0.50400001928E-02 0. -1.
       -1   -1    0    0    0  501  0.00000000000E+00  0.00000000000E+00 -0.22789849189E+04  0.22789849190E+04  0.50400001928E-02 0.  1.
    10030    2    1    2    0    0  0.00000000000E+00  0.00000000000E+00 -0.10880148567E+04  0.34699549812E+04  0.32949675633E+04 0.  0.
        3    1    3    3  502    0  0.60977790702E+03  0.79397398346E+03 -0.19219208029E+04  0.21670263877E+04  0.10100000352E+00 0.  1.
       -3    1    3    3    0  502 -0.60977790702E+03 -0.79397398346E+03  0.83390594618E+03  0.13029285934E+04  0.10100000352E+00 0. -1.
</event>
<event>
 5   0  0.1391878E-06  0.3318821E+04  0.7818609E-02  0.8158123E-01
        1   -1    0    0  501    0  0.00000000000E+00  0.00000000000E+00  0.26950060034E+04  0.26950060034E+04  0.50400001928E-02 0. -1.
       -1   -1    0    0    0  501  0.00000000000E+00  0.00000000000E+00 -0.10217576376E+04  0.10217576376E+04  0.50400001928E-02 0.  1.
    10030    2    1    2    0    0  0.00000000000E+00  0.00000000000E+00  0.16732483658E+04  0.37167636410E+04  0.33188208553E+04 0.  0.
        2    1    3    3  502    0  0.12059087851E+04 -0.10916971153E+04  0.12040219060E+04  0.20237804574E+04  0.25500000920E-02 0. -1.
       -2    1    3    3    0  502 -0.12059087851E+04  0.10916971153E+04  0.46922645982E+03  0.16929831836E+04  0.25500000920E-02 0.  1.
</event>
<event>
 5   0  0.1282578E-06  0.3295417E+04  0.7818609E-02  0.8164062E-01
       -1   -1    0    0    0  501  0.00000000000E+00  0.00000000000E+00  0.10431228577E+04  0.10431228577E+04  0.50400001928E-02 0. -1.
        1   -1    0    0  501    0  0.00000000000E+00  0.00000000000E+00 -0.26027076471E+04  0.26027076471E+04  0.50400001928E-02 0.  1.
    10030    2    1    2    0    0  0.00000000000E+00  0.00000000000E+00 -0.15595847895E+04  0.36458305048E+04  0.32954173263E+04 0.  0.
        4    1    3    3  502    0  0.10118455474E+04  0.91388274550E+03  0.24374793624E+03  0.13850731943E+04  0.12699999809E+01 0. -1.
       -4    1    3    3    0  502 -0.10118455474E+04 -0.91388274550E+03 -0.18033327257E+04  0.22607573105E+04  0.12699999809E+01 0.  1.
</event>
<event>
 5   0  0.3920487E-06  0.3460630E+04  0.7818609E-02  0.8123184E-01
        2   -1    0    0  501    0  0.00000000000E+00  0.00000000000E+00  0.92094224335E+03  0.92094224335E+03  0.25500000920E-02 0.  1.
       -2   -1    0    0    0  501  0.00000000000E+00  0.00000000000E+00 -0.32510068413E+04  0.32510068413E+04  0.25500000920E-02 0. -1.
    10030    2    1    2    0    0  0.00000000000E+00  0.00000000000E+00 -0.23300645979E+04  0.41719490846E+04  0.34606297309E+04 0.  0.
        4    1    3    3  502    0  0.80223302298E+03  0.85369762513E+03 -0.27002046282E+04  0.29433797080E+04  0.12699999809E+01 0. -1.
       -4    1    3    3    0  502 -0.80223302298E+03 -0.85369762513E+03  0.37014003027E+03  0.12285693766E+04  0.12699999809E+01 0.  1.
</event>
<event>
 5   0  0.1352708E-06  0.2639794E+04  0.7818609E-02  0.8354808E-01
       -1   -1    0    0    0  501  0.00000000000E+00  0.00000000000E+00  0.17083705670E+04  0.17083705671E+04  0.50400001928E-02 0.  1.
        1   -1    0    0  501    0  0.00000000000E+00  0.00000000000E+00 -0.10197602789E+04  0.10197602789E+04  0.50400001928E-02 0. -1.
    10030    2    1    2    0    0  0.00000000000E+00  0.00000000000E+00  0.68861028814E+03  0.27281308460E+04  0.26397942692E+04 0.  0.
        5    1    3    3  502    0 -0.86926191190E+03  0.95636761604E+03  0.62132552788E+03  0.14339884205E+04  0.46999998093E+01 0.  1.
       -5    1    3    3    0  502  0.86926191190E+03 -0.95636761604E+03  0.67284760261E+02  0.12941424255E+04  0.46999998093E+01 0. -1.
</event>
<event>
 5   0  0.1352708E-06  0.2368678E+04  0.7818609E-02  0.8451324E-01
       -1   -1    0    0    0  501  0.00000000000E+00  0.00000000000E+00  0.77721671755E+03  0.77721671757E+03  0.50400001928E-02 0.  1.
        1   -1    0    0  501    0  0.00000000000E+00  0.00000000000E+00 -0.18047198622E+04  0.18047198622E+04  0.50400001928E-02 0. -1.
    10030    2    1    2    0    0  0.00000000000E+00  0.00000000000E+00 -0.10275031446E+04  0.25819365797E+04  0.23686776458E+04 0.  0.
        5    1    3    3  502    0 -0.25386540244E+03 -0.66798132892E+03 -0.15432353768E+04  0.17006599356E+04  0.46999998093E+01 0. -1.
       -5    1    3    3    0  502  0.25386540244E+03  0.66798132892E+03  0.51573223214E+03  0.88127664419E+03  0.46999998093E+01 0.  1.
</event>
<event>
 5   0  0.1352708E-06  0.3291460E+04  0.7818609E-02  0.8165072E-01
       -1   -1    0    0    0  501  0.00000000000E+00  0.00000000000E+00  0.12811443209E+04  0.12811443209E+04  0.50400001928E-02 0. -1.
        1   -1    0    0  501    0  0.00000000000E+00  0.00000000000E+00 -0.21140694236E+04  0.21140694236E+04  0.50400001928E-02 0.  1.
    10030    2    1    2    0    0  0.00000000000E+00  0.00000000000E+00 -0.83292510274E+03  0.33952137446E+04  0.32914604881E+04 0.  0.
        5    1    3    3  502    0  0.54920020564E+03 -0.61785073955E+03 -0.18843605280E+04  0.20577164751E+04  0.46999998093E+01 0.  1.
       -5    1    3    3    0  502 -0.54920020564E+03  0.61785073955E+03  0.10514354253E+04  0.13374972695E+04  0.46999998093E+01 0. -1.
</event>
<event>
 5   0  0.3812379E-06  0.2996196E+04  0.7818609E-02  0.8244818E-01
       -2   -1    0    0    0  501  0.00000000000E+00  0.00000000000E+00  0.17279414522E+04  0.17279414522E+04  0.25500000920E-02 0. -1.
        2   -1    0    0  501    0  0.00000000000E+00  0.00000000000E+00 -0.12988271220E+04  0.12988271221E+04  0.25500000920E-02 0.  1.
    10030    2    1    2    0    0  0.00000000000E+00  0.00000000000E+00  0.42911433014E+03  0.30267685742E+04  0.29961957369E+04 0.  0.
        5    1    3    3  502    0 -0.13572025468E+04 -0.16875523970E+03 -0.40307165050E+03  0.14258211421E+04  0.46999998093E+01 0.  1.
       -5    1    3    3    0  502  0.13572025468E+04  0.16875523970E+03  0.83218598063E+03  0.16009474321E+04  0.46999998093E+01 0. -1.
</event>
<event>
 5   0  0.4017247E-06  0.3267796E+04  0.7818609E-02  0.8171138E-01
       -2   -1    0    0    0  501  0.00000000000E+00  0.00000000000E+00  0.15939744686E+04  0.15939744686E+04  0.25500000920E-02 0.  1.
        2   -1    0    0  501    0  0.00000000000E+00  0.00000000000E+00 -0.16748218735E+04  0.16748218735E+04  0.25500000920E-02 0. -1.
    10030    2    1    2    0    0  0.00000000000E+00  0.00000000000E+00 -0.80847404913E+02  0.32687963421E+04  0.32677963865E+04 0.  0.
        1    1    3    3  502    0  0.39319222792E+02 -0.14961484673E+04 -0.69607607746E+03  0.16506144744E+04  0.50400001928E-02 0.  1.
       -1    1    3    3    0  502 -0.39319222792E+02  0.14961484673E+04  0.61522867255E+03  0.16181818677E+04  0.50400001928E-02 0. -1.
</event>
<event>
 5   0  0.1391878E-06  0.3288660E+04  0.7818609E-02  0.8165787E-01
        1   -1    0    0  501    0  0.00000000000E+00  0.00000000000E+00  0.16668512435E+04  0.16668512435E+04  0.50400001928E-02 0. -1.
       -1   -1    0    0    0  501  0.00000000000E+00  0.00000000000E+00 -0.16221130846E+04  0.16221130847E+04  0.50400001928E-02 0.  1.
    10030    2    1    2    0    0  0.00000000000E+00  0.00000000000E+00  0.44738158835E+02  0.32889643281E+04  0.32886600385E+04 0.  0.
        2    1    3    3  502    0 -0.51428708591E+03 -0.95399288631E+03 -0.12143647565E+04  0.16276594840E+04  0.25500000920E-02 0.  1.
       -2    1    3    3    0  502  0.51428708591E+03  0.95399288631E+03  0.12591029153E+04  0.16613048442E+04  0.25500000920E-02 0. -1.
</event>
<event>
 5   0  0.3812379E-06  0.3355632E+04  0.7818609E-02  0.8148882E-01
       -2   -1    0    0    0  501  0.00000000000E+00  0.00000000000E+00  0.14274080847E+04  0.14274080847E+04  0.25500000920E-02 0.  1.
        2   -1    0    0  501    0  0.00000000000E+00  0.00000000000E+00 -0.19721531525E+04  0.19721531525E+04  0.25500000920E-02 0. -1.
    10030    2    1    2    0    0  0.00000000000E+00  0.00000000000E+00 -0.54474506779E+03  0.33995612372E+04  0.33556324912E+04 0.  0.
        5    1    3    3  502    0  0.11166612591E+04 -0.89217587784E+03 -0.11625879796E+04  0.18424285780E+04  0.46999998093E+01 0. -1.
       -5    1    3    3    0  502 -0.11166612591E+04  0.89217587784E+03  0.61784291182E+03  0.15571326592E+04  0.46999998093E+01 0.  1.
</event>
<event>
 5   0  0.4017247E-06  0.3349009E+04  0.7818609E-02  0.8150536E-01
       -2   -1    0    0    0  501  0.00000000000E+00  0.00000000000E+00  0.12605174650E+04  0.12605174650E+04  0.25500000920E-02 0.  1.
        2   -1    0    0  501    0  0.00000000000E+00  0.00000000000E+00 -0.22244560960E+04  0.22244560960E+04  0.25500000920E-02 0. -1.
    10030    2    1    2    0    0  0.00000000000E+00  0.00000000000E+00 -0.96393863100E+03  0.34849735610E+04  0.33490092619E+04 0.  0.
        1    1    3    3  502    0 -0.10123040844E+04 -0.13317647230E+04 -0.40403605469E+03  0.17209305536E+04  0.50400001928E-02 0.  1.
       -1    1    3    3    0  502  0.10123040844E+04  0.13317647230E+04 -0.55990257631E+03  0.17640430074E+04  0.50400001928E-02 0. -1.
</event>
<event>
 5   0  0.4017247E-06  0.2866532E+04  0.7818609E-02  0.8282905E-01
       -2   -1    0    0    0  501  0.00000000000E+00  0.00000000000E+00  0.84425004794E+03  0.84425004794E+03  0.25500000920E-02 0. -1.
        2   -1    0    0  501    0  0.00000000000E+00  0.00000000000E+00 -0.24332261111E+04  0.24332261111E+04  0.25500000920E-02 0.  1.
    10030    2    1    2    0    0  0.00000000000E+00  0.00000000000E+00 -0.15889760631E+04  0.32774761590E+04  0.28665318843E+04 0.  0.
        1    1    3    3  502    0 -0.16204671028E+03 -0.12101400891E+04 -0.16528099083E+04  0.20548670917E+04  0.50400001928E-02 0.  1.
       -1    1    3    3    0  502  0.16204671028E+03  0.12101400891E+04  0.63833845139E+02  0.12226090673E+04  0.50400001928E-02 0. -1.
</event>
<event>
 5   0  0.3896210E-06  0.3301149E+04  0.7818609E-02  0.8162603E-01
       -2   -1    0    0    0  501  0.00000000000E+00  0.00000000000E+00  0.12279194579E+04  0.12279194579E+04  0.25500000920E-02 0.  1.
        2   -1    0    0  501    0  0.00000000000E+00  0.00000000000E+00 -0.22187089997E+04  0.22187089997E+04  0.25500000920E-02 0. -1.
    10030    2    1    2    0    0  0.00000000000E+00  0.00000000000E+00 -0.99078954172E+03  0.34466284576E+04  0.33011488620E+04 0.  0.
        3    1    3    3  502    0  0.41704575438E+03 -0.13600108633E+04 -0.13694493720E+04  0.19745754739E+04  0.10100000352E+00 0. -1.
       -3    1    3    3    0  502 -0.41704575438E+03  0.13600108633E+04  0.37865983031E+03  0.14720529837E+04  0.10100000352E+00 0.  1.
</event>
<event>
 5   0  0.1282578E-06  0.3213729E+04  0.7818609E-02  0.8185201E-01
        1   -1    0    0  501    0  0.00000000000E+00  0.00000000000E+00  0.22501559360E+04  0.22501559361E+04  0.50400001928E-02 0. -1.
       -1   -1    0    0    0  501  0.00000000000E+00  0.00000000000E+00 -0.11474817054E+04  0.11474817054E+04  0.50400001928E-02 0.  1.
    10030    2    1    2    0    0  0.00000000000E+00  0.00000000000E+00  0.11026742307E+04  0.33976376415E+04  0.32137285330E+04 0.  0.
        4    1    3    3  502    0  0.19041683718E+03 -0.99162357085E+03  0.18728423542E+04  0.21277020409E+04  0.12699999809E+01 0. -1.
       -4    1    3    3    0  502 -0.19041683718E+03  0.99162357085E+03 -0.77016812356E+03  0.12699356006E+04  0.12699999809E+01 0.  1.
</event>
<event>
 5   0  0.1282578E-06  0.3356900E+04  0.7818609E-02  0.8148566E-01
       -1   -1    0    0    0  501  0.00000000000E+00  0.00000000000E+00  0.21324762557E+04  0.21324762557E+04  0.50400001928E-02 0.  1.
        1   -1    0    0  501    0  0.00000000000E+00  0.00000000000E+00 -0.13210906095E+04  0.13210906095E+04  0.50400001928E-02 0. -1.
    10030    2    1    2    0    0  0.00000000000E+00  0.00000000000E+00  0.81138564619E+03  0.34535668652E+04  0.33568999725E+04 0.  0.
        4    1    3    3  502    0 -0.15711549787E+04 -0.21081311895E+03 -0.16175405230E+03  0.15934667002E+04  0.12699999809E+01 0. -1.
       -4    1    3    3    0  502  0.15711549787E+04  0.21081311895E+03  0.97313969849E+03  0.18601001650E+04  0.12699999809E+01 0.  1.
</event>
<event>
 5   0  0.1405389E-06  0.3347993E+04  0.7818609E-02  0.8150790E-01
       -1   -1    0    0    0  501  0.00000000000E+00  0.00000000000E+00  0.13098784686E+04  0.13098784686E+04  0.50400001928E-02 0. -1.
        1   -1    0    0  501    0  0.00000000000E+00  0.00000000000E+00 -0.21393311301E+04  0.21393311301E+04  0.50400001928E-02 0.  1.
    10030    2    1    2    0    0  0.00000000000E+00  0.00000000000E+00 -0.82945266144E+03  0.34492095987E+04  0.33479927028E+04 0.  0.
        1    1    3    3  502    0  0.68875514035E+03  0.14731096939E+04 -0.82401250072E+03  0.18230283637E+04  0.50400001928E-02 0.  1.
       -1    1    3    3    0  502 -0.68875514035E+03 -0.14731096939E+04 -0.54401607207E+01  0.16261812350E+04  0.50400001928E-02 0. -1.
</event>
<event>
 5   0  0.3812379E-06  0.2496622E+04  0.7818609E-02  0.8404190E-01
        2   -1    0    0  501    0  0.00000000000E+00  0.00000000000E+00  0.15001701297E+04  0.15001701297E+04  0.25500000920E-02 0.  1.
       -2   -1    0    0    0  501  0.00000000000E+00  0.00000000000E+00 -0.10387361281E+04  0.10387361281E+04  0.25500000920E-02 0. -1.
    10030    2    1    2    0    0  0.00000000000E+00  0.00000000000E+00  0.46143400158E+03  0.25389062578E+04  0.24966224480E+04 0.  0.
        5    1    3    3  502    0  0.80723180519E+03  0.24762889302E+02  0.11986900611E+04  0.14453775772E+04  0.46999998093E+01 0.  1.
       -5    1    3    3    0  502 -0.80723180519E+03 -0.24762889302E+02 -0.73725605951E+03  0.10935286806E+04  0.46999998093E+01 0. -1.
</event>
<event>
 5   0  0.1405389E-06  0.3245495E+04  0.7818609E-02  0.8176904E-01
        1   -1    0    0  501    0  0.00000000000E+00  0.00000000000E+00  0.19941687991E+04  0.19941687991E+04  0.50400001928E-02 0.  1.
       -1   -1    0    0    0  501  0.00000000000E+00  0.00000000000E+00 -0.13205046091E+04  0.13205046091E+04  0.50400001928E-02 0. -1.
    10030    2    1    2    0    0  0.00000000000E+00  0.00000000000E+00  0.67366418999E+03  0.33146734082E+04  0.32454947793E+04 0.  0.
        1    1    3    3  502    0 -0.75295299057E+03 -0.43482117860E+02  0.18042884363E+04  0.19555780889E+04  0.50400001928E-02 0.  1.
       -1    1    3    3    0  502  0.75295299057E+03  0.43482117860E+02 -0.11306242463E+04  0.13590953193E+04  0.50400001928E-02 0. -1.
</event>
<event>
 5   0  0.3812379E-06  0.3334547E+04  0.7818609E-02  0.8154160E-01
       -2   -1    0    0    0  501  0.00000000000E+00  0.00000000000E+00  0.16955280141E+04  0.16955280141E+04  0.25500000920E-02 0. -1.
        2   -1    0    0  501    0  0.00000000000E+00  0.00000000000E+00 -0.16394894915E+04  0.16394894915E+04  0.25500000920E-02 0.  1.
    10030    2    1    2    0    0  0.00000000000E+00  0.00000000000E+00  0.56038522603E+02  0.33350175056E+04  0.33345466629E+04 0.  0.
        5    1    3    3  502    0  0.13899318894E+04  0.76394341074E+03  0.54215223269E+03  0.16761477636E+04  0.46999998093E+01 0. -1.
       -5    1    3    3    0  502 -0.13899318894E+04 -0.76394341074E+03 -0.48611371009E+03  0.16588697420E+04  0.46999998093E+01 0.  1.
</event>
<event>
 5   0  0.4017247E-06  0.3324056E+04  0.7818609E-02  0.8156801E-01
       -2   -1    0    0    0  501  0.00000000000E+00  0.00000000000E+00  0.10440111527E+04  0.10440111527E+04  0.25500000920E-02 0.  1.
        2   -1    0    0  501    0  0.00000000000E+00  0.00000000000E+00 -0.26458887217E+04  0.26458887217E+04  0.25500000920E-02 0. -1.
    10030    2    1    2    0    0  0.00000000000E+00  0.00000000000E+00 -0.16018775689E+04  0.36898998744E+04  0.33240561573E+04 0.  0.
        1    1    3    3  502    0 -0.15832474415E+04 -0.85443891586E+02 -0.24772786991E+03  0.16047872810E+04  0.50400001928E-02 0. -1.
       -1    1    3    3    0  502  0.15832474415E+04  0.85443891586E+02 -0.13541496990E+04  0.20851125934E+04  0.50400001928E-02 0.  1.
</event>
<event>
 5   0  0.3920487E-06  0.3361417E+04  0.7818609E-02  0.8147441E-01
       -2   -1    0    0    0  501  0.00000000000E+00  0.00000000000E+00  0.10245591855E+04  0.10245591855E+04  0.25500000920E-02 0.  1.
        2   -1    0    0  501    0  0.00000000000E+00  0.00000000000E+00 -0.27570698179E+04  0.27570698179E+04  0.25500000920E-02 0. -1.
    10030    2    1    2    0    0  0.00000000000E+00  0.00000000000E+00 -0.17325106324E+04  0.37816290034E+04  0.33614170863E+04 0.  0.
        4    1    3    3  502    0 -0.15873839728E+04 -0.54379499441E+03 -0.75788743597E+03  0.18411669809E+04  0.12699999809E+01 0. -1.
       -4    1    3    3    0  502  0.15873839728E+04  0.54379499441E+03 -0.97462319646E+03  0.19404620226E+04  0.12699999809E+01 0.  1.
</event>
<event>
 5   0  0.3812379E-06  0.3342871E+04  0.7818609E-02  0.8152072E-01
        2   -1    0    0  501    0  0.00000000000E+00  0.00000000000E+00  0.14302106154E+04  0.14302106154E+04  0.25500000920E-02 0. -1.
       -2   -1    0    0    0  501  0.00000000000E+00  0.00000000000E+00 -0.19533463048E+04  0.19533463048E+04  0.25500000920E-02 0.  1.
    10030    2    1    2    0    0  0.00000000000E+00  0.00000000000E+00 -0.52313568943E+03  0.33835569202E+04  0.33428709940E+04 0.  0.
        5    1    3    3  502    0  0.12886156988E+04  0.78333380944E+03  0.46799066517E+03  0.15789805663E+04  0.46999998093E+01 0. -1.
       -5    1    3    3    0  502 -0.12886156988E+04 -0.78333380944E+03 -0.99112635460E+03  0.18045763539E+04  0.46999998093E+01 0.  1.
</event>
<event>
 5   0  0.1282578E-06  0.3289600E+04  0.7818609E-02  0.8165547E-01
       -1   -1    0    0    0  501  0.00000000000E+00  0.00000000000E+00  0.29063962011E+04  0.29063962011E+04  0.50400001928E-02 0. -1.
        1   -1    0    0  501    0  0.00000000000E+00  0.00000000000E+00 -0.93083199360E+03  0.93083199361E+03  0.50400001928E-02 0.  1.
    10030    2    1    2    0    0  0.00000000000E+00  0.00000000000E+00  0.19755642075E+04  0.38372281947E+04  0.32895997143E+04 0.  0.
        4    1    3    3  502    0 -0.81306023103E+03  0.74491678049E+03 -0.43579111824E+03  0.11856995660E+04  0.12699999809E+01 0.  1.
       -4    1    3    3    0  502  0.81306023103E+03 -0.74491678049E+03  0.24113553258E+04  0.26515286288E+04  0.12699999809E+01 0. -1.
</event>
<event>
 5   0  0.4017247E-06  0.3200511E+04  0.7818609E-02  0.8188682E-01
        2   -1    0    0  501    0  0.00000000000E+00  0.00000000000E+00  0.17281248852E+04  0.17281248852E+04  0.25500000920E-02 0. -1.
       -2   -1    0    0    0  501  0.00000000000E+00  0.00000000000E+00 -0.14818473323E+04  0.14818473323E+04  0.25500000920E-02 0.  1.
    10030    2    1    2    0    0  0.00000000000E+00  0.00000000000E+00  0.24627755291E+03  0.32099722176E+04  0.32005107412E+04 0.  0.
        1    1    3    3  502    0 -0.21894468711E+03 -0.63780453754E+03 -0.13323873969E+04  0.14933142936E+04  0.50400001928E-02 0.  1.
       -1    1    3    3    0  502  0.21894468711E+03  0.63780453754E+03  0.15786649498E+04  0.17166579239E+04  0.50400001928E-02 0. -1.
</event>
<event>
 5   0  0.1282578E-06  0.3430848E+04  0.7818609E-02  0.8130377E-01
       -1   -1    0    0    0  501  0.00000000000E+00  0.00000000000E+00  0.13076142932E+04  0.13076142932E+04  0.50400001928E-02 0.  1.
        1   -1    0    0  501    0  0.00000000000E+00  0.00000000000E+00 -0.22504181633E+04  0.22504181633E+04  0.50400001928E-02 0. -1.
    10030    2    1    2    0    0  0.00000000000E+00  0.00000000000E+00 -0.94280387014E+03  0.35580324565E+04  0.34308476830E+04 0.  0.
        4    1    3    3  502    0  0.10818938411E+04 -0.13308778337E+04 -0.43948353682E+03  0.17705585231E+04  0.12699999809E+01 0. -1.
       -4    1    3    3    0  502 -0.10818938411E+04  0.13308778337E+04 -0.50332033332E+03  0.17874739334E+04  0.12699999809E+01 0.  1.
</event>
<event>
 5   0  0.1391878E-06  0.3318310E+04  0.7818609E-02  0.8158252E-01
       -1   -1    0    0    0  501  0.00000000000E+00  0.00000000000E+00  0.17896481571E+04  0.17896481571E+04  0.50400001928E-02 0.  1.
        1   -1    0    0  501    0  0.00000000000E+00  0.00000000000E+00 -0.15381763655E+04  0.15381763656E+04  0.50400001928E-02 0. -1.
    10030    2    1    2    0    0  0.00000000000E+00  0.00000000000E+00  0.25147179151E+03  0.33278245226E+04  0.33183095081E+04 0.  0.
        2    1    3    3  502    0 -0.55506200004E+03  0.14674338349E+04 -0.41556974319E+03  0.16230077311E+04  0.25500000920E-02 0.  1.
       -2    1    3    3    0  502  0.55506200004E+03 -0.14674338349E+04  0.66704153471E+03  0.17048167915E+04  0.25500000920E-02 0. -1.
</event>
<event>
 5   0  0.1391878E-06  0.3276153E+04  0.7818609E-02  0.8168990E-01
       -1   -1    0    0    0  501  0.00000000000E+00  0.00000000000E+00  0.14558481933E+04  0.14558481933E+04  0.50400001928E-02 0.  1.
        1   -1    0    0  501    0  0.00000000000E+00  0.00000000000E+00 -0.18431140644E+04  0.18431140644E+04  0.50400001928E-02 0. -1.
    10030    2    1    2    0    0  0.00000000000E+00  0.00000000000E+00 -0.38726587109E+03  0.32989622578E+04  0.32761527930E+04 0.  0.
        2    1    3    3  502    0 -0.11474479351E+04 -0.82892901076E+03  0.63644498527E+03  0.15520381077E+04  0.25500000920E-02 0.  1.
       -2    1    3    3    0  502  0.11474479351E+04  0.82892901076E+03 -0.10237108564E+04  0.17469241500E+04  0.25500000920E-02 0. -1.
</event>
<event>
 5   0  0.1405389E-06  0.3317662E+04  0.7818609E-02  0.8158416E-01
        1   -1    0    0  501    0  0.00000000000E+00  0.00000000000E+00  0.21974925184E+04  0.21974925184E+04  0.50400001928E-02 0. -1.
       -1   -1    0    0    0  501  0.00000000000E+00  0.00000000000E+00 -0.12522091357E+04  0.12522091358E+04  0.50400001928E-02 0.  1.
    10030    2    1    2    0    0  0.00000000000E+00  0.00000000000E+00  0.94528338269E+03  0.34497016542E+04  0.33176619523E+04 0.  0.
        1    1    3    3  502    0  0.15925789385E+04  0.33248623315E+02 -0.87157001254E+01  0.15929498139E+04  0.50400001928E-02 0.  1.
       -1    1    3    3    0  502 -0.15925789385E+04 -0.33248623315E+02  0.95399908282E+03  0.18567518403E+04  0.50400001928E-02 0. -1.
</event>
<event>
 5   0  0.1282578E-06  0.3138242E+04  0.7818609E-02  0.8205320E-01
       -1   -1    0    0    0  501  0.00000000000E+00  0.00000000000E+00  0.80016110652E+03  0.80016110654E+03  0.50400001928E-02 0.  1.
        1   -1    0    0  501    0  0.00000000000E+00  0.00000000000E+00 -0.30770568977E+04  0.30770568977E+04  0.50400001928E-02 0. -1.
    10030    2    1    2    0    0  0.00000000000E+00  0.00000000000E+00 -0.22768957912E+04  0.38772180043E+04  0.31382423438E+04 0.  0.
        4    1    3    3  502    0  0.26378294116E+03  0.14433704764E+04 -0.45140875142E+03  0.15351453501E+04  0.12699999809E+01 0.  1.
       -4    1    3    3    0  502 -0.26378294116E+03 -0.14433704764E+04 -0.18254870398E+04  0.23420726542E+04  0.12699999809E+01 0. -1.
</event>
<event>
 5   0  0.3920487E-06  0.3187353E+04  0.7818609E-02  0.8192165E-01
        2   -1    0    0  501    0  0.00000000000E+00  0.00000000000E+00  0.29692503126E+04  0.29692503126E+04  0.25500000920E-02 0. -1.
       -2   -1    0    0    0  501  0.00000000000E+00  0.00000000000E+00 -0.85536911030E+03  0.85536911030E+03  0.25500000920E-02 0.  1.
    10030    2    1    2    0    0  0.00000000000E+00  0.00000000000E+00  0.21138812023E+04  0.38246194229E+04  0.31873531327E+04 0.  0.
        4    1    3    3  502    0 -0.12318075568E+03 -0.30574132531E+03 -0.81401771410E+03  0.87822417886E+03  0.12699999809E+01 0.  1.
       -4    1    3    3    0  502  0.12318075568E+03  0.30574132531E+03  0.29278989164E+04  0.29463952441E+04  0.12699999809E+01 0. -1.
</event>
<event>
 5   0  0.3671997E-06  0.3248524E+04  0.7818609E-02  0.8176118E-01
        2   -1    0    0  501    0  0.00000000000E+00  0.00000000000E+00  0.16691514022E+04  0.16691514022E+04  0.25500000920E-02 0. -1.
       -2   -1    0    0    0  501  0.00000000000E+00  0.00000000000E+00 -0.15805794140E+04  0.15805794140E+04  0.25500000920E-02 0.  1.
    10030    2    1    2    0    0  0.00000000000E+00  0.00000000000E+00  0.88571988199E+02  0.32497308162E+04  0.32485235693E+04 0.  0.
        2    1    3    3  502    0 -0.13691789179E+04  0.86722540283E+03  0.15154307950E+03  0.16277887189E+04  0.25500000920E-02 0. -1.
       -2    1    3    3    0  502  0.13691789179E+04 -0.86722540283E+03 -0.62971091297E+02  0.16219420973E+04  0.25500000920E-02 0.  1.
</event>
<event>
 5   0  0.1352708E-06  0.3268381E+04  0.7818609E-02  0.8170988E-01
       -1   -1    0    0    0  501  0.00000000000E+00  0.00000000000E+00  0.11939852674E+04  0.11939852674E+04  0.50400001928E-02 0.  1.
        1   -1    0    0  501    0  0.00000000000E+00  0.00000000000E+00 -0.22366932191E+04  0.22366932192E+04  0.50400001928E-02 0. -1.
    10030    2    1    2    0    0  0.00000000000E+00  0.00000000000E+00 -0.10427079517E+04  0.34306784866E+04  0.32683810986E+04 0.  0.
        5    1    3    3  502    0 -0.76253709868E+03 -0.11549945511E+04 -0.14334576838E+04  0.19925607296E+04  0.46999998093E+01 0. -1.
       -5    1    3    3    0  502  0.76253709868E+03  0.11549945511E+04  0.39074973208E+03  0.14381177570E+04  0.46999998093E+01 0.  1.
</event>
<event>
 5   0  0.3671997E-06  0.3315541E+04  0.7818609E-02  0.8158952E-01
        2   -1    0    0  501    0  0.00000000000E+00  0.00000000000E+00  0.21470393746E+04  0.21470393747E+04  0.25500000920E-02 0.  1.
       -2   -1    0    0    0  501  0.00000000000E+00  0.00000000000E+00 -0.12799963278E+04  0.12799963278E+04  0.25500000920E-02 0. -1.
    10030    2    1    2    0    0  0.00000000000E+00  0.00000000000E+00  0.86704304685E+03  0.34270357025E+04  0.33155406891E+04 0.  0.
        2    1    3    3  502    0  0.11990380146E+04 -0.25463250444E+03 -0.72010764997E+03  0.14216486557E+04  0.25500000920E-02 0. -1.
       -2    1    3    3    0  502 -0.11990380146E+04  0.25463250444E+03  0.15871506968E+04  0.20053870467E+04  0.25500000920E-02 0.  1.
</event>
<event>
 5   0  0.1352708E-06  0.3115415E+04  0.7818609E-02  0.8211520E-01
        1   -1    0    0  501    0  0.00000000000E+00  0.00000000000E+00  0.18498383588E+04  0.18498383589E+04  0.50400001928E-02 0.  1.
       -1   -1    0    0    0  501  0.00000000000E+00  0.00000000000E+00 -0.13117109047E+04  0.13117109047E+04  0.50400001928E-02 0. -1.
    10030    2    1    2    0    0  0.00000000000E+00  0.00000000000E+00  0.53812745415E+03  0.31615492636E+04  0.31154153157E+04 0.  0.
        5    1    3    3  502    0  0.78279258759E+03 -0.13454959499E+04  0.32742597667E+03  0.15907084731E+04  0.46999998093E+01 0.  1.
       -5    1    3    3    0  502 -0.78279258759E+03  0.13454959499E+04  0.21070147748E+03  0.15708407904E+04  0.46999998093E+01 0. -1.
</event>
<event>
 5   0  0.4017247E-06  0.2564449E+04  0.7818609E-02  0.8380378E-01
        2   -1    0    0  501    0  0.00000000000E+00  0.00000000000E+00  0.17693105737E+04  0.17693105737E+04  0.25500000920E-02 0.  1.
       -2   -1    0    0    0  501  0.00000000000E+00  0.00000000000E+00 -0.92923149932E+03  0.92923149933E+03  0.25500000920E-02 0. -1.
    10030    2    1    2    0    0  0.00000000000E+00  0.00000000000E+00  0.84007907434E+03  0.26985420730E+04  0.25644485701E+04 0.  0.
        1    1    3    3  502    0  0.85502361462E+03 -0.54684247944E+03  0.12445920849E+04  0.16059612501E+04  0.50400001928E-02 0.  1.
       -1    1    3    3    0  502 -0.85502361462E+03  0.54684247944E+03 -0.40451301056E+03  0.10925808229E+04  0.50400001928E-02 0. -1.
</event>
<event>
 5   0  0.3920487E-06  0.3256360E+04  0.7818609E-02  0.8174089E-01
        2   -1    0    0  501    0  0.00000000000E+00  0.00000000000E+00  0.21052199248E+04  0.21052199248E+04  0.25500000920E-02 0.  1.
       -2   -1    0    0    0  501  0.00000000000E+00  0.00000000000E+00 -0.12592366604E+04  0.12592366604E+04  0.25500000920E-02 0. -1.
    10030    2    1    2    0    0  0.00000000000E+00  0.00000000000E+00  0.84598326438E+03  0.33644565853E+04  0.32563599971E+04 0.  0.
        4    1    3    3  502    0  0.11716915014E+04 -0.11305282569E+04  0.41921225255E+03  0.16812779781E+04  0.12699999809E+01 0. -1.
       -4    1    3    3    0  502 -0.11716915014E+04  0.11305282569E+04  0.42677101183E+03  0.16831786072E+04  0.12699999809E+01 0.  1.
</event>
<event>
 5   0  0.1352708E-06  0.3280672E+04  0.7818609E-02  0.8167831E-01
       -1   -1    0    0    0  501  0.00000000000E+00  0.00000000000E+00  0.13092847811E+04  0.13092847811E+04  0.50400001928E-02 0.  1.
        1   -1    0    0  501    0  0.00000000000E+00  0.00000000000E+00 -0.20550929347E+04  0.20550929347E+04  0.50400001928E-02 0. -1.
    10030    2    1    2    0    0  0.00000000000E+00  0.00000000000E+00 -0.74580815352E+03  0.33643777158E+04  0.32806718234E+04 0.  0.
        5    1    3    3  502    0  0.45895202877E+02  0.53317372052E+03 -0.19630472078E+04  0.20346884321E+04  0.46999998093E+01 0. -1.
       -5    1    3    3    0  502 -0.45895202877E+02 -0.53317372052E+03  0.12172390542E+04  0.13296892837E+04  0.46999998093E+01 0.  1.
</event>
<event>
 5   0  0.3920487E-06  0.3374738E+04  0.7818609E-02  0.8144134E-01
        2   -1    0    0  501    0  0.00000000000E+00  0.00000000000E+00  0.23226090950E+04  0.23226090950E+04  0.25500000920E-02 0. -1.
       -2   -1    0    0    0  501  0.00000000000E+00  0.00000000000E+00 -0.12258688227E+04  0.12258688227E+04  0.25500000920E-02 0.  1.
    10030    2    1    2    0    0  0.00000000000E+00  0.00000000000E+00  0.10967402723E+04  0.35484779178E+04  0.33747379614E+04 0.  0.
        4    1    3    3  502    0 -0.95985724391E+03 -0.96325457678E+03 -0.50207464892E+03  0.14495743770E+04  0.12699999809E+01 0.  1.
       -4    1    3    3    0  502  0.95985724391E+03  0.96325457678E+03  0.15988149212E+04  0.20989035408E+04  0.12699999809E+01 0. -1.
</event>
<event>
 5   0  0.3812379E-06  0.3310135E+04  0.7818609E-02  0.8160321E-01
        2   -1    0    0  501    0  0.00000000000E+00  0.00000000000E+00  0.16765684177E+04  0.16765684177E+04  0.25500000920E-02 0. -1.
       -2   -1    0    0    0  501  0.00000000000E+00  0.00000000000E+00 -0.16338427649E+04  0.16338427649E+04  0.25500000920E-02 0.  1.
    10030    2    1    2    0    0  0.00000000000E+00  0.00000000000E+00  0.42725652775E+02  0.33104111826E+04  0.33101354529E+04 0.  0.
        5    1    3    3  502    0 -0.11366542940E+04 -0.10369998300E+04 -0.58850389167E+03  0.16473343777E+04  0.46999998093E+01 0.  1.
       -5    1    3    3    0  502  0.11366542940E+04  0.10369998300E+04  0.63122954445E+03  0.16630768049E+04  0.46999998093E+01 0. -1.
</event>
<event>
 5   0  0.4017247E-06  0.3321126E+04  0.7818609E-02  0.8157541E-01
       -2   -1    0    0    0  501  0.00000000000E+00  0.00000000000E+00  0.15697162008E+04  0.15697162008E+04  0.25500000920E-02 0.  1.
        2   -1    0    0  501    0  0.00000000000E+00  0.00000000000E+00 -0.17566676722E+04  0.17566676722E+04  0.25500000920E-02 0. -1.
    10030    2    1    2    0    0  0.00000000000E+00  0.00000000000E+00 -0.18695147137E+03  0.33263838730E+04  0.33211261371E+04 0.  0.
        1    1    3    3  502    0 -0.12787189379E+03  0.10314884642E+04 -0.13905742243E+04  0.17360922632E+04  0.50400001928E-02 0. -1.
       -1    1    3    3    0  502  0.12787189379E+03 -0.10314884642E+04  0.12036227529E+04  0.15902916099E+04  0.50400001928E-02 0.  1.
</event>
<event>
 5   0  0.1282578E-06  0.3339548E+04  0.7818609E-02  0.8152905E-01
       -1   -1    0    0    0  501  0.00000000000E+00  0.00000000000E+00  0.19667785550E+04  0.19667785550E+04  0.50400001928E-02 0.  1.
        1   -1    0    0  501    0  0.00000000000E+00  0.00000000000E+00 -0.14176204872E+04  0.14176204872E+04  0.50400001928E-02 0. -1.
    10030    2    1    2    0    0  0.00000000000E+00  0.00000000000E+00  0.54915806777E+03  0.33843990422E+04  0.33395482170E+04 0.  0.
        4    1    3    3  502    0  0.86353917880E+03 -0.12722183266E+04 -0.38524464652E+03  0.15851354625E+04  0.12699999809E+01 0. -1.
       -4    1    3    3    0  502 -0.86353917880E+03  0.12722183266E+04  0.93440271429E+03  0.17992635797E+04  0.12699999809E+01 0.  1.
</event>
<event>
 5   0  0.4017247E-06  0.3126179E+04  0.7818609E-02  0.8208590E-01
        2   -1    0    0  501    0  0.00000000000E+00  0.00000000000E+00  0.20234039479E+04  0.20234039479E+04  0.25500000920E-02 0. -1.
       -2   -1    0    0    0  501  0.00000000000E+00  0.00000000000E+00 -0.12074946834E+04  0.12074946834E+04  0.25500000920E-02 0.  1.
    10030    2    1    2    0    0  0.00000000000E+00  0.00000000000E+00  0.81590926452E+03  0.32308986313E+04  0.31261794634E+04 0.  0.
        1    1    3    3  502    0  0.10184434471E+04  0.61661760088E+03 -0.63879272310E+03  0.13511108259E+04  0.50400001928E-02 0.  1.
       -1    1    3    3    0  502 -0.10184434471E+04 -0.61661760088E+03  0.14547019876E+04  0.18797878054E+04  0.50400001928E-02 0. -1.
</event>
<event>
 5   0  0.1391878E-06  0.3310726E+04  0.7818609E-02  0.8160172E-01
        1   -1    0    0  501    0  0.00000000000E+00  0.00000000000E+00  0.14406103999E+04  0.14406103999E+04  0.50400001928E-02 0. -1.
       -1   -1    0    0    0  501  0.00000000000E+00  0.00000000000E+00 -0.19021287922E+04  0.19021287922E+04  0.50400001928E-02 0.  1.
    10030    2    1    2    0    0  0.00000000000E+00  0.00000000000E+00 -0.46151839228E+03  0.33427391921E+04  0.33107259143E+04 0.  0.
        2    1    3    3  502    0 -0.28610206034E+03 -0.13133381779E+04 -0.12062875718E+04  0.18060568276E+04  0.25500000920E-02 0.  1.
       -2    1    3    3    0  502  0.28610206034E+03  0.13133381779E+04  0.74476917951E+03  0.15366823645E+04  0.25500000920E-02 0. -1.
</event>
<event>
 5   0  0.3896210E-06  0.2622619E+04  0.7818609E-02  0.8360558E-01
        2   -1    0    0  501    0  0.00000000000E+00  0.00000000000E+00  0.19082630513E+04  0.19082630513E+04  0.25500000920E-02 0.  1.
       -2   -1    0    0    0  501  0.00000000000E+00  0.00000000000E+00 -0.90109837164E+03  0.90109837164E+03  0.25500000920E-02 0. -1.
    10030    2    1    2    0    0  0.00000000000E+00  0.00000000000E+00  0.10071646797E+04  0.28093614230E+04  0.26226190941E+04 0.  0.
        3    1    3    3  502    0 -0.10104716355E+04  0.39397916882E+03  0.12931263497E+04  0.16877346587E+04  0.10100000352E+00 0.  1.
       -3    1    3    3    0  502  0.10104716355E+04 -0.39397916882E+03 -0.28596167001E+03  0.11216267643E+04  0.10100000352E+00 0. -1.
</event>
<event>
 5   0  0.1282578E-06  0.3339482E+04  0.7818609E-02  0.8152921E-01
       -1   -1    0    0    0  501  0.00000000000E+00  0.00000000000E+00  0.17981514086E+04  0.17981514086E+04  0.50400001928E-02 0. -1.
        1   -1    0    0  501    0  0.00000000000E+00  0.00000000000E+00 -0.15505003236E+04  0.15505003236E+04  0.50400001928E-02 0.  1.
    10030    2    1    2    0    0  0.00000000000E+00  0.00000000000E+00  0.24765108501E+03  0.33486517322E+04  0.33394816010E+04 0.  0.
        4    1    3    3  502    0  0.98587783538E+03 -0.12511724035E+04  0.62584512308E+03  0.17114529560E+04  0.12699999809E+01 0. -1.
       -4    1    3    3    0  502 -0.98587783538E+03  0.12511724035E+04 -0.37819403808E+03  0.16371987762E+04  0.12699999809E+01 0.  1.
</event>
<event>
 5   0  0.1405389E-06  0.3024509E+04  0.7818609E-02  0.8236767E-01
       -1   -1    0    0    0  501  0.00000000000E+00  0.00000000000E+00  0.11060032596E+04  0.11060032596E+04  0.50400001928E-02 0. -1.
        1   -1    0    0  501    0  0.00000000000E+00  0.00000000000E+00 -0.20677282789E+04  0.20677282789E+04  0.50400001928E-02 0.  1.
    10030    2    1    2    0    0  0.00000000000E+00  0.00000000000E+00 -0.96172501933E+03  0.31737315385E+04  0.30245093595E+04 0.  0.
        1    1    3    3  502    0 -0.14141789983E+04  0.55477817737E+02 -0.10400070642E+04  0.17563014323E+04  0.50400001928E-02 0.  1.
       -1    1    3    3    0  502  0.14141789983E+04 -0.55477817737E+02  0.78282044822E+02  0.14174301062E+04  0.50400001928E-02 0. -1.
</event>
<event>
 5   0  0.4017247E-06  0.2752053E+04  0.7818609E-02  0.8318310E-01
        2   -1    0    0  501    0  0.00000000000E+00  0.00000000000E+00  0.17223874706E+04  0.17223874706E+04  0.25500000920E-02 0.  1.
       -2   -1    0    0    0  501  0.00000000000E+00  0.00000000000E+00 -0.10993165467E+04  0.10993165467E+04  0.25500000920E-02 0. -1.
    10030    2    1    2    0    0  0.00000000000E+00  0.00000000000E+00  0.62307092396E+03  0.28217040173E+04  0.27520530854E+04 0.  0.
        1    1    3    3  502    0 -0.53415493564E+03 -0.97415737695E+03  0.11439604644E+04  0.15946628592E+04  0.50400001928E-02 0.  1.
       -1    1    3    3    0  502  0.53415493564E+03  0.97415737695E+03 -0.52088954044E+03  0.12270411581E+04  0.50400001928E-02 0. -1.
</event>
<event>
 5   0  0.3920487E-06  0.3192178E+04  0.7818609E-02  0.8190886E-01
       -2   -1    0    0    0  501  0.00000000000E+00  0.00000000000E+00  0.16100885266E+04  0.16100885266E+04  0.25500000920E-02 0.  1.
        2   -1    0    0  501    0  0.00000000000E+00  0.00000000000E+00 -0.15822113347E+04  0.15822113348E+04  0.25500000920E-02 0. -1.
    10030    2    1    2    0    0  0.00000000000E+00  0.00000000000E+00  0.27877191885E+02  0.31922998614E+04  0.31921781384E+04 0.  0.
        4    1    3    3  502    0 -0.13366055583E+04 -0.85293908424E+03 -0.16904161420E+03  0.15945520312E+04  0.12699999809E+01 0. -1.
       -4    1    3    3    0  502  0.13366055583E+04  0.85293908424E+03  0.19691880608E+03  0.15977478302E+04  0.12699999809E+01 0.  1.
</event>
<event>
 5   0  0.1352708E-06  0.3347898E+04  0.7818609E-02  0.8150814E-01
        1   -1    0    0  501    0  0.00000000000E+00  0.00000000000E+00  0.24760964437E+04  0.24760964437E+04  0.50400001928E-02 0.  1.
       -1   -1    0    0    0  501  0.00000000000E+00  0.00000000000E+00 -0.11316621454E+04  0.11316621454E+04  0.50400001928E-02 0. -1.
    10030    2    1    2    0    0  0.00000000000E+00  0.00000000000E+00  0.13444342983E+04  0.36077585892E+04  0.33478976172E+04 0.  0.
        5    1    3    3  502    0  0.87486555805E+03  0.12131508718E+04  0.14821952610E+04  0.21057183250E+04  0.46999998093E+01 0.  1.
       -5    1    3    3    0  502 -0.87486555805E+03 -0.12131508718E+04 -0.13776096271E+03  0.15020402642E+04  0.46999998093E+01 0. -1.
</event>
<event>
 5   0  0.4017247E-06  0.3196935E+04  0.7818609E-02  0.8189627E-01
       -2   -1    0    0    0  501  0.00000000000E+00  0.00000000000E+00  0.15120337822E+04  0.15120337822E+04  0.25500000920E-02 0.  1.
        2   -1    0    0  501    0  0.00000000000E+00  0.00000000000E+00 -0.16898419533E+04  0.16898419533E+04  0.25500000920E-02 0. -1.
    10030    2    1    2    0    0  0.00000000000E+00  0.00000000000E+00 -0.17780817107E+03  0.32018757355E+04  0.31969348570E+04 0.  0.
        1    1    3    3  502    0 -0.11604300495E+04  0.43935990057E+02  0.10112332923E+04  0.15398444865E+04  0.50400001928E-02 0.  1.
       -1    1    3    3    0  502  0.11604300495E+04 -0.43935990057E+02 -0.11890414633E+04  0.16620312490E+04  0.50400001928E-02 0. -1.
</event>
<event>
 5   0  0.3896210E-06  0.3316630E+04  0.7818609E-02  0.8158677E-01
        2   -1    0    0  501    0  0.00000000000E+00  0.00000000000E+00  0.14296531290E+04  0.14296531290E+04  0.25500000920E-02 0.  1.
       -2   -1    0    0    0  501  0.00000000000E+00  0.00000000000E+00 -0.19235493328E+04  0.19235493328E+04  0.25500000920E-02 0. -1.
    10030    2    1    2    0    0  0.00000000000E+00  0.00000000000E+00 -0.49389620380E+03  0.33532024618E+04  0.33166298090E+04 0.  0.
        3    1    3    3  502    0 -0.10265389677E+04 -0.92666792176E+03 -0.11721967458E+04  0.18128819351E+04  0.10100000352E+00 0.  1.
       -3    1    3    3    0  502  0.10265389677E+04  0.92666792176E+03  0.67830054205E+03  0.15403205267E+04  0.10100000352E+00 0. -1.
</event>
<event>
 5   0  0.1405389E-06  0.2705412E+04  0.7818609E-02  0.8333251E-01
       -1   -1    0    0    0  501  0.00000000000E+00  0.00000000000E+00  0.12504948928E+04  0.12504948928E+04  0.50400001928E-02 0.  1.
        1   -1    0    0  501    0  0.00000000000E+00  0.00000000000E+00 -0.14632718588E+04  0.14632718588E+04  0.50400001928E-02 0. -1.
    10030    2    1    2    0    0  0.00000000000E+00  0.00000000000E+00 -0.21277696598E+03  0.27137667516E+04  0.27054123428E+04 0.  0.
        1    1    3    3  502    0  0.10783314400E+04 -0.64505503769E+03  0.39607681730E+03  0.13174868278E+04  0.50400001928E-02 0.  1.
       -1    1    3    3    0  502 -0.10783314400E+04  0.64505503769E+03 -0.60885378329E+03  0.13962799238E+04  0.50400001928E-02 0. -1.
</event>
<event>
 5   0  0.1405389E-06  0.3346204E+04  0.7818609E-02  0.8151237E-01
       -1   -1    0    0    0  501  0.00000000000E+00  0.00000000000E+00  0.16371438664E+04  0.16371438664E+04  0.50400001928E-02 0. -1.
        1   -1    0    0  501    0  0.00000000000E+00  0.00000000000E+00 -0.17098497706E+04  0.17098497706E+04  0.50400001928E-02 0.  1.
    10030    2    1    2    0    0  0.00000000000E+00  0.00000000000E+00 -0.72705904252E+02  0.33469936370E+04  0.33462038578E+04 0.  0.
        1    1    3    3  502    0  0.12121156702E+03 -0.84522351274E+03 -0.14755028279E+04  0.17047591107E+04  0.50400001928E-02 0.  1.
       -1    1    3    3    0  502 -0.12121156702E+03  0.84522351274E+03  0.14027969236E+04  0.16422345263E+04  0.50400001928E-02 0. -1.
</event>
<event>
 5   0  0.1339825E-06  0.3070916E+04  0.7818609E-02  0.8223765E-01
        1   -1    0    0  501    0  0.00000000000E+00  0.00000000000E+00  0.24735572160E+04  0.24735572160E+04  0.50400001928E-02 0.  1.
       -1   -1    0    0    0  501  0.00000000000E+00  0.00000000000E+00 -0.95313409490E+03  0.95313409491E+03  0.50400001928E-02 0. -1.
    10030    2    1    2    0    0  0.00000000000E+00  0.00000000000E+00  0.15204231211E+04  0.34266913109E+04  0.30709162921E+04 0.  0.
        3    1    3    3  502    0  0.14337479389E+04 -0.29765936427E+02  0.14790145165E+03  0.14416636268E+04  0.10100000352E+00 0. -1.
       -3    1    3    3    0  502 -0.14337479389E+04  0.29765936427E+02  0.13725216695E+04  0.19850276841E+04  0.10100000352E+00 0.  1.
</event>
<event>
 5   0  0.1352708E-06  0.3260673E+04  0.7818609E-02  0.8172975E-01
       -1   -1    0    0    0  501  0.00000000000E+00  0.00000000000E+00  0.11020562723E+04  0.11020562723E+04  0.50400001928E-02 0. -1.
        1   -1    0    0  501    0  0.00000000000E+00  0.00000000000E+00 -0.24118518855E+04  0.24118518855E+04  0.50400001928E-02 0.  1.
    10030    2    1    2    0    0  0.00000000000E+00  0.00000000000E+00 -0.13097956132E+04  0.35139081578E+04  0.32606726289E+04 0.  0.
        5    1    3    3  502    0  0.15516019631E+04  0.23738550890E+03 -0.11297475869E+04  0.19339524896E+04  0.46999998093E+01 0. -1.
       -5    1    3    3    0  502 -0.15516019631E+04 -0.23738550890E+03 -0.18004802625E+03  0.15799556682E+04  0.46999998093E+01 0.  1.
</event>
<event>
 5   0  0.1352708E-06  0.3256355E+04  0.7818609E-02  0.8174091E-01
       -1   -1    0    0    0  501  0.00000000000E+00  0.00000000000E+00  0.16510680762E+04  0.16510680762E+04  0.50400001928E-02 0.  1.
        1   -1    0    0  501    0  0.00000000000E+00  0.00000000000E+00 -0.16056038656E+04  0.16056038656E+04  0.50400001928E-02 0. -1.
    10030    2    1    2    0    0  0.00000000000E+00  0.00000000000E+00  0.45464210598E+02  0.32566719417E+04  0.32563545786E+04 0.  0.
        5    1    3    3  502    0  0.33549604160E+03  0.60596631221E+03 -0.14509061328E+04  0.16077634968E+04  0.46999998093E+01 0. -1.
       -5    1    3    3    0  502 -0.33549604160E+03 -0.60596631221E+03  0.14963703434E+04  0.16489084450E+04  0.46999998093E+01 0.  1.
</event>
<event>
 5   0  0.3920487E-06  0.3183345E+04  0.7818609E-02  0.8193230E-01
        2   -1    0    0  501    0  0.00000000000E+00  0.00000000000E+00  0.22781535177E+04  0.22781535177E+04  0.25500000920E-02 0.  1.
       -2   -1    0    0    0  501  0.00000000000E+00  0.00000000000E+00 -0.11120502528E+04  0.11120502528E+04  0.25500000920E-02 0. -1.
    10030    2    1    2    0    0  0.00000000000E+00  0.00000000000E+00  0.11661032649E+04  0.33902037705E+04  0.31833449045E+04 0.  0.
        4    1    3    3  502    0  0.47443558059E+03  0.23332667691E+03  0.21819040613E+04  0.22450473055E+04  0.12699999809E+01 0.  1.
       -4    1    3    3    0  502 -0.47443558059E+03 -0.23332667691E+03 -0.10158007965E+04  0.11451564650E+04  0.12699999809E+01 0. -1.
</event>
<event>
 5   0  0.4017247E-06  0.3370272E+04  0.7818609E-02  0.8145241E-01
        2   -1    0    0  501    0  0.00000000000E+00  0.00000000000E+00  0.11850911079E+04  0.11850911079E+04  0.25500000920E-02 0. -1.
       -2   -1    0    0    0  501  0.00000000000E+00  0.00000000000E+00 -0.23961729706E+04  0.23961729706E+04  0.25500000920E-02 0.  1.
    10030    2    1    2    0    0  0.00000000000E+00  0.00000000000E+00 -0.12110818626E+04  0.35812640785E+04  0.33702719656E+04 0.  0.
        1    1    3    3  502    0  0.59013111956E+03 -0.87401519471E+03  0.79109654895E+03  0.13183288849E+04  0.50400001928E-02 0. -1.
       -1    1    3    3    0  502 -0.59013111956E+03  0.87401519471E+03 -0.20021784116E+04  0.22629351937E+04  0.50400001928E-02 0.  1.
</event>
<event>
 5   0  0.1391878E-06  0.3286730E+04  0.7818609E-02  0.8166280E-01
        1   -1    0    0  501    0  0.00000000000E+00  0.00000000000E+00  0.13025558146E+04  0.13025558146E+04  0.50400001928E-02 0.  1.
       -1   -1    0    0    0  501  0.00000000000E+00  0.00000000000E+00 -0.20733452390E+04  0.20733452390E+04  0.50400001928E-02 0. -1.
    10030    2    1    2    0    0  0.00000000000E+00  0.00000000000E+00 -0.77078942442E+03  0.33759010536E+04  0.32867296188E+04 0.  0.
        2    1    3    3  502    0 -0.17153456953E+03 -0.10418169849E+04 -0.16788623676E+04  0.19832764779E+04  0.25500000920E-02 0. -1.
       -2    1    3    3    0  502  0.17153456953E+03  0.10418169849E+04  0.90807294316E+03  0.13926245757E+04  0.25500000920E-02 0.  1.
</event>
<event>
 5   0  0.3812379E-06  0.2355568E+04  0.7818609E-02  0.8456328E-01
       -2   -1    0    0    0  501  0.00000000000E+00  0.00000000000E+00  0.10867249885E+04  0.10867249885E+04  0.25500000920E-02 0.  1.
        2   -1    0    0  501    0  0.00000000000E+00  0.00000000000E+00 -0.12764735059E+04  0.12764735059E+04  0.25500000920E-02 0. -1.
    10030    2    1    2    0    0  0.00000000000E+00  0.00000000000E+00 -0.18974851742E+03  0.23631984945E+04  0.23555684292E+04 0.  0.
        5    1    3    3  502    0 -0.10327858098E+03 -0.11621492798E+04 -0.25631832822E+03  0.11945620910E+04  0.46999998093E+01 0. -1.
       -5    1    3    3    0  502  0.10327858098E+03  0.11621492798E+04  0.66569810802E+02  0.11686364035E+04  0.46999998093E+01 0.  1.
</event>
<event>
 5   0  0.1391878E-06  0.3292841E+04  0.7818609E-02  0.8164719E-01
        1   -1    0    0  501    0  0.00000000000E+00  0.00000000000E+00  0.13304284089E+04  0.13304284090E+04  0.50400001928E-02 0.  1.
       -1   -1    0    0    0  501  0.00000000000E+00  0.00000000000E+00 -0.20374638794E+04  0.20374638794E+04  0.50400001928E-02 0. -1.
    10030    2    1    2    0    0  0.00000000000E+00  0.00000000000E+00 -0.70703547048E+03  0.33678922884E+04  0.32928406141E+04 0.  0.
        2    1    3    3  502    0 -0.37501265184E+03 -0.13820962665E+04  0.47732418931E+03  0.15095240841E+04  0.25500000920E-02 0.  1.
       -2    1    3    3    0  502  0.37501265184E+03  0.13820962665E+04 -0.11843596598E+04  0.18583682043E+04  0.25500000920E-02 0. -1.
</event>
<event>
 5   0  0.3671997E-06  0.3275882E+04  0.7818609E-02  0.8169060E-01
       -2   -1    0    0    0  501  0.00000000000E+00  0.00000000000E+00  0.17157519882E+04  0.17157519882E+04  0.25500000920E-02 0. -1.
        2   -1    0    0  501    0  0.00000000000E+00  0.00000000000E+00 -0.15636583922E+04  0.15636583922E+04  0.25500000920E-02 0.  1.
    10030    2    1    2    0    0  0.00000000000E+00  0.00000000000E+00  0.15209359603E+03  0.32794103804E+04  0.32758815579E+04 0.  0.
        2    1    3    3  502    0  0.11170159746E+04  0.11876755390E+04  0.23290675474E+03  0.16469800940E+04  0.25500000920E-02 0.  1.
       -2    1    3    3    0  502 -0.11170159746E+04 -0.11876755390E+04 -0.80813158707E+02  0.16324302865E+04  0.25500000920E-02 0. -1.
</event>
<event>
 5   0  0.3896210E-06  0.3256174E+04  0.7818609E-02  0.8174137E-01
        2   -1    0    0  501    0  0.00000000000E+00  0.00000000000E+00  0.20930076174E+04  0.20930076174E+04  0.25500000920E-02 0.  1.
       -2   -1    0    0    0  501  0.00000000000E+00  0.00000000000E+00 -0.12664395187E+04  0.12664395187E+04  0.25500000920E-02 0. -1.
    10030    2    1    2    0    0  0.00000000000E+00  0.00000000000E+00  0.82656809876E+03  0.33594471361E+04  0.32561741720E+04 0.  0.
        3    1    3    3  502    0  0.11904874952E+04 -0.49099675478E+03 -0.61446736459E+03  0.14268526349E+04  0.10100000352E+00 0. -1.
       -3    1    3    3    0  502 -0.11904874952E+04  0.49099675478E+03  0.14410354633E+04  0.19325945012E+04  0.10100000352E+00 0.  1.
</event>
<event>
 5   0  0.4017247E-06  0.2942257E+04  0.7818609E-02  0.8260415E-01
       -2   -1    0    0    0  501  0.00000000000E+00  0.00000000000E+00  0.14198779720E+04  0.14198779720E+04  0.25500000920E-02 0.  1.
        2   -1    0    0  501    0  0.00000000000E+00  0.00000000000E+00 -0.15242292966E+04  0.15242292966E+04  0.25500000920E-02 0. -1.
    10030    2    1    2    0    0  0.00000000000E+00  0.00000000000E+00 -0.10435132454E+03  0.29441072686E+04  0.29422573664E+04 0.  0.
        1    1    3    3  502    0 -0.11789654438E+04 -0.16843553752E+02  0.82813674742E+03  0.14408517257E+04  0.50400001928E-02 0.  1.
       -1    1    3    3    0  502  0.11789654438E+04  0.16843553752E+02 -0.93248807196E+03  0.15032555429E+04  0.50400001928E-02 0. -1.
</event>
<event>
 5   0  0.3920487E-06  0.3241468E+04  0.7818609E-02  0.8177951E-01
        2   -1    0    0  501    0  0.00000000000E+00  0.00000000000E+00  0.11318305877E+04  0.11318305877E+04  0.25500000920E-02 0.  1.
       -2   -1    0    0    0  501  0.00000000000E+00  0.00000000000E+00 -0.23208232270E+04  0.23208232270E+04  0.25500000920E-02 0. -1.
    10030    2    1    2    0    0  0.00000000000E+00  0.00000000000E+00 -0.11889926393E+04  0.34526538147E+04  0.32414680112E+04 0.  0.
        4    1    3    3  502    0  0.94306358823E+03 -0.45429737756E+03 -0.19124556841E+04  0.21801934307E+04  0.12699999809E+01 0. -1.
       -4    1    3    3    0  502 -0.94306358823E+03  0.45429737756E+03  0.72346304478E+03  0.12724603840E+04  0.12699999809E+01 0.  1.
</event>
<event>
 5   0  0.1352708E-06  0.3288295E+04  0.7818609E-02  0.8165880E-01
       -1   -1    0    0    0  501  0.00000000000E+00  0.00000000000E+00  0.18331173761E+04  0.18331173761E+04  0.50400001928E-02 0.  1.
        1   -1    0    0  501    0  0.00000000000E+00  0.00000000000E+00 -0.14746576562E+04  0.14746576562E+04  0.50400001928E-02 0. -1.
    10030    2    1    2    0    0  0.00000000000E+00  0.00000000000E+00  0.35845971990E+03  0.33077750323E+04  0.32882947395E+04 0.  0.
        5    1    3    3  502    0 -0.13046245938E+04 -0.36375335742E+03  0.11168659013E+04  0.17554980397E+04  0.46999998093E+01 0.  1.
       -5    1    3    3    0  502  0.13046245938E+04  0.36375335742E+03 -0.75840618141E+03  0.15522769926E+04  0.46999998093E+01 0. -1.
</event>
<event>
 5   0  0.1282578E-06  0.3302760E+04  0.7818609E-02  0.8162193E-01
       -1   -1    0    0    0  501  0.00000000000E+00  0.00000000000E+00  0.10709397309E+04  0.10709397309E+04  0.50400001928E-02 0. -1.
        1   -1    0    0  501    0  0.00000000000E+00  0.00000000000E+00 -0.25464139060E+04  0.25464139060E+04  0.50400001928E-02 0.  1.
    10030    2    1    2    0    0  0.00000000000E+00  0.00000000000E+00 -0.14754741751E+04  0.36173536369E+04  0.33027599508E+04 0.  0.
        4    1    3    3  502    0 -0.12615396533E+04  0.35339369733E+03  0.36335039918E+03  0.13595567394E+04  0.12699999809E+01 0. -1.
       -4    1    3    3    0  502  0.12615396533E+04 -0.35339369733E+03 -0.18388245743E+04  0.22577968975E+04  0.12699999809E+01 0.  1.
</event>
<event>
 5   0  0.1352708E-06  0.2929763E+04  0.7818609E-02  0.8264077E-01
       -1   -1    0    0    0  501  0.00000000000E+00  0.00000000000E+00  0.90665407398E+03  0.90665407399E+03  0.50400001928E-02 0.  1.
        1   -1    0    0  501    0  0.00000000000E+00  0.00000000000E+00 -0.23668099449E+04  0.23668099449E+04  0.50400001928E-02 0. -1.
    10030    2    1    2    0    0  0.00000000000E+00  0.00000000000E+00 -0.14601558709E+04  0.32734640189E+04  0.29297630477E+04 0.  0.
        5    1    3    3  502    0  0.12784565261E+04 -0.14416854882E+03 -0.15126921936E+04  0.19858236131E+04  0.46999998093E+01 0. -1.
       -5    1    3    3    0  502 -0.12784565261E+04  0.14416854882E+03  0.52536322723E+02  0.12876404058E+04  0.46999998093E+01 0.  1.
</event>
<event>
 5   0  0.3896210E-06  0.3260996E+04  0.7818609E-02  0.8172891E-01
        2   -1    0    0  501    0  0.00000000000E+00  0.00000000000E+00  0.22892203112E+04  0.22892203112E+04  0.25500000920E-02 0.  1.
       -2   -1    0    0    0  501  0.00000000000E+00  0.00000000000E+00 -0.11613231129E+04  0.11613231129E+04  0.25500000920E-02 0. -1.
    10030    2    1    2    0    0  0.00000000000E+00  0.00000000000E+00  0.11278971983E+04  0.34505434242E+04  0.32609964477E+04 0.  0.
        3    1    3    3  502    0 -0.13404365529E+04 -0.25109925345E+03 -0.38170037235E+03  0.14161624807E+04  0.10100000352E+00 0.  1.
       -3    1    3    3    0  502  0.13404365529E+04  0.25109925345E+03  0.15095975707E+04  0.20343809434E+04  0.10100000352E+00 0. -1.
</event>
<event>
 5   0  0.3671997E-06  0.3324827E+04  0.7818609E-02  0.8156607E-01
        2   -1    0    0  501    0  0.00000000000E+00  0.00000000000E+00  0.15498805951E+04  0.15498805951E+04  0.25500000920E-02 0.  1.
       -2   -1    0    0    0  501  0.00000000000E+00  0.00000000000E+00 -0.17831166471E+04  0.17831166471E+04  0.25500000920E-02 0. -1.
    10030    2    1    2    0    0  0.00000000000E+00  0.00000000000E+00 -0.23323605207E+03  0.33329972422E+04  0.33248265459E+04 0.  0.
        2    1    3    3  502    0 -0.37795489939E+03  0.15844034834E+04 -0.44975017644E+03  0.16898104998E+04  0.25500000920E-02 0. -1.
       -2    1    3    3    0  502  0.37795489939E+03 -0.15844034834E+04  0.21651412436E+03  0.16431867423E+04  0.25500000920E-02 0.  1.
</event>
<event>
 5   0  0.3812379E-06  0.2391663E+04  0.7818609E-02  0.8442632E-01
        2   -1    0    0  501    0  0.00000000000E+00  0.00000000000E+00  0.24596151766E+04  0.24596151767E+04  0.25500000920E-02 0. -1.
       -2   -1    0    0    0  501  0.00000000000E+00  0.00000000000E+00 -0.58139679961E+03  0.58139679961E+03  0.25500000920E-02 0.  1.
    10030    2    1    2    0    0  0.00000000000E+00  0.00000000000E+00  0.18782183770E+04  0.30410119763E+04  0.23916625113E+04 0.  0.
        5    1    3    3  502    0  0.10101403449E+04 -0.90927364190E+02  0.13359366105E+03  0.10229959229E+04  0.46999998093E+01 0.  1.
       -5    1    3    3    0  502 -0.10101403449E+04  0.90927364190E+02  0.17446247160E+04  0.20180160534E+04  0.46999998093E+01 0. -1.
</event>
<event>
 5   0  0.1282578E-06  0.2231325E+04  0.7818609E-02  0.8505502E-01
        1   -1    0    0  501    0  0.00000000000E+00  0.00000000000E+00  0.17172522630E+04  0.17172522630E+04  0.50400001928E-02 0. -1.
       -1   -1    0    0    0  501  0.00000000000E+00  0.00000000000E+00 -0.72482212286E+03  0.72482212287E+03  0.50400001928E-02 0.  1.
    10030    2    1    2    0    0  0.00000000000E+00  0.00000000000E+00  0.99243014018E+03  0.24420743859E+04  0.22313246566E+04 0.  0.
        4    1    3    3  502    0  0.53479827597E+03  0.11174632770E+03  0.15608203140E+04  0.16536801696E+04  0.12699999809E+01 0. -1.
       -4    1    3    3    0  502 -0.53479827597E+03 -0.11174632770E+03 -0.56839017383E+03  0.78839421633E+03  0.12699999809E+01 0.  1.
</event>
<event>
 5   0  0.1405389E-06  0.3311193E+04  0.7818609E-02  0.8160053E-01
        1   -1    0    0  501    0  0.00000000000E+00  0.00000000000E+00  0.16690946493E+04  0.16690946493E+04  0.50400001928E-02 0.  1.
       -1   -1    0    0    0  501  0.00000000000E+00  0.00000000000E+00 -0.16422073770E+04  0.16422073770E+04  0.50400001928E-02 0. -1.
    10030    2    1    2    0    0  0.00000000000E+00  0.00000000000E+00  0.26887272295E+02  0.33113020263E+04  0.33111928642E+04 0.  0.
        1    1    3    3  502    0 -0.10090967231E+04 -0.12219131576E+04 -0.46579192913E+03  0.16517596928E+04  0.50400001928E-02 0. -1.
       -1    1    3    3    0  502  0.10090967231E+04  0.12219131576E+04  0.49267920142E+03  0.16595423336E+04  0.50400001928E-02 0.  1.
</event>
<event>
 5   0  0.3671997E-06  0.3320134E+04  0.7818609E-02  0.8157791E-01
       -2   -1    0    0    0  501  0.00000000000E+00  0.00000000000E+00  0.12084385314E+04  0.12084385314E+04  0.25500000920E-02 0.  1.
        2   -1    0    0  501    0  0.00000000000E+00  0.00000000000E+00 -0.22804827383E+04  0.22804827383E+04  0.25500000920E-02 0. -1.
    10030    2    1    2    0    0  0.00000000000E+00  0.00000000000E+00 -0.10720442069E+04  0.34889212697E+04  0.33201344619E+04 0.  0.
        2    1    3    3  502    0 -0.55077125103E+03  0.13921303050E+04 -0.12897351070E+04  0.19760547571E+04  0.25500000920E-02 0. -1.
       -2    1    3    3    0  502  0.55077125103E+03 -0.13921303050E+04  0.21769090012E+03  0.15128665126E+04  0.25500000920E-02 0.  1.
</event>
<event>
 5   0  0.1282578E-06  0.2169989E+04  0.7818609E-02  0.8531024E-01
        1   -1    0    0  501    0  0.00000000000E+00  0.00000000000E+00  0.13734485572E+04  0.13734485572E+04  0.50400001928E-02 0.  1.
       -1   -1    0    0    0  501  0.00000000000E+00  0.00000000000E+00 -0.85712178967E+03  0.85712178969E+03  0.50400001928E-02 0. -1.
    10030    2    1    2    0    0  0.00000000000E+00  0.00000000000E+00  0.51632676753E+03  0.22305703469E+04  0.21699886501E+04 0.  0.
        4    1    3    3  502    0 -0.72481287129E+03 -0.77727594062E+03  0.33663917520E+02  0.10633186063E+04  0.12699999809E+01 0.  1.
       -4    1    3    3    0  502  0.72481287129E+03  0.77727594062E+03  0.48266285001E+03  0.11672517406E+04  0.12699999809E+01 0. -1.
</event>
<event>
 5   0  0.3920487E-06  0.3353164E+04  0.7818609E-02  0.8149498E-01
        2   -1    0    0  501    0  0.00000000000E+00  0.00000000000E+00  0.20685456831E+04  0.20685456831E+04  0.25500000920E-02 0. -1.
       -2   -1    0    0    0  501  0.00000000000E+00  0.00000000000E+00 -0.13588902970E+04  0.13588902970E+04  0.25500000920E-02 0.  1.
    10030    2    1    2    0    0  0.00000000000E+00  0.00000000000E+00  0.70965538606E+03  0.34274359801E+04  0.33531636749E+04 0.  0.
        4    1    3    3  502    0 -0.12538651621E+04  0.10932743191E+04  0.14164519060E+03  0.16695782564E+04  0.12699999809E+01 0.  1.
       -4    1    3    3    0  502  0.12538651621E+04 -0.10932743191E+04  0.56801019545E+03  0.17578577236E+04  0.12699999809E+01 0. -1.
</event>
<event>
 5   0  0.1352708E-06  0.3277230E+04  0.7818609E-02  0.8168713E-01
       -1   -1    0    0    0  501  0.00000000000E+00  0.00000000000E+00  0.10762543727E+04  0.10762543727E+04  0.50400001928E-02 0.  1.
        1   -1    0    0  501    0  0.00000000000E+00  0.00000000000E+00 -0.24948189076E+04  0.24948189076E+04  0.50400001928E-02 0. -1.
    10030    2    1    2    0    0  0.00000000000E+00  0.00000000000E+00 -0.14185645350E+04  0.35710732803E+04  0.32772303907E+04 0.  0.
        5    1    3    3  502    0  0.11487738763E+04  0.81023892009E+03 -0.16267162533E+04  0.21499759035E+04  0.46999998093E+01 0. -1.
       -5    1    3    3    0  502 -0.11487738763E+04 -0.81023892009E+03  0.20815171837E+03  0.14210973768E+04  0.46999998093E+01 0.  1.
</event>
<event>
 5   0  0.3896210E-06  0.3288465E+04  0.7818609E-02  0.8165837E-01
       -2   -1    0    0    0  501  0.00000000000E+00  0.00000000000E+00  0.21308385512E+04  0.21308385512E+04  0.25500000920E-02 0.  1.
        2   -1    0    0  501    0  0.00000000000E+00  0.00000000000E+00 -0.12687497998E+04  0.12687497998E+04  0.25500000920E-02 0. -1.
    10030    2    1    2    0    0  0.00000000000E+00  0.00000000000E+00  0.86208875147E+03  0.33995883510E+04  0.32884652865E+04 0.  0.
        3    1    3    3  502    0 -0.14783585316E+04 -0.71961171953E+03  0.44217865807E+03  0.17026176760E+04  0.10100000352E+00 0. -1.
       -3    1    3    3    0  502  0.14783585316E+04  0.71961171953E+03  0.41991009340E+03  0.16969706750E+04  0.10100000352E+00 0.  1.
</event>
<event>
 5   0  0.4017247E-06  0.3267075E+04  0.7818609E-02  0.8171324E-01
        2   -1    0    0  501    0  0.00000000000E+00  0.00000000000E+00  0.17701726344E+04  0.17701726344E+04  0.25500000920E-02 0.  1.
       -2   -1    0    0    0  501  0.00000000000E+00  0.00000000000E+00 -0.15074493223E+04  0.15074493223E+04  0.25500000920E-02 0. -1.
    10030    2    1    2    0    0  0.00000000000E+00  0.00000000000E+00  0.26272331211E+03  0.32776219566E+04  0.32670754738E+04 0.  0.
        1    1    3    3  502    0 -0.30472724672E+03 -0.45454875148E+03 -0.14127534865E+04  0.15150398266E+04  0.50400001928E-02 0. -1.
       -1    1    3    3    0  502  0.30472724672E+03  0.45454875148E+03  0.16754767986E+04  0.17625821301E+04  0.50400001928E-02 0.  1.
</event>
<event>
 5   0  0.1339825E-06  0.2276225E+04  0.7818609E-02  0.8487355E-01
        1   -1    0    0  501    0  0.00000000000E+00  0.00000000000E+00  0.12685571536E+04  0.12685571537E+04  0.50400001928E-02 0. -1.
       -1   -1    0    0    0  501  0.00000000000E+00  0.00000000000E+00 -0.10210815992E+04  0.10210815992E+04  0.50400001928E-02 0.  1.
    10030    2    1    2    0    0  0.00000000000E+00  0.00000000000E+00  0.24747555441E+03  0.22896387529E+04  0.22762252676E+04 0.  0.
        3    1    3    3  502    0 -0.23956031600E+02  0.50426548756E+03 -0.90229403952E+03  0.10339207500E+04  0.10100000352E+00 0.  1.
       -3    1    3    3    0  502  0.23956031600E+02 -0.50426548756E+03  0.11497695939E+04  0.12557180029E+04  0.10100000352E+00 0. -1.
</event>
<event>
 5   0  0.1282578E-06  0.3236227E+04  0.7818609E-02  0.8179315E-01
        1   -1    0    0  501    0  0.00000000000E+00  0.00000000000E+00  0.98219814678E+03  0.98219814679E+03  0.50400001928E-02 0. -1.
       -1   -1    0    0    0  501  0.00000000000E+00  0.00000000000E+00 -0.26657461684E+04  0.26657461684E+04  0.50400001928E-02 0.  1.
    10030    2    1    2    0    0  0.00000000000E+00  0.00000000000E+00 -0.16835480216E+04  0.36479443152E+04  0.32362267822E+04 0.  0.
        4    1    3    3  502    0 -0.13200941239E+04 -0.46345147160E+03 -0.17581250427E+04  0.22468736148E+04  0.12699999809E+01 0.  1.
       -4    1    3    3    0  502  0.13200941239E+04  0.46345147160E+03  0.74577021097E+02  0.14010707003E+04  0.12699999809E+01 0. -1.
</event>
<event>
 5   0  0.1282578E-06  0.3283158E+04  0.7818609E-02  0.8167194E-01
        1   -1    0    0  501    0  0.00000000000E+00  0.00000000000E+00  0.11900264723E+04  0.11900264723E+04  0.50400001928E-02 0. -1.
       -1   -1    0    0    0  501  0.00000000000E+00  0.00000000000E+00 -0.22644718973E+04  0.22644718974E+04  0.50400001928E-02 0.  1.
    10030    2    1    2    0    0  0.00000000000E+00  0.00000000000E+00 -0.10744454250E+04  0.34544983697E+04  0.32831579333E+04 0.  0.
        4    1    3    3  502    0 -0.14602694480E+04  0.99517983299E+02  0.24486437265E+03  0.14839982694E+04  0.12699999809E+01 0.  1.
       -4    1    3    3    0  502  0.14602694480E+04 -0.99517983299E+02 -0.13193097977E+04  0.19705001002E+04  0.12699999809E+01 0. -1.
</event>
<event>
 5   0  0.1282578E-06  0.3389621E+04  0.7818609E-02  0.8140458E-01
       -1   -1    0    0    0  501  0.00000000000E+00  0.00000000000E+00  0.13009072537E+04  0.13009072537E+04  0.50400001928E-02 0. -1.
        1   -1    0    0  501    0  0.00000000000E+00  0.00000000000E+00 -0.22079842695E+04  0.22079842695E+04  0.50400001928E-02 0.  1.
    10030    2    1    2    0    0  0.00000000000E+00  0.00000000000E+00 -0.90707701575E+03  0.35088915232E+04  0.33896210716E+04 0.  0.
        4    1    3    3  502    0  0.14554287462E+04  0.36269463080E+03 -0.12703271974E+04  0.19655922853E+04  0.12699999809E+01 0.  1.
       -4    1    3    3    0  502 -0.14554287462E+04 -0.36269463080E+03  0.36325018161E+03  0.15432992380E+04  0.12699999809E+01 0. -1.
</event>
<event>
 5   0  0.1339825E-06  0.3251920E+04  0.7818609E-02  0.8175238E-01
        1   -1    0    0  501    0  0.00000000000E+00  0.00000000000E+00  0.19996842147E+04  0.19996842147E+04  0.50400001928E-02 0.  1.
       -1   -1    0    0    0  501  0.00000000000E+00  0.00000000000E+00 -0.13220818993E+04  0.13220818994E+04  0.50400001928E-02 0. -1.
    10030    2    1    2    0    0  0.00000000000E+00  0.00000000000E+00  0.67760231536E+03  0.33217661141E+04  0.32519202356E+04 0.  0.
        3    1    3    3  502    0  0.96173055647E+03  0.10769471492E+04 -0.42492417151E+03  0.15050918202E+04  0.10100000352E+00 0. -1.
       -3    1    3    3    0  502 -0.96173055647E+03 -0.10769471492E+04  0.11025264869E+04  0.18166742939E+04  0.10100000352E+00 0.  1.
</event>
<event>
 5   0  0.3812379E-06  0.3256528E+04  0.7818609E-02  0.8174046E-01
       -2   -1    0    0    0  501  0.00000000000E+00  0.00000000000E+00  0.11273256823E+04  0.11273256823E+04  0.25500000920E-02 0. -1.
        2   -1    0    0  501    0  0.00000000000E+00  0.00000000000E+00 -0.23517993250E+04  0.23517993250E+04  0.25500000920E-02 0.  1.
    10030    2    1    2    0    0  0.00000000000E+00  0.00000000000E+00 -0.12244736427E+04  0.34791250073E+04  0.32565280767E+04 0.  0.
        5    1    3    3  502    0  0.13738558805E+04 -0.14366399584E+02 -0.15457700285E+04  0.20681183343E+04  0.46999998093E+01 0. -1.
       -5    1    3    3    0  502 -0.13738558805E+04  0.14366399584E+02  0.32129638577E+03  0.14110066730E+04  0.46999998093E+01 0.  1.
</event>
<event>
 5   0  0.3671997E-06  0.3291041E+04  0.7818609E-02  0.8165179E-01
       -2   -1    0    0    0  501  0.00000000000E+00  0.00000000000E+00  0.15187678196E+04  0.15187678196E+04  0.25500000920E-02 0. -1.
        2   -1    0    0  501    0  0.00000000000E+00  0.00000000000E+00 -0.17828515974E+04  0.17828515974E+04  0.25500000920E-02 0.  1.
    10030    2    1    2    0    0  0.00000000000E+00  0.00000000000E+00 -0.26408377781E+03  0.33016194170E+04  0.32910409498E+04 0.  0.
        2    1    3    3  502    0 -0.16119228748E+04  0.90037610088E+02 -0.45139749771E+03  0.16763537295E+04  0.25500000920E-02 0.  1.
       -2    1    3    3    0  502  0.16119228748E+04 -0.90037610088E+02  0.18731371990E+03  0.16252656875E+04  0.25500000920E-02 0. -1.
</event>
<event>
 5   0  0.1391878E-06  0.3285461E+04  0.7818609E-02  0.8166605E-01
       -1   -1    0    0    0  501  0.00000000000E+00  0.00000000000E+00  0.11129691591E+04  0.11129691591E+04  0.50400001928E-02 0. -1.
        1   -1    0    0  501    0  0.00000000000E+00  0.00000000000E+00 -0.24246529591E+04  0.24246529591E+04  0.50400001928E-02 0.  1.
    10030    2    1    2    0    0  0.00000000000E+00  0.00000000000E+00 -0.13116838000E+04  0.35376221182E+04  0.32854612857E+04 0.  0.
        2    1    3    3  502    0  0.48187315072E+03  0.14522058461E+04 -0.12996094215E+04  0.20075079579E+04  0.25500000920E-02 0. -1.
       -2    1    3    3    0  502 -0.48187315072E+03 -0.14522058461E+04 -0.12074378513E+02  0.15301141602E+04  0.25500000920E-02 0.  1.
</event>
<event>
 5   0  0.1405389E-06  0.3231373E+04  0.7818609E-02  0.8180581E-01
       -1   -1    0    0    0  501  0.00000000000E+00  0.00000000000E+00  0.10910196596E+04  0.10910196596E+04  0.50400001928E-02 0. -1.
        1   -1    0    0  501    0  0.00000000000E+00  0.00000000000E+00 -0.23926628558E+04  0.23926628558E+04  0.50400001928E-02 0.  1.
    10030    2    1    2    0    0  0.00000000000E+00  0.00000000000E+00 -0.13016431962E+04  0.34836825155E+04  0.32313725966E+04 0.  0.
        1    1    3    3  502    0  0.15397456475E+04 -0.46722911308E+03 -0.80824551315E+03  0.18006611321E+04  0.50400001928E-02 0.  1.
       -1    1    3    3    0  502 -0.15397456475E+04  0.46722911308E+03 -0.49339768308E+03  0.16830213834E+04  0.50400001928E-02 0. -1.
</event>
<event>
 5   0  0.1339825E-06  0.3333135E+04  0.7818609E-02  0.8154515E-01
        1   -1    0    0  501    0  0.00000000000E+00  0.00000000000E+00  0.20867969497E+04  0.20867969497E+04  0.50400001928E-02 0. -1.
       -1   -1    0    0    0  501  0.00000000000E+00  0.00000000000E+00 -0.13309621368E+04  0.13309621368E+04  0.50400001928E-02 0.  1.
    10030    2    1    2    0    0  0.00000000000E+00  0.00000000000E+00  0.75583481288E+03  0.34177590866E+04  0.33331352972E+04 0.  0.
        3    1    3    3  502    0  0.43658362150E+03  0.14836986746E+04  0.10145513998E+04  0.18496706649E+04  0.10100000352E+00 0. -1.
       -3    1    3    3    0  502 -0.43658362150E+03 -0.14836986746E+04 -0.25871658689E+03  0.15680884217E+04  0.10100000352E+00 0.  1.
</event>
<event>
 5   0  0.1405389E-06  0.3260087E+04  0.7818609E-02  0.8173126E-01
       -1   -1    0    0    0  501  0.00000000000E+00  0.00000000000E+00  0.15445598419E+04  0.15445598420E+04  0.50400001928E-02 0.  1.
        1   -1    0    0  501    0  0.00000000000E+00  0.00000000000E+00 -0.17202585335E+04  0.17202585335E+04  0.50400001928E-02 0. -1.
    10030    2    1    2    0    0  0.00000000000E+00  0.00000000000E+00 -0.17569869154E+03  0.32648183754E+04  0.32600872679E+04 0.  0.
        1    1    3    3  502    0 -0.14594514623E+04 -0.68259283558E+03  0.15971518647E+03  0.16190863136E+04  0.50400001928E-02 0.  1.
       -1    1    3    3    0  502  0.14594514623E+04  0.68259283558E+03 -0.33541387800E+03  0.16457320619E+04  0.50400001928E-02 0. -1.
</event>
<event>
 5   0  0.1282578E-06  0.2499017E+04  0.7818609E-02  0.8403336E-01
       -1   -1    0    0    0  501  0.00000000000E+00  0.00000000000E+00  0.10610722151E+04  0.10610722151E+04  0.50400001928E-02 0. -1.
        1   -1    0    0  501    0  0.00000000000E+00  0.00000000000E+00 -0.14714091240E+04  0.14714091240E+04  0.50400001928E-02 0.  1.
    10030    2    1    2    0    0  0.00000000000E+00  0.00000000000E+00 -0.41033690897E+03  0.25324813391E+04  0.24990168775E+04 0.  0.
        4    1    3    3  502    0  0.28103062790E+02  0.12359997098E+04 -0.38865845965E+03  0.12959714796E+04  0.12699999809E+01 0.  1.
       -4    1    3    3    0  502 -0.28103062790E+02 -0.12359997098E+04 -0.21678449326E+02  0.12365098595E+04  0.12699999809E+01 0. -1.
</event>
<event>
 5   0  0.1282578E-06  0.3171255E+04  0.7818609E-02  0.8196450E-01
        1   -1    0    0  501    0  0.00000000000E+00  0.00000000000E+00  0.10630338222E+04  0.10630338222E+04  0.50400001928E-02 0. -1.
       -1   -1    0    0    0  501  0.00000000000E+00  0.00000000000E+00 -0.23651314663E+04  0.23651314663E+04  0.50400001928E-02 0.  1.
    10030    2    1    2    0    0  0.00000000000E+00  0.00000000000E+00 -0.13020976441E+04  0.34281652886E+04  0.31712551097E+04 0.  0.
        4    1    3    3  502    0  0.24359528181E+03  0.13861503045E+04  0.13850590318E+03  0.14141912268E+04  0.12699999809E+01 0. -1.
       -4    1    3    3    0  502 -0.24359528181E+03 -0.13861503045E+04 -0.14406035473E+04  0.20139740617E+04  0.12699999809E+01 0.  1.
</event>
<event>
 5   0  0.1339825E-06  0.3337982E+04  0.7818609E-02  0.8153298E-01
        1   -1    0    0  501    0  0.00000000000E+00  0.00000000000E+00  0.18843771060E+04  0.18843771060E+04  0.50400001928E-02 0. -1.
       -1   -1    0    0    0  501  0.00000000000E+00  0.00000000000E+00 -0.14782236246E+04  0.14782236246E+04  0.50400001928E-02 0.  1.
    10030    2    1    2    0    0  0.00000000000E+00  0.00000000000E+00  0.40615348140E+03  0.33626007307E+04  0.33379818788E+04 0.  0.
        3    1    3    3  502    0 -0.15076195798E+04  0.67859007867E+03 -0.26925948462E+02  0.16535193707E+04  0.10100000352E+00 0.  1.
       -3    1    3    3    0  502  0.15076195798E+04 -0.67859007867E+03  0.43307942986E+03  0.17090813600E+04  0.10100000352E+00 0. -1.
</event>
<event>
 5   0  0.3671997E-06  0.3338619E+04  0.7818609E-02  0.8153138E-01
       -2   -1    0    0    0  501  0.00000000000E+00  0.00000000000E+00  0.17099821216E+04  0.17099821216E+04  0.25500000920E-02 0.  1.
        2   -1    0    0  501    0  0.00000000000E+00  0.00000000000E+00 -0.16296043844E+04  0.16296043844E+04  0.25500000920E-02 0. -1.
    10030    2    1    2    0    0  0.00000000000E+00  0.00000000000E+00  0.80377737180E+02  0.33395865059E+04  0.33386190933E+04 0.  0.
        2    1    3    3  502    0 -0.94993028626E+03 -0.10315579401E+04 -0.86567556886E+03  0.16479907533E+04  0.25500000920E-02 0. -1.
       -2    1    3    3    0  502  0.94993028626E+03  0.10315579401E+04  0.94605330604E+03  0.16915957526E+04  0.25500000920E-02 0.  1.
</event>
<event>
 5   0  0.1352708E-06  0.3311311E+04  0.7818609E-02  0.8160023E-01
        1   -1    0    0  501    0  0.00000000000E+00  0.00000000000E+00  0.19555616984E+04  0.19555616984E+04  0.50400001928E-02 0.  1.
       -1   -1    0    0    0  501  0.00000000000E+00  0.00000000000E+00 -0.14017429858E+04  0.14017429858E+04  0.50400001928E-02 0. -1.
    10030    2    1    2    0    0  0.00000000000E+00  0.00000000000E+00  0.55381871254E+03  0.33573046842E+04  0.33113108546E+04 0.  0.
        5    1    3    3  502    0  0.73179754224E+03  0.13424080237E+04 -0.36719876376E+03  0.15724007018E+04  0.46999998093E+01 0. -1.
       -5    1    3    3    0  502 -0.73179754224E+03 -0.13424080237E+04  0.92101747630E+03  0.17849039824E+04  0.46999998093E+01 0.  1.
</event>
<event>
 5   0  0.4017247E-06  0.3122756E+04  0.7818609E-02  0.8209520E-01
       -2   -1    0    0    0  501  0.00000000000E+00  0.00000000000E+00  0.91932422349E+03  0.91932422350E+03  0.25500000920E-02 0. -1.
        2   -1    0    0  501    0  0.00000000000E+00  0.00000000000E+00 -0.26518403942E+04  0.26518403942E+04  0.25500000920E-02 0.  1.
    10030    2    1    2    0    0  0.00000000000E+00  0.00000000000E+00 -0.17325161707E+04  0.35711646177E+04  0.31227559054E+04 0.  0.
        1    1    3    3  502    0 -0.94853660228E+02 -0.45002468714E+02 -0.26477992604E+04  0.26498798770E+04  0.50400001928E-02 0.  1.
       -1    1    3    3    0  502  0.94853660228E+02  0.45002468714E+02  0.91528308973E+03  0.92128474068E+03  0.50400001928E-02 0. -1.
</event>
<event>
 5   0  0.1339825E-06  0.3258421E+04  0.7818609E-02  0.8173556E-01
       -1   -1    0    0    0  501  0.00000000000E+00  0.00000000000E+00  0.17095594166E+04  0.17095594166E+04  0.50400001928E-02 0. -1.
        1   -1    0    0  501    0  0.00000000000E+00  0.00000000000E+00 -0.15526378809E+04  0.15526378809E+04  0.50400001928E-02 0.  1.
    10030    2    1    2    0    0  0.00000000000E+00  0.00000000000E+00  0.15692153572E+03  0.32621972974E+04  0.32584209119E+04 0.  0.
        3    1    3    3  502    0 -0.28439985752E+03 -0.27438200289E+03  0.16608487835E+04  0.17072162881E+04  0.10100000352E+00 0. -1.
       -3    1    3    3    0  502  0.28439985752E+03  0.27438200289E+03 -0.15039272478E+04  0.15549810093E+04  0.10100000352E+00 0.  1.
</event>
<event>
 5   0  0.4017247E-06  0.3333481E+04  0.7818609E-02  0.8154428E-01
        2   -1    0    0  501    0  0.00000000000E+00  0.00000000000E+00  0.14470590590E+04  0.14470590590E+04  0.25500000920E-02 0. -1.
       -2   -1    0    0    0  501  0.00000000000E+00  0.00000000000E+00 -0.19197724014E+04  0.19197724014E+04  0.25500000920E-02 0.  1.
    10030    2    1    2    0    0  0.00000000000E+00  0.00000000000E+00 -0.47271334242E+03  0.33668314604E+04  0.33334810902E+04 0.  0.
        1    1    3    3  502    0 -0.10876106627E+04 -0.19245356354E+03  0.10243657371E+04  0.15064064827E+04  0.50400001928E-02 0. -1.
       -1    1    3    3    0  502  0.10876106627E+04  0.19245356354E+03 -0.14970790795E+04  0.18604249778E+04  0.50400001928E-02 0.  1.
</event>
<event>
 5   0  0.1405389E-06  0.3227836E+04  0.7818609E-02  0.8181504E-01
       -1   -1    0    0    0  501  0.00000000000E+00  0.00000000000E+00  0.11607522820E+04  0.11607522820E+04  0.50400001928E-02 0. -1.
        1   -1    0    0  501    0  0.00000000000E+00  0.00000000000E+00 -0.22440032431E+04  0.22440032431E+04  0.50400001928E-02 0.  1.
    10030    2    1    2    0    0  0.00000000000E+00  0.00000000000E+00 -0.10832509611E+04  0.34047555251E+04  0.32278363559E+04 0.  0.
        1    1    3    3  502    0 -0.75760269940E+02  0.37234416207E+03  0.11128984587E+04  0.11759773692E+04  0.50400001928E-02 0. -1.
       -1    1    3    3    0  502  0.75760269940E+02 -0.37234416207E+03 -0.21961494199E+04  0.22287781558E+04  0.50400001928E-02 0.  1.
</event>
<event>
 5   0  0.3812379E-06  0.2188844E+04  0.7818609E-02  0.8523086E-01
       -2   -1    0    0    0  501  0.00000000000E+00  0.00000000000E+00  0.85032723323E+03  0.85032723323E+03  0.25500000920E-02 0. -1.
        2   -1    0    0  501    0  0.00000000000E+00  0.00000000000E+00 -0.14085867648E+04  0.14085867648E+04  0.25500000920E-02 0.  1.
    10030    2    1    2    0    0  0.00000000000E+00  0.00000000000E+00 -0.55825953158E+03  0.22589139980E+04  0.21888441575E+04 0.  0.
        5    1    3    3  502    0  0.16666609279E+03 -0.32785039079E+01 -0.13953974931E+04  0.14053272177E+04  0.46999998093E+01 0.  1.
       -5    1    3    3    0  502 -0.16666609279E+03  0.32785039079E+01  0.83713796148E+03  0.85358678037E+03  0.46999998093E+01 0. -1.
</event>
<event>
 5   0  0.1391878E-06  0.3261840E+04  0.7818609E-02  0.8172674E-01
       -1   -1    0    0    0  501  0.00000000000E+00  0.00000000000E+00  0.86997004506E+03  0.86997004508E+03  0.50400001928E-02 0. -1.
        1   -1    0    0  501    0  0.00000000000E+00  0.00000000000E+00 -0.30574621744E+04  0.30574621744E+04  0.50400001928E-02 0.  1.
    10030    2    1    2    0    0  0.00000000000E+00  0.00000000000E+00 -0.21874921293E+04  0.39274322195E+04  0.32618402816E+04 0.  0.
        2    1    3    3  502    0 -0.10791585478E+04 -0.51593546663E+03 -0.24286332085E+04  0.27072184689E+04  0.25500000920E-02 0.  1.
       -2    1    3    3    0  502  0.10791585478E+04  0.51593546663E+03  0.24114107918E+03  0.12202137506E+04  0.25500000920E-02 0. -1.
</event>
<event>
 5   0  0.3896210E-06  0.3382266E+04  0.7818609E-02  0.8142273E-01
        2   -1    0    0  501    0  0.00000000000E+00  0.00000000000E+00  0.18106346751E+04  0.18106346751E+04  0.25500000920E-02 0. -1.
       -2   -1    0    0    0  501  0.00000000000E+00  0.00000000000E+00 -0.15795184971E+04  0.15795184971E+04  0.25500000920E-02 0.  1.
    10030    2    1    2    0    0  0.00000000000E+00  0.00000000000E+00  0.23111617792E+03  0.33901531722E+04  0.33822660811E+04 0.  0.
        3    1    3    3  502    0 -0.12928747069E+04 -0.93912629318E+03  0.67042620201E+03  0.17329034898E+04  0.10100000352E+00 0. -1.
       -3    1    3    3    0  502  0.12928747069E+04  0.93912629318E+03 -0.43931002409E+03  0.16572496824E+04  0.10100000352E+00 0.  1.
</event>
<event>
 5   0  0.3671997E-06  0.3249224E+04  0.7818609E-02  0.8175937E-01
       -2   -1    0    0    0  501  0.00000000000E+00  0.00000000000E+00  0.18266592071E+04  0.18266592071E+04  0.25500000920E-02 0.  1.
        2   -1    0    0  501    0  0.00000000000E+00  0.00000000000E+00 -0.14449130537E+04  0.14449130537E+04  0.25500000920E-02 0. -1.
    10030    2    1    2    0    0  0.00000000000E+00  0.00000000000E+00  0.38174615344E+03  0.32715722608E+04  0.32492237430E+04 0.  0.
        2    1    3    3  502    0  0.17720994560E+03 -0.99108149268E+03  0.14746793257E+04  0.17855881394E+04  0.25500000920E-02 0.  1.
       -2    1    3    3    0  502 -0.17720994560E+03  0.99108149268E+03 -0.10929331723E+04  0.14859841214E+04  0.25500000920E-02 0. -1.
</event>
<event>
 5   0  0.1391878E-06  0.3138147E+04  0.7818609E-02  0.8205346E-01
        1   -1    0    0  501    0  0.00000000000E+00  0.00000000000E+00  0.23236120925E+04  0.23236120925E+04  0.50400001928E-02 0.  1.
       -1   -1    0    0    0  501  0.00000000000E+00  0.00000000000E+00 -0.10595533148E+04  0.10595533148E+04  0.50400001928E-02 0. -1.
    10030    2    1    2    0    0  0.00000000000E+00  0.00000000000E+00  0.12640587777E+04  0.33831654074E+04  0.31381465199E+04 0.  0.
        2    1    3    3  502    0 -0.18179594744E+03 -0.99740069201E+03 -0.65902556202E+03  0.12092032907E+04  0.25500000920E-02 0. -1.
       -2    1    3    3    0  502  0.18179594744E+03  0.99740069201E+03  0.19230843397E+04  0.21739621167E+04  0.25500000920E-02 0.  1.
</event>
<event>
 5   0  0.3812379E-06  0.3286596E+04  0.7818609E-02  0.8166314E-01
        2   -1    0    0  501    0  0.00000000000E+00  0.00000000000E+00  0.29243124497E+04  0.29243124497E+04  0.25500000920E-02 0.  1.
       -2   -1    0    0    0  501  0.00000000000E+00  0.00000000000E+00 -0.92344069832E+03  0.92344069833E+03  0.25500000920E-02 0. -1.
    10030    2    1    2    0    0  0.00000000000E+00  0.00000000000E+00  0.20008717514E+04  0.38477531481E+04  0.32865964953E+04 0.  0.
        5    1    3    3  502    0 -0.11456991405E+04 -0.11027286824E+04  0.51522063001E+03  0.16715595877E+04  0.46999998093E+01 0. -1.
       -5    1    3    3    0  502  0.11456991405E+04  0.11027286824E+04  0.14856511214E+04  0.21761935604E+04  0.46999998093E+01 0.  1.
</event>
<event>
 5   0  0.3812379E-06  0.3347381E+04  0.7818609E-02  0.8150943E-01
       -2   -1    0    0    0  501  0.00000000000E+00  0.00000000000E+00  0.26410209785E+04  0.26410209785E+04  0.25500000920E-02 0. -1.
        2   -1    0    0  501    0  0.00000000000E+00  0.00000000000E+00 -0.10606655150E+04  0.10606655150E+04  0.25500000920E-02 0.  1.
    10030    2    1    2    0    0  0.00000000000E+00  0.00000000000E+00  0.15803554635E+04  0.37016864936E+04  0.33473809920E+04 0.  0.
        5    1    3    3  502    0  0.25612537759E+03  0.16512213022E+04  0.68476919087E+03  0.18058413365E+04  0.46999998093E+01 0. -1.
       -5    1    3    3    0  502 -0.25612537759E+03 -0.16512213022E+04  0.89558627262E+03  0.18958451571E+04  0.46999998093E+01 0.  1.
</event>
<event>
 5   0  0.3896210E-06  0.3064037E+04  0.7818609E-02  0.8225677E-01
        2   -1    0    0  501    0  0.00000000000E+00  0.00000000000E+00  0.26454395431E+04  0.26454395431E+04  0.25500000920E-02 0. -1.
       -2   -1    0    0    0  501  0.00000000000E+00  0.00000000000E+00 -0.88721775184E+03  0.88721775184E+03  0.25500000920E-02 0.  1.
    10030    2    1    2    0    0  0.00000000000E+00  0.00000000000E+00  0.17582217912E+04  0.35326572949E+04  0.30640371565E+04 0.  0.
        3    1    3    3  502    0  0.18718324043E+03  0.12505550256E+04 -0.11813764720E+03  0.12699928943E+04  0.10100000352E+00 0.  1.
       -3    1    3    3    0  502 -0.18718324043E+03 -0.12505550256E+04  0.18763594384E+04  0.22626644006E+04  0.10100000352E+00 0. -1.
</event>
<event>
 5   0  0.4017247E-06  0.3258892E+04  0.7818609E-02  0.8173435E-01
        2   -1    0    0  501    0  0.00000000000E+00  0.00000000000E+00  0.16535485320E+04  0.16535485320E+04  0.25500000920E-02 0. -1.
       -2   -1    0    0    0  501  0.00000000000E+00  0.00000000000E+00 -0.16056949322E+04  0.16056949322E+04  0.25500000920E-02 0.  1.
    10030    2    1    2    0    0  0.00000000000E+00  0.00000000000E+00  0.47853599822E+02  0.32592434642E+04  0.32588921418E+04 0.  0.
        1    1    3    3  502    0 -0.12109888200E+04 -0.36665577110E+02  0.11136571371E+04  0.16456216168E+04  0.50400001928E-02 0. -1.
       -1    1    3    3    0  502  0.12109888200E+04  0.36665577110E+02 -0.10658035372E+04  0.16136218475E+04  0.50400001928E-02 0.  1.
</event>
<event>
 5   0  0.1352708E-06  0.3321635E+04  0.7818609E-02  0.8157412E-01
       -1   -1    0    0    0  501  0.00000000000E+00  0.00000000000E+00  0.11768795931E+04  0.11768795931E+04  0.50400001928E-02 0. -1.
        1   -1    0    0  501    0  0.00000000000E+00  0.00000000000E+00 -0.23437520397E+04  0.23437520398E+04  0.50400001928E-02 0.  1.
    10030    2    1    2    0    0  0.00000000000E+00  0.00000000000E+00 -0.11668724466E+04  0.35206316329E+04  0.33216345055E+04 0.  0.
        5    1    3    3  502    0 -0.82977161431E+03 -0.14341281817E+04 -0.46236838353E+03  0.17201892877E+04  0.46999998093E+01 0. -1.
       -5    1    3    3    0  502  0.82977161431E+03  0.14341281817E+04 -0.70450406308E+03  0.18004423452E+04  0.46999998093E+01 0.  1.
</event>
<event>
 5   0  0.1405389E-06  0.3209902E+04  0.7818609E-02  0.8186207E-01
        1   -1    0    0  501    0  0.00000000000E+00  0.00000000000E+00  0.11506103732E+04  0.11506103732E+04  0.50400001928E-02 0. -1.
       -1   -1    0    0    0  501  0.00000000000E+00  0.00000000000E+00 -0.22386960990E+04  0.22386960990E+04  0.50400001928E-02 0.  1.
    10030    2    1    2    0    0  0.00000000000E+00  0.00000000000E+00 -0.10880857258E+04  0.33893064722E+04  0.32099015275E+04 0.  0.
        1    1    3    3  502    0  0.38056369843E+03 -0.86904404524E+03 -0.19109226197E+04  0.21334693669E+04  0.50400001928E-02 0.  1.
       -1    1    3    3    0  502 -0.38056369843E+03  0.86904404524E+03  0.82283689392E+03  0.12558371053E+04  0.50400001928E-02 0. -1.
</event>
<event>
 5   0  0.3671997E-06  0.3476537E+04  0.7818609E-02  0.8119373E-01
       -2   -1    0    0    0  501  0.00000000000E+00  0.00000000000E+00  0.14721604070E+04  0.14721604070E+04  0.25500000920E-02 0.  1.
        2   -1    0    0  501    0  0.00000000000E+00  0.00000000000E+00 -0.20524788051E+04  0.20524788051E+04  0.25500000920E-02 0. -1.
    10030    2    1    2    0    0  0.00000000000E+00  0.00000000000E+00 -0.58031839808E+03  0.35246392120E+04  0.34765373767E+04 0.  0.
        2    1    3    3  502    0 -0.15752032211E+04 -0.52217438063E+03  0.23434474932E+03  0.16759620321E+04  0.25500000920E-02 0. -1.
       -2    1    3    3    0  502  0.15752032211E+04  0.52217438063E+03 -0.81466314740E+03  0.18486771799E+04  0.25500000920E-02 0.  1.
</event>
<event>
 5   0  0.1391878E-06  0.3332762E+04  0.7818609E-02  0.8154609E-01
       -1   -1    0    0    0  501  0.00000000000E+00  0.00000000000E+00  0.13201883158E+04  0.13201883158E+04  0.50400001928E-02 0.  1.
        1   -1    0    0  501    0  0.00000000000E+00  0.00000000000E+00 -0.21033558085E+04  0.21033558086E+04  0.50400001928E-02 0. -1.
    10030    2    1    2    0    0  0.00000000000E+00  0.00000000000E+00 -0.78316749276E+03  0.34235441244E+04  0.33327620752E+04 0.  0.
        2    1    3    3  502    0  0.10680345213E+04 -0.77586520458E+03  0.65305406309E+03  0.14728014679E+04  0.25500000920E-02 0.  1.
       -2    1    3    3    0  502 -0.10680345213E+04  0.77586520458E+03 -0.14362215559E+04  0.19507426565E+04  0.25500000920E-02 0. -1.
</event>
<event>
 5   0  0.4017247E-06  0.2177356E+04  0.7818609E-02  0.8527912E-01
       -2   -1    0    0    0  501  0.00000000000E+00  0.00000000000E+00  0.81892614043E+03  0.81892614043E+03  0.25500000920E-02 0.  1.
        2   -1    0    0  501    0  0.00000000000E+00  0.00000000000E+00 -0.14472856095E+04  0.14472856095E+04  0.25500000920E-02 0. -1.
    10030    2    1    2    0    0  0.00000000000E+00  0.00000000000E+00 -0.62835946911E+03  0.22662117500E+04  0.21773562119E+04 0.  0.
        1    1    3    3  502    0  0.88280087589E+03 -0.44016165329E+03  0.16520328167E+03  0.10001858786E+04  0.50400001928E-02 0. -1.
       -1    1    3    3    0  502 -0.88280087589E+03  0.44016165329E+03 -0.79356275077E+03  0.12660258714E+04  0.50400001928E-02 0.  1.
</event>
<event>
 5   0  0.3812379E-06  0.3320568E+04  0.7818609E-02  0.8157682E-01
        2   -1    0    0  501    0  0.00000000000E+00  0.00000000000E+00  0.16530834744E+04  0.16530834744E+04  0.25500000920E-02 0.  1.
       -2   -1    0    0    0  501  0.00000000000E+00  0.00000000000E+00 -0.16675157337E+04  0.16675157337E+04  0.25500000920E-02 0. -1.
    10030    2    1    2    0    0  0.00000000000E+00  0.00000000000E+00 -0.14432259323E+02  0.33205992080E+04  0.33205678446E+04 0.  0.
        5    1    3    3  502    0  0.73204211337E+03  0.52148974431E+03 -0.14031818223E+04  0.16663668641E+04  0.46999998093E+01 0. -1.
       -5    1    3    3    0  502 -0.73204211337E+03 -0.52148974431E+03  0.13887495630E+04  0.16542323440E+04  0.46999998093E+01 0.  1.
</event>
<event>
 5   0  0.1352708E-06  0.3276707E+04  0.7818609E-02  0.8168848E-01
       -1   -1    0    0    0  501  0.00000000000E+00  0.00000000000E+00  0.15617233888E+04  0.15617233889E+04  0.50400001928E-02 0. -1.
        1   -1    0    0  501    0  0.00000000000E+00  0.00000000000E+00 -0.17187432015E+04  0.17187432015E+04  0.50400001928E-02 0.  1.
    10030    2    1    2    0    0  0.00000000000E+00  0.00000000000E+00 -0.15701981263E+03  0.32804665903E+04  0.32767065521E+04 0.  0.
        5    1    3    3  502    0 -0.11399235877E+04 -0.85792340659E+03 -0.88486633222E+03  0.16788296141E+04  0.46999998093E+01 0.  1.
       -5    1    3    3    0  502  0.11399235877E+04  0.85792340659E+03  0.72784651959E+03  0.16016369762E+04  0.46999998093E+01 0. -1.
</event>
<event>
 5   0  0.1352708E-06  0.3320363E+04  0.7818609E-02  0.8157733E-01
       -1   -1    0    0    0  501  0.00000000000E+00  0.00000000000E+00  0.12516897737E+04  0.12516897737E+04  0.50400001928E-02 0. -1.
        1   -1    0    0  501    0  0.00000000000E+00  0.00000000000E+00 -0.22019849990E+04  0.22019849990E+04  0.50400001928E-02 0.  1.
    10030    2    1    2    0    0  0.00000000000E+00  0.00000000000E+00 -0.95029522527E+03  0.34536747727E+04  0.33203626941E+04 0.  0.
        5    1    3    3  502    0  0.54427052070E+03  0.42270663396E+03  0.10958811460E+04  0.12945612671E+04  0.46999998093E+01 0. -1.
       -5    1    3    3    0  502 -0.54427052070E+03 -0.42270663396E+03 -0.20461763712E+04  0.21591135057E+04  0.46999998093E+01 0.  1.
</event>
<event>
 5   0  0.4017247E-06  0.3282622E+04  0.7818609E-02  0.8167331E-01
        2   -1    0    0  501    0  0.00000000000E+00  0.00000000000E+00  0.14765654581E+04  0.14765654581E+04  0.25500000920E-02 0.  1.
       -2   -1    0    0    0  501  0.00000000000E+00  0.00000000000E+00 -0.18244374949E+04  0.18244374949E+04  0.25500000920E-02 0. -1.
    10030    2    1    2    0    0  0.00000000000E+00  0.00000000000E+00 -0.34787203680E+03  0.33010029529E+04  0.32826217481E+04 0.  0.
        1    1    3    3  502    0 -0.21003958625E+03 -0.11220426622E+03  0.14591015990E+04  0.14784058649E+04  0.50400001928E-02 0.  1.
       -1    1    3    3    0  502  0.21003958625E+03  0.11220426622E+03 -0.18069736358E+04  0.18225970881E+04  0.50400001928E-02 0. -1.
</event>
<event>
 5   0  0.3920487E-06  0.3104505E+04  0.7818609E-02  0.8214503E-01
       -2   -1    0    0    0  501  0.00000000000E+00  0.00000000000E+00  0.17672461297E+04  0.17672461297E+04  0.25500000920E-02 0. -1.
        2   -1    0    0  501    0  0.00000000000E+00  0.00000000000E+00 -0.13634134721E+04  0.13634134721E+04  0.25500000920E-02 0.  1.
    10030    2    1    2    0    0  0.00000000000E+00  0.00000000000E+00  0.40383265760E+03  0.31306596019E+04  0.31045045865E+04 0.  0.
        4    1    3    3  502    0 -0.15317470850E+04  0.72505256153E+02 -0.40901456135E+02  0.15340080465E+04  0.12699999809E+01 0.  1.
       -4    1    3    3    0  502  0.15317470850E+04 -0.72505256153E+02  0.44473411373E+03  0.15966515554E+04  0.12699999809E+01 0. -1.
</event>
<event>
 5   0  0.1391878E-06  0.3294156E+04  0.7818609E-02  0.8164384E-01
        1   -1    0    0  501    0  0.00000000000E+00  0.00000000000E+00  0.25788712618E+04  0.25788712618E+04  0.50400001928E-02 0.  1.
       -1   -1    0    0    0  501  0.00000000000E+00  0.00000000000E+00 -0.10519589489E+04  0.10519589489E+04  0.50400001928E-02 0. -1.
    10030    2    1    2    0    0  0.00000000000E+00  0.00000000000E+00  0.15269123128E+04  0.36308302107E+04  0.32941564638E+04 0.  0.
        2    1    3    3  502    0 -0.38060729013E+03  0.29778481158E+03 -0.97206054437E+03  0.10855594895E+04  0.25500000920E-02 0. -1.
       -2    1    3    3    0  502  0.38060729013E+03 -0.29778481158E+03  0.24989728572E+04  0.25452707212E+04  0.25500000920E-02 0.  1.
</event>
<event>
 5   0  0.1282578E-06  0.3361181E+04  0.7818609E-02  0.8147500E-01
        1   -1    0    0  501    0  0.00000000000E+00  0.00000000000E+00  0.22924944163E+04  0.22924944163E+04  0.50400001928E-02 0.  1.
       -1   -1    0    0    0  501  0.00000000000E+00  0.00000000000E+00 -0.12320135650E+04  0.12320135651E+04  0.50400001928E-02 0. -1.
    10030    2    1    2    0    0  0.00000000000E+00  0.00000000000E+00  0.10604808512E+04  0.35245079813E+04  0.33611808750E+04 0.  0.
        4    1    3    3  502    0  0.71516232424E+03 -0.13778040963E+02  0.21249059655E+04  0.22420691246E+04  0.12699999809E+01 0.  1.
       -4    1    3    3    0  502 -0.71516232424E+03  0.13778040963E+02 -0.10644251143E+04  0.12824388567E+04  0.12699999809E+01 0. -1.
</event>
<event>
 5   0  0.3896210E-06  0.2331061E+04  0.7818609E-02  0.8465774E-01
       -2   -1    0    0    0  501  0.00000000000E+00  0.00000000000E+00  0.88134124940E+03  0.88134124941E+03  0.25500000920E-02 0. -1.
        2   -1    0    0  501    0  0.00000000000E+00  0.00000000000E+00 -0.15413573640E+04  0.15413573640E+04  0.25500000920E-02 0.  1.
    10030    2    1    2    0    0  0.00000000000E+00  0.00000000000E+00 -0.66001611464E+03  0.24226986135E+04  0.23310614106E+04 0.  0.
        3    1    3    3  502    0 -0.10831990118E+03  0.98990550781E+03  0.29945411073E+03  0.10398648422E+04  0.10100000352E+00 0. -1.
       -3    1    3    3    0  502  0.10831990118E+03 -0.98990550781E+03 -0.95947022537E+03  0.13828337713E+04  0.10100000352E+00 0.  1.
</event>
<event>
 5   0  0.1405389E-06  0.3182611E+04  0.7818609E-02  0.8193425E-01
       -1   -1    0    0    0  501  0.00000000000E+00  0.00000000000E+00  0.14545275819E+04  0.14545275819E+04  0.50400001928E-02 0.  1.
        1   -1    0    0  501    0  0.00000000000E+00  0.00000000000E+00 -0.17409458792E+04  0.17409458792E+04  0.50400001928E-02 0. -1.
    10030    2    1    2    0    0  0.00000000000E+00  0.00000000000E+00 -0.28641829735E+03  0.31954734611E+04  0.31826113806E+04 0.  0.
        1    1    3    3  502    0  0.85947294471E+03  0.73933095196E+02 -0.14858095450E+04  0.17180773700E+04  0.50400001928E-02 0. -1.
       -1    1    3    3    0  502 -0.85947294471E+03 -0.73933095196E+02  0.11993912476E+04  0.14773960912E+04  0.50400001928E-02 0.  1.
</event>
<event>
 5   0  0.3812379E-06  0.2598064E+04  0.7818609E-02  0.8368859E-01
       -2   -1    0    0    0  501  0.00000000000E+00  0.00000000000E+00  0.11608409596E+04  0.11608409596E+04  0.25500000920E-02 0. -1.
        2   -1    0    0  501    0  0.00000000000E+00  0.00000000000E+00 -0.14536735457E+04  0.14536735457E+04  0.25500000920E-02 0.  1.
    10030    2    1    2    0    0  0.00000000000E+00  0.00000000000E+00 -0.29283258603E+03  0.26145145053E+04  0.25980637357E+04 0.  0.
        5    1    3    3  502    0  0.56773504062E+03 -0.11501925628E+04  0.60300296670E+02  0.12841044442E+04  0.46999998093E+01 0. -1.
       -5    1    3    3    0  502 -0.56773504062E+03  0.11501925628E+04 -0.35313288270E+03  0.13304100611E+04  0.46999998093E+01 0.  1.
</event>
<event>
 5   0  0.1391878E-06  0.3330093E+04  0.7818609E-02  0.8155280E-01
       -1   -1    0    0    0  501  0.00000000000E+00  0.00000000000E+00  0.14432805075E+04  0.14432805075E+04  0.50400001928E-02 0.  1.
        1   -1    0    0  501    0  0.00000000000E+00  0.00000000000E+00 -0.19208876407E+04  0.19208876407E+04  0.50400001928E-02 0. -1.
    10030    2    1    2    0    0  0.00000000000E+00  0.00000000000E+00 -0.47760713323E+03  0.33641681482E+04  0.33300929049E+04 0.  0.
        2    1    3    3  502    0  0.12890169770E+04  0.99875331929E+03 -0.57885859092E+03  0.17303612999E+04  0.25500000920E-02 0.  1.
       -2    1    3    3    0  502 -0.12890169770E+04 -0.99875331929E+03  0.10125145769E+03  0.16338068483E+04  0.25500000920E-02 0. -1.
</event>
<event>
 5   0  0.4017247E-06  0.3277022E+04  0.7818609E-02  0.8168767E-01
        2   -1    0    0  501    0  0.00000000000E+00  0.00000000000E+00  0.33600058521E+04  0.33600058521E+04  0.25500000920E-02 0. -1.
       -2   -1    0    0    0  501  0.00000000000E+00  0.00000000000E+00 -0.79902208444E+03  0.79902208445E+03  0.25500000920E-02 0.  1.
    10030    2    1    2    0    0  0.00000000000E+00  0.00000000000E+00  0.25609837677E+04  0.41590279366E+04  0.32770223556E+04 0.  0.
        1    1    3    3  502    0 -0.12646199973E+04 -0.98850265271E+03  0.86279422259E+03  0.18223103749E+04  0.50400001928E-02 0. -1.
       -1    1    3    3    0  502  0.12646199973E+04  0.98850265271E+03  0.16981895451E+04  0.23367175617E+04  0.50400001928E-02 0.  1.
</event>
<event>
 5   0  0.3671997E-06  0.2867773E+04  0.7818609E-02  0.8282531E-01
       -2   -1    0    0    0  501  0.00000000000E+00  0.00000000000E+00  0.11436525878E+04  0.11436525878E+04  0.25500000920E-02 0.  1.
        2   -1    0    0  501    0  0.00000000000E+00  0.00000000000E+00 -0.17977752648E+04  0.17977752648E+04  0.25500000920E-02 0. -1.
    10030    2    1    2    0    0  0.00000000000E+00  0.00000000000E+00 -0.65412267703E+03  0.29414278526E+04  0.28677728877E+04 0.  0.
        2    1    3    3  502    0 -0.11500400746E+04 -0.67461599550E+03 -0.86818255596E+03  0.15910499254E+04  0.25500000920E-02 0. -1.
       -2    1    3    3    0  502  0.11500400746E+04  0.67461599550E+03  0.21405987892E+03  0.13503779272E+04  0.25500000920E-02 0.  1.
</event>
<event>
 5   0  0.1259875E-06  0.3287706E+04  0.7818609E-02  0.8166031E-01
        3   -1    0    0  501    0  0.00000000000E+00  0.00000000000E+00  0.26827436138E+04  0.26827436157E+04  0.10100000352E+00 0. -1.
       -3   -1    0    0    0  501  0.00000000000E+00  0.00000000000E+00 -0.10072722243E+04  0.10072722294E+04  0.10100000352E+00 0.  1.
    10030    2    1    2    0    0  0.00000000000E+00  0.00000000000E+00  0.16754713895E+04  0.36900158451E+04  0.32877062764E+04 0.  0.
        3    1    3    3  502    0  0.75427917792E+03  0.88602186743E+03 -0.46550753109E+03  0.12532633799E+04  0.10100000352E+00 0.  1.
       -3    1    3    3    0  502 -0.75427917792E+03 -0.88602186743E+03  0.21409789206E+04  0.24367524652E+04  0.10100000352E+00 0. -1.
</event>
<event>
 5   0  0.1282578E-06  0.2865080E+04  0.7818609E-02  0.8283344E-01
       -1   -1    0    0    0  501  0.00000000000E+00  0.00000000000E+00  0.11384401959E+04  0.11384401960E+04  0.50400001928E-02 0.  1.
        1   -1    0    0  501    0  0.00000000000E+00  0.00000000000E+00 -0.18026161500E+04  0.18026161500E+04  0.50400001928E-02 0. -1.
    10030    2    1    2    0    0  0.00000000000E+00  0.00000000000E+00 -0.66417595403E+03  0.29410563459E+04  0.28650798823E+04 0.  0.
        4    1    3    3  502    0 -0.12920154504E+04  0.47549069005E+03 -0.73853437825E+03  0.15623155767E+04  0.12699999809E+01 0. -1.
       -4    1    3    3    0  502  0.12920154504E+04 -0.47549069005E+03  0.74358424221E+02  0.13787407692E+04  0.12699999809E+01 0.  1.
</event>
<event>
 5   0  0.3920487E-06  0.2632398E+04  0.7818609E-02  0.8357279E-01
        2   -1    0    0  501    0  0.00000000000E+00  0.00000000000E+00  0.11698106075E+04  0.11698106075E+04  0.25500000920E-02 0.  1.
       -2   -1    0    0    0  501  0.00000000000E+00  0.00000000000E+00 -0.14809058210E+04  0.14809058210E+04  0.25500000920E-02 0. -1.
    10030    2    1    2    0    0  0.00000000000E+00  0.00000000000E+00 -0.31109521348E+03  0.26507164285E+04  0.26323976433E+04 0.  0.
        4    1    3    3  502    0 -0.81619460513E+03  0.81263220825E+03 -0.79703104473E+03  0.14006444369E+04  0.12699999809E+01 0. -1.
       -4    1    3    3    0  502  0.81619460513E+03 -0.81263220825E+03  0.48593583125E+03  0.12500719917E+04  0.12699999809E+01 0.  1.
</event>
<event>
 5   0  0.3812379E-06  0.2468888E+04  0.7818609E-02  0.8414154E-01
       -2   -1    0    0    0  501  0.00000000000E+00  0.00000000000E+00  0.65181107609E+03  0.65181107610E+03  0.25500000920E-02 0.  1.
        2   -1    0    0  501    0  0.00000000000E+00  0.00000000000E+00 -0.23378729468E+04  0.23378729468E+04  0.25500000920E-02 0. -1.
    10030    2    1    2    0    0  0.00000000000E+00  0.00000000000E+00 -0.16860618707E+04  0.29896840229E+04  0.24688875886E+04 0.  0.
        5    1    3    3  502    0 -0.90095355872E+03  0.74066914449E+03 -0.35335232661E+03  0.12186829175E+04  0.46999998093E+01 0.  1.
       -5    1    3    3    0  502  0.90095355872E+03 -0.74066914449E+03 -0.13327095441E+04  0.17710011055E+04  0.46999998093E+01 0. -1.
</event>
<event>
 5   0  0.1405389E-06  0.3441192E+04  0.7818609E-02  0.8127870E-01
       -1   -1    0    0    0  501  0.00000000000E+00  0.00000000000E+00  0.23885094092E+04  0.23885094092E+04  0.50400001928E-02 0.  1.
        1   -1    0    0  501    0  0.00000000000E+00  0.00000000000E+00 -0.12394556280E+04  0.12394556280E+04  0.50400001928E-02 0. -1.
    10030    2    1    2    0    0  0.00000000000E+00  0.00000000000E+00  0.11490537812E+04  0.36279650373E+04  0.34411924851E+04 0.  0.
        1    1    3    3  502    0 -0.16899141441E+04 -0.21989003622E+03  0.82465914800E+03  0.18932047309E+04  0.50400001928E-02 0.  1.
       -1    1    3    3    0  502  0.16899141441E+04  0.21989003622E+03  0.32439463322E+03  0.17347603064E+04  0.50400001928E-02 0. -1.
</event>
<event>
 5   0  0.3920487E-06  0.3258425E+04  0.7818609E-02  0.8173555E-01
        2   -1    0    0  501    0  0.00000000000E+00  0.00000000000E+00  0.22531478975E+04  0.22531478975E+04  0.25500000920E-02 0.  1.
       -2   -1    0    0    0  501  0.00000000000E+00  0.00000000000E+00 -0.11780557736E+04  0.11780557736E+04  0.25500000920E-02 0. -1.
    10030    2    1    2    0    0  0.00000000000E+00  0.00000000000E+00  0.10750921239E+04  0.34312036711E+04  0.32584253187E+04 0.  0.
        4    1    3    3  502    0  0.16000152580E+03  0.56580951537E+03 -0.10624254912E+04  0.12142859767E+04  0.12699999809E+01 0. -1.
       -4    1    3    3    0  502 -0.16000152580E+03 -0.56580951537E+03  0.21375176151E+04  0.22169176944E+04  0.12699999809E+01 0.  1.
</event>
<event>
 5   0  0.1339825E-06  0.3313301E+04  0.7818609E-02  0.8159519E-01
       -1   -1    0    0    0  501  0.00000000000E+00  0.00000000000E+00  0.12389970464E+04  0.12389970464E+04  0.50400001928E-02 0.  1.
        1   -1    0    0  501    0  0.00000000000E+00  0.00000000000E+00 -0.22150905900E+04  0.22150905900E+04  0.50400001928E-02 0. -1.
    10030    2    1    2    0    0  0.00000000000E+00  0.00000000000E+00 -0.97609354361E+03  0.34540876365E+04  0.33133008910E+04 0.  0.
        3    1    3    3  502    0  0.11905642507E+04  0.21526198756E+03 -0.16678180785E+04  0.20604363886E+04  0.10100000352E+00 0. -1.
       -3    1    3    3    0  502 -0.11905642507E+04 -0.21526198756E+03  0.69172453487E+03  0.13936512479E+04  0.10100000352E+00 0.  1.
</event>
<event>
 5   0  0.1391878E-06  0.3022528E+04  0.7818609E-02  0.8237327E-01
        1   -1    0    0  501    0  0.00000000000E+00  0.00000000000E+00  0.27153138871E+04  0.27153138871E+04  0.50400001928E-02 0. -1.
       -1   -1    0    0    0  501  0.00000000000E+00  0.00000000000E+00 -0.84112545054E+03  0.84112545055E+03  0.50400001928E-02 0.  1.
    10030    2    1    2    0    0  0.00000000000E+00  0.00000000000E+00  0.18741884365E+04  0.35564393376E+04  0.30225284890E+04 0.  0.
        2    1    3    3  502    0 -0.74904450550E+03  0.45456318751E+03 -0.51176678060E+03  0.10146923674E+04  0.25500000920E-02 0.  1.
       -2    1    3    3    0  502  0.74904450550E+03 -0.45456318751E+03  0.23859552171E+04  0.25417469703E+04  0.25500000920E-02 0. -1.
</event>
<event>
 5   0  0.1391878E-06  0.3271999E+04  0.7818609E-02  0.8170057E-01
        1   -1    0    0  501    0  0.00000000000E+00  0.00000000000E+00  0.20827600370E+04  0.20827600370E+04  0.50400001928E-02 0.  1.
       -1   -1    0    0    0  501  0.00000000000E+00  0.00000000000E+00 -0.12850707386E+04  0.12850707386E+04  0.50400001928E-02 0. -1.
    10030    2    1    2    0    0  0.00000000000E+00  0.00000000000E+00  0.79768929840E+03  0.33678307756E+04  0.32719987647E+04 0.  0.
        2    1    3    3  502    0 -0.12124299895E+04 -0.22380099124E+03 -0.70802133971E+03  0.14217480721E+04  0.25500000920E-02 0. -1.
       -2    1    3    3    0  502  0.12124299895E+04  0.22380099124E+03  0.15057106381E+04  0.19460827035E+04  0.25500000920E-02 0.  1.
</event>
<event>
 5   0  0.1405389E-06  0.3098929E+04  0.7818609E-02  0.8216032E-01
       -1   -1    0    0    0  501  0.00000000000E+00  0.00000000000E+00  0.13052671353E+04  0.13052671353E+04  0.50400001928E-02 0.  1.
        1   -1    0    0  501    0  0.00000000000E+00  0.00000000000E+00 -0.18393475935E+04  0.18393475935E+04  0.50400001928E-02 0. -1.
    10030    2    1    2    0    0  0.00000000000E+00  0.00000000000E+00 -0.53408045822E+03  0.31446147289E+04  0.30989288242E+04 0.  0.
        1    1    3    3  502    0 -0.14658977829E+04 -0.11059176290E+03  0.22982427650E+03  0.14879200402E+04  0.50400001928E-02 0.  1.
       -1    1    3    3    0  502  0.14658977829E+04  0.11059176290E+03 -0.76390473473E+03  0.16566946887E+04  0.50400001928E-02 0. -1.
</event>
<event>
 5   0  0.1352708E-06  0.3265544E+04  0.7818609E-02  0.8171718E-01
        1   -1    0    0  501    0  0.00000000000E+00  0.00000000000E+00  0.24595006474E+04  0.24595006474E+04  0.50400001928E-02 0. -1.
       -1   -1    0    0    0  501  0.00000000000E+00  0.00000000000E+00 -0.10839373848E+04  0.10839373848E+04  0.50400001928E-02 0.  1.
    10030    2    1    2    0    0  0.00000000000E+00  0.00000000000E+00  0.13755632625E+04  0.35434380322E+04  0.32655441811E+04 0.  0.
        5    1    3    3  502    0  0.73726903123E+02 -0.43356457763E+03 -0.10184508033E+04  0.11093592872E+04  0.46999998093E+01 0.  1.
       -5    1    3    3    0  502 -0.73726903123E+02  0.43356457763E+03  0.23940140659E+04  0.24340787450E+04  0.46999998093E+01 0. -1.
</event>
<event>
 5   0  0.1391878E-06  0.3299640E+04  0.7818609E-02  0.8162987E-01
        1   -1    0    0  501    0  0.00000000000E+00  0.00000000000E+00  0.20085278042E+04  0.20085278042E+04  0.50400001928E-02 0. -1.
       -1   -1    0    0    0  501  0.00000000000E+00  0.00000000000E+00 -0.13551746411E+04  0.13551746411E+04  0.50400001928E-02 0.  1.
    10030    2    1    2    0    0  0.00000000000E+00  0.00000000000E+00  0.65335316308E+03  0.33637024454E+04  0.32996399478E+04 0.  0.
        2    1    3    3  502    0 -0.75550845027E+03  0.69761881388E+03  0.16418566243E+04  0.19373069459E+04  0.25500000920E-02 0. -1.
       -2    1    3    3    0  502  0.75550845027E+03 -0.69761881388E+03 -0.98850346123E+03  0.14263954994E+04  0.25500000920E-02 0.  1.
</event>
<event>
 5   0  0.3920487E-06  0.3320146E+04  0.7818609E-02  0.8157788E-01
        2   -1    0    0  501    0  0.00000000000E+00  0.00000000000E+00  0.22118851970E+04  0.22118851970E+04  0.25500000920E-02 0. -1.
       -2   -1    0    0    0  501  0.00000000000E+00  0.00000000000E+00 -0.12459247503E+04  0.12459247503E+04  0.25500000920E-02 0.  1.
    10030    2    1    2    0    0  0.00000000000E+00  0.00000000000E+00  0.96596044670E+03  0.34578099473E+04  0.33201460883E+04 0.  0.
        4    1    3    3  502    0  0.70466028364E+03  0.60597353132E+03 -0.94958670254E+03  0.13287086041E+04  0.12699999809E+01 0.  1.
       -4    1    3    3    0  502 -0.70466028364E+03 -0.60597353132E+03  0.19155471492E+04  0.21291013433E+04  0.12699999809E+01 0. -1.
</event>
<event>
 5   0  0.3920487E-06  0.3280050E+04  0.7818609E-02  0.8167990E-01
       -2   -1    0    0    0  501  0.00000000000E+00  0.00000000000E+00  0.91816222461E+03  0.91816222461E+03  0.25500000920E-02 0.  1.
        2   -1    0    0  501    0  0.00000000000E+00  0.00000000000E+00 -0.29294185590E+04  0.29294185590E+04  0.25500000920E-02 0. -1.
    10030    2    1    2    0    0  0.00000000000E+00  0.00000000000E+00 -0.20112563344E+04  0.38475807836E+04  0.32800496709E+04 0.  0.
        4    1    3    3  502    0  0.11499450094E+04 -0.90572780232E+03 -0.13809419965E+03  0.14703020089E+04  0.12699999809E+01 0.  1.
       -4    1    3    3    0  502 -0.11499450094E+04  0.90572780232E+03 -0.18731621347E+04  0.23772787747E+04  0.12699999809E+01 0. -1.
</event>
<event>
 5   0  0.4017247E-06  0.3252217E+04  0.7818609E-02  0.8175161E-01
       -2   -1    0    0    0  501  0.00000000000E+00  0.00000000000E+00  0.11908746554E+04  0.11908746554E+04  0.25500000920E-02 0. -1.
        2   -1    0    0  501    0  0.00000000000E+00  0.00000000000E+00 -0.22204088366E+04  0.22204088366E+04  0.25500000920E-02 0.  1.
    10030    2    1    2    0    0  0.00000000000E+00  0.00000000000E+00 -0.10295341813E+04  0.34112834920E+04  0.32522168489E+04 0.  0.
        1    1    3    3  502    0  0.70761292535E+03 -0.71030085329E+03 -0.18576119478E+04  0.21109157972E+04  0.50400001928E-02 0.  1.
       -1    1    3    3    0  502 -0.70761292535E+03  0.71030085329E+03  0.82807776651E+03  0.13003676948E+04  0.50400001928E-02 0. -1.
</event>
<event>
 5   0  0.1282578E-06  0.3370721E+04  0.7818609E-02  0.8145130E-01
        1   -1    0    0  501    0  0.00000000000E+00  0.00000000000E+00  0.13692766890E+04  0.13692766891E+04  0.50400001928E-02 0.  1.
       -1   -1    0    0    0  501  0.00000000000E+00  0.00000000000E+00 -0.20744094236E+04  0.20744094236E+04  0.50400001928E-02 0. -1.
    10030    2    1    2    0    0  0.00000000000E+00  0.00000000000E+00 -0.70513273452E+03  0.34436861126E+04  0.33707212684E+04 0.  0.
        4    1    3    3  502    0 -0.28670937833E+03 -0.13841594848E+04 -0.12902237987E+04  0.19138387630E+04  0.12699999809E+01 0. -1.
       -4    1    3    3    0  502  0.28670937833E+03  0.13841594848E+04  0.58509106419E+03  0.15298473497E+04  0.12699999809E+01 0.  1.
</event>
<event>
 5   0  0.1282578E-06  0.2230987E+04  0.7818609E-02  0.8505640E-01
       -1   -1    0    0    0  501  0.00000000000E+00  0.00000000000E+00  0.54934207976E+03  0.54934207978E+03  0.50400001928E-02 0.  1.
        1   -1    0    0  501    0  0.00000000000E+00  0.00000000000E+00 -0.22651197019E+04  0.22651197019E+04  0.50400001928E-02 0. -1.
    10030    2    1    2    0    0  0.00000000000E+00  0.00000000000E+00 -0.17157776221E+04  0.28144617817E+04  0.22309868381E+04 0.  0.
        4    1    3    3  502    0  0.19085943620E+03  0.73008440510E+03 -0.18942460860E+04  0.20390243771E+04  0.12699999809E+01 0. -1.
       -4    1    3    3    0  502 -0.19085943620E+03 -0.73008440510E+03  0.17846846390E+03  0.77543740461E+03  0.12699999809E+01 0.  1.
</event>
<event>
 5   0  0.3812379E-06  0.2206273E+04  0.7818609E-02  0.8515821E-01
        2   -1    0    0  501    0  0.00000000000E+00  0.00000000000E+00  0.12135451534E+04  0.12135451534E+04  0.25500000920E-02 0.  1.
       -2   -1    0    0    0  501  0.00000000000E+00  0.00000000000E+00 -0.10027732970E+04  0.10027732970E+04  0.25500000920E-02 0. -1.
    10030    2    1    2    0    0  0.00000000000E+00  0.00000000000E+00  0.21077185644E+03  0.22163184504E+04  0.22062734867E+04 0.  0.
        5    1    3    3  502    0 -0.75540582469E+03 -0.44222273061E+03  0.77977670677E+03  0.11722937797E+04  0.46999998093E+01 0.  1.
       -5    1    3    3    0  502  0.75540582469E+03  0.44222273061E+03 -0.56900485033E+03  0.10440246708E+04  0.46999998093E+01 0. -1.
</event>
<event>
 5   0  0.1352708E-06  0.3213482E+04  0.7818609E-02  0.8185266E-01
        1   -1    0    0  501    0  0.00000000000E+00  0.00000000000E+00  0.17700972025E+04  0.17700972025E+04  0.50400001928E-02 0. -1.
       -1   -1    0    0    0  501  0.00000000000E+00  0.00000000000E+00 -0.14584599338E+04  0.14584599338E+04  0.50400001928E-02 0.  1.
    10030    2    1    2    0    0  0.00000000000E+00  0.00000000000E+00  0.31163726873E+03  0.32285571363E+04  0.32134815069E+04 0.  0.
        5    1    3    3  502    0 -0.32362844469E+03 -0.83083129240E+03  0.14987185062E+04  0.17439023074E+04  0.46999998093E+01 0. -1.
       -5    1    3    3    0  502  0.32362844469E+03  0.83083129240E+03 -0.11870812375E+04  0.14846548289E+04  0.46999998093E+01 0.  1.
</event>
<event>
 5   0  0.1352708E-06  0.3202536E+04  0.7818609E-02  0.8188148E-01
       -1   -1    0    0    0  501  0.00000000000E+00  0.00000000000E+00  0.97697336486E+03  0.97697336487E+03  0.50400001928E-02 0. -1.
        1   -1    0    0  501    0  0.00000000000E+00  0.00000000000E+00 -0.26244921326E+04  0.26244921326E+04  0.50400001928E-02 0.  1.
    10030    2    1    2    0    0  0.00000000000E+00  0.00000000000E+00 -0.16475187678E+04  0.36014654975E+04  0.32025358139E+04 0.  0.
        5    1    3    3  502    0  0.12563349914E+04 -0.62853522831E+03 -0.16879966088E+04  0.21960848766E+04  0.46999998093E+01 0.  1.
       -5    1    3    3    0  502 -0.12563349914E+04  0.62853522831E+03  0.40477841069E+02  0.14053806209E+04  0.46999998093E+01 0. -1.
</event>
<event>
 5   0  0.3671997E-06  0.3431437E+04  0.7818609E-02  0.8130233E-01
        2   -1    0    0  501    0  0.00000000000E+00  0.00000000000E+00  0.20323436650E+04  0.20323436650E+04  0.25500000920E-02 0. -1.
       -2   -1    0    0    0  501  0.00000000000E+00  0.00000000000E+00 -0.14484216569E+04  0.14484216569E+04  0.25500000920E-02 0.  1.
    10030    2    1    2    0    0  0.00000000000E+00  0.00000000000E+00  0.58392200814E+03  0.34807653219E+04  0.34314373540E+04 0.  0.
        2    1    3    3  502    0  0.10557886973E+04 -0.10326286264E+04  0.11778300808E+04  0.18889932113E+04  0.25500000920E-02 0. -1.
       -2    1    3    3    0  502 -0.10557886973E+04  0.10326286264E+04 -0.59390807262E+03  0.15917721106E+04  0.25500000920E-02 0.  1.
</event>
<event>
 5   0  0.1339825E-06  0.3304791E+04  0.7818609E-02  0.8161677E-01
       -1   -1    0    0    0  501  0.00000000000E+00  0.00000000000E+00  0.22750775789E+04  0.22750775789E+04  0.50400001928E-02 0. -1.
        1   -1    0    0  501    0  0.00000000000E+00  0.00000000000E+00 -0.12001396184E+04  0.12001396184E+04  0.50400001928E-02 0.  1.
    10030    2    1    2    0    0  0.00000000000E+00  0.00000000000E+00  0.10749379605E+04  0.34752171973E+04  0.33047909086E+04 0.  0.
        3    1    3    3  502    0 -0.72740541250E+03 -0.12686085639E+04 -0.27157305811E+03  0.14873594921E+04  0.10100000352E+00 0.  1.
       -3    1    3    3    0  502  0.72740541250E+03  0.12686085639E+04  0.13465110187E+04  0.19878577052E+04  0.10100000352E+00 0. -1.
</event>
<event>
 5   0  0.3896210E-06  0.3258190E+04  0.7818609E-02  0.8173616E-01
       -2   -1    0    0    0  501  0.00000000000E+00  0.00000000000E+00  0.21900339016E+04  0.21900339016E+04  0.25500000920E-02 0. -1.
        2   -1    0    0  501    0  0.00000000000E+00  0.00000000000E+00 -0.12118309936E+04  0.12118309936E+04  0.25500000920E-02 0.  1.
    10030    2    1    2    0    0  0.00000000000E+00  0.00000000000E+00  0.97820290795E+03  0.34018648952E+04  0.32581902700E+04 0.  0.
        3    1    3    3  502    0 -0.10251758977E+04 -0.51533805839E+03  0.16965537505E+04  0.20481341690E+04  0.10100000352E+00 0. -1.
       -3    1    3    3    0  502  0.10251758977E+04  0.51533805839E+03 -0.71835084256E+03  0.13537307261E+04  0.10100000352E+00 0.  1.
</event>
<event>
 5   0  0.3920487E-06  0.2721143E+04  0.7818609E-02  0.8328177E-01
        2   -1    0    0  501    0  0.00000000000E+00  0.00000000000E+00  0.12340875598E+04  0.12340875598E+04  0.25500000920E-02 0.  1.
       -2   -1    0    0    0  501  0.00000000000E+00  0.00000000000E+00 -0.15000193749E+04  0.15000193749E+04  0.25500000920E-02 0. -1.
    10030    2    1    2    0    0  0.00000000000E+00  0.00000000000E+00 -0.26593181509E+03  0.27341069347E+04  0.27211433259E+04 0.  0.
        4    1    3    3  502    0 -0.41454297485E+03  0.80198151030E+03  0.88978981790E+03  0.12675755417E+04  0.12699999809E+01 0.  1.
       -4    1    3    3    0  502  0.41454297485E+03 -0.80198151030E+03 -0.11557216330E+04  0.14665313930E+04  0.12699999809E+01 0. -1.
</event>
<event>
 5   0  0.3920487E-06  0.2848895E+04  0.7818609E-02  0.8288247E-01
        2   -1    0    0  501    0  0.00000000000E+00  0.00000000000E+00  0.20021601754E+04  0.20021601754E+04  0.25500000920E-02 0.  1.
       -2   -1    0    0    0  501  0.00000000000E+00  0.00000000000E+00 -0.10134307519E+04  0.10134307519E+04  0.25500000920E-02 0. -1.
    10030    2    1    2    0    0  0.00000000000E+00  0.00000000000E+00  0.98872942353E+03  0.30155909274E+04  0.28488950083E+04 0.  0.
        4    1    3    3  502    0 -0.13519872419E+03 -0.62315194555E+03  0.18426503772E+04  0.19498612945E+04  0.12699999809E+01 0.  1.
       -4    1    3    3    0  502  0.13519872419E+03  0.62315194555E+03 -0.85392095370E+03  0.10657296328E+04  0.12699999809E+01 0. -1.
</event>
<event>
 5   0  0.1391878E-06  0.3302308E+04  0.7818609E-02  0.8162308E-01
        1   -1    0    0  501    0  0.00000000000E+00  0.00000000000E+00  0.16434878048E+04  0.16434878048E+04  0.50400001928E-02 0. -1.
       -1   -1    0    0    0  501  0.00000000000E+00  0.00000000000E+00 -0.16588555089E+04  0.16588555089E+04  0.50400001928E-02 0.  1.
    10030    2    1    2    0    0  0.00000000000E+00  0.00000000000E+00 -0.15367704149E+02  0.33023433137E+04  0.33023075561E+04 0.  0.
        2    1    3    3  502    0 -0.36885748333E+03 -0.14322681731E+04  0.72639550722E+03  0.16477555631E+04  0.25500000920E-02 0. -1.
       -2    1    3    3    0  502  0.36885748333E+03  0.14322681731E+04 -0.74176321137E+03  0.16545877506E+04  0.25500000920E-02 0.  1.
</event>
<event>
 5   0  0.4017247E-06  0.2933500E+04  0.7818609E-02  0.8262979E-01
        2   -1    0    0  501    0  0.00000000000E+00  0.00000000000E+00  0.23271371718E+04  0.23271371718E+04  0.25500000920E-02 0. -1.
       -2   -1    0    0    0  501  0.00000000000E+00  0.00000000000E+00 -0.92446449875E+03  0.92446449876E+03  0.25500000920E-02 0.  1.
    10030    2    1    2    0    0  0.00000000000E+00  0.00000000000E+00  0.14026726730E+04  0.32516016705E+04  0.29335000931E+04 0.  0.
        1    1    3    3  502    0 -0.70796462776E+03  0.12283935398E+04  0.11178362225E+04  0.18054701391E+04  0.50400001928E-02 0. -1.
       -1    1    3    3    0  502  0.70796462776E+03 -0.12283935398E+04  0.28483645055E+03  0.14461315315E+04  0.50400001928E-02 0.  1.
</event>
<event>
 5   0  0.1405389E-06  0.3267734E+04  0.7818609E-02  0.8171154E-01
        1   -1    0    0  501    0  0.00000000000E+00  0.00000000000E+00  0.14748985803E+04  0.14748985804E+04  0.50400001928E-02 0.  1.
       -1   -1    0    0    0  501  0.00000000000E+00  0.00000000000E+00 -0.18099697480E+04  0.18099697480E+04  0.50400001928E-02 0. -1.
    10030    2    1    2    0    0  0.00000000000E+00  0.00000000000E+00 -0.33507116764E+03  0.32848683284E+04  0.32677342682E+04 0.  0.
        1    1    3    3  502    0 -0.14610349787E+04 -0.16776221802E+02  0.56747345709E+03  0.15674599756E+04  0.50400001928E-02 0.  1.
       -1    1    3    3    0  502  0.14610349787E+04  0.16776221802E+02 -0.90254462474E+03  0.17174083528E+04  0.50400001928E-02 0. -1.
</event>
<event>
 5   0  0.1352708E-06  0.3287302E+04  0.7818609E-02  0.8166134E-01
       -1   -1    0    0    0  501  0.00000000000E+00  0.00000000000E+00  0.17332622426E+04  0.17332622426E+04  0.50400001928E-02 0.  1.
        1   -1    0    0  501    0  0.00000000000E+00  0.00000000000E+00 -0.15586728099E+04  0.15586728099E+04  0.50400001928E-02 0. -1.
    10030    2    1    2    0    0  0.00000000000E+00  0.00000000000E+00  0.17458943269E+03  0.32919350525E+04  0.32873020731E+04 0.  0.
        5    1    3    3  502    0 -0.49127382629E+03 -0.14104007630E+04 -0.59995695933E+03  0.16095187877E+04  0.46999998093E+01 0. -1.
       -5    1    3    3    0  502  0.49127382629E+03  0.14104007630E+04  0.77454639201E+03  0.16824162648E+04  0.46999998093E+01 0.  1.
</event>
<event>
 5   0  0.4017247E-06  0.2752337E+04  0.7818609E-02  0.8318220E-01
       -2   -1    0    0    0  501  0.00000000000E+00  0.00000000000E+00  0.70957228711E+03  0.70957228711E+03  0.25500000920E-02 0. -1.
        2   -1    0    0  501    0  0.00000000000E+00  0.00000000000E+00 -0.26689880579E+04  0.26689880579E+04  0.25500000920E-02 0.  1.
    10030    2    1    2    0    0  0.00000000000E+00  0.00000000000E+00 -0.19594157708E+04  0.33785603450E+04  0.27523371600E+04 0.  0.
        1    1    3    3  502    0  0.11438206924E+04 -0.20364021103E+03 -0.74293484332E+02  0.11641798116E+04  0.50400001928E-02 0. -1.
       -1    1    3    3    0  502 -0.11438206924E+04  0.20364021103E+03 -0.18851222865E+04  0.22143805334E+04  0.50400001928E-02 0.  1.
</event>
<event>
 5   0  0.1352708E-06  0.3085992E+04  0.7818609E-02  0.8219593E-01
       -1   -1    0    0    0  501  0.00000000000E+00  0.00000000000E+00  0.20867544122E+04  0.20867544122E+04  0.50400001928E-02 0.  1.
        1   -1    0    0  501    0  0.00000000000E+00  0.00000000000E+00 -0.11409282464E+04  0.11409282464E+04  0.50400001928E-02 0. -1.
    10030    2    1    2    0    0  0.00000000000E+00  0.00000000000E+00  0.94582616575E+03  0.32276826586E+04  0.30859922568E+04 0.  0.
        5    1    3    3  502    0 -0.12512874755E+04 -0.90067907232E+03  0.40783214101E+03  0.15947702916E+04  0.46999998093E+01 0.  1.
       -5    1    3    3    0  502  0.12512874755E+04  0.90067907232E+03  0.53799402474E+03  0.16329123670E+04  0.46999998093E+01 0. -1.
</event>
<event>
 5   0  0.1339825E-06  0.3348842E+04  0.7818609E-02  0.8150578E-01
       -1   -1    0    0    0  501  0.00000000000E+00  0.00000000000E+00  0.26140022673E+04  0.26140022673E+04  0.50400001928E-02 0. -1.
        1   -1    0    0  501    0  0.00000000000E+00  0.00000000000E+00 -0.10725640788E+04  0.10725640788E+04  0.50400001928E-02 0.  1.
    10030    2    1    2    0    0  0.00000000000E+00  0.00000000000E+00  0.15414381885E+04  0.36865663462E+04  0.33488415513E+04 0.  0.
        3    1    3    3  502    0  0.67134226710E+03 -0.13677370138E+04  0.15352183308E+04  0.21629378891E+04  0.10100000352E+00 0.  1.
       -3    1    3    3    0  502 -0.67134226710E+03  0.13677370138E+04  0.62198576566E+01  0.15236284571E+04  0.10100000352E+00 0. -1.
</event>
<event>
 5   0  0.1282578E-06  0.3339566E+04  0.7818609E-02  0.8152900E-01
       -1   -1    0    0    0  501  0.00000000000E+00  0.00000000000E+00  0.15559925593E+04  0.15559925593E+04  0.50400001928E-02 0.  1.
        1   -1    0    0  501    0  0.00000000000E+00  0.00000000000E+00 -0.17918950600E+04  0.17918950600E+04  0.50400001928E-02 0. -1.
    10030    2    1    2    0    0  0.00000000000E+00  0.00000000000E+00 -0.23590250068E+03  0.33478876193E+04  0.33395660678E+04 0.  0.
        4    1    3    3  502    0  0.13347878756E+04 -0.87618132555E+03  0.37196002268E+03  0.16394231484E+04  0.12699999809E+01 0.  1.
       -4    1    3    3    0  502 -0.13347878756E+04  0.87618132555E+03 -0.60786252337E+03  0.17084644709E+04  0.12699999809E+01 0. -1.
</event>
<event>
 5   0  0.3812379E-06  0.2584592E+04  0.7818609E-02  0.8373454E-01
        2   -1    0    0  501    0  0.00000000000E+00  0.00000000000E+00  0.10616070799E+04  0.10616070799E+04  0.25500000920E-02 0. -1.
       -2   -1    0    0    0  501  0.00000000000E+00  0.00000000000E+00 -0.15731137470E+04  0.15731137470E+04  0.25500000920E-02 0.  1.
    10030    2    1    2    0    0  0.00000000000E+00  0.00000000000E+00 -0.51150666706E+03  0.26347208269E+04  0.25845917985E+04 0.  0.
        5    1    3    3  502    0 -0.50931339668E+02  0.26787037842E+02 -0.15717982621E+04  0.15728583578E+04  0.46999998093E+01 0.  1.
       -5    1    3    3    0  502  0.50931339668E+02 -0.26787037842E+02  0.10602915951E+04  0.10618624691E+04  0.46999998093E+01 0. -1.
</event>
<event>
 5   0  0.4017247E-06  0.3256695E+04  0.7818609E-02  0.8174003E-01
        2   -1    0    0  501    0  0.00000000000E+00  0.00000000000E+00  0.15242970370E+04  0.15242970370E+04  0.25500000920E-02 0. -1.
       -2   -1    0    0    0  501  0.00000000000E+00  0.00000000000E+00 -0.17395006301E+04  0.17395006301E+04  0.25500000920E-02 0.  1.
    10030    2    1    2    0    0  0.00000000000E+00  0.00000000000E+00 -0.21520359317E+03  0.32637976671E+04  0.32566950464E+04 0.  0.
        1    1    3    3  502    0 -0.38931899865E+03  0.15808695965E+04 -0.79296747775E+02  0.16300324960E+04  0.50400001928E-02 0.  1.
       -1    1    3    3    0  502  0.38931899865E+03 -0.15808695965E+04 -0.13590684539E+03  0.16337651711E+04  0.50400001928E-02 0. -1.
</event>
<event>
 5   0  0.1391878E-06  0.3247075E+04  0.7818609E-02  0.8176494E-01
       -1   -1    0    0    0  501  0.00000000000E+00  0.00000000000E+00  0.21237365856E+04  0.21237365856E+04  0.50400001928E-02 0.  1.
        1   -1    0    0  501    0  0.00000000000E+00  0.00000000000E+00 -0.12411493477E+04  0.12411493477E+04  0.50400001928E-02 0. -1.
    10030    2    1    2    0    0  0.00000000000E+00  0.00000000000E+00  0.88258723787E+03  0.33648859333E+04  0.32470751626E+04 0.  0.
        2    1    3    3  502    0 -0.43027263798E+03 -0.54981959811E+03 -0.10776422299E+04  0.12840361791E+04  0.25500000920E-02 0. -1.
       -2    1    3    3    0  502  0.43027263798E+03  0.54981959811E+03  0.19602294678E+04  0.20808497543E+04  0.25500000920E-02 0.  1.
</event>
<event>
 5   0  0.1352708E-06  0.3132401E+04  0.7818609E-02  0.8206902E-01
        1   -1    0    0  501    0  0.00000000000E+00  0.00000000000E+00  0.14214416013E+04  0.14214416013E+04  0.50400001928E-02 0.  1.
       -1   -1    0    0    0  501  0.00000000000E+00  0.00000000000E+00 -0.17257015772E+04  0.17257015772E+04  0.50400001928E-02 0. -1.
    10030    2    1    2    0    0  0.00000000000E+00  0.00000000000E+00 -0.30425997590E+03  0.31471431785E+04  0.31324010045E+04 0.  0.
        5    1    3    3  502    0 -0.57071071263E+03 -0.13907249708E+04 -0.59366986536E+03  0.16162588471E+04  0.46999998093E+01 0. -1.
       -5    1    3    3    0  502  0.57071071263E+03  0.13907249708E+04  0.28940988946E+03  0.15308843314E+04  0.46999998093E+01 0.  1.
</event>
<event>
 5   0  0.3896210E-06  0.2826512E+04  0.7818609E-02  0.8295084E-01
        2   -1    0    0  501    0  0.00000000000E+00  0.00000000000E+00  0.93625660432E+03  0.93625660432E+03  0.25500000920E-02 0.  1.
       -2   -1    0    0    0  501  0.00000000000E+00  0.00000000000E+00 -0.21332745091E+04  0.21332745091E+04  0.25500000920E-02 0. -1.
    10030    2    1    2    0    0  0.00000000000E+00  0.00000000000E+00 -0.11970179047E+04  0.30695311134E+04  0.28265118772E+04 0.  0.
        3    1    3    3  502    0  0.13939871464E+04 -0.12616090723E+03 -0.38632420830E+03  0.14520203659E+04  0.10100000352E+00 0. -1.
       -3    1    3    3    0  502 -0.13939871464E+04  0.12616090723E+03 -0.81069369645E+03  0.16175107475E+04  0.10100000352E+00 0.  1.
</event>
<event>
 5   0  0.4017247E-06  0.2773213E+04  0.7818609E-02  0.8311633E-01
       -2   -1    0    0    0  501  0.00000000000E+00  0.00000000000E+00  0.18326152271E+04  0.18326152271E+04  0.25500000920E-02 0.  1.
        2   -1    0    0  501    0  0.00000000000E+00  0.00000000000E+00 -0.10491445125E+04  0.10491445125E+04  0.25500000920E-02 0. -1.
    10030    2    1    2    0    0  0.00000000000E+00  0.00000000000E+00  0.78347071460E+03  0.28817597397E+04  0.27732134495E+04 0.  0.
        1    1    3    3  502    0 -0.11800374956E+04  0.53097153516E+03 -0.12602277170E+03  0.13001157646E+04  0.50400001928E-02 0. -1.
       -1    1    3    3    0  502  0.11800374956E+04 -0.53097153516E+03  0.90949348631E+03  0.15816439751E+04  0.50400001928E-02 0.  1.
</event>
<event>
 5   0  0.1259875E-06  0.2835253E+04  0.7818609E-02  0.8292407E-01
        3   -1    0    0  501    0  0.00000000000E+00  0.00000000000E+00  0.12091139816E+04  0.12091139858E+04  0.10100000352E+00 0.  1.
       -3   -1    0    0    0  501  0.00000000000E+00  0.00000000000E+00 -0.16620972250E+04  0.16620972281E+04  0.10100000352E+00 0. -1.
    10030    2    1    2    0    0  0.00000000000E+00  0.00000000000E+00 -0.45298324342E+03  0.28712112139E+04  0.28352530779E+04 0.  0.
        4    1    3    3  502    0 -0.10341210358E+04  0.80046397785E+03  0.32772842804E+03  0.13481678056E+04  0.12699999809E+01 0.  1.
       -4    1    3    3    0  502  0.10341210358E+04 -0.80046397785E+03 -0.78071167146E+03  0.15230434083E+04  0.12699999809E+01 0. -1.
</event>
<event>
 5   0  0.1391878E-06  0.3221037E+04  0.7818609E-02  0.8183283E-01
       -1   -1    0    0    0  501  0.00000000000E+00  0.00000000000E+00  0.16015261597E+04  0.16015261597E+04  0.50400001928E-02 0.  1.
        1   -1    0    0  501    0  0.00000000000E+00  0.00000000000E+00 -0.16195612759E+04  0.16195612759E+04  0.50400001928E-02 0. -1.
    10030    2    1    2    0    0  0.00000000000E+00  0.00000000000E+00 -0.18035116215E+02  0.32210874356E+04  0.32210369452E+04 0.  0.
        2    1    3    3  502    0  0.83799664530E+03 -0.87308282479E+03 -0.10716996164E+04  0.16164937563E+04  0.25500000920E-02 0. -1.
       -2    1    3    3    0  502 -0.83799664530E+03  0.87308282479E+03  0.10536645002E+04  0.16045936792E+04  0.25500000920E-02 0.  1.
</event>
<event>
 5   0  0.1352708E-06  0.3294183E+04  0.7818609E-02  0.8164377E-01
       -1   -1    0    0    0  501  0.00000000000E+00  0.00000000000E+00  0.82012085193E+03  0.82012085195E+03  0.50400001928E-02 0.  1.
        1   -1    0    0  501    0  0.00000000000E+00  0.00000000000E+00 -0.33079391049E+04  0.33079391049E+04  0.50400001928E-02 0. -1.
    10030    2    1    2    0    0  0.00000000000E+00  0.00000000000E+00 -0.24878182529E+04  0.41280599568E+04  0.32941826524E+04 0.  0.
        5    1    3    3  502    0 -0.10713690269E+04  0.10411167574E+04 -0.37468761492E+03  0.15401845971E+04  0.46999998093E+01 0.  1.
       -5    1    3    3    0  502  0.10713690269E+04 -0.10411167574E+04 -0.21131306380E+04  0.25878753598E+04  0.46999998093E+01 0. -1.
</event>
<event>
 5   0  0.1391878E-06  0.3097456E+04  0.7818609E-02  0.8216436E-01
       -1   -1    0    0    0  501  0.00000000000E+00  0.00000000000E+00  0.16287134583E+04  0.16287134583E+04  0.50400001928E-02 0.  1.
        1   -1    0    0  501    0  0.00000000000E+00  0.00000000000E+00 -0.14726705569E+04  0.14726705569E+04  0.50400001928E-02 0. -1.
    10030    2    1    2    0    0  0.00000000000E+00  0.00000000000E+00  0.15604290138E+03  0.31013840152E+04  0.30974559598E+04 0.  0.
        2    1    3    3  502    0 -0.13536198223E+04  0.73804032647E+03  0.22506888303E+03  0.15580905458E+04  0.25500000920E-02 0.  1.
       -2    1    3    3    0  502  0.13536198223E+04 -0.73804032647E+03 -0.69025981654E+02  0.15432934695E+04  0.25500000920E-02 0. -1.
</event>
<event>
 5   0  0.1352708E-06  0.3280932E+04  0.7818609E-02  0.8167764E-01
        1   -1    0    0  501    0  0.00000000000E+00  0.00000000000E+00  0.19553929034E+04  0.19553929034E+04  0.50400001928E-02 0.  1.
       -1   -1    0    0    0  501  0.00000000000E+00  0.00000000000E+00 -0.13762596275E+04  0.13762596275E+04  0.50400001928E-02 0. -1.
    10030    2    1    2    0    0  0.00000000000E+00  0.00000000000E+00  0.57913327590E+03  0.33316525309E+04  0.32809317633E+04 0.  0.
        5    1    3    3  502    0 -0.41920810724E+03  0.41105462336E+03 -0.12659117434E+04  0.13954411391E+04  0.46999998093E+01 0. -1.
       -5    1    3    3    0  502  0.41920810724E+03 -0.41105462336E+03  0.18450450193E+04  0.19362113918E+04  0.46999998093E+01 0.  1.
</event>
<event>
 5   0  0.1391878E-06  0.3045124E+04  0.7818609E-02  0.8230962E-01
        1   -1    0    0  501    0  0.00000000000E+00  0.00000000000E+00  0.30903662041E+04  0.30903662041E+04  0.50400001928E-02 0.  1.
       -1   -1    0    0    0  501  0.00000000000E+00  0.00000000000E+00 -0.75013583877E+03  0.75013583878E+03  0.50400001928E-02 0. -1.
    10030    2    1    2    0    0  0.00000000000E+00  0.00000000000E+00  0.23402303653E+04  0.38405020428E+04  0.30451236064E+04 0.  0.
        2    1    3    3  502    0 -0.10926873662E+04 -0.91139448654E+03  0.48674998645E+03  0.15038388011E+04  0.25500000920E-02 0. -1.
       -2    1    3    3    0  502  0.10926873662E+04  0.91139448654E+03  0.18534803788E+04  0.23366632417E+04  0.25500000920E-02 0.  1.
</event>
<event>
 5   0  0.3896210E-06  0.3649721E+04  0.7818609E-02  0.8079197E-01
        2   -1    0    0  501    0  0.00000000000E+00  0.00000000000E+00  0.10215804100E+04  0.10215804100E+04  0.25500000920E-02 0. -1.
       -2   -1    0    0    0  501  0.00000000000E+00  0.00000000000E+00 -0.32597680576E+04  0.32597680576E+04  0.25500000920E-02 0.  1.
    10030    2    1    2    0    0  0.00000000000E+00  0.00000000000E+00 -0.22381876476E+04  0.42813484676E+04  0.36497206407E+04 0.  0.
        3    1    3    3  502    0 -0.49835021660E+03  0.11618480711E+04 -0.26628501892E+04  0.29477135239E+04  0.10100000352E+00 0.  1.
       -3    1    3    3    0  502  0.49835021660E+03 -0.11618480711E+04  0.42466254157E+03  0.13336349437E+04  0.10100000352E+00 0. -1.
</event>
<event>
 5   0  0.3671997E-06  0.3305115E+04  0.7818609E-02  0.8161595E-01
       -2   -1    0    0    0  501  0.00000000000E+00  0.00000000000E+00  0.10912289195E+04  0.10912289195E+04  0.25500000920E-02 0.  1.
        2   -1    0    0  501    0  0.00000000000E+00  0.00000000000E+00 -0.25026331898E+04  0.25026331898E+04  0.25500000920E-02 0. -1.
    10030    2    1    2    0    0  0.00000000000E+00  0.00000000000E+00 -0.14114042703E+04  0.35938621093E+04  0.33051146495E+04 0.  0.
        2    1    3    3  502    0  0.13602559400E+04 -0.79566976540E+03 -0.12467234063E+04  0.20094043520E+04  0.25500000920E-02 0.  1.
       -2    1    3    3    0  502 -0.13602559400E+04  0.79566976540E+03 -0.16468086401E+03  0.15844577574E+04  0.25500000920E-02 0. -1.
</event>
<event>
 5   0  0.4017247E-06  0.3454433E+04  0.7818609E-02  0.8124674E-01
       -2   -1    0    0    0  501  0.00000000000E+00  0.00000000000E+00  0.23540235683E+04  0.23540235683E+04  0.25500000920E-02 0.  1.
        2   -1    0    0  501    0  0.00000000000E+00  0.00000000000E+00 -0.12673097855E+04  0.12673097855E+04  0.25500000920E-02 0. -1.
    10030    2    1    2    0    0  0.00000000000E+00  0.00000000000E+00  0.10867137828E+04  0.36213333538E+04  0.34544331537E+04 0.  0.
        1    1    3    3  502    0  0.15057837879E+04 -0.74220191679E+03  0.11749250583E+03  0.16828704615E+04  0.50400001928E-02 0. -1.
       -1    1    3    3    0  502 -0.15057837879E+04  0.74220191679E+03  0.96922127697E+03  0.19384628923E+04  0.50400001928E-02 0.  1.
</event>
<event>
 5   0  0.1391878E-06  0.3264401E+04  0.7818609E-02  0.8172013E-01
       -1   -1    0    0    0  501  0.00000000000E+00  0.00000000000E+00  0.13255934191E+04  0.13255934191E+04  0.50400001928E-02 0.  1.
        1   -1    0    0  501    0  0.00000000000E+00  0.00000000000E+00 -0.20097250111E+04  0.20097250111E+04  0.50400001928E-02 0. -1.
    10030    2    1    2    0    0  0.00000000000E+00  0.00000000000E+00 -0.68413159197E+03  0.33353184302E+04  0.32644008632E+04 0.  0.
        2    1    3    3  502    0 -0.95875210320E+03  0.13076203116E+04 -0.15091379511E+03  0.16284506281E+04  0.25500000920E-02 0.  1.
       -2    1    3    3    0  502  0.95875210320E+03 -0.13076203116E+04 -0.53321779686E+03  0.17068678020E+04  0.25500000920E-02 0. -1.
</event>
<event>
 5   0  0.3920487E-06  0.3035400E+04  0.7818609E-02  0.8233694E-01
        2   -1    0    0  501    0  0.00000000000E+00  0.00000000000E+00  0.13399637750E+04  0.13399637750E+04  0.25500000920E-02 0.  1.
       -2   -1    0    0    0  501  0.00000000000E+00  0.00000000000E+00 -0.17190110891E+04  0.17190110891E+04  0.25500000920E-02 0. -1.
    10030    2    1    2    0    0  0.00000000000E+00  0.00000000000E+00 -0.37904731408E+03  0.30589748641E+04  0.30353995376E+04 0.  0.
        4    1    3    3  502    0  0.12759739650E+04  0.55958989542E+02 -0.10157510884E+04  0.16318679035E+04  0.12699999809E+01 0. -1.
       -4    1    3    3    0  502 -0.12759739650E+04 -0.55958989542E+02  0.63670377432E+03  0.14271069606E+04  0.12699999809E+01 0.  1.
</event>
<event>
 5   0  0.1405389E-06  0.3294716E+04  0.7818609E-02  0.8164241E-01
        1   -1    0    0  501    0  0.00000000000E+00  0.00000000000E+00  0.26993902912E+04  0.26993902912E+04  0.50400001928E-02 0.  1.
       -1   -1    0    0    0  501  0.00000000000E+00  0.00000000000E+00 -0.10053341347E+04  0.10053341347E+04  0.50400001928E-02 0. -1.
    10030    2    1    2    0    0  0.00000000000E+00  0.00000000000E+00  0.16940561566E+04  0.37047244259E+04  0.32947164992E+04 0.  0.
        1    1    3    3  502    0 -0.81973943948E+03  0.92594441594E+03  0.20707845816E+04  0.24119482982E+04  0.50400001928E-02 0.  1.
       -1    1    3    3    0  502  0.81973943948E+03 -0.92594441594E+03 -0.37672842501E+03  0.12927761277E+04  0.50400001928E-02 0. -1.
</event>
<event>
 5   0  0.1282578E-06  0.3228509E+04  0.7818609E-02  0.8181328E-01
       -1   -1    0    0    0  501  0.00000000000E+00  0.00000000000E+00  0.90872563174E+03  0.90872563175E+03  0.50400001928E-02 0. -1.
        1   -1    0    0  501    0  0.00000000000E+00  0.00000000000E+00 -0.28675514721E+04  0.28675514721E+04  0.50400001928E-02 0.  1.
    10030    2    1    2    0    0  0.00000000000E+00  0.00000000000E+00 -0.19588258404E+04  0.37762771039E+04  0.32285089581E+04 0.  0.
        4    1    3    3  502    0  0.78334710504E+03 -0.69200652045E+03  0.45947126449E+03  0.11417623076E+04  0.12699999809E+01 0. -1.
       -4    1    3    3    0  502 -0.78334710504E+03  0.69200652045E+03 -0.24182971049E+04  0.26345147962E+04  0.12699999809E+01 0.  1.
</event>
<event>
 5   0  0.3896210E-06  0.3388349E+04  0.7818609E-02  0.8140772E-01
        2   -1    0    0  501    0  0.00000000000E+00  0.00000000000E+00  0.19390103627E+04  0.19390103627E+04  0.25500000920E-02 0.  1.
       -2   -1    0    0    0  501  0.00000000000E+00  0.00000000000E+00 -0.14802540358E+04  0.14802540358E+04  0.25500000920E-02 0. -1.
    10030    2    1    2    0    0  0.00000000000E+00  0.00000000000E+00  0.45875632697E+03  0.34192643985E+04  0.33883494004E+04 0.  0.
        3    1    3    3  502    0  0.75724430245E+03  0.13572442904E+04 -0.45108637406E+03  0.16183355414E+04  0.10100000352E+00 0. -1.
       -3    1    3    3    0  502 -0.75724430245E+03 -0.13572442904E+04  0.90984270103E+03  0.18009288571E+04  0.10100000352E+00 0.  1.
</event>
<event>
 5   0  0.1352708E-06  0.3293134E+04  0.7818609E-02  0.8164645E-01
       -1   -1    0    0    0  501  0.00000000000E+00  0.00000000000E+00  0.22559797580E+04  0.22559797580E+04  0.50400001928E-02 0.  1.
        1   -1    0    0  501    0  0.00000000000E+00  0.00000000000E+00 -0.12017764706E+04  0.12017764707E+04  0.50400001928E-02 0. -1.
    10030    2    1    2    0    0  0.00000000000E+00  0.00000000000E+00  0.10542032874E+04  0.34577562287E+04  0.32931343073E+04 0.  0.
        5    1    3    3  502    0 -0.55622256078E+02 -0.99648163539E+03 -0.84798041704E+03  0.13096420743E+04  0.46999998093E+01 0. -1.
       -5    1    3    3    0  502  0.55622256078E+02  0.99648163539E+03  0.19021837044E+04  0.21481141544E+04  0.46999998093E+01 0.  1.
</event>
<event>
 5   0  0.3896210E-06  0.3254555E+04  0.7818609E-02  0.8174556E-01
        2   -1    0    0  501    0  0.00000000000E+00  0.00000000000E+00  0.21136081446E+04  0.21136081446E+04  0.25500000920E-02 0.  1.
       -2   -1    0    0    0  501  0.00000000000E+00  0.00000000000E+00 -0.12528490054E+04  0.12528490054E+04  0.25500000920E-02 0. -1.
    10030    2    1    2    0    0  0.00000000000E+00  0.00000000000E+00  0.86075913920E+03  0.33664571501E+04  0.32545548770E+04 0.  0.
        3    1    3    3  502    0  0.98504506909E+03 -0.12488643163E+04  0.74972965802E+02  0.15923557468E+04  0.10100000352E+00 0.  1.
       -3    1    3    3    0  502 -0.98504506909E+03  0.12488643163E+04  0.78578617340E+03  0.17741014033E+04  0.10100000352E+00 0. -1.
</event>
<event>
 5   0  0.1282578E-06  0.3028484E+04  0.7818609E-02  0.8235644E-01
       -1   -1    0    0    0  501  0.00000000000E+00  0.00000000000E+00  0.16428058648E+04  0.16428058648E+04  0.50400001928E-02 0.  1.
        1   -1    0    0  501    0  0.00000000000E+00  0.00000000000E+00 -0.13957390062E+04  0.13957390062E+04  0.50400001928E-02 0. -1.
    10030    2    1    2    0    0  0.00000000000E+00  0.00000000000E+00  0.24706685859E+03  0.30385448711E+04  0.30284835976E+04 0.  0.
        4    1    3    3  502    0  0.10481710218E+03  0.11373175123E+04 -0.87397719843E+03  0.14381639354E+04  0.12699999809E+01 0. -1.
       -4    1    3    3    0  502 -0.10481710218E+03 -0.11373175123E+04  0.11210440570E+04  0.16003809357E+04  0.12699999809E+01 0.  1.
</event>
<event>
 5   0  0.1352708E-06  0.3352080E+04  0.7818609E-02  0.8149769E-01
        1   -1    0    0  501    0  0.00000000000E+00  0.00000000000E+00  0.22013865604E+04  0.22013865604E+04  0.50400001928E-02 0.  1.
       -1   -1    0    0    0  501  0.00000000000E+00  0.00000000000E+00 -0.12760636748E+04  0.12760636748E+04  0.50400001928E-02 0. -1.
    10030    2    1    2    0    0  0.00000000000E+00  0.00000000000E+00  0.92532288560E+03  0.34774502352E+04  0.33520796076E+04 0.  0.
        5    1    3    3  502    0  0.83283136246E+03 -0.14541622898E+04  0.43169037322E+03  0.17304839531E+04  0.46999998093E+01 0. -1.
       -5    1    3    3    0  502 -0.83283136246E+03  0.14541622898E+04  0.49363251237E+03  0.17469662821E+04  0.46999998093E+01 0.  1.
</event>
<event>
 5   0  0.3812379E-06  0.2498292E+04  0.7818609E-02  0.8403594E-01
       -2   -1    0    0    0  501  0.00000000000E+00  0.00000000000E+00  0.89374068730E+03  0.89374068731E+03  0.25500000920E-02 0. -1.
        2   -1    0    0  501    0  0.00000000000E+00  0.00000000000E+00 -0.17458823297E+04  0.17458823297E+04  0.25500000920E-02 0.  1.
    10030    2    1    2    0    0  0.00000000000E+00  0.00000000000E+00 -0.85214164243E+03  0.26396230170E+04  0.24982922754E+04 0.  0.
        5    1    3    3  502    0 -0.24113557345E+03  0.78092989075E+03  0.57200913122E+03  0.99760432800E+03  0.46999998093E+01 0. -1.
       -5    1    3    3    0  502  0.24113557345E+03 -0.78092989075E+03 -0.14241507736E+04  0.16420186890E+04  0.46999998093E+01 0.  1.
</event>
<event>
 5   0  0.1405389E-06  0.3312118E+04  0.7818609E-02  0.8159819E-01
        1   -1    0    0  501    0  0.00000000000E+00  0.00000000000E+00  0.22515212073E+04  0.22515212073E+04  0.50400001928E-02 0. -1.
       -1   -1    0    0    0  501  0.00000000000E+00  0.00000000000E+00 -0.12180790807E+04  0.12180790807E+04  0.50400001928E-02 0.  1.
    10030    2    1    2    0    0  0.00000000000E+00  0.00000000000E+00  0.10334421266E+04  0.34696002881E+04  0.33121176806E+04 0.  0.
        1    1    3    3  502    0 -0.22988733060E+03 -0.21905940004E+03 -0.11858885412E+04  0.12276672341E+04  0.50400001928E-02 0.  1.
       -1    1    3    3    0  502  0.22988733060E+03  0.21905940004E+03  0.22193306678E+04  0.22419330540E+04  0.50400001928E-02 0. -1.
</event>
<event>
 5   0  0.3812379E-06  0.2523544E+04  0.7818609E-02  0.8394646E-01
        2   -1    0    0  501    0  0.00000000000E+00  0.00000000000E+00  0.15525986098E+04  0.15525986098E+04  0.25500000920E-02 0. -1.
       -2   -1    0    0    0  501  0.00000000000E+00  0.00000000000E+00 -0.10254219021E+04  0.10254219021E+04  0.25500000920E-02 0.  1.
    10030    2    1    2    0    0  0.00000000000E+00  0.00000000000E+00  0.52717670766E+03  0.25780205118E+04  0.25235440314E+04 0.  0.
        5    1    3    3  502    0 -0.12275922466E+04  0.48326204552E+02 -0.30246122535E+02  0.12289243524E+04  0.46999998093E+01 0. -1.
       -5    1    3    3    0  502  0.12275922466E+04 -0.48326204552E+02  0.55742283019E+03  0.13490961595E+04  0.46999998093E+01 0.  1.
</event>
<event>
 5   0  0.1391878E-06  0.3316294E+04  0.7818609E-02  0.8158762E-01
       -1   -1    0    0    0  501  0.00000000000E+00  0.00000000000E+00  0.18367777294E+04  0.18367777294E+04  0.50400001928E-02 0.  1.
        1   -1    0    0  501    0  0.00000000000E+00  0.00000000000E+00 -0.14968884056E+04  0.14968884056E+04  0.50400001928E-02 0. -1.
    10030    2    1    2    0    0  0.00000000000E+00  0.00000000000E+00  0.33988932380E+03  0.33336661351E+04  0.33162938874E+04 0.  0.
        2    1    3    3  502    0  0.76866791904E+03 -0.57482747342E+03  0.15291275299E+04  0.18054107556E+04  0.25500000920E-02 0.  1.
       -2    1    3    3    0  502 -0.76866791904E+03  0.57482747342E+03 -0.11892382061E+04  0.15282553794E+04  0.25500000920E-02 0. -1.
</event>
<event>
 5   0  0.1339825E-06  0.3221077E+04  0.7818609E-02  0.8183273E-01
       -1   -1    0    0    0  501  0.00000000000E+00  0.00000000000E+00  0.25747139837E+04  0.25747139837E+04  0.50400001928E-02 0.  1.
        1   -1    0    0  501    0  0.00000000000E+00  0.00000000000E+00 -0.10074263467E+04  0.10074263467E+04  0.50400001928E-02 0. -1.
    10030    2    1    2    0    0  0.00000000000E+00  0.00000000000E+00  0.15672876371E+04  0.35821403304E+04  0.32210772747E+04 0.  0.
        3    1    3    3  502    0  0.80120267183E+03  0.13845737340E+04  0.57599309090E+03  0.17002171030E+04  0.10100000352E+00 0. -1.
       -3    1    3    3    0  502 -0.80120267183E+03 -0.13845737340E+04  0.99129454616E+03  0.18819232274E+04  0.10100000352E+00 0.  1.
</event>
<event>
 5   0  0.1352708E-06  0.2289921E+04  0.7818609E-02  0.8481906E-01
       -1   -1    0    0    0  501  0.00000000000E+00  0.00000000000E+00  0.77398920382E+03  0.77398920383E+03  0.50400001928E-02 0.  1.
        1   -1    0    0  501    0  0.00000000000E+00  0.00000000000E+00 -0.16937374280E+04  0.16937374280E+04  0.50400001928E-02 0. -1.
    10030    2    1    2    0    0  0.00000000000E+00  0.00000000000E+00 -0.91974822422E+03  0.24677266319E+04  0.22899209449E+04 0.  0.
        5    1    3    3  502    0  0.90497553403E+03 -0.49559848915E+02  0.29407500490E+03  0.95285838104E+03  0.46999998093E+01 0.  1.
       -5    1    3    3    0  502 -0.90497553403E+03  0.49559848915E+02 -0.12138232291E+04  0.15148682508E+04  0.46999998093E+01 0. -1.
</event>
<event>
 5   0  0.3671997E-06  0.3304997E+04  0.7818609E-02  0.8161625E-01
        2   -1    0    0  501    0  0.00000000000E+00  0.00000000000E+00  0.17798872285E+04  0.17798872285E+04  0.25500000920E-02 0. -1.
       -2   -1    0    0    0  501  0.00000000000E+00  0.00000000000E+00 -0.15342270311E+04  0.15342270311E+04  0.25500000920E-02 0.  1.
    10030    2    1    2    0    0  0.00000000000E+00  0.00000000000E+00  0.24566019740E+03  0.33141142597E+04  0.33049968825E+04 0.  0.
        2    1    3    3  502    0 -0.18453283548E+03 -0.29123919614E+03 -0.14977589704E+04  0.15369302424E+04  0.25500000920E-02 0.  1.
       -2    1    3    3    0  502  0.18453283548E+03  0.29123919614E+03  0.17434191678E+04  0.17771840173E+04  0.25500000920E-02 0. -1.
</event>
<event>
 5   0  0.4017247E-06  0.2605872E+04  0.7818609E-02  0.8366209E-01
       -2   -1    0    0    0  501  0.00000000000E+00  0.00000000000E+00  0.11865148291E+04  0.11865148291E+04  0.25500000920E-02 0.  1.
        2   -1    0    0  501    0  0.00000000000E+00  0.00000000000E+00 -0.14307808492E+04  0.14307808492E+04  0.25500000920E-02 0. -1.
    10030    2    1    2    0    0  0.00000000000E+00  0.00000000000E+00 -0.24426602012E+03  0.26172956783E+04  0.26058723643E+04 0.  0.
        1    1    3    3  502    0 -0.96094791401E+03 -0.53277865290E+03  0.58120003473E+03  0.12430074283E+04  0.50400001928E-02 0.  1.
       -1    1    3    3    0  502  0.96094791401E+03  0.53277865290E+03 -0.82546605485E+03  0.13742882500E+04  0.50400001928E-02 0. -1.
</event>
<event>
 5   0  0.1405389E-06  0.3252264E+04  0.7818609E-02  0.8175149E-01
       -1   -1    0    0    0  501  0.00000000000E+00  0.00000000000E+00  0.99239939577E+03  0.99239939578E+03  0.50400001928E-02 0. -1.
        1   -1    0    0  501    0  0.00000000000E+00  0.00000000000E+00 -0.26645573215E+04  0.26645573215E+04  0.50400001928E-02 0.  1.
    10030    2    1    2    0    0  0.00000000000E+00  0.00000000000E+00 -0.16721579257E+04  0.36569567173E+04  0.32522638736E+04 0.  0.
        1    1    3    3  502    0  0.64473645968E+03  0.14927729758E+04 -0.81834223966E+03  0.18203681718E+04  0.50400001928E-02 0.  1.
       -1    1    3    3    0  502 -0.64473645968E+03 -0.14927729758E+04 -0.85381568607E+03  0.18365885455E+04  0.50400001928E-02 0. -1.
</event>
<event>
 5   0  0.1339825E-06  0.3266421E+04  0.7818609E-02  0.8171492E-01
        1   -1    0    0  501    0  0.00000000000E+00  0.00000000000E+00  0.21103656455E+04  0.21103656455E+04  0.50400001928E-02 0.  1.
       -1   -1    0    0    0  501  0.00000000000E+00  0.00000000000E+00 -0.12639406542E+04  0.12639406542E+04  0.50400001928E-02 0. -1.
    10030    2    1    2    0    0  0.00000000000E+00  0.00000000000E+00  0.84642499125E+03  0.33743062997E+04  0.32664212433E+04 0.  0.
        3    1    3    3  502    0 -0.61669968112E+03  0.15085900297E+04  0.31381604399E+03  0.16597116901E+04  0.10100000352E+00 0.  1.
       -3    1    3    3    0  502  0.61669968112E+03 -0.15085900297E+04  0.53260894727E+03  0.17145946096E+04  0.10100000352E+00 0. -1.
</event>
<event>
 5   0  0.1339825E-06  0.3280849E+04  0.7818609E-02  0.8167786E-01
        1   -1    0    0  501    0  0.00000000000E+00  0.00000000000E+00  0.13813376486E+04  0.13813376486E+04  0.50400001928E-02 0. -1.
       -1   -1    0    0    0  501  0.00000000000E+00  0.00000000000E+00 -0.19481062483E+04  0.19481062483E+04  0.50400001928E-02 0.  1.
    10030    2    1    2    0    0  0.00000000000E+00  0.00000000000E+00 -0.56676859971E+03  0.33294438969E+04  0.32808489781E+04 0.  0.
        3    1    3    3  502    0  0.11733627239E+03  0.12710756578E+04 -0.13289808706E+04  0.18427130252E+04  0.10100000352E+00 0.  1.
       -3    1    3    3    0  502 -0.11733627239E+03 -0.12710756578E+04  0.76221227085E+03  0.14867308717E+04  0.10100000352E+00 0. -1.
</event>
<event>
 5   0  0.1282578E-06  0.3397273E+04  0.7818609E-02  0.8138576E-01
        1   -1    0    0  501    0  0.00000000000E+00  0.00000000000E+00  0.18495809552E+04  0.18495809552E+04  0.50400001928E-02 0. -1.
       -1   -1    0    0    0  501  0.00000000000E+00  0.00000000000E+00 -0.15600110612E+04  0.15600110612E+04  0.50400001928E-02 0.  1.
    10030    2    1    2    0    0  0.00000000000E+00  0.00000000000E+00  0.28956989394E+03  0.34095920164E+04  0.33972734648E+04 0.  0.
        4    1    3    3  502    0 -0.51326322800E+03  0.94927531192E+03 -0.11717652037E+04  0.15929840126E+04  0.12699999809E+01 0.  1.
       -4    1    3    3    0  502  0.51326322800E+03 -0.94927531192E+03  0.14613350976E+04  0.18166080038E+04  0.12699999809E+01 0. -1.
</event>
<event>
 5   0  0.4017247E-06  0.2368413E+04  0.7818609E-02  0.8451425E-01
        2   -1    0    0  501    0  0.00000000000E+00  0.00000000000E+00  0.14246016681E+04  0.14246016681E+04  0.25500000920E-02 0.  1.
       -2   -1    0    0    0  501  0.00000000000E+00  0.00000000000E+00 -0.98437654199E+03  0.98437654199E+03  0.25500000920E-02 0. -1.
    10030    2    1    2    0    0  0.00000000000E+00  0.00000000000E+00  0.44022512613E+03  0.24089782101E+04  0.23684125179E+04 0.  0.
        1    1    3    3  502    0 -0.97966273012E+03  0.60340360792E+03 -0.64882008529E+02  0.11524081976E+04  0.50400001928E-02 0. -1.
       -1    1    3    3    0  502  0.97966273012E+03 -0.60340360792E+03  0.50510713465E+03  0.12565700125E+04  0.50400001928E-02 0.  1.
</event>
<event>
 5   0  0.3896210E-06  0.3368451E+04  0.7818609E-02  0.8145693E-01
       -2   -1    0    0    0  501  0.00000000000E+00  0.00000000000E+00  0.11105683396E+04  0.11105683396E+04  0.25500000920E-02 0. -1.
        2   -1    0    0  501    0  0.00000000000E+00  0.00000000000E+00 -0.25542020227E+04  0.25542020227E+04  0.25500000920E-02 0.  1.
    10030    2    1    2    0    0  0.00000000000E+00  0.00000000000E+00 -0.14436336831E+04  0.36647703623E+04  0.33684512164E+04 0.  0.
        3    1    3    3  502    0  0.15681213623E+04 -0.38094502605E+03 -0.19722604222E+03  0.16257373225E+04  0.10100000352E+00 0. -1.
       -3    1    3    3    0  502 -0.15681213623E+04  0.38094502605E+03 -0.12464076409E+04  0.20390330398E+04  0.10100000352E+00 0.  1.
</event>
<event>
 5   0  0.1339825E-06  0.3262901E+04  0.7818609E-02  0.8172400E-01
       -1   -1    0    0    0  501  0.00000000000E+00  0.00000000000E+00  0.12977963262E+04  0.12977963262E+04  0.50400001928E-02 0. -1.
        1   -1    0    0  501    0  0.00000000000E+00  0.00000000000E+00 -0.20508842016E+04  0.20508842016E+04  0.50400001928E-02 0.  1.
    10030    2    1    2    0    0  0.00000000000E+00  0.00000000000E+00 -0.75308787541E+03  0.33486805278E+04  0.32629005393E+04 0.  0.
        3    1    3    3  502    0 -0.64555773511E+03 -0.95713026879E+03 -0.15595787891E+04  0.19403940709E+04  0.10100000352E+00 0.  1.
       -3    1    3    3    0  502  0.64555773511E+03  0.95713026879E+03  0.80649091368E+03  0.14082864570E+04  0.10100000352E+00 0. -1.
</event>
<event>
 5   0  0.3920487E-06  0.3199300E+04  0.7818609E-02  0.8189002E-01
        2   -1    0    0  501    0  0.00000000000E+00  0.00000000000E+00  0.24968237520E+04  0.24968237520E+04  0.25500000920E-02 0. -1.
       -2   -1    0    0    0  501  0.00000000000E+00  0.00000000000E+00 -0.10248541929E+04  0.10248541929E+04  0.25500000920E-02 0.  1.
    10030    2    1    2    0    0  0.00000000000E+00  0.00000000000E+00  0.14719695591E+04  0.35216779448E+04  0.31993001054E+04 0.  0.
        4    1    3    3  502    0  0.13576624309E+04  0.54637612104E+03  0.14468988562E+04  0.20579825206E+04  0.12699999809E+01 0. -1.
       -4    1    3    3    0  502 -0.13576624309E+04 -0.54637612104E+03  0.25070702873E+02  0.14636954243E+04  0.12699999809E+01 0.  1.
</event>
<event>
 5   0  0.1339825E-06  0.3246827E+04  0.7818609E-02  0.8176559E-01
       -1   -1    0    0    0  501  0.00000000000E+00  0.00000000000E+00  0.14890622781E+04  0.14890622781E+04  0.50400001928E-02 0.  1.
        1   -1    0    0  501    0  0.00000000000E+00  0.00000000000E+00 -0.17698863844E+04  0.17698863844E+04  0.50400001928E-02 0. -1.
    10030    2    1    2    0    0  0.00000000000E+00  0.00000000000E+00 -0.28082410629E+03  0.32589486625E+04  0.32468267903E+04 0.  0.
        3    1    3    3  502    0 -0.14460764066E+04  0.70480376198E+03 -0.35936799844E+03  0.16483417986E+04  0.10100000352E+00 0. -1.
       -3    1    3    3    0  502  0.14460764066E+04 -0.70480376198E+03  0.78543892153E+02  0.16106068638E+04  0.10100000352E+00 0.  1.
</event>
<event>
 5   0  0.1339825E-06  0.3299259E+04  0.7818609E-02  0.8163084E-01
        1   -1    0    0  501    0  0.00000000000E+00  0.00000000000E+00  0.15199769582E+04  0.15199769582E+04  0.50400001928E-02 0.  1.
       -1   -1    0    0    0  501  0.00000000000E+00  0.00000000000E+00 -0.17903416414E+04  0.17903416415E+04  0.50400001928E-02 0. -1.
    10030    2    1    2    0    0  0.00000000000E+00  0.00000000000E+00 -0.27036468327E+03  0.33103185996E+04  0.32992593364E+04 0.  0.
        3    1    3    3  502    0 -0.92193828380E+03  0.13428559001E+04  0.12654808162E+03  0.16337829093E+04  0.10100000352E+00 0.  1.
       -3    1    3    3    0  502  0.92193828380E+03 -0.13428559001E+04 -0.39691276489E+03  0.16765356903E+04  0.10100000352E+00 0. -1.
</event>
<event>
 5   0  0.3896210E-06  0.2635141E+04  0.7818609E-02  0.8356362E-01
        2   -1    0    0  501    0  0.00000000000E+00  0.00000000000E+00  0.19306851548E+04  0.19306851548E+04  0.25500000920E-02 0. -1.
       -2   -1    0    0    0  501  0.00000000000E+00  0.00000000000E+00 -0.89915851721E+03  0.89915851722E+03  0.25500000920E-02 0.  1.
    10030    2    1    2    0    0  0.00000000000E+00  0.00000000000E+00  0.10315266376E+04  0.28298436720E+04  0.26351409837E+04 0.  0.
        3    1    3    3  502    0 -0.60721079553E+03 -0.15094359420E+03  0.17609643983E+04  0.18688190231E+04  0.10100000352E+00 0. -1.
       -3    1    3    3    0  502  0.60721079553E+03  0.15094359420E+03 -0.72943776072E+03  0.96102464890E+03  0.10100000352E+00 0.  1.
</event>
<event>
 5   0  0.1282578E-06  0.3221699E+04  0.7818609E-02  0.8183110E-01
       -1   -1    0    0    0  501  0.00000000000E+00  0.00000000000E+00  0.12895359235E+04  0.12895359235E+04  0.50400001928E-02 0.  1.
        1   -1    0    0  501    0  0.00000000000E+00  0.00000000000E+00 -0.20122247739E+04  0.20122247739E+04  0.50400001928E-02 0. -1.
    10030    2    1    2    0    0  0.00000000000E+00  0.00000000000E+00 -0.72268885038E+03  0.33017606974E+04  0.32216990127E+04 0.  0.
        4    1    3    3  502    0  0.13738095464E+04 -0.72908368765E+03  0.68505433598E+02  0.15567948807E+04  0.12699999809E+01 0.  1.
       -4    1    3    3    0  502 -0.13738095464E+04  0.72908368765E+03 -0.79119428398E+03  0.17449658166E+04  0.12699999809E+01 0. -1.
</event>
<event>
 5   0  0.1339825E-06  0.2951624E+04  0.7818609E-02  0.8257682E-01
        1   -1    0    0  501    0  0.00000000000E+00  0.00000000000E+00  0.22244999294E+04  0.22244999294E+04  0.50400001928E-02 0.  1.
       -1   -1    0    0    0  501  0.00000000000E+00  0.00000000000E+00 -0.97910566117E+03  0.97910566118E+03  0.50400001928E-02 0. -1.
    10030    2    1    2    0    0  0.00000000000E+00  0.00000000000E+00  0.12453942682E+04  0.32036055906E+04  0.29516236035E+04 0.  0.
        3    1    3    3  502    0  0.56847239917E+03  0.13095494521E+04  0.10287183581E+04  0.17596426076E+04  0.10100000352E+00 0.  1.
       -3    1    3    3    0  502 -0.56847239917E+03 -0.13095494521E+04  0.21667591014E+03  0.14439629830E+04  0.10100000352E+00 0. -1.
</event>
<event>
 5   0  0.3671997E-06  0.3254770E+04  0.7818609E-02  0.8174500E-01
        2   -1    0    0  501    0  0.00000000000E+00  0.00000000000E+00  0.18776230543E+04  0.18776230543E+04  0.25500000920E-02 0. -1.
       -2   -1    0    0    0  501  0.00000000000E+00  0.00000000000E+00 -0.14104970315E+04  0.14104970315E+04  0.25500000920E-02 0.  1.
    10030    2    1    2    0    0  0.00000000000E+00  0.00000000000E+00  0.46712602275E+03  0.32881200858E+04  0.32547698809E+04 0.  0.
        2    1    3    3  502    0  0.74740389365E+03  0.95535670967E+01 -0.12268209538E+04  0.14365909312E+04  0.25500000920E-02 0.  1.
       -2    1    3    3    0  502 -0.74740389365E+03 -0.95535670967E+01  0.16939469766E+04  0.18515291546E+04  0.25500000920E-02 0. -1.
</event>
<event>
 5   0  0.1282578E-06  0.3348157E+04  0.7818609E-02  0.8150749E-01
       -1   -1    0    0    0  501  0.00000000000E+00  0.00000000000E+00  0.13901949977E+04  0.13901949977E+04  0.50400001928E-02 0. -1.
        1   -1    0    0  501    0  0.00000000000E+00  0.00000000000E+00 -0.20159316095E+04  0.20159316095E+04  0.50400001928E-02 0.  1.
    10030    2    1    2    0    0  0.00000000000E+00  0.00000000000E+00 -0.62573661172E+03  0.34061266072E+04  0.33481565312E+04 0.  0.
        4    1    3    3  502    0 -0.11356448434E+04 -0.12120359148E+04 -0.52581562492E+03  0.17421836738E+04  0.12699999809E+01 0. -1.
       -4    1    3    3    0  502  0.11356448434E+04  0.12120359148E+04 -0.99920986806E+02  0.16639429334E+04  0.12699999809E+01 0.  1.
</event>
<event>
 5   0  0.4017247E-06  0.3382523E+04  0.7818609E-02  0.8142209E-01
       -2   -1    0    0    0  501  0.00000000000E+00  0.00000000000E+00  0.14274450960E+04  0.14274450960E+04  0.25500000920E-02 0. -1.
        2   -1    0    0  501    0  0.00000000000E+00  0.00000000000E+00 -0.20038356343E+04  0.20038356343E+04  0.25500000920E-02 0.  1.
    10030    2    1    2    0    0  0.00000000000E+00  0.00000000000E+00 -0.57639053830E+03  0.34312807304E+04  0.33825229338E+04 0.  0.
        1    1    3    3  502    0  0.83941034481E+03 -0.12805923089E+03 -0.17719327838E+04  0.19648803231E+04  0.50400001928E-02 0.  1.
       -1    1    3    3    0  502 -0.83941034481E+03  0.12805923089E+03  0.11955422455E+04  0.14664004073E+04  0.50400001928E-02 0. -1.
</event>
<event>
 5   0  0.1391878E-06  0.3262045E+04  0.7818609E-02  0.8172621E-01
        1   -1    0    0  501    0  0.00000000000E+00  0.00000000000E+00  0.14374985323E+04  0.14374985323E+04  0.50400001928E-02 0.  1.
       -1   -1    0    0    0  501  0.00000000000E+00  0.00000000000E+00 -0.18506000514E+04  0.18506000514E+04  0.50400001928E-02 0. -1.
    10030    2    1    2    0    0  0.00000000000E+00  0.00000000000E+00 -0.41310151911E+03  0.32880985836E+04  0.32620452833E+04 0.  0.
        2    1    3    3  502    0  0.31639763533E+03  0.60273493178E+03  0.12874604644E+04  0.14563486221E+04  0.25500000920E-02 0.  1.
       -2    1    3    3    0  502 -0.31639763533E+03 -0.60273493178E+03 -0.17005619836E+04  0.18317499615E+04  0.25500000920E-02 0. -1.
</event>
<event>
 5   0  0.1282578E-06  0.3301586E+04  0.7818609E-02  0.8162492E-01
        1   -1    0    0  501    0  0.00000000000E+00  0.00000000000E+00  0.15278803637E+04  0.15278803637E+04  0.50400001928E-02 0.  1.
       -1   -1    0    0    0  501  0.00000000000E+00  0.00000000000E+00 -0.17835936885E+04  0.17835936885E+04  0.50400001928E-02 0. -1.
    10030    2    1    2    0    0  0.00000000000E+00  0.00000000000E+00 -0.25571332482E+03  0.33114740522E+04  0.33015861482E+04 0.  0.
        4    1    3    3  502    0  0.14630960946E+04  0.50202440569E+03  0.45044402660E+03  0.16110804201E+04  0.12699999809E+01 0. -1.
       -4    1    3    3    0  502 -0.14630960946E+04 -0.50202440569E+03 -0.70615735142E+03  0.17003936321E+04  0.12699999809E+01 0.  1.
</event>
<event>
 5   0  0.3896210E-06  0.3351374E+04  0.7818609E-02  0.8149945E-01
       -2   -1    0    0    0  501  0.00000000000E+00  0.00000000000E+00  0.20299487484E+04  0.20299487484E+04  0.25500000920E-02 0.  1.
        2   -1    0    0  501    0  0.00000000000E+00  0.00000000000E+00 -0.13832504882E+04  0.13832504882E+04  0.25500000920E-02 0. -1.
    10030    2    1    2    0    0  0.00000000000E+00  0.00000000000E+00  0.64669826028E+03  0.34131992366E+04  0.33513744030E+04 0.  0.
        3    1    3    3  502    0 -0.11091810107E+04 -0.38626926251E+03  0.15405713307E+04  0.19372264950E+04  0.10100000352E+00 0.  1.
       -3    1    3    3    0  502  0.11091810107E+04  0.38626926251E+03 -0.89387307045E+03  0.14759727416E+04  0.10100000352E+00 0. -1.
</event>
<event>
 5   0  0.1339825E-06  0.3270239E+04  0.7818609E-02  0.8170510E-01
       -1   -1    0    0    0  501  0.00000000000E+00  0.00000000000E+00  0.19035979885E+04  0.19035979885E+04  0.50400001928E-02 0.  1.
        1   -1    0    0  501    0  0.00000000000E+00  0.00000000000E+00 -0.14045063918E+04  0.14045063918E+04  0.50400001928E-02 0. -1.
    10030    2    1    2    0    0  0.00000000000E+00  0.00000000000E+00  0.49909159670E+03  0.33081043804E+04  0.32702388551E+04 0.  0.
        3    1    3    3  502    0  0.16394796666E+03  0.65615221502E+03  0.17554740828E+04  0.18812506294E+04  0.10100000352E+00 0.  1.
       -3    1    3    3    0  502 -0.16394796666E+03 -0.65615221502E+03 -0.12563824861E+04  0.14268537510E+04  0.10100000352E+00 0. -1.
</event>
<event>
 5   0  0.3671997E-06  0.3084360E+04  0.7818609E-02  0.8220043E-01
        2   -1    0    0  501    0  0.00000000000E+00  0.00000000000E+00  0.11274224276E+04  0.11274224276E+04  0.25500000920E-02 0. -1.
       -2   -1    0    0    0  501  0.00000000000E+00  0.00000000000E+00 -0.21095193741E+04  0.21095193741E+04  0.25500000920E-02 0.  1.
    10030    2    1    2    0    0  0.00000000000E+00  0.00000000000E+00 -0.98209694647E+03  0.32369418017E+04  0.30843601955E+04 0.  0.
        2    1    3    3  502    0 -0.58969916267E+02 -0.12939814344E+04 -0.13693823363E+04  0.18849597838E+04  0.25500000920E-02 0.  1.
       -2    1    3    3    0  502  0.58969916267E+02  0.12939814344E+04  0.38728538979E+03  0.13519820179E+04  0.25500000920E-02 0. -1.
</event>
<event>
 5   0  0.3896210E-06  0.3318723E+04  0.7818609E-02  0.8158148E-01
       -2   -1    0    0    0  501  0.00000000000E+00  0.00000000000E+00  0.17603397819E+04  0.17603397819E+04  0.25500000920E-02 0. -1.
        2   -1    0    0  501    0  0.00000000000E+00  0.00000000000E+00 -0.15641752884E+04  0.15641752885E+04  0.25500000920E-02 0.  1.
    10030    2    1    2    0    0  0.00000000000E+00  0.00000000000E+00  0.19616449341E+03  0.33245150703E+04  0.33187226374E+04 0.  0.
        3    1    3    3  502    0 -0.93183736741E+03 -0.61868589042E+03 -0.11297760167E+04  0.15898072111E+04  0.10100000352E+00 0.  1.
       -3    1    3    3    0  502  0.93183736741E+03  0.61868589042E+03  0.13259405101E+04  0.17347078592E+04  0.10100000352E+00 0. -1.
</event>
<event>
 5   0  0.3671997E-06  0.3206778E+04  0.7818609E-02  0.8187029E-01
        2   -1    0    0  501    0  0.00000000000E+00  0.00000000000E+00  0.13622456718E+04  0.13622456718E+04  0.25500000920E-02 0.  1.
       -2   -1    0    0    0  501  0.00000000000E+00  0.00000000000E+00 -0.18872189812E+04  0.18872189812E+04  0.25500000920E-02 0. -1.
    10030    2    1    2    0    0  0.00000000000E+00  0.00000000000E+00 -0.52497330933E+03  0.32494646530E+04  0.32067777528E+04 0.  0.
        2    1    3    3  502    0  0.14945489084E+04 -0.56843485651E+03 -0.38264532794E+03  0.16441447846E+04  0.25500000920E-02 0. -1.
       -2    1    3    3    0  502 -0.14945489084E+04  0.56843485651E+03 -0.14232798139E+03  0.16053198684E+04  0.25500000920E-02 0.  1.
</event>
<event>
 5   0  0.3671997E-06  0.3318151E+04  0.7818609E-02  0.8158292E-01
       -2   -1    0    0    0  501  0.00000000000E+00  0.00000000000E+00  0.12250994024E+04  0.12250994024E+04  0.25500000920E-02 0. -1.
        2   -1    0    0  501    0  0.00000000000E+00  0.00000000000E+00 -0.22467824920E+04  0.22467824920E+04  0.25500000920E-02 0.  1.
    10030    2    1    2    0    0  0.00000000000E+00  0.00000000000E+00 -0.10216830896E+04  0.34718818945E+04  0.33181512253E+04 0.  0.
        2    1    3    3  502    0  0.89843291614E+03 -0.49695237619E+03 -0.18744424806E+04  0.21372126666E+04  0.25500000920E-02 0.  1.
       -2    1    3    3    0  502 -0.89843291614E+03  0.49695237619E+03  0.85275939101E+03  0.13346692279E+04  0.25500000920E-02 0. -1.
</event>
<event>
 5   0  0.1352708E-06  0.3298294E+04  0.7818609E-02  0.8163330E-01
       -1   -1    0    0    0  501  0.00000000000E+00  0.00000000000E+00  0.11924427523E+04  0.11924427523E+04  0.50400001928E-02 0.  1.
        1   -1    0    0  501    0  0.00000000000E+00  0.00000000000E+00 -0.22807682087E+04  0.22807682087E+04  0.50400001928E-02 0. -1.
    10030    2    1    2    0    0  0.00000000000E+00  0.00000000000E+00 -0.10883254564E+04  0.34732109610E+04  0.32982938135E+04 0.  0.
        5    1    3    3  502    0  0.44468080805E+03 -0.10594609696E+04  0.70156411316E+03  0.13462588392E+04  0.46999998093E+01 0.  1.
       -5    1    3    3    0  502 -0.44468080805E+03  0.10594609696E+04 -0.17898895696E+04  0.21269521218E+04  0.46999998093E+01 0. -1.
</event>
<event>
 5   0  0.1282578E-06  0.3298572E+04  0.7818609E-02  0.8163259E-01
        1   -1    0    0  501    0  0.00000000000E+00  0.00000000000E+00  0.25145383829E+04  0.25145383829E+04  0.50400001928E-02 0. -1.
       -1   -1    0    0    0  501  0.00000000000E+00  0.00000000000E+00 -0.10817669217E+04  0.10817669217E+04  0.50400001928E-02 0.  1.
    10030    2    1    2    0    0  0.00000000000E+00  0.00000000000E+00  0.14327714612E+04  0.35963053046E+04  0.32985720826E+04 0.  0.
        4    1    3    3  502    0  0.13717473144E+04  0.66167963400E+03  0.14064721820E+04  0.20730837523E+04  0.12699999809E+01 0. -1.
       -4    1    3    3    0  502 -0.13717473144E+04 -0.66167963400E+03  0.26299279254E+02  0.15232215523E+04  0.12699999809E+01 0.  1.
</event>
<event>
 5   0  0.3671997E-06  0.2939188E+04  0.7818609E-02  0.8261312E-01
        2   -1    0    0  501    0  0.00000000000E+00  0.00000000000E+00  0.19707854998E+04  0.19707854998E+04  0.25500000920E-02 0. -1.
       -2   -1    0    0    0  501  0.00000000000E+00  0.00000000000E+00 -0.10958609797E+04  0.10958609797E+04  0.25500000920E-02 0.  1.
    10030    2    1    2    0    0  0.00000000000E+00  0.00000000000E+00  0.87492452011E+03  0.30666464796E+04  0.29391882748E+04 0.  0.
        2    1    3    3  502    0 -0.11183966941E+04 -0.62984561293E+03  0.11841722612E+04  0.17463621061E+04  0.25500000920E-02 0. -1.
       -2    1    3    3    0  502  0.11183966941E+04  0.62984561293E+03 -0.30924774110E+03  0.13202843735E+04  0.25500000920E-02 0.  1.
</event>
<event>
 5   0  0.3671997E-06  0.3266598E+04  0.7818609E-02  0.8171447E-01
        2   -1    0    0  501    0  0.00000000000E+00  0.00000000000E+00  0.19076103028E+04  0.19076103028E+04  0.25500000920E-02 0.  1.
       -2   -1    0    0    0  501  0.00000000000E+00  0.00000000000E+00 -0.13984331164E+04  0.13984331164E+04  0.25500000920E-02 0. -1.
    10030    2    1    2    0    0  0.00000000000E+00  0.00000000000E+00  0.50917718639E+03  0.33060434192E+04  0.32665978759E+04 0.  0.
        2    1    3    3  502    0  0.43370279530E+03 -0.12424569599E+04 -0.72449591435E+03  0.15022289245E+04  0.25500000920E-02 0. -1.
       -2    1    3    3    0  502 -0.43370279530E+03  0.12424569599E+04  0.12336731007E+04  0.18038144947E+04  0.25500000920E-02 0.  1.
</event>
<event>
 5   0  0.3896210E-06  0.3246257E+04  0.7818609E-02  0.8176707E-01
       -2   -1    0    0    0  501  0.00000000000E+00  0.00000000000E+00  0.14416908932E+04  0.14416908932E+04  0.25500000920E-02 0.  1.
        2   -1    0    0  501    0  0.00000000000E+00  0.00000000000E+00 -0.18273996937E+04  0.18273996938E+04  0.25500000920E-02 0. -1.
    10030    2    1    2    0    0  0.00000000000E+00  0.00000000000E+00 -0.38570880052E+03  0.32690905870E+04  0.32462566114E+04 0.  0.
        3    1    3    3  502    0  0.26217839828E+03  0.11089510150E+04 -0.13568547922E+04  0.17718817126E+04  0.10100000352E+00 0. -1.
       -3    1    3    3    0  502 -0.26217839828E+03 -0.11089510150E+04  0.97114599165E+03  0.14972088744E+04  0.10100000352E+00 0.  1.
</event>
<event>
 5   0  0.1391878E-06  0.3334944E+04  0.7818609E-02  0.8154060E-01
        1   -1    0    0  501    0  0.00000000000E+00  0.00000000000E+00  0.25861346306E+04  0.25861346306E+04  0.50400001928E-02 0. -1.
       -1   -1    0    0    0  501  0.00000000000E+00  0.00000000000E+00 -0.10751423608E+04  0.10751423608E+04  0.50400001928E-02 0.  1.
    10030    2    1    2    0    0  0.00000000000E+00  0.00000000000E+00  0.15109922698E+04  0.36612769914E+04  0.33349440128E+04 0.  0.
        2    1    3    3  502    0  0.34449058574E+03 -0.10701273768E+04  0.21075124457E+04  0.23886094438E+04  0.25500000920E-02 0. -1.
       -2    1    3    3    0  502 -0.34449058574E+03  0.10701273768E+04 -0.59652017598E+03  0.12726675476E+04  0.25500000920E-02 0.  1.
</event>
<event>
 5   0  0.1405389E-06  0.3250422E+04  0.7818609E-02  0.8175626E-01
       -1   -1    0    0    0  501  0.00000000000E+00  0.00000000000E+00  0.26313865800E+04  0.26313865800E+04  0.50400001928E-02 0.  1.
        1   -1    0    0  501    0  0.00000000000E+00  0.00000000000E+00 -0.10037714464E+04  0.10037714464E+04  0.50400001928E-02 0. -1.
    10030    2    1    2    0    0  0.00000000000E+00  0.00000000000E+00  0.16276151336E+04  0.36351580264E+04  0.32504219502E+04 0.  0.
        1    1    3    3  502    0 -0.96661395644E+03 -0.64072117040E+03 -0.45957977067E+03  0.12474292463E+04  0.50400001928E-02 0. -1.
       -1    1    3    3    0  502  0.96661395644E+03  0.64072117040E+03  0.20871949042E+04  0.23877287801E+04  0.50400001928E-02 0.  1.
</event>
<event>
 5   0  0.3671997E-06  0.3302362E+04  0.7818609E-02  0.8162295E-01
       -2   -1    0    0    0  501  0.00000000000E+00  0.00000000000E+00  0.14490215211E+04  0.14490215211E+04  0.25500000920E-02 0.  1.
        2   -1    0    0  501    0  0.00000000000E+00  0.00000000000E+00 -0.18815447542E+04  0.18815447542E+04  0.25500000920E-02 0. -1.
    10030    2    1    2    0    0  0.00000000000E+00  0.00000000000E+00 -0.43252323317E+03  0.33305662753E+04  0.33023620890E+04 0.  0.
        2    1    3    3  502    0  0.59407362086E+03  0.29635010395E+03 -0.17410109188E+04  0.18632943596E+04  0.25500000920E-02 0. -1.
       -2    1    3    3    0  502 -0.59407362086E+03 -0.29635010395E+03  0.13084876856E+04  0.14672719157E+04  0.25500000920E-02 0.  1.
</event>
<event>
 5   0  0.3812379E-06  0.3224272E+04  0.7818609E-02  0.8182436E-01
       -2   -1    0    0    0  501  0.00000000000E+00  0.00000000000E+00  0.12013833782E+04  0.12013833782E+04  0.25500000920E-02 0. -1.
        2   -1    0    0  501    0  0.00000000000E+00  0.00000000000E+00 -0.21633252874E+04  0.21633252874E+04  0.25500000920E-02 0.  1.
    10030    2    1    2    0    0  0.00000000000E+00  0.00000000000E+00 -0.96194190920E+03  0.33647086655E+04  0.32242723469E+04 0.  0.
        5    1    3    3  502    0  0.91814175760E+03  0.11774062008E+04  0.15353450750E+03  0.15009545575E+04  0.46999998093E+01 0. -1.
       -5    1    3    3    0  502 -0.91814175760E+03 -0.11774062008E+04 -0.11154764167E+04  0.18637541080E+04  0.46999998093E+01 0.  1.
</event>
<event>
 5   0  0.1391878E-06  0.3304145E+04  0.7818609E-02  0.8161842E-01
        1   -1    0    0  501    0  0.00000000000E+00  0.00000000000E+00  0.16215466284E+04  0.16215466284E+04  0.50400001928E-02 0.  1.
       -1   -1    0    0    0  501  0.00000000000E+00  0.00000000000E+00 -0.16831727575E+04  0.16831727576E+04  0.50400001928E-02 0. -1.
    10030    2    1    2    0    0  0.00000000000E+00  0.00000000000E+00 -0.61626129159E+02  0.33047193860E+04  0.33041447366E+04 0.  0.
        2    1    3    3  502    0 -0.35055366726E+03 -0.77611962400E+03 -0.14467193896E+04  0.16787633950E+04  0.25500000920E-02 0. -1.
       -2    1    3    3    0  502  0.35055366726E+03  0.77611962400E+03  0.13850932604E+04  0.16259559909E+04  0.25500000920E-02 0.  1.
</event>
<event>
 5   0  0.1352708E-06  0.3139840E+04  0.7818609E-02  0.8204888E-01
       -1   -1    0    0    0  501  0.00000000000E+00  0.00000000000E+00  0.17231981229E+04  0.17231981229E+04  0.50400001928E-02 0.  1.
        1   -1    0    0  501    0  0.00000000000E+00  0.00000000000E+00 -0.14302761569E+04  0.14302761569E+04  0.50400001928E-02 0. -1.
    10030    2    1    2    0    0  0.00000000000E+00  0.00000000000E+00  0.29292196594E+03  0.31534742798E+04  0.31398402436E+04 0.  0.
        5    1    3    3  502    0 -0.90239854949E+03 -0.86828641280E+03 -0.80442504381E+03  0.14884106214E+04  0.46999998093E+01 0. -1.
       -5    1    3    3    0  502  0.90239854949E+03  0.86828641280E+03  0.10973470097E+04  0.16650636584E+04  0.46999998093E+01 0.  1.
</event>
<event>
 5   0  0.3920487E-06  0.3321540E+04  0.7818609E-02  0.8157436E-01
       -2   -1    0    0    0  501  0.00000000000E+00  0.00000000000E+00  0.11858367068E+04  0.11858367068E+04  0.25500000920E-02 0. -1.
        2   -1    0    0  501    0  0.00000000000E+00  0.00000000000E+00 -0.23259165223E+04  0.23259165223E+04  0.25500000920E-02 0.  1.
    10030    2    1    2    0    0  0.00000000000E+00  0.00000000000E+00 -0.11400798155E+04  0.35117532291E+04  0.33215401181E+04 0.  0.
        4    1    3    3  502    0  0.98463473691E+02 -0.12133276528E+04  0.62438893462E+03  0.13681089881E+04  0.12699999809E+01 0. -1.
       -4    1    3    3    0  502 -0.98463473691E+02  0.12133276528E+04 -0.17644687501E+04  0.21436442410E+04  0.12699999809E+01 0.  1.
</event>
<event>
 5   0  0.1339825E-06  0.3264189E+04  0.7818609E-02  0.8172068E-01
       -1   -1    0    0    0  501  0.00000000000E+00  0.00000000000E+00  0.10413425013E+04  0.10413425013E+04  0.50400001928E-02 0.  1.
        1   -1    0    0  501    0  0.00000000000E+00  0.00000000000E+00 -0.25579789281E+04  0.25579789281E+04  0.50400001928E-02 0. -1.
    10030    2    1    2    0    0  0.00000000000E+00  0.00000000000E+00 -0.15166364268E+04  0.35993214294E+04  0.32641888274E+04 0.  0.
        3    1    3    3  502    0  0.80501677488E+03  0.33859045646E+03  0.76202137423E+03  0.11590392962E+04  0.10100000352E+00 0.  1.
       -3    1    3    3    0  502 -0.80501677488E+03 -0.33859045646E+03 -0.22786578011E+04  0.24402821332E+04  0.10100000352E+00 0. -1.
</event>
<event>
 5   0  0.1391878E-06  0.2264522E+04  0.7818609E-02  0.8492042E-01
        1   -1    0    0  501    0  0.00000000000E+00  0.00000000000E+00  0.10206753655E+04  0.10206753655E+04  0.50400001928E-02 0.  1.
       -1   -1    0    0    0  501  0.00000000000E+00  0.00000000000E+00 -0.12560455366E+04  0.12560455366E+04  0.50400001928E-02 0. -1.
    10030    2    1    2    0    0  0.00000000000E+00  0.00000000000E+00 -0.23537017114E+03  0.22767209021E+04  0.22645217925E+04 0.  0.
        2    1    3    3  502    0  0.26407965254E+03  0.11010127496E+04 -0.12462148237E+03  0.11390775442E+04  0.25500000920E-02 0. -1.
       -2    1    3    3    0  502 -0.26407965254E+03 -0.11010127496E+04 -0.11074868877E+03  0.11376433579E+04  0.25500000920E-02 0.  1.
</event>
<event>
 5   0  0.3671997E-06  0.3273394E+04  0.7818609E-02  0.8169699E-01
       -2   -1    0    0    0  501  0.00000000000E+00  0.00000000000E+00  0.14277991484E+04  0.14277991484E+04  0.25500000920E-02 0. -1.
        2   -1    0    0  501    0  0.00000000000E+00  0.00000000000E+00 -0.18761578953E+04  0.18761578953E+04  0.25500000920E-02 0.  1.
    10030    2    1    2    0    0  0.00000000000E+00  0.00000000000E+00 -0.44835874693E+03  0.33039570437E+04  0.32733937406E+04 0.  0.
        2    1    3    3  502    0 -0.54404403046E+03 -0.13326839901E+04  0.56203259122E+03  0.15452867560E+04  0.25500000920E-02 0. -1.
       -2    1    3    3    0  502  0.54404403046E+03  0.13326839901E+04 -0.10103913382E+04  0.17586702877E+04  0.25500000920E-02 0.  1.
</event>
<event>
 5   0  0.3812379E-06  0.3295970E+04  0.7818609E-02  0.8163922E-01
       -2   -1    0    0    0  501  0.00000000000E+00  0.00000000000E+00  0.17028800003E+04  0.17028800003E+04  0.25500000920E-02 0.  1.
        2   -1    0    0  501    0  0.00000000000E+00  0.00000000000E+00 -0.15948595379E+04  0.15948595379E+04  0.25500000920E-02 0. -1.
    10030    2    1    2    0    0  0.00000000000E+00  0.00000000000E+00  0.10802046245E+03  0.32977395382E+04  0.32959699091E+04 0.  0.
        5    1    3    3  502    0  0.25127892851E+03 -0.89408434789E+03 -0.13080819234E+04  0.16042531999E+04  0.46999998093E+01 0. -1.
       -5    1    3    3    0  502 -0.25127892851E+03  0.89408434789E+03  0.14161023858E+04  0.16934863384E+04  0.46999998093E+01 0.  1.
</event>
<event>
 5   0  0.1282578E-06  0.2032689E+04  0.7818609E-02  0.8591488E-01
       -1   -1    0    0    0  501  0.00000000000E+00  0.00000000000E+00  0.66883842962E+03  0.66883842964E+03  0.50400001928E-02 0. -1.
        1   -1    0    0  501    0  0.00000000000E+00  0.00000000000E+00 -0.15444036618E+04  0.15444036618E+04  0.50400001928E-02 0.  1.
    10030    2    1    2    0    0  0.00000000000E+00  0.00000000000E+00 -0.87556523222E+03  0.22132420915E+04  0.20326893712E+04 0.  0.
        4    1    3    3  502    0  0.93277773614E+02 -0.79391480851E+03 -0.11211910810E+04  0.13769794912E+04  0.12699999809E+01 0.  1.
       -4    1    3    3    0  502 -0.93277773614E+02  0.79391480851E+03  0.24562584873E+03  0.83626260031E+03  0.12699999809E+01 0. -1.
</event>
<event>
 5   0  0.3812379E-06  0.3216733E+04  0.7818609E-02  0.8184412E-01
       -2   -1    0    0    0  501  0.00000000000E+00  0.00000000000E+00  0.19245075125E+04  0.19245075125E+04  0.25500000920E-02 0. -1.
        2   -1    0    0  501    0  0.00000000000E+00  0.00000000000E+00 -0.13441579219E+04  0.13441579219E+04  0.25500000920E-02 0.  1.
    10030    2    1    2    0    0  0.00000000000E+00  0.00000000000E+00  0.58034959051E+03  0.32686654344E+04  0.32167325153E+04 0.  0.
        5    1    3    3  502    0 -0.14826629267E+04 -0.48090069533E+03  0.69314384683E+03  0.17058796310E+04  0.46999998093E+01 0.  1.
       -5    1    3    3    0  502  0.14826629267E+04  0.48090069533E+03 -0.11279425632E+03  0.15627858034E+04  0.46999998093E+01 0. -1.
</event>
<event>
 5   0  0.1580911E-06  0.2078414E+04  0.7818609E-02  0.8570812E-01
       -1   -1    0    0    0  501  0.00000000000E+00  0.00000000000E+00  0.58469778054E+03  0.58469778056E+03  0.50400001928E-02 0. -1.
        1   -1    0    0  501    0  0.00000000000E+00  0.00000000000E+00 -0.18470254873E+04  0.18470254873E+04  0.50400001928E-02 0.  1.
    10030    2    1    2    0    0  0.00000000000E+00  0.00000000000E+00 -0.12623277067E+04  0.24317232678E+04  0.20784144948E+04 0.  0.
        3    1    3    3  502    0  0.83903911635E+03 -0.59781357881E+03 -0.79066042103E+03  0.12986576244E+04  0.10100000352E+00 0. -1.
       -3    1    3    3    0  502 -0.83903911635E+03  0.59781357881E+03 -0.47166728571E+03  0.11330656435E+04  0.10100000352E+00 0.  1.
</event>
<event>
 5   0  0.3671997E-06  0.3297879E+04  0.7818609E-02  0.8163435E-01
       -2   -1    0    0    0  501  0.00000000000E+00  0.00000000000E+00  0.14011473813E+04  0.14011473813E+04  0.25500000920E-02 0. -1.
        2   -1    0    0  501    0  0.00000000000E+00  0.00000000000E+00 -0.19405535721E+04  0.19405535721E+04  0.25500000920E-02 0.  1.
    10030    2    1    2    0    0  0.00000000000E+00  0.00000000000E+00 -0.53940619077E+03  0.33417009533E+04  0.32978790492E+04 0.  0.
        2    1    3    3  502    0  0.81411030986E+03 -0.66295040911E+03 -0.15581028364E+04  0.18788196535E+04  0.25500000920E-02 0.  1.
       -2    1    3    3    0  502 -0.81411030986E+03  0.66295040911E+03  0.10186966456E+04  0.14628812998E+04  0.25500000920E-02 0. -1.
</event>
<event>
 5   0  0.3896210E-06  0.3282029E+04  0.7818609E-02  0.8167483E-01
        2   -1    0    0  501    0  0.00000000000E+00  0.00000000000E+00  0.18217436611E+04  0.18217436611E+04  0.25500000920E-02 0.  1.
       -2   -1    0    0    0  501  0.00000000000E+00  0.00000000000E+00 -0.14782151165E+04  0.14782151165E+04  0.25500000920E-02 0. -1.
    10030    2    1    2    0    0  0.00000000000E+00  0.00000000000E+00  0.34352854466E+03  0.32999587776E+04  0.32820292614E+04 0.  0.
        3    1    3    3  502    0  0.30242262646E+02 -0.16193033514E+04 -0.94011116528E+02  0.16223119424E+04  0.10100000352E+00 0.  1.
       -3    1    3    3    0  502 -0.30242262646E+02  0.16193033514E+04  0.43753966118E+03  0.16776468352E+04  0.10100000352E+00 0. -1.
</event>
<event>
 5   0  0.4017247E-06  0.3377097E+04  0.7818609E-02  0.8143550E-01
       -2   -1    0    0    0  501  0.00000000000E+00  0.00000000000E+00  0.12440507702E+04  0.12440507702E+04  0.25500000920E-02 0.  1.
        2   -1    0    0  501    0  0.00000000000E+00  0.00000000000E+00 -0.22918652247E+04  0.22918652247E+04  0.25500000920E-02 0. -1.
    10030    2    1    2    0    0  0.00000000000E+00  0.00000000000E+00 -0.10478144544E+04  0.35359159949E+04  0.33770973915E+04 0.  0.
        1    1    3    3  502    0  0.85891735915E+02 -0.28082527614E+03  0.12171077317E+04  0.12520349263E+04  0.50400001928E-02 0.  1.
       -1    1    3    3    0  502 -0.85891735915E+02  0.28082527614E+03 -0.22649221862E+04  0.22838810686E+04  0.50400001928E-02 0. -1.
</event>
<event>
 5   0  0.1405389E-06  0.2848598E+04  0.7818609E-02  0.8288337E-01
        1   -1    0    0  501    0  0.00000000000E+00  0.00000000000E+00  0.14818108856E+04  0.14818108856E+04  0.50400001928E-02 0. -1.
       -1   -1    0    0    0  501  0.00000000000E+00  0.00000000000E+00 -0.13690193694E+04  0.13690193694E+04  0.50400001928E-02 0.  1.
    10030    2    1    2    0    0  0.00000000000E+00  0.00000000000E+00  0.11279151615E+03  0.28508302550E+04  0.28485981143E+04 0.  0.
        1    1    3    3  502    0 -0.78036532455E+03 -0.96616842505E+03 -0.64141407695E+03  0.13978066688E+04  0.50400001928E-02 0.  1.
       -1    1    3    3    0  502  0.78036532455E+03  0.96616842505E+03  0.75420559311E+03  0.14530235862E+04  0.50400001928E-02 0. -1.
</event>
<event>
 5   0  0.3896210E-06  0.3265189E+04  0.7818609E-02  0.8171810E-01
        2   -1    0    0  501    0  0.00000000000E+00  0.00000000000E+00  0.19189497892E+04  0.19189497892E+04  0.25500000920E-02 0.  1.
       -2   -1    0    0    0  501  0.00000000000E+00  0.00000000000E+00 -0.13889704819E+04  0.13889704819E+04  0.25500000920E-02 0. -1.
    10030    2    1    2    0    0  0.00000000000E+00  0.00000000000E+00  0.52997930736E+03  0.33079202711E+04  0.32651888848E+04 0.  0.
        3    1    3    3  502    0  0.34477213615E+03 -0.12737444682E+04 -0.70887719932E+03  0.14979318042E+04  0.10100000352E+00 0. -1.
       -3    1    3    3    0  502 -0.34477213615E+03  0.12737444682E+04  0.12388565067E+04  0.18099884669E+04  0.10100000352E+00 0.  1.
</event>
<event>
 5   0  0.1282578E-06  0.3167806E+04  0.7818609E-02  0.8197372E-01
       -1   -1    0    0    0  501  0.00000000000E+00  0.00000000000E+00  0.15342559681E+04  0.15342559681E+04  0.50400001928E-02 0.  1.
        1   -1    0    0  501    0  0.00000000000E+00  0.00000000000E+00 -0.16351562620E+04  0.16351562620E+04  0.50400001928E-02 0. -1.
    10030    2    1    2    0    0  0.00000000000E+00  0.00000000000E+00 -0.10090029398E+03  0.31694122301E+04  0.31678057098E+04 0.  0.
        4    1    3    3  502    0  0.12591550816E+04 -0.73512533379E+03  0.56862520899E+03  0.15649974496E+04  0.12699999809E+01 0.  1.
       -4    1    3    3    0  502 -0.12591550816E+04  0.73512533379E+03 -0.66952550297E+03  0.16044147805E+04  0.12699999809E+01 0. -1.
</event>
<event>
 5   0  0.3812379E-06  0.3311315E+04  0.7818609E-02  0.8160022E-01
       -2   -1    0    0    0  501  0.00000000000E+00  0.00000000000E+00  0.13775779512E+04  0.13775779512E+04  0.25500000920E-02 0. -1.
        2   -1    0    0  501    0  0.00000000000E+00  0.00000000000E+00 -0.19898699683E+04  0.19898699683E+04  0.25500000920E-02 0.  1.
    10030    2    1    2    0    0  0.00000000000E+00  0.00000000000E+00 -0.61229201711E+03  0.33674479196E+04  0.33113145391E+04 0.  0.
        5    1    3    3  502    0 -0.58464764457E+02 -0.13195986197E+04  0.70898413974E+03  0.14991461724E+04  0.46999998093E+01 0. -1.
       -5    1    3    3    0  502  0.58464764457E+02  0.13195986197E+04 -0.13212761568E+04  0.18683017472E+04  0.46999998093E+01 0.  1.
</event>
<event>
 5   0  0.1282578E-06  0.3496989E+04  0.7818609E-02  0.8114504E-01
        1   -1    0    0  501    0  0.00000000000E+00  0.00000000000E+00  0.15888481943E+04  0.15888481943E+04  0.50400001928E-02 0. -1.
       -1   -1    0    0    0  501  0.00000000000E+00  0.00000000000E+00 -0.19241816408E+04  0.19241816408E+04  0.50400001928E-02 0.  1.
    10030    2    1    2    0    0  0.00000000000E+00  0.00000000000E+00 -0.33533344648E+03  0.35130298351E+04  0.34969887192E+04 0.  0.
        4    1    3    3  502    0  0.98789974511E+03 -0.41609157131E+03  0.12200287848E+04  0.16240535554E+04  0.12699999809E+01 0. -1.
       -4    1    3    3    0  502 -0.98789974511E+03  0.41609157131E+03 -0.15553622313E+04  0.18889762797E+04  0.12699999809E+01 0.  1.
</event>
<event>
 5   0  0.1339825E-06  0.3197924E+04  0.7818609E-02  0.8189366E-01
        1   -1    0    0  501    0  0.00000000000E+00  0.00000000000E+00  0.18235748386E+04  0.18235748386E+04  0.50400001928E-02 0. -1.
       -1   -1    0    0    0  501  0.00000000000E+00  0.00000000000E+00 -0.14020148080E+04  0.14020148080E+04  0.50400001928E-02 0.  1.
    10030    2    1    2    0    0  0.00000000000E+00  0.00000000000E+00  0.42156003054E+03  0.32255896466E+04  0.31979236559E+04 0.  0.
        3    1    3    3  502    0  0.11206454545E+04  0.23211820100E+03 -0.91555143345E+03  0.14655918707E+04  0.10100000352E+00 0.  1.
       -3    1    3    3    0  502 -0.11206454545E+04 -0.23211820100E+03  0.13371114640E+04  0.17599977759E+04  0.10100000352E+00 0. -1.
</event>
<event>
 5   0  0.4017247E-06  0.3075815E+04  0.7818609E-02  0.8222407E-01
        2   -1    0    0  501    0  0.00000000000E+00  0.00000000000E+00  0.17483361650E+04  0.17483361650E+04  0.25500000920E-02 0.  1.
       -2   -1    0    0    0  501  0.00000000000E+00  0.00000000000E+00 -0.13528058872E+04  0.13528058872E+04  0.25500000920E-02 0. -1.
    10030    2    1    2    0    0  0.00000000000E+00  0.00000000000E+00  0.39553027779E+03  0.31011420521E+04  0.30758149858E+04 0.  0.
        1    1    3    3  502    0 -0.53503575789E+03  0.97237673751E+03 -0.87560414132E+03  0.14136698321E+04  0.50400001928E-02 0. -1.
       -1    1    3    3    0  502  0.53503575789E+03 -0.97237673751E+03  0.12711344191E+04  0.16874722200E+04  0.50400001928E-02 0.  1.
</event>
<event>
 5   0  0.3920487E-06  0.3300660E+04  0.7818609E-02  0.8162727E-01
        2   -1    0    0  501    0  0.00000000000E+00  0.00000000000E+00  0.23997989169E+04  0.23997989169E+04  0.25500000920E-02 0.  1.
       -2   -1    0    0    0  501  0.00000000000E+00  0.00000000000E+00 -0.11349239694E+04  0.11349239694E+04  0.25500000920E-02 0. -1.
    10030    2    1    2    0    0  0.00000000000E+00  0.00000000000E+00  0.12648749475E+04  0.35347228863E+04  0.33006601234E+04 0.  0.
        4    1    3    3  502    0  0.61675139831E+03 -0.15246342444E+04  0.77886643389E+03  0.18197599845E+04  0.12699999809E+01 0. -1.
       -4    1    3    3    0  502 -0.61675139831E+03  0.15246342444E+04  0.48600851365E+03  0.17149629018E+04  0.12699999809E+01 0.  1.
</event>
<event>
 5   0  0.3896210E-06  0.3313845E+04  0.7818609E-02  0.8159381E-01
       -2   -1    0    0    0  501  0.00000000000E+00  0.00000000000E+00  0.20862835871E+04  0.20862835871E+04  0.25500000920E-02 0. -1.
        2   -1    0    0  501    0  0.00000000000E+00  0.00000000000E+00 -0.13159246414E+04  0.13159246414E+04  0.25500000920E-02 0.  1.
    10030    2    1    2    0    0  0.00000000000E+00  0.00000000000E+00  0.77035894571E+03  0.34022082285E+04  0.33138448854E+04 0.  0.
        3    1    3    3  502    0 -0.35954740813E+03  0.13428705073E+04 -0.54042395042E+03  0.14915205646E+04  0.10100000352E+00 0. -1.
       -3    1    3    3    0  502  0.35954740813E+03 -0.13428705073E+04  0.13107828961E+04  0.19106876639E+04  0.10100000352E+00 0.  1.
</event>
<event>
 5   0  0.1282578E-06  0.2137168E+04  0.7818609E-02  0.8545045E-01
       -1   -1    0    0    0  501  0.00000000000E+00  0.00000000000E+00  0.66715378777E+03  0.66715378779E+03  0.50400001928E-02 0.  1.
        1   -1    0    0  501    0  0.00000000000E+00  0.00000000000E+00 -0.17115567884E+04  0.17115567884E+04  0.50400001928E-02 0. -1.
    10030    2    1    2    0    0  0.00000000000E+00  0.00000000000E+00 -0.10444030006E+04  0.23787105762E+04  0.21371678403E+04 0.  0.
        4    1    3    3  502    0 -0.95445839608E+03 -0.28878622789E+03 -0.94963838013E+03  0.13770268629E+04  0.12699999809E+01 0. -1.
       -4    1    3    3    0  502  0.95445839608E+03  0.28878622789E+03 -0.94764620501E+02  0.10016837133E+04  0.12699999809E+01 0.  1.
</event>
<event>
 5   0  0.1391878E-06  0.3086051E+04  0.7818609E-02  0.8219576E-01
       -1   -1    0    0    0  501  0.00000000000E+00  0.00000000000E+00  0.27292154565E+04  0.27292154566E+04  0.50400001928E-02 0.  1.
        1   -1    0    0  501    0  0.00000000000E+00  0.00000000000E+00 -0.87238552718E+03  0.87238552720E+03  0.50400001928E-02 0. -1.
    10030    2    1    2    0    0  0.00000000000E+00  0.00000000000E+00  0.18568299294E+04  0.36016009837E+04  0.30860512406E+04 0.  0.
        2    1    3    3  502    0  0.10697185908E+04  0.48139745100E+03  0.20983210814E+04  0.24039535624E+04  0.25500000920E-02 0.  1.
       -2    1    3    3    0  502 -0.10697185908E+04 -0.48139745100E+03 -0.24149115207E+03  0.11976474214E+04  0.25500000920E-02 0. -1.
</event>
<event>
 5   0  0.3812379E-06  0.2190576E+04  0.7818609E-02  0.8522361E-01
        2   -1    0    0  501    0  0.00000000000E+00  0.00000000000E+00  0.20684113392E+04  0.20684113392E+04  0.25500000920E-02 0. -1.
       -2   -1    0    0    0  501  0.00000000000E+00  0.00000000000E+00 -0.57998917255E+03  0.57998917256E+03  0.25500000920E-02 0.  1.
    10030    2    1    2    0    0  0.00000000000E+00  0.00000000000E+00  0.14884221667E+04  0.26484005118E+04  0.21905763453E+04 0.  0.
        5    1    3    3  502    0  0.45257586546E+03  0.99698635243E+03  0.77898715010E+03  0.13437446822E+04  0.46999998093E+01 0.  1.
       -5    1    3    3    0  502 -0.45257586546E+03 -0.99698635243E+03  0.70943501657E+03  0.13046558296E+04  0.46999998093E+01 0. -1.
</event>
<event>
 5   0  0.1405389E-06  0.2514412E+04  0.7818609E-02  0.8397869E-01
        1   -1    0    0  501    0  0.00000000000E+00  0.00000000000E+00  0.12896948052E+04  0.12896948052E+04  0.50400001928E-02 0.  1.
       -1   -1    0    0    0  501  0.00000000000E+00  0.00000000000E+00 -0.12255352764E+04  0.12255352765E+04  0.50400001928E-02 0. -1.
    10030    2    1    2    0    0  0.00000000000E+00  0.00000000000E+00  0.64159528724E+02  0.25152300816E+04  0.25144116446E+04 0.  0.
        1    1    3    3  502    0  0.11002613522E+04 -0.20266951610E+03 -0.54161933988E+03  0.12429808869E+04  0.50400001928E-02 0. -1.
       -1    1    3    3    0  502 -0.11002613522E+04  0.20266951610E+03  0.60577886861E+03  0.12722491947E+04  0.50400001928E-02 0.  1.
</event>
<event>
 5   0  0.3896210E-06  0.3254119E+04  0.7818609E-02  0.8174669E-01
        2   -1    0    0  501    0  0.00000000000E+00  0.00000000000E+00  0.15766394797E+04  0.15766394797E+04  0.25500000920E-02 0. -1.
       -2   -1    0    0    0  501  0.00000000000E+00  0.00000000000E+00 -0.16790916893E+04  0.16790916893E+04  0.25500000920E-02 0.  1.
    10030    2    1    2    0    0  0.00000000000E+00  0.00000000000E+00 -0.10245220957E+03  0.32557311690E+04  0.32541187732E+04 0.  0.
        3    1    3    3  502    0 -0.91961610172E+03  0.10427191979E+04  0.79439392781E+03  0.16012553897E+04  0.10100000352E+00 0. -1.
       -3    1    3    3    0  502  0.91961610172E+03 -0.10427191979E+04 -0.89684613738E+03  0.16544757794E+04  0.10100000352E+00 0.  1.
</event>
<event>
 5   0  0.1391878E-06  0.3265210E+04  0.7818609E-02  0.8171805E-01
        1   -1    0    0  501    0  0.00000000000E+00  0.00000000000E+00  0.25655789578E+04  0.25655789578E+04  0.50400001928E-02 0. -1.
       -1   -1    0    0    0  501  0.00000000000E+00  0.00000000000E+00 -0.10389074680E+04  0.10389074680E+04  0.50400001928E-02 0.  1.
    10030    2    1    2    0    0  0.00000000000E+00  0.00000000000E+00  0.15266714898E+04  0.36044864258E+04  0.32652100325E+04 0.  0.
        2    1    3    3  502    0 -0.14396223135E+04 -0.33637148285E+03 -0.12666811376E+01  0.14783977085E+04  0.25500000920E-02 0.  1.
       -2    1    3    3    0  502  0.14396223135E+04  0.33637148285E+03  0.15279381709E+04  0.21260887174E+04  0.25500000920E-02 0. -1.
</event>
<event>
 5   0  0.1282578E-06  0.3326932E+04  0.7818609E-02  0.8156076E-01
        1   -1    0    0  501    0  0.00000000000E+00  0.00000000000E+00  0.18723189650E+04  0.18723189650E+04  0.50400001928E-02 0.  1.
       -1   -1    0    0    0  501  0.00000000000E+00  0.00000000000E+00 -0.14779103413E+04  0.14779103413E+04  0.50400001928E-02 0. -1.
    10030    2    1    2    0    0  0.00000000000E+00  0.00000000000E+00  0.39440862365E+03  0.33502293063E+04  0.33269322570E+04 0.  0.
        4    1    3    3  502    0 -0.15477661848E+04 -0.59978736682E+03  0.87848750300E+02  0.16622406757E+04  0.12699999809E+01 0.  1.
       -4    1    3    3    0  502  0.15477661848E+04  0.59978736682E+03  0.30655987335E+03  0.16879886306E+04  0.12699999809E+01 0. -1.
</event>
<event>
 5   0  0.1259875E-06  0.3574714E+04  0.7818609E-02  0.8096308E-01
        3   -1    0    0  501    0  0.00000000000E+00  0.00000000000E+00  0.23215219444E+04  0.23215219466E+04  0.10100000352E+00 0. -1.
       -3   -1    0    0    0  501  0.00000000000E+00  0.00000000000E+00 -0.13760996852E+04  0.13760996889E+04  0.10100000352E+00 0.  1.
    10030    2    1    2    0    0  0.00000000000E+00  0.00000000000E+00  0.94542225920E+03  0.36976216355E+04  0.35747143258E+04 0.  0.
        4    1    3    3  502    0 -0.89762090181E+03 -0.22117346071E+03  0.20550129895E+04  0.22533799020E+04  0.12699999809E+01 0. -1.
       -4    1    3    3    0  502  0.89762090181E+03  0.22117346071E+03 -0.11095907303E+04  0.14442417335E+04  0.12699999809E+01 0.  1.
</event>
<event>
 5   0  0.3920487E-06  0.2573283E+04  0.7818609E-02  0.8377333E-01
       -2   -1    0    0    0  501  0.00000000000E+00  0.00000000000E+00  0.65530836681E+03  0.65530836682E+03  0.25500000920E-02 0.  1.
        2   -1    0    0  501    0  0.00000000000E+00  0.00000000000E+00 -0.25262096268E+04  0.25262096268E+04  0.25500000920E-02 0. -1.
    10030    2    1    2    0    0  0.00000000000E+00  0.00000000000E+00 -0.18709012600E+04  0.31815179936E+04  0.25732829652E+04 0.  0.
        4    1    3    3  502    0 -0.70579214757E+03 -0.53057482795E+03  0.22158690168E+03  0.91035958363E+03  0.12699999809E+01 0.  1.
       -4    1    3    3    0  502  0.70579214757E+03  0.53057482795E+03 -0.20924881617E+04  0.22711584100E+04  0.12699999809E+01 0. -1.
</event>
<event>
 5   0  0.1352708E-06  0.3280535E+04  0.7818609E-02  0.8167866E-01
       -1   -1    0    0    0  501  0.00000000000E+00  0.00000000000E+00  0.90718976311E+03  0.90718976312E+03  0.50400001928E-02 0. -1.
        1   -1    0    0  501    0  0.00000000000E+00  0.00000000000E+00 -0.29657270756E+04  0.29657270756E+04  0.50400001928E-02 0.  1.
    10030    2    1    2    0    0  0.00000000000E+00  0.00000000000E+00 -0.20585373125E+04  0.38729168388E+04  0.32805348608E+04 0.  0.
        5    1    3    3  502    0 -0.70300319850E+03  0.14276842815E+04 -0.56005996963E+03  0.16870640665E+04  0.46999998093E+01 0. -1.
       -5    1    3    3    0  502  0.70300319850E+03 -0.14276842815E+04 -0.14984773429E+04  0.21858527723E+04  0.46999998093E+01 0.  1.
</event>
<event>
 5   0  0.3671997E-06  0.2622872E+04  0.7818609E-02  0.8360473E-01
       -2   -1    0    0    0  501  0.00000000000E+00  0.00000000000E+00  0.14418500321E+04  0.14418500321E+04  0.25500000920E-02 0.  1.
        2   -1    0    0  501    0  0.00000000000E+00  0.00000000000E+00 -0.11928177457E+04  0.11928177457E+04  0.25500000920E-02 0. -1.
    10030    2    1    2    0    0  0.00000000000E+00  0.00000000000E+00  0.24903228648E+03  0.26346677778E+04  0.26228719412E+04 0.  0.
        2    1    3    3  502    0 -0.35535570534E+03 -0.79965136898E+03  0.11057122279E+04  0.14100778419E+04  0.25500000920E-02 0.  1.
       -2    1    3    3    0  502  0.35535570534E+03  0.79965136898E+03 -0.85667994139E+03  0.12245899359E+04  0.25500000920E-02 0. -1.
</event>
<event>
 5   0  0.1282578E-06  0.3262927E+04  0.7818609E-02  0.8172393E-01
        1   -1    0    0  501    0  0.00000000000E+00  0.00000000000E+00  0.10118059491E+04  0.10118059492E+04  0.50400001928E-02 0. -1.
       -1   -1    0    0    0  501  0.00000000000E+00  0.00000000000E+00 -0.26306168414E+04  0.26306168414E+04  0.50400001928E-02 0.  1.
    10030    2    1    2    0    0  0.00000000000E+00  0.00000000000E+00 -0.16188108923E+04  0.36424227906E+04  0.32629273790E+04 0.  0.
        4    1    3    3  502    0 -0.21056150037E+03  0.75491623574E+03 -0.24067119946E+04  0.25311062613E+04  0.12699999809E+01 0.  1.
       -4    1    3    3    0  502  0.21056150037E+03 -0.75491623574E+03  0.78790110225E+03  0.11113165293E+04  0.12699999809E+01 0. -1.
</event>
<event>
 5   0  0.1405389E-06  0.2305025E+04  0.7818609E-02  0.8475942E-01
       -1   -1    0    0    0  501  0.00000000000E+00  0.00000000000E+00  0.78049098315E+03  0.78049098316E+03  0.50400001928E-02 0. -1.
        1   -1    0    0  501    0  0.00000000000E+00  0.00000000000E+00 -0.17018584815E+04  0.17018584815E+04  0.50400001928E-02 0.  1.
    10030    2    1    2    0    0  0.00000000000E+00  0.00000000000E+00 -0.92136749832E+03  0.24823494646E+04  0.23050251186E+04 0.  0.
        1    1    3    3  502    0  0.23968420249E+03  0.91939351070E+03  0.24184436216E+03  0.98041911444E+03  0.50400001928E-02 0. -1.
       -1    1    3    3    0  502 -0.23968420249E+03 -0.91939351070E+03 -0.11632118605E+04  0.15019303502E+04  0.50400001928E-02 0.  1.
</event>
<event>
 5   0  0.3671997E-06  0.3260691E+04  0.7818609E-02  0.8172970E-01
       -2   -1    0    0    0  501  0.00000000000E+00  0.00000000000E+00  0.16394000095E+04  0.16394000095E+04  0.25500000920E-02 0.  1.
        2   -1    0    0  501    0  0.00000000000E+00  0.00000000000E+00 -0.16213409853E+04  0.16213409853E+04  0.25500000920E-02 0. -1.
    10030    2    1    2    0    0  0.00000000000E+00  0.00000000000E+00  0.18059024227E+02  0.32607409948E+04  0.32606909861E+04 0.  0.
        2    1    3    3  502    0 -0.49867846337E+03 -0.14572044257E+04  0.54373527056E+03  0.16333318685E+04  0.25500000920E-02 0.  1.
       -2    1    3    3    0  502  0.49867846337E+03  0.14572044257E+04 -0.52567624634E+03  0.16274091263E+04  0.25500000920E-02 0. -1.
</event>
<event>
 5   0  0.3920487E-06  0.3712383E+04  0.7818609E-02  0.8065223E-01
       -2   -1    0    0    0  501  0.00000000000E+00  0.00000000000E+00  0.22328044618E+04  0.22328044618E+04  0.25500000920E-02 0.  1.
        2   -1    0    0  501    0  0.00000000000E+00  0.00000000000E+00 -0.15431030943E+04  0.15431030943E+04  0.25500000920E-02 0. -1.
    10030    2    1    2    0    0  0.00000000000E+00  0.00000000000E+00  0.68970136745E+03  0.37759075561E+04  0.37123833175E+04 0.  0.
        4    1    3    3  502    0  0.14134434343E+04  0.85917985143E+03 -0.51184067741E+03  0.17314718742E+04  0.12699999809E+01 0. -1.
       -4    1    3    3    0  502 -0.14134434343E+04 -0.85917985143E+03  0.12015420449E+04  0.20444356819E+04  0.12699999809E+01 0.  1.
</event>
<event>
 5   0  0.1391878E-06  0.3092535E+04  0.7818609E-02  0.8217789E-01
        1   -1    0    0  501    0  0.00000000000E+00  0.00000000000E+00  0.31765896801E+04  0.31765896801E+04  0.50400001928E-02 0. -1.
       -1   -1    0    0    0  501  0.00000000000E+00  0.00000000000E+00 -0.75267633880E+03  0.75267633882E+03  0.50400001928E-02 0.  1.
    10030    2    1    2    0    0  0.00000000000E+00  0.00000000000E+00  0.24239133413E+04  0.39292660189E+04  0.30925354584E+04 0.  0.
        2    1    3    3  502    0 -0.11612144771E+04 -0.69492703493E+03  0.26149177695E+03  0.13783035206E+04  0.25500000920E-02 0.  1.
       -2    1    3    3    0  502  0.11612144771E+04  0.69492703493E+03  0.21624215643E+04  0.25509624982E+04  0.25500000920E-02 0. -1.
</event>
<event>
 5   0  0.1405389E-06  0.3116715E+04  0.7818609E-02  0.8211166E-01
        1   -1    0    0  501    0  0.00000000000E+00  0.00000000000E+00  0.20584376719E+04  0.20584376719E+04  0.50400001928E-02 0. -1.
       -1   -1    0    0    0  501  0.00000000000E+00  0.00000000000E+00 -0.11797676512E+04  0.11797676512E+04  0.50400001928E-02 0.  1.
    10030    2    1    2    0    0  0.00000000000E+00  0.00000000000E+00  0.87867002067E+03  0.32382053232E+04  0.31167150511E+04 0.  0.
        1    1    3    3  502    0 -0.52291503670E+03  0.13737344224E+03 -0.10792001154E+04  0.12070561243E+04  0.50400001928E-02 0.  1.
       -1    1    3    3    0  502  0.52291503670E+03 -0.13737344224E+03  0.19578701360E+04  0.20311491988E+04  0.50400001928E-02 0. -1.
</event>
<event>
 5   0  0.1282578E-06  0.2170950E+04  0.7818609E-02  0.8530617E-01
       -1   -1    0    0    0  501  0.00000000000E+00  0.00000000000E+00  0.19050922394E+04  0.19050922394E+04  0.50400001928E-02 0. -1.
        1   -1    0    0  501    0  0.00000000000E+00  0.00000000000E+00 -0.61847732423E+03  0.61847732425E+03  0.50400001928E-02 0.  1.
    10030    2    1    2    0    0  0.00000000000E+00  0.00000000000E+00  0.12866149152E+04  0.25235695637E+04  0.21709503455E+04 0.  0.
        4    1    3    3  502    0  0.50103347404E+03  0.46427229168E+03  0.16239374180E+04  0.17617484648E+04  0.12699999809E+01 0. -1.
       -4    1    3    3    0  502 -0.50103347404E+03 -0.46427229168E+03 -0.33732250275E+03  0.76182109887E+03  0.12699999809E+01 0.  1.
</event>
<event>
 5   0  0.3920487E-06  0.3258349E+04  0.7818609E-02  0.8173575E-01
       -2   -1    0    0    0  501  0.00000000000E+00  0.00000000000E+00  0.16559967723E+04  0.16559967723E+04  0.25500000920E-02 0. -1.
        2   -1    0    0  501    0  0.00000000000E+00  0.00000000000E+00 -0.16027862067E+04  0.16027862067E+04  0.25500000920E-02 0.  1.
    10030    2    1    2    0    0  0.00000000000E+00  0.00000000000E+00  0.53210565523E+02  0.32587829790E+04  0.32583485295E+04 0.  0.
        4    1    3    3  502    0 -0.85748385078E+02 -0.39892047670E+03 -0.15508547896E+04  0.16036341614E+04  0.12699999809E+01 0.  1.
       -4    1    3    3    0  502  0.85748385078E+02  0.39892047670E+03  0.16040653551E+04  0.16551488176E+04  0.12699999809E+01 0. -1.
</event>
<event>
 5   0  0.1339825E-06  0.3161897E+04  0.7818609E-02  0.8198953E-01
        1   -1    0    0  501    0  0.00000000000E+00  0.00000000000E+00  0.16265071758E+04  0.16265071758E+04  0.50400001928E-02 0.  1.
       -1   -1    0    0    0  501  0.00000000000E+00  0.00000000000E+00 -0.15366662770E+04  0.15366662770E+04  0.50400001928E-02 0. -1.
    10030    2    1    2    0    0  0.00000000000E+00  0.00000000000E+00  0.89840898853E+02  0.31631734528E+04  0.31618973585E+04 0.  0.
        3    1    3    3  502    0  0.13983192123E+03 -0.37641867955E+03  0.15746401613E+04  0.16250340416E+04  0.10100000352E+00 0.  1.
       -3    1    3    3    0  502 -0.13983192123E+03  0.37641867955E+03 -0.14847992624E+04  0.15381394113E+04  0.10100000352E+00 0. -1.
</event>
<event>
 5   0  0.1405389E-06  0.3252723E+04  0.7818609E-02  0.8175030E-01
        1   -1    0    0  501    0  0.00000000000E+00  0.00000000000E+00  0.81701691948E+03  0.81701691949E+03  0.50400001928E-02 0. -1.
       -1   -1    0    0    0  501  0.00000000000E+00  0.00000000000E+00 -0.32374502266E+04  0.32374502266E+04  0.50400001928E-02 0.  1.
    10030    2    1    2    0    0  0.00000000000E+00  0.00000000000E+00 -0.24204333071E+04  0.40544671461E+04  0.32527229277E+04 0.  0.
        1    1    3    3  502    0  0.87868449115E+03  0.13680892806E+04 -0.12551055934E+04  0.20540313448E+04  0.50400001928E-02 0.  1.
       -1    1    3    3    0  502 -0.87868449115E+03 -0.13680892806E+04 -0.11653277137E+04  0.20004358013E+04  0.50400001928E-02 0. -1.
</event>
<event>
 5   0  0.1405389E-06  0.3315296E+04  0.7818609E-02  0.8159014E-01
       -1   -1    0    0    0  501  0.00000000000E+00  0.00000000000E+00  0.14749089217E+04  0.14749089217E+04  0.50400001928E-02 0.  1.
        1   -1    0    0  501    0  0.00000000000E+00  0.00000000000E+00 -0.18630280405E+04  0.18630280405E+04  0.50400001928E-02 0. -1.
    10030    2    1    2    0    0  0.00000000000E+00  0.00000000000E+00 -0.38811911875E+03  0.33379369622E+04  0.33152958711E+04 0.  0.
        1    1    3    3  502    0 -0.14948024563E+04 -0.70815351319E+03 -0.30380347327E+03  0.16817289711E+04  0.50400001928E-02 0. -1.
       -1    1    3    3    0  502  0.14948024563E+04  0.70815351319E+03 -0.84315645476E+02  0.16562079911E+04  0.50400001928E-02 0.  1.
</event>
<event>
 5   0  0.3920487E-06  0.2063028E+04  0.7818609E-02  0.8577707E-01
        2   -1    0    0  501    0  0.00000000000E+00  0.00000000000E+00  0.12459641974E+04  0.12459641974E+04  0.25500000920E-02 0.  1.
       -2   -1    0    0    0  501  0.00000000000E+00  0.00000000000E+00 -0.85397436003E+03  0.85397436003E+03  0.25500000920E-02 0. -1.
    10030    2    1    2    0    0  0.00000000000E+00  0.00000000000E+00  0.39198983739E+03  0.20999385574E+04  0.20630283353E+04 0.  0.
        4    1    3    3  502    0  0.80544550274E+02 -0.15950765329E+03  0.12300891779E+04  0.12430008506E+04  0.12699999809E+01 0.  1.
       -4    1    3    3    0  502 -0.80544550274E+02  0.15950765329E+03 -0.83809934050E+03  0.85693770689E+03  0.12699999809E+01 0. -1.
</event>
<event>
 5   0  0.3896210E-06  0.3301276E+04  0.7818609E-02  0.8162571E-01
       -2   -1    0    0    0  501  0.00000000000E+00  0.00000000000E+00  0.17845944909E+04  0.17845944909E+04  0.25500000920E-02 0. -1.
        2   -1    0    0  501    0  0.00000000000E+00  0.00000000000E+00 -0.15267365313E+04  0.15267365313E+04  0.25500000920E-02 0.  1.
    10030    2    1    2    0    0  0.00000000000E+00  0.00000000000E+00  0.25785795953E+03  0.33113310222E+04  0.33012758763E+04 0.  0.
        3    1    3    3  502    0 -0.13256866666E+04 -0.38277151137E+03  0.10375835606E+04  0.17264237091E+04  0.10100000352E+00 0. -1.
       -3    1    3    3    0  502  0.13256866666E+04  0.38277151137E+03 -0.77972560104E+03  0.15849073131E+04  0.10100000352E+00 0.  1.
</event>
<event>
 5   0  0.3812379E-06  0.3301202E+04  0.7818609E-02  0.8162590E-01
        2   -1    0    0  501    0  0.00000000000E+00  0.00000000000E+00  0.17661723441E+04  0.17661723441E+04  0.25500000920E-02 0.  1.
       -2   -1    0    0    0  501  0.00000000000E+00  0.00000000000E+00 -0.15425921397E+04  0.15425921397E+04  0.25500000920E-02 0. -1.
    10030    2    1    2    0    0  0.00000000000E+00  0.00000000000E+00  0.22358020433E+03  0.33087644838E+04  0.33012019480E+04 0.  0.
        5    1    3    3  502    0 -0.61671175171E+03 -0.92781743197E+03  0.13324811502E+04  0.17368669141E+04  0.46999998093E+01 0.  1.
       -5    1    3    3    0  502  0.61671175171E+03  0.92781743197E+03 -0.11089009459E+04  0.15718975697E+04  0.46999998093E+01 0. -1.
</event>
<event>
 5   0  0.3896210E-06  0.2632752E+04  0.7818609E-02  0.8357161E-01
        2   -1    0    0  501    0  0.00000000000E+00  0.00000000000E+00  0.10983740696E+04  0.10983740696E+04  0.25500000920E-02 0. -1.
       -2   -1    0    0    0  501  0.00000000000E+00  0.00000000000E+00 -0.15776457724E+04  0.15776457724E+04  0.25500000920E-02 0.  1.
    10030    2    1    2    0    0  0.00000000000E+00  0.00000000000E+00 -0.47927170282E+03  0.26760198419E+04  0.26327515700E+04 0.  0.
        3    1    3    3  502    0  0.12647340329E+03  0.11304605055E+02 -0.15714064421E+04  0.15765283164E+04  0.10100000352E+00 0.  1.
       -3    1    3    3    0  502 -0.12647340329E+03 -0.11304605055E+02  0.10921347393E+04  0.10994915256E+04  0.10100000352E+00 0. -1.
</event>
<event>
 5   0  0.1352708E-06  0.3298988E+04  0.7818609E-02  0.8163153E-01
        1   -1    0    0  501    0  0.00000000000E+00  0.00000000000E+00  0.17285783175E+04  0.17285783175E+04  0.50400001928E-02 0. -1.
       -1   -1    0    0    0  501  0.00000000000E+00  0.00000000000E+00 -0.15740275297E+04  0.15740275297E+04  0.50400001928E-02 0.  1.
    10030    2    1    2    0    0  0.00000000000E+00  0.00000000000E+00  0.15455078785E+03  0.33026058473E+04  0.32989876381E+04 0.  0.
        5    1    3    3  502    0  0.11982999988E+03 -0.12426776587E+04  0.11565119266E+04  0.17018075446E+04  0.46999998093E+01 0. -1.
       -5    1    3    3    0  502 -0.11982999988E+03  0.12426776587E+04 -0.10019611388E+04  0.16007983027E+04  0.46999998093E+01 0.  1.
</event>
<event>
 5   0  0.3812379E-06  0.3309484E+04  0.7818609E-02  0.8160486E-01
       -2   -1    0    0    0  501  0.00000000000E+00  0.00000000000E+00  0.19122623899E+04  0.19122623899E+04  0.25500000920E-02 0.  1.
        2   -1    0    0  501    0  0.00000000000E+00  0.00000000000E+00 -0.14319011001E+04  0.14319011001E+04  0.25500000920E-02 0. -1.
    10030    2    1    2    0    0  0.00000000000E+00  0.00000000000E+00  0.48036128982E+03  0.33441634900E+04  0.33094837179E+04 0.  0.
        5    1    3    3  502    0  0.11016371814E+04 -0.12050519864E+04 -0.31699705199E+02  0.16330283925E+04  0.46999998093E+01 0.  1.
       -5    1    3    3    0  502 -0.11016371814E+04  0.12050519864E+04  0.51206099502E+03  0.17111350975E+04  0.46999998093E+01 0. -1.
</event>
<event>
 5   0  0.3671997E-06  0.3222019E+04  0.7818609E-02  0.8183026E-01
        2   -1    0    0  501    0  0.00000000000E+00  0.00000000000E+00  0.19724744676E+04  0.19724744676E+04  0.25500000920E-02 0. -1.
       -2   -1    0    0    0  501  0.00000000000E+00  0.00000000000E+00 -0.13157846126E+04  0.13157846126E+04  0.25500000920E-02 0.  1.
    10030    2    1    2    0    0  0.00000000000E+00  0.00000000000E+00  0.65668985500E+03  0.32882590802E+04  0.32220189653E+04 0.  0.
        2    1    3    3  502    0 -0.20112051762E+03 -0.13764360680E+04 -0.50096541649E+03  0.14785100812E+04  0.25500000920E-02 0.  1.
       -2    1    3    3    0  502  0.20112051762E+03  0.13764360680E+04  0.11576552715E+04  0.18097489990E+04  0.25500000920E-02 0. -1.
</event>
<event>
 5   0  0.3812379E-06  0.3274904E+04  0.7818609E-02  0.8169311E-01
       -2   -1    0    0    0  501  0.00000000000E+00  0.00000000000E+00  0.13930241242E+04  0.13930241242E+04  0.25500000920E-02 0.  1.
        2   -1    0    0  501    0  0.00000000000E+00  0.00000000000E+00 -0.19247685163E+04  0.19247685163E+04  0.25500000920E-02 0. -1.
    10030    2    1    2    0    0  0.00000000000E+00  0.00000000000E+00 -0.53174439211E+03  0.33177926405E+04  0.32749039538E+04 0.  0.
        5    1    3    3  502    0  0.15206693771E+04 -0.57511019953E+03 -0.46346436645E+03  0.16905645226E+04  0.46999998093E+01 0. -1.
       -5    1    3    3    0  502 -0.15206693771E+04  0.57511019953E+03 -0.68280025654E+02  0.16272281180E+04  0.46999998093E+01 0.  1.
</event>
<event>
 5   0  0.1405389E-06  0.3221917E+04  0.7818609E-02  0.8183053E-01
        1   -1    0    0  501    0  0.00000000000E+00  0.00000000000E+00  0.23709520861E+04  0.23709520861E+04  0.50400001928E-02 0.  1.
       -1   -1    0    0    0  501  0.00000000000E+00  0.00000000000E+00 -0.10945762369E+04  0.10945762369E+04  0.50400001928E-02 0. -1.
    10030    2    1    2    0    0  0.00000000000E+00  0.00000000000E+00  0.12763758492E+04  0.34655283230E+04  0.32219173250E+04 0.  0.
        1    1    3    3  502    0 -0.14326037643E+04 -0.50436176962E+03  0.60500457201E+02  0.15199982386E+04  0.50400001928E-02 0.  1.
       -1    1    3    3    0  502  0.14326037643E+04  0.50436176962E+03  0.12158753920E+04  0.19455300843E+04  0.50400001928E-02 0. -1.
</event>
<event>
 5   0  0.3671997E-06  0.2529566E+04  0.7818609E-02  0.8392527E-01
        2   -1    0    0  501    0  0.00000000000E+00  0.00000000000E+00  0.11083923842E+04  0.11083923842E+04  0.25500000920E-02 0. -1.
       -2   -1    0    0    0  501  0.00000000000E+00  0.00000000000E+00 -0.14432401699E+04  0.14432401699E+04  0.25500000920E-02 0.  1.
    10030    2    1    2    0    0  0.00000000000E+00  0.00000000000E+00 -0.33484778570E+03  0.25516325540E+04  0.25295662971E+04 0.  0.
        2    1    3    3  502    0 -0.47380600164E+02  0.78840159921E+03  0.82904692010E+03  0.11450505660E+04  0.25500000920E-02 0. -1.
       -2    1    3    3    0  502  0.47380600164E+02 -0.78840159921E+03 -0.11638947058E+04  0.14065819880E+04  0.25500000920E-02 0.  1.
</event>
<event>
 5   0  0.1352708E-06  0.3361385E+04  0.7818609E-02  0.8147449E-01
       -1   -1    0    0    0  501  0.00000000000E+00  0.00000000000E+00  0.26277600181E+04  0.26277600181E+04  0.50400001928E-02 0.  1.
        1   -1    0    0  501    0  0.00000000000E+00  0.00000000000E+00 -0.10749566536E+04  0.10749566536E+04  0.50400001928E-02 0. -1.
    10030    2    1    2    0    0  0.00000000000E+00  0.00000000000E+00  0.15528033646E+04  0.37027166717E+04  0.33613854974E+04 0.  0.
        5    1    3    3  502    0  0.44374771424E+02  0.11457424720E+03  0.26227989646E+04  0.26256795077E+04  0.46999998093E+01 0.  1.
       -5    1    3    3    0  502 -0.44374771424E+02 -0.11457424720E+03 -0.10699956000E+04  0.10770371640E+04  0.46999998093E+01 0. -1.
</event>
<event>
 5   0  0.1339825E-06  0.3449541E+04  0.7818609E-02  0.8125853E-01
        1   -1    0    0  501    0  0.00000000000E+00  0.00000000000E+00  0.24382505875E+04  0.24382505875E+04  0.50400001928E-02 0. -1.
       -1   -1    0    0    0  501  0.00000000000E+00  0.00000000000E+00 -0.12200689792E+04  0.12200689792E+04  0.50400001928E-02 0.  1.
    10030    2    1    2    0    0  0.00000000000E+00  0.00000000000E+00  0.12181816083E+04  0.36583195667E+04  0.34495413639E+04 0.  0.
        3    1    3    3  502    0 -0.13766787525E+04 -0.80058982184E+02  0.17077337756E+04  0.21949962385E+04  0.10100000352E+00 0. -1.
       -3    1    3    3    0  502  0.13766787525E+04  0.80058982184E+02 -0.48955216732E+03  0.14633233283E+04  0.10100000352E+00 0.  1.
</event>
<event>
 5   0  0.3920487E-06  0.3269877E+04  0.7818609E-02  0.8170603E-01
        2   -1    0    0  501    0  0.00000000000E+00  0.00000000000E+00  0.18648609030E+04  0.18648609030E+04  0.25500000920E-02 0. -1.
       -2   -1    0    0    0  501  0.00000000000E+00  0.00000000000E+00 -0.14333633443E+04  0.14333633443E+04  0.25500000920E-02 0.  1.
    10030    2    1    2    0    0  0.00000000000E+00  0.00000000000E+00  0.43149755874E+03  0.32982242473E+04  0.32698766097E+04 0.  0.
        4    1    3    3  502    0  0.11701825757E+04 -0.61034940260E+03  0.11890848890E+04  0.17764509956E+04  0.12699999809E+01 0. -1.
       -4    1    3    3    0  502 -0.11701825757E+04  0.61034940260E+03 -0.75758733022E+03  0.15217732517E+04  0.12699999809E+01 0.  1.
</event>
<event>
 5   0  0.1352708E-06  0.3276575E+04  0.7818609E-02  0.8168882E-01
       -1   -1    0    0    0  501  0.00000000000E+00  0.00000000000E+00  0.15563815792E+04  0.15563815792E+04  0.50400001928E-02 0. -1.
        1   -1    0    0  501    0  0.00000000000E+00  0.00000000000E+00 -0.17245039626E+04  0.17245039626E+04  0.50400001928E-02 0.  1.
    10030    2    1    2    0    0  0.00000000000E+00  0.00000000000E+00 -0.16812238334E+03  0.32808855418E+04  0.32765751636E+04 0.  0.
        5    1    3    3  502    0  0.28503084586E+03 -0.11718419709E+03 -0.16952115794E+04  0.17230029333E+04  0.46999998093E+01 0.  1.
       -5    1    3    3    0  502 -0.28503084586E+03  0.11718419709E+03  0.15270891961E+04  0.15578826085E+04  0.46999998093E+01 0. -1.
</event>
<event>
 5   0  0.1405389E-06  0.3342384E+04  0.7818609E-02  0.8152194E-01
        1   -1    0    0  501    0  0.00000000000E+00  0.00000000000E+00  0.13585861995E+04  0.13585861995E+04  0.50400001928E-02 0.  1.
       -1   -1    0    0    0  501  0.00000000000E+00  0.00000000000E+00 -0.20557268459E+04  0.20557268459E+04  0.50400001928E-02 0. -1.
    10030    2    1    2    0    0  0.00000000000E+00  0.00000000000E+00 -0.69714064642E+03  0.34143130453E+04  0.33423836540E+04 0.  0.
        1    1    3    3  502    0 -0.71225315994E+03  0.49606655651E+03  0.11102722125E+04  0.14092874009E+04  0.50400001928E-02 0.  1.
       -1    1    3    3    0  502  0.71225315994E+03 -0.49606655651E+03 -0.18074128589E+04  0.20050256445E+04  0.50400001928E-02 0. -1.
</event>
<event>
 5   0  0.1339825E-06  0.3068186E+04  0.7818609E-02  0.8224524E-01
       -1   -1    0    0    0  501  0.00000000000E+00  0.00000000000E+00  0.88032205009E+03  0.88032205011E+03  0.50400001928E-02 0. -1.
        1   -1    0    0  501    0  0.00000000000E+00  0.00000000000E+00 -0.26733870073E+04  0.26733870073E+04  0.50400001928E-02 0.  1.
    10030    2    1    2    0    0  0.00000000000E+00  0.00000000000E+00 -0.17930649572E+04  0.35537090574E+04  0.30681861293E+04 0.  0.
        3    1    3    3  502    0  0.33554911717E+03 -0.12775831197E+04  0.70685810893E+01  0.13209321757E+04  0.10100000352E+00 0. -1.
       -3    1    3    3    0  502 -0.33554911717E+03  0.12775831197E+04 -0.18001335382E+04  0.22327768817E+04  0.10100000352E+00 0.  1.
</event>
<event>
 5   0  0.3812379E-06  0.2387847E+04  0.7818609E-02  0.8444067E-01
        2   -1    0    0  501    0  0.00000000000E+00  0.00000000000E+00  0.17007413213E+04  0.17007413213E+04  0.25500000920E-02 0. -1.
       -2   -1    0    0    0  501  0.00000000000E+00  0.00000000000E+00 -0.83813669550E+03  0.83813669551E+03  0.25500000920E-02 0.  1.
    10030    2    1    2    0    0  0.00000000000E+00  0.00000000000E+00  0.86260462578E+03  0.25388780168E+04  0.23878473242E+04 0.  0.
        5    1    3    3  502    0  0.70867552585E+01  0.97299984339E+03 -0.30430415344E+03  0.10195106793E+04  0.46999998093E+01 0.  1.
       -5    1    3    3    0  502 -0.70867552585E+01 -0.97299984339E+03  0.11669087792E+04  0.15193673375E+04  0.46999998093E+01 0. -1.
</event>
<event>
 5   0  0.1282578E-06  0.2941599E+04  0.7818609E-02  0.8260607E-01
        1   -1    0    0  501    0  0.00000000000E+00  0.00000000000E+00  0.21414437483E+04  0.21414437483E+04  0.50400001928E-02 0. -1.
       -1   -1    0    0    0  501  0.00000000000E+00  0.00000000000E+00 -0.10101836531E+04  0.10101836531E+04  0.50400001928E-02 0.  1.
    10030    2    1    2    0    0  0.00000000000E+00  0.00000000000E+00  0.11312600952E+04  0.31516274014E+04  0.29415992035E+04 0.  0.
        4    1    3    3  502    0  0.94760700079E+03  0.92913354582E+03  0.12449358175E+04  0.18196469373E+04  0.12699999809E+01 0. -1.
       -4    1    3    3    0  502 -0.94760700079E+03 -0.92913354582E+03 -0.11367572228E+03  0.13319804641E+04  0.12699999809E+01 0.  1.
</event>
<event>
 5   0  0.1259875E-06  0.3297270E+04  0.7818609E-02  0.8163590E-01
        3   -1    0    0  501    0  0.00000000000E+00  0.00000000000E+00  0.15175430706E+04  0.15175430739E+04  0.10100000352E+00 0.  1.
       -3   -1    0    0    0  501  0.00000000000E+00  0.00000000000E+00 -0.17910506961E+04  0.17910506990E+04  0.10100000352E+00 0. -1.
    10030    2    1    2    0    0  0.00000000000E+00  0.00000000000E+00 -0.27350762557E+03  0.33085937729E+04  0.32972695269E+04 0.  0.
        2    1    3    3  502    0  0.67422226657E+03 -0.26456405010E+03  0.13493548648E+04  0.15314464903E+04  0.25500000920E-02 0.  1.
       -2    1    3    3    0  502 -0.67422226657E+03  0.26456405010E+03 -0.16228624904E+04  0.17771472826E+04  0.25500000920E-02 0. -1.
</event>
<event>
 5   0  0.3812379E-06  0.3208465E+04  0.7818609E-02  0.8186585E-01
        2   -1    0    0  501    0  0.00000000000E+00  0.00000000000E+00  0.25471235008E+04  0.25471235008E+04  0.25500000920E-02 0.  1.
       -2   -1    0    0    0  501  0.00000000000E+00  0.00000000000E+00 -0.10103800198E+04  0.10103800198E+04  0.25500000920E-02 0. -1.
    10030    2    1    2    0    0  0.00000000000E+00  0.00000000000E+00  0.15367434810E+04  0.35575035206E+04  0.32084654856E+04 0.  0.
        5    1    3    3  502    0  0.47692517895E+03 -0.14885053976E+04  0.11688182097E+04  0.19517335992E+04  0.46999998093E+01 0.  1.
       -5    1    3    3    0  502 -0.47692517895E+03  0.14885053976E+04  0.36792527129E+03  0.16057699213E+04  0.46999998093E+01 0. -1.
</event>
<event>
 5   0  0.1352708E-06  0.2654822E+04  0.7818609E-02  0.8349814E-01
        1   -1    0    0  501    0  0.00000000000E+00  0.00000000000E+00  0.10662238347E+04  0.10662238348E+04  0.50400001928E-02 0.  1.
       -1   -1    0    0    0  501  0.00000000000E+00  0.00000000000E+00 -0.16525804126E+04  0.16525804126E+04  0.50400001928E-02 0. -1.
    10030    2    1    2    0    0  0.00000000000E+00  0.00000000000E+00 -0.58635657784E+03  0.27188042474E+04  0.26548224986E+04 0.  0.
        5    1    3    3  502    0  0.87103146138E+03 -0.91697263295E+03  0.11960386429E+03  0.12703786013E+04  0.46999998093E+01 0.  1.
       -5    1    3    3    0  502 -0.87103146138E+03  0.91697263295E+03 -0.70596044214E+03  0.14484256461E+04  0.46999998093E+01 0. -1.
</event>
<event>
 5   0  0.3920487E-06  0.3217623E+04  0.7818609E-02  0.8184179E-01
       -2   -1    0    0    0  501  0.00000000000E+00  0.00000000000E+00  0.93450413052E+03  0.93450413053E+03  0.25500000920E-02 0. -1.
        2   -1    0    0  501    0  0.00000000000E+00  0.00000000000E+00 -0.27696761751E+04  0.27696761751E+04  0.25500000920E-02 0.  1.
    10030    2    1    2    0    0  0.00000000000E+00  0.00000000000E+00 -0.18351720446E+04  0.37041803057E+04  0.32176226167E+04 0.  0.
        4    1    3    3  502    0  0.77091579534E+03 -0.13663655583E+04 -0.13278557676E+04  0.20553511999E+04  0.12699999809E+01 0.  1.
       -4    1    3    3    0  502 -0.77091579534E+03  0.13663655583E+04 -0.50731627698E+03  0.16488291058E+04  0.12699999809E+01 0. -1.
</event>
<event>
 5   0  0.1282578E-06  0.3063204E+04  0.7818609E-02  0.8225909E-01
        1   -1    0    0  501    0  0.00000000000E+00  0.00000000000E+00  0.11885730191E+04  0.11885730191E+04  0.50400001928E-02 0.  1.
       -1   -1    0    0    0  501  0.00000000000E+00  0.00000000000E+00 -0.19736311483E+04  0.19736311483E+04  0.50400001928E-02 0. -1.
    10030    2    1    2    0    0  0.00000000000E+00  0.00000000000E+00 -0.78505812920E+03  0.31622041674E+04  0.30632040301E+04 0.  0.
        4    1    3    3  502    0  0.92197119435E+03  0.10555331364E+03 -0.16503627044E+04  0.18933755714E+04  0.12699999809E+01 0. -1.
       -4    1    3    3    0  502 -0.92197119435E+03 -0.10555331364E+03  0.86530457520E+03  0.12688285960E+04  0.12699999809E+01 0.  1.
</event>
<event>
 5   0  0.1391878E-06  0.3281624E+04  0.7818609E-02  0.8167587E-01
       -1   -1    0    0    0  501  0.00000000000E+00  0.00000000000E+00  0.14753330646E+04  0.14753330646E+04  0.50400001928E-02 0.  1.
        1   -1    0    0  501    0  0.00000000000E+00  0.00000000000E+00 -0.18248513213E+04  0.18248513213E+04  0.50400001928E-02 0. -1.
    10030    2    1    2    0    0  0.00000000000E+00  0.00000000000E+00 -0.34951825675E+03  0.33001843860E+04  0.32816236788E+04 0.  0.
        2    1    3    3  502    0  0.32866611972E+03  0.22290968371E+03  0.14262733675E+04  0.14805289136E+04  0.25500000920E-02 0.  1.
       -2    1    3    3    0  502 -0.32866611972E+03 -0.22290968371E+03 -0.17757916242E+04  0.18196554723E+04  0.25500000920E-02 0. -1.
</event>
<event>
 5   0  0.1339825E-06  0.3072398E+04  0.7818609E-02  0.8223354E-01
       -1   -1    0    0    0  501  0.00000000000E+00  0.00000000000E+00  0.10806989479E+04  0.10806989479E+04  0.50400001928E-02 0.  1.
        1   -1    0    0  501    0  0.00000000000E+00  0.00000000000E+00 -0.21836864671E+04  0.21836864671E+04  0.50400001928E-02 0. -1.
    10030    2    1    2    0    0  0.00000000000E+00  0.00000000000E+00 -0.11029875191E+04  0.32643854150E+04  0.30723981953E+04 0.  0.
        3    1    3    3  502    0 -0.49206719436E+03 -0.11992012387E+04 -0.14274463895E+04  0.19281641372E+04  0.10100000352E+00 0. -1.
       -3    1    3    3    0  502  0.49206719436E+03  0.11992012387E+04  0.32445887040E+03  0.13362212779E+04  0.10100000352E+00 0.  1.
</event>
<event>
 5   0  0.3896210E-06  0.2708765E+04  0.7818609E-02  0.8332167E-01
       -2   -1    0    0    0  501  0.00000000000E+00  0.00000000000E+00  0.11087035782E+04  0.11087035782E+04  0.25500000920E-02 0.  1.
        2   -1    0    0  501    0  0.00000000000E+00  0.00000000000E+00 -0.16545021179E+04  0.16545021179E+04  0.25500000920E-02 0. -1.
    10030    2    1    2    0    0  0.00000000000E+00  0.00000000000E+00 -0.54579853976E+03  0.27632056961E+04  0.27087653411E+04 0.  0.
        3    1    3    3  502    0 -0.12574182162E+04 -0.33557658939E+03 -0.65545662328E+03  0.14571669818E+04  0.10100000352E+00 0. -1.
       -3    1    3    3    0  502  0.12574182162E+04  0.33557658939E+03  0.10965808352E+03  0.13060387143E+04  0.10100000352E+00 0.  1.
</event>
<event>
 5   0  0.1391878E-06  0.3354085E+04  0.7818609E-02  0.8149268E-01
       -1   -1    0    0    0  501  0.00000000000E+00  0.00000000000E+00  0.11008326906E+04  0.11008326906E+04  0.50400001928E-02 0. -1.
        1   -1    0    0  501    0  0.00000000000E+00  0.00000000000E+00 -0.25548584120E+04  0.25548584120E+04  0.50400001928E-02 0.  1.
    10030    2    1    2    0    0  0.00000000000E+00  0.00000000000E+00 -0.14540257214E+04  0.36556911026E+04  0.33540850674E+04 0.  0.
        2    1    3    3  502    0  0.96542203057E+03 -0.95643446732E+03  0.34403451240E+03  0.14018439047E+04  0.25500000920E-02 0. -1.
       -2    1    3    3    0  502 -0.96542203057E+03  0.95643446732E+03 -0.17980602338E+04  0.22538471979E+04  0.25500000920E-02 0.  1.
</event>
<event>
 5   0  0.1391878E-06  0.3268722E+04  0.7818609E-02  0.8170900E-01
       -1   -1    0    0    0  501  0.00000000000E+00  0.00000000000E+00  0.79102328558E+03  0.79102328560E+03  0.50400001928E-02 0. -1.
        1   -1    0    0  501    0  0.00000000000E+00  0.00000000000E+00 -0.33768115501E+04  0.33768115501E+04  0.50400001928E-02 0.  1.
    10030    2    1    2    0    0  0.00000000000E+00  0.00000000000E+00 -0.25857882645E+04  0.41678348357E+04  0.32687224215E+04 0.  0.
        2    1    3    3  502    0 -0.12529333466E+03  0.13032043930E+04 -0.25403072668E+04  0.28578315415E+04  0.25500000920E-02 0.  1.
       -2    1    3    3    0  502  0.12529333466E+03 -0.13032043930E+04 -0.45480997624E+02  0.13100032942E+04  0.25500000920E-02 0. -1.
</event>
<event>
 5   0  0.3812379E-06  0.3468230E+04  0.7818609E-02  0.8121360E-01
        2   -1    0    0  501    0  0.00000000000E+00  0.00000000000E+00  0.13571670732E+04  0.13571670732E+04  0.25500000920E-02 0.  1.
       -2   -1    0    0    0  501  0.00000000000E+00  0.00000000000E+00 -0.22157591271E+04  0.22157591271E+04  0.25500000920E-02 0. -1.
    10030    2    1    2    0    0  0.00000000000E+00  0.00000000000E+00 -0.85859205395E+03  0.35729262003E+04  0.34682302861E+04 0.  0.
        5    1    3    3  502    0 -0.21973762878E+03  0.13555265010E+04 -0.15202231042E+04  0.20486183386E+04  0.46999998093E+01 0. -1.
       -5    1    3    3    0  502  0.21973762878E+03 -0.13555265010E+04  0.66163105030E+03  0.15243078617E+04  0.46999998093E+01 0.  1.
</event>
<event>
 5   0  0.3920487E-06  0.3528039E+04  0.7818609E-02  0.8107177E-01
       -2   -1    0    0    0  501  0.00000000000E+00  0.00000000000E+00  0.23867747114E+04  0.23867747114E+04  0.25500000920E-02 0. -1.
        2   -1    0    0  501    0  0.00000000000E+00  0.00000000000E+00 -0.13037528550E+04  0.13037528550E+04  0.25500000920E-02 0.  1.
    10030    2    1    2    0    0  0.00000000000E+00  0.00000000000E+00  0.10830218564E+04  0.36905275665E+04  0.35280387438E+04 0.  0.
        4    1    3    3  502    0 -0.35506946311E+03 -0.14952017022E+04 -0.36443690579E+03  0.15794044211E+04  0.12699999809E+01 0.  1.
       -4    1    3    3    0  502  0.35506946311E+03  0.14952017022E+04  0.14474587622E+04  0.21111231454E+04  0.12699999809E+01 0. -1.
</event>
<event>
 5   0  0.1391878E-06  0.3269263E+04  0.7818609E-02  0.8170761E-01
        1   -1    0    0  501    0  0.00000000000E+00  0.00000000000E+00  0.25845013836E+04  0.25845013836E+04  0.50400001928E-02 0. -1.
       -1   -1    0    0    0  501  0.00000000000E+00  0.00000000000E+00 -0.10338629931E+04  0.10338629931E+04  0.50400001928E-02 0.  1.
    10030    2    1    2    0    0  0.00000000000E+00  0.00000000000E+00  0.15506383905E+04  0.36183643767E+04  0.32692631195E+04 0.  0.
        2    1    3    3  502    0 -0.11671525057E+04 -0.10316988019E+04  0.13235655630E+04  0.20441314021E+04  0.25500000920E-02 0. -1.
       -2    1    3    3    0  502  0.11671525057E+04  0.10316988019E+04  0.22707282752E+03  0.15742329746E+04  0.25500000920E-02 0.  1.
</event>
<event>
 5   0  0.1339825E-06  0.3108118E+04  0.7818609E-02  0.8213513E-01
       -1   -1    0    0    0  501  0.00000000000E+00  0.00000000000E+00  0.17288990935E+04  0.17288990935E+04  0.50400001928E-02 0.  1.
        1   -1    0    0  501    0  0.00000000000E+00  0.00000000000E+00 -0.13969002784E+04  0.13969002784E+04  0.50400001928E-02 0. -1.
    10030    2    1    2    0    0  0.00000000000E+00  0.00000000000E+00  0.33199881509E+03  0.31257993718E+04  0.31081181605E+04 0.  0.
        3    1    3    3  502    0 -0.90909554501E+01  0.60755133255E+02 -0.13956787051E+04  0.13970300247E+04  0.10100000352E+00 0. -1.
       -3    1    3    3    0  502  0.90909554501E+01 -0.60755133255E+02  0.17276775202E+04  0.17287693472E+04  0.10100000352E+00 0.  1.
</event>
<event>
 5   0  0.1339825E-06  0.3333298E+04  0.7818609E-02  0.8154474E-01
       -1   -1    0    0    0  501  0.00000000000E+00  0.00000000000E+00  0.12815721937E+04  0.12815721937E+04  0.50400001928E-02 0. -1.
        1   -1    0    0  501    0  0.00000000000E+00  0.00000000000E+00 -0.21674310355E+04  0.21674310355E+04  0.50400001928E-02 0.  1.
    10030    2    1    2    0    0  0.00000000000E+00  0.00000000000E+00 -0.88585884188E+03  0.34490032292E+04  0.33332982746E+04 0.  0.
        3    1    3    3  502    0  0.97250460598E+03 -0.39244945271E+03 -0.17832457872E+04  0.20687550191E+04  0.10100000352E+00 0.  1.
       -3    1    3    3    0  502 -0.97250460598E+03  0.39244945271E+03  0.89738694528E+03  0.13802482101E+04  0.10100000352E+00 0. -1.
</event>
<event>
 5   0  0.3671997E-06  0.3282188E+04  0.7818609E-02  0.8167443E-01
       -2   -1    0    0    0  501  0.00000000000E+00  0.00000000000E+00  0.13351483770E+04  0.13351483770E+04  0.25500000920E-02 0.  1.
        2   -1    0    0  501    0  0.00000000000E+00  0.00000000000E+00 -0.20171456716E+04  0.20171456716E+04  0.25500000920E-02 0. -1.
    10030    2    1    2    0    0  0.00000000000E+00  0.00000000000E+00 -0.68199729465E+03  0.33522940486E+04  0.32821875447E+04 0.  0.
        2    1    3    3  502    0 -0.10113365597E+04 -0.12779048040E+04 -0.53837873780E+03  0.17163024181E+04  0.25500000920E-02 0. -1.
       -2    1    3    3    0  502  0.10113365597E+04  0.12779048040E+04 -0.14361855685E+03  0.16359916305E+04  0.25500000920E-02 0.  1.
</event>
<event>
 5   0  0.1405389E-06  0.3312858E+04  0.7818609E-02  0.8159631E-01
        1   -1    0    0  501    0  0.00000000000E+00  0.00000000000E+00  0.15277784201E+04  0.15277784202E+04  0.50400001928E-02 0. -1.
       -1   -1    0    0    0  501  0.00000000000E+00  0.00000000000E+00 -0.17959124200E+04  0.17959124200E+04  0.50400001928E-02 0.  1.
    10030    2    1    2    0    0  0.00000000000E+00  0.00000000000E+00 -0.26813399989E+03  0.33236908402E+04  0.33128575217E+04 0.  0.
        1    1    3    3  502    0  0.99616612473E+03 -0.44389842872E+03 -0.13848850894E+04  0.17627533786E+04  0.50400001928E-02 0.  1.
       -1    1    3    3    0  502 -0.99616612473E+03  0.44389842872E+03  0.11167510895E+04  0.15609374616E+04  0.50400001928E-02 0. -1.
</event>
<event>
 5   0  0.3812379E-06  0.2147285E+04  0.7818609E-02  0.8540695E-01
        2   -1    0    0  501    0  0.00000000000E+00  0.00000000000E+00  0.20992773251E+04  0.20992773251E+04  0.25500000920E-02 0.  1.
       -2   -1    0    0    0  501  0.00000000000E+00  0.00000000000E+00 -0.54909757313E+03  0.54909757314E+03  0.25500000920E-02 0. -1.
    10030    2    1    2    0    0  0.00000000000E+00  0.00000000000E+00  0.15501797520E+04  0.26483748982E+04  0.21472848759E+04 0.  0.
        5    1    3    3  502    0 -0.10244715438E+04  0.21630779608E+03  0.10678796996E+04  0.14955668322E+04  0.46999998093E+01 0.  1.
       -5    1    3    3    0  502  0.10244715438E+04 -0.21630779608E+03  0.48230005235E+03  0.11528080661E+04  0.46999998093E+01 0. -1.
</event>
<event>
 5   0  0.1339825E-06  0.3348333E+04  0.7818609E-02  0.8150705E-01
       -1   -1    0    0    0  501  0.00000000000E+00  0.00000000000E+00  0.18639749695E+04  0.18639749695E+04  0.50400001928E-02 0. -1.
        1   -1    0    0  501    0  0.00000000000E+00  0.00000000000E+00 -0.15036861474E+04  0.15036861474E+04  0.50400001928E-02 0.  1.
    10030    2    1    2    0    0  0.00000000000E+00  0.00000000000E+00  0.36028882209E+03  0.33676611169E+04  0.33483329229E+04 0.  0.
        3    1    3    3  502    0  0.13803639263E+04  0.93619702226E+03  0.32576935043E+03  0.16994102252E+04  0.10100000352E+00 0.  1.
       -3    1    3    3    0  502 -0.13803639263E+04 -0.93619702226E+03  0.34519471659E+02  0.16682508917E+04  0.10100000352E+00 0. -1.
</event>
<event>
 5   0  0.3671997E-06  0.2115895E+04  0.7818609E-02  0.8554274E-01
        2   -1    0    0  501    0  0.00000000000E+00  0.00000000000E+00  0.74474314100E+03  0.74474314100E+03  0.25500000920E-02 0.  1.
       -2   -1    0    0    0  501  0.00000000000E+00  0.00000000000E+00 -0.15028713975E+04  0.15028713975E+04  0.25500000920E-02 0. -1.
    10030    2    1    2    0    0  0.00000000000E+00  0.00000000000E+00 -0.75812825646E+03  0.22476145385E+04  0.21158952385E+04 0.  0.
        2    1    3    3  502    0 -0.40720543603E+03  0.60399801879E+02  0.65617620688E+03  0.77461707810E+03  0.25500000920E-02 0.  1.
       -2    1    3    3    0  502  0.40720543603E+03 -0.60399801879E+02 -0.14143044633E+04  0.14729974604E+04  0.25500000920E-02 0. -1.
</event>
<event>
 5   0  0.3812379E-06  0.2690266E+04  0.7818609E-02  0.8338170E-01
        2   -1    0    0  501    0  0.00000000000E+00  0.00000000000E+00  0.10501044426E+04  0.10501044427E+04  0.25500000920E-02 0.  1.
       -2   -1    0    0    0  501  0.00000000000E+00  0.00000000000E+00 -0.17230509371E+04  0.17230509371E+04  0.25500000920E-02 0. -1.
    10030    2    1    2    0    0  0.00000000000E+00  0.00000000000E+00 -0.67294649446E+03  0.27731553798E+04  0.26902664879E+04 0.  0.
        5    1    3    3  502    0  0.12476607913E+04 -0.49131226335E+03 -0.44612826596E+03  0.14131870753E+04  0.46999998093E+01 0.  1.
       -5    1    3    3    0  502 -0.12476607913E+04  0.49131226335E+03 -0.22681822850E+03  0.13599683044E+04  0.46999998093E+01 0. -1.
</event>
<event>
 5   0  0.1405389E-06  0.3347549E+04  0.7818609E-02  0.8150901E-01
       -1   -1    0    0    0  501  0.00000000000E+00  0.00000000000E+00  0.13855778184E+04  0.13855778184E+04  0.50400001928E-02 0.  1.
        1   -1    0    0  501    0  0.00000000000E+00  0.00000000000E+00 -0.20219152451E+04  0.20219152451E+04  0.50400001928E-02 0. -1.
    10030    2    1    2    0    0  0.00000000000E+00  0.00000000000E+00 -0.63633742670E+03  0.34074930634E+04  0.33475489028E+04 0.  0.
        1    1    3    3  502    0  0.60778351083E+03 -0.48930745230E+02 -0.19048390111E+04  0.20000516673E+04  0.50400001928E-02 0. -1.
       -1    1    3    3    0  502 -0.60778351083E+03  0.48930745230E+02  0.12685015844E+04  0.14074413961E+04  0.50400001928E-02 0.  1.
</event>
<event>
 5   0  0.1282578E-06  0.3328018E+04  0.7818609E-02  0.8155803E-01
       -1   -1    0    0    0  501  0.00000000000E+00  0.00000000000E+00  0.14717788077E+04  0.14717788077E+04  0.50400001928E-02 0.  1.
        1   -1    0    0  501    0  0.00000000000E+00  0.00000000000E+00 -0.18813468449E+04  0.18813468449E+04  0.50400001928E-02 0. -1.
    10030    2    1    2    0    0  0.00000000000E+00  0.00000000000E+00 -0.40956803721E+03  0.33531256526E+04  0.33280182789E+04 0.  0.
        4    1    3    3  502    0  0.88823039256E+03  0.11280170995E+04  0.64272120723E+03  0.15730441730E+04  0.12699999809E+01 0.  1.
       -4    1    3    3    0  502 -0.88823039256E+03 -0.11280170995E+04 -0.10522892444E+04  0.17800814796E+04  0.12699999809E+01 0. -1.
</event>
<event>
 5   0  0.3896210E-06  0.3216443E+04  0.7818609E-02  0.8184488E-01
       -2   -1    0    0    0  501  0.00000000000E+00  0.00000000000E+00  0.99570788020E+03  0.99570788020E+03  0.25500000920E-02 0. -1.
        2   -1    0    0  501    0  0.00000000000E+00  0.00000000000E+00 -0.25975255065E+04  0.25975255065E+04  0.25500000920E-02 0.  1.
    10030    2    1    2    0    0  0.00000000000E+00  0.00000000000E+00 -0.16018176263E+04  0.35932333867E+04  0.32164431385E+04 0.  0.
        3    1    3    3  502    0 -0.15474457383E+03 -0.99407119387E+03 -0.22025822345E+04  0.24214648318E+04  0.10100000352E+00 0.  1.
       -3    1    3    3    0  502  0.15474457383E+03  0.99407119387E+03  0.60076460821E+03  0.11717685549E+04  0.10100000352E+00 0. -1.
</event>
<event>
 5   0  0.1352708E-06  0.3262924E+04  0.7818609E-02  0.8172394E-01
        1   -1    0    0  501    0  0.00000000000E+00  0.00000000000E+00  0.17909718637E+04  0.17909718637E+04  0.50400001928E-02 0. -1.
       -1   -1    0    0    0  501  0.00000000000E+00  0.00000000000E+00 -0.14861589888E+04  0.14861589888E+04  0.50400001928E-02 0.  1.
    10030    2    1    2    0    0  0.00000000000E+00  0.00000000000E+00  0.30481287484E+03  0.32771308525E+04  0.32629244147E+04 0.  0.
        5    1    3    3  502    0  0.10162175686E+04 -0.11660362778E+04 -0.36880204359E+03  0.15900867226E+04  0.46999998093E+01 0.  1.
       -5    1    3    3    0  502 -0.10162175686E+04  0.11660362778E+04  0.67361491843E+03  0.16870441299E+04  0.46999998093E+01 0. -1.
</event>
<event>
 5   0  0.4017247E-06  0.3234975E+04  0.7818609E-02  0.8179641E-01
       -2   -1    0    0    0  501  0.00000000000E+00  0.00000000000E+00  0.16907647054E+04  0.16907647054E+04  0.25500000920E-02 0.  1.
        2   -1    0    0  501    0  0.00000000000E+00  0.00000000000E+00 -0.15473861876E+04  0.15473861876E+04  0.25500000920E-02 0. -1.
    10030    2    1    2    0    0  0.00000000000E+00  0.00000000000E+00  0.14337851777E+03  0.32381508931E+04  0.32349750860E+04 0.  0.
        1    1    3    3  502    0  0.98200752072E+03 -0.50649827393E+03  0.12541137825E+04  0.16714307200E+04  0.50400001928E-02 0.  1.
       -1    1    3    3    0  502 -0.98200752072E+03  0.50649827393E+03 -0.11107352648E+04  0.15667201730E+04  0.50400001928E-02 0. -1.
</event>
<event>
 5   0  0.1405389E-06  0.3242558E+04  0.7818609E-02  0.8177667E-01
        1   -1    0    0  501    0  0.00000000000E+00  0.00000000000E+00  0.15863298711E+04  0.15863298711E+04  0.50400001928E-02 0. -1.
       -1   -1    0    0    0  501  0.00000000000E+00  0.00000000000E+00 -0.16569976798E+04  0.16569976798E+04  0.50400001928E-02 0.  1.
    10030    2    1    2    0    0  0.00000000000E+00  0.00000000000E+00 -0.70667808762E+02  0.32433275509E+04  0.32425575806E+04 0.  0.
        1    1    3    3  502    0  0.77038534839E+02  0.62007466332E+03  0.14610552277E+04  0.15890594395E+04  0.50400001928E-02 0. -1.
       -1    1    3    3    0  502 -0.77038534839E+02 -0.62007466332E+03 -0.15317230365E+04  0.16542681114E+04  0.50400001928E-02 0.  1.
</event>
<event>
 5   0  0.3671997E-06  0.3303297E+04  0.7818609E-02  0.8162057E-01
        2   -1    0    0  501    0  0.00000000000E+00  0.00000000000E+00  0.10338896160E+04  0.10338896160E+04  0.25500000920E-02 0.  1.
       -2   -1    0    0    0  501  0.00000000000E+00  0.00000000000E+00 -0.26385245291E+04  0.26385245291E+04  0.25500000920E-02 0. -1.
    10030    2    1    2    0    0  0.00000000000E+00  0.00000000000E+00 -0.16046349132E+04  0.36724141451E+04  0.33032972086E+04 0.  0.
        2    1    3    3  502    0  0.36119030583E+03  0.70472305994E+03  0.80907576460E+03  0.11321204093E+04  0.25500000920E-02 0.  1.
       -2    1    3    3    0  502 -0.36119030583E+03 -0.70472305994E+03 -0.24137106778E+04  0.25402937358E+04  0.25500000920E-02 0. -1.
</event>
<event>
 5   0  0.1339825E-06  0.3122285E+04  0.7818609E-02  0.8209649E-01
        1   -1    0    0  501    0  0.00000000000E+00  0.00000000000E+00  0.17153593755E+04  0.17153593755E+04  0.50400001928E-02 0.  1.
       -1   -1    0    0    0  501  0.00000000000E+00  0.00000000000E+00 -0.14207898983E+04  0.14207898983E+04  0.50400001928E-02 0. -1.
    10030    2    1    2    0    0  0.00000000000E+00  0.00000000000E+00  0.29456947721E+03  0.31361492739E+04  0.31222845948E+04 0.  0.
        3    1    3    3  502    0 -0.10772257429E+04 -0.57740085396E+03 -0.82829451837E+03  0.14764412845E+04  0.10100000352E+00 0. -1.
       -3    1    3    3    0  502  0.10772257429E+04  0.57740085396E+03  0.11228639956E+04  0.16597079894E+04  0.10100000352E+00 0.  1.
</event>
<event>
 5   0  0.3920487E-06  0.3297315E+04  0.7818609E-02  0.8163579E-01
        2   -1    0    0  501    0  0.00000000000E+00  0.00000000000E+00  0.22111525550E+04  0.22111525550E+04  0.25500000920E-02 0. -1.
       -2   -1    0    0    0  501  0.00000000000E+00  0.00000000000E+00 -0.12292556815E+04  0.12292556815E+04  0.25500000920E-02 0.  1.
    10030    2    1    2    0    0  0.00000000000E+00  0.00000000000E+00  0.98189687359E+03  0.34404082365E+04  0.32973151750E+04 0.  0.
        4    1    3    3  502    0  0.66038520006E+03  0.63268401930E+02  0.20657376913E+04  0.21696509685E+04  0.12699999809E+01 0. -1.
       -4    1    3    3    0  502 -0.66038520006E+03 -0.63268401930E+02 -0.10838408177E+04  0.12707572680E+04  0.12699999809E+01 0.  1.
</event>
<event>
 5   0  0.4017247E-06  0.3302429E+04  0.7818609E-02  0.8162278E-01
        2   -1    0    0  501    0  0.00000000000E+00  0.00000000000E+00  0.16923071643E+04  0.16923071644E+04  0.25500000920E-02 0.  1.
       -2   -1    0    0    0  501  0.00000000000E+00  0.00000000000E+00 -0.16111196852E+04  0.16111196852E+04  0.25500000920E-02 0. -1.
    10030    2    1    2    0    0  0.00000000000E+00  0.00000000000E+00  0.81187479198E+02  0.33034268495E+04  0.33024290368E+04 0.  0.
        1    1    3    3  502    0 -0.25069626822E+03 -0.24946861063E+03 -0.15727873167E+04  0.16120617700E+04  0.50400001928E-02 0. -1.
       -1    1    3    3    0  502  0.25069626822E+03  0.24946861063E+03  0.16539747959E+04  0.16913650795E+04  0.50400001928E-02 0.  1.
</event>
<event>
 5   0  0.1339825E-06  0.3285137E+04  0.7818609E-02  0.8166688E-01
        1   -1    0    0  501    0  0.00000000000E+00  0.00000000000E+00  0.15299523203E+04  0.15299523203E+04  0.50400001928E-02 0.  1.
       -1   -1    0    0    0  501  0.00000000000E+00  0.00000000000E+00 -0.17634740226E+04  0.17634740226E+04  0.50400001928E-02 0. -1.
    10030    2    1    2    0    0  0.00000000000E+00  0.00000000000E+00 -0.23352170223E+03  0.32934263429E+04  0.32851369364E+04 0.  0.
        3    1    3    3  502    0 -0.12870441996E+04 -0.57880020828E+03  0.72591870563E+03  0.15869626430E+04  0.10100000352E+00 0.  1.
       -3    1    3    3    0  502  0.12870441996E+04  0.57880020828E+03 -0.95944040786E+03  0.17064636999E+04  0.10100000352E+00 0. -1.
</event>
<event>
 5   0  0.1352708E-06  0.3452805E+04  0.7818609E-02  0.8125067E-01
        1   -1    0    0  501    0  0.00000000000E+00  0.00000000000E+00  0.10407494950E+04  0.10407494950E+04  0.50400001928E-02 0. -1.
       -1   -1    0    0    0  501  0.00000000000E+00  0.00000000000E+00 -0.28637678070E+04  0.28637678070E+04  0.50400001928E-02 0.  1.
    10030    2    1    2    0    0  0.00000000000E+00  0.00000000000E+00 -0.18230183120E+04  0.39045173020E+04  0.34528045985E+04 0.  0.
        5    1    3    3  502    0  0.11118608397E+04 -0.98390294744E+03 -0.19077544864E+04  0.24174053875E+04  0.46999998093E+01 0. -1.
       -5    1    3    3    0  502 -0.11118608397E+04  0.98390294744E+03  0.84736174441E+02  0.14871119145E+04  0.46999998093E+01 0.  1.
</event>
<event>
 5   0  0.1339825E-06  0.3270297E+04  0.7818609E-02  0.8170495E-01
        1   -1    0    0  501    0  0.00000000000E+00  0.00000000000E+00  0.17709408761E+04  0.17709408761E+04  0.50400001928E-02 0.  1.
       -1   -1    0    0    0  501  0.00000000000E+00  0.00000000000E+00 -0.15097684416E+04  0.15097684416E+04  0.50400001928E-02 0. -1.
    10030    2    1    2    0    0  0.00000000000E+00  0.00000000000E+00  0.26117243451E+03  0.32807093176E+04  0.32702970181E+04 0.  0.
        3    1    3    3  502    0 -0.10194316876E+04  0.12613986420E+04  0.33943921931E+03  0.16569811386E+04  0.10100000352E+00 0. -1.
       -3    1    3    3    0  502  0.10194316876E+04 -0.12613986420E+04 -0.78266784799E+02  0.16237281791E+04  0.10100000352E+00 0.  1.
</event>
<event>
 5   0  0.1352708E-06  0.3341084E+04  0.7818609E-02  0.8152520E-01
        1   -1    0    0  501    0  0.00000000000E+00  0.00000000000E+00  0.20607078466E+04  0.20607078466E+04  0.50400001928E-02 0. -1.
       -1   -1    0    0    0  501  0.00000000000E+00  0.00000000000E+00 -0.13542481658E+04  0.13542481658E+04  0.50400001928E-02 0.  1.
    10030    2    1    2    0    0  0.00000000000E+00  0.00000000000E+00  0.70645968078E+03  0.34149560124E+04  0.33410835497E+04 0.  0.
        5    1    3    3  502    0  0.52675214287E+03 -0.15660543177E+04  0.60503805355E+03  0.17595701413E+04  0.46999998093E+01 0. -1.
       -5    1    3    3    0  502 -0.52675214287E+03  0.15660543177E+04  0.10142162723E+03  0.16553858711E+04  0.46999998093E+01 0.  1.
</event>
<event>
 5   0  0.3671997E-06  0.3259056E+04  0.7818609E-02  0.8173392E-01
        2   -1    0    0  501    0  0.00000000000E+00  0.00000000000E+00  0.12104154981E+04  0.12104154981E+04  0.25500000920E-02 0. -1.
       -2   -1    0    0    0  501  0.00000000000E+00  0.00000000000E+00 -0.21937603989E+04  0.21937603989E+04  0.25500000920E-02 0.  1.
    10030    2    1    2    0    0  0.00000000000E+00  0.00000000000E+00 -0.98334490079E+03  0.34041758970E+04  0.32590560511E+04 0.  0.
        2    1    3    3  502    0 -0.85770616894E+03 -0.53756842162E+03 -0.18255320394E+04  0.20873923702E+04  0.25500000920E-02 0.  1.
       -2    1    3    3    0  502  0.85770616894E+03  0.53756842162E+03  0.84218713861E+03  0.13167835269E+04  0.25500000920E-02 0. -1.
</event>
<event>
 5   0  0.1339825E-06  0.3295080E+04  0.7818609E-02  0.8164149E-01
       -1   -1    0    0    0  501  0.00000000000E+00  0.00000000000E+00  0.12374061789E+04  0.12374061789E+04  0.50400001928E-02 0.  1.
        1   -1    0    0  501    0  0.00000000000E+00  0.00000000000E+00 -0.21936105755E+04  0.21936105755E+04  0.50400001928E-02 0. -1.
    10030    2    1    2    0    0  0.00000000000E+00  0.00000000000E+00 -0.95620439659E+03  0.34310167544E+04  0.32950795318E+04 0.  0.
        3    1    3    3  502    0 -0.59306601438E+03 -0.12650876021E+04  0.43096336782E+03  0.14621570959E+04  0.10100000352E+00 0.  1.
       -3    1    3    3    0  502  0.59306601438E+03  0.12650876021E+04 -0.13871677644E+04  0.19688596586E+04  0.10100000352E+00 0. -1.
</event>
<event>
 5   0  0.4017247E-06  0.3297724E+04  0.7818609E-02  0.8163475E-01
       -2   -1    0    0    0  501  0.00000000000E+00  0.00000000000E+00  0.11066850951E+04  0.11066850951E+04  0.25500000920E-02 0. -1.
        2   -1    0    0  501    0  0.00000000000E+00  0.00000000000E+00 -0.24566572461E+04  0.24566572461E+04  0.25500000920E-02 0.  1.
    10030    2    1    2    0    0  0.00000000000E+00  0.00000000000E+00 -0.13499721510E+04  0.35633423411E+04  0.32977240381E+04 0.  0.
        1    1    3    3  502    0 -0.11315564622E+04  0.38006330203E+02  0.62026424182E+03  0.12909656223E+04  0.50400001928E-02 0. -1.
       -1    1    3    3    0  502  0.11315564622E+04 -0.38006330203E+02 -0.19702363929E+04  0.22723767188E+04  0.50400001928E-02 0.  1.
</event>
<event>
 5   0  0.3920487E-06  0.3306660E+04  0.7818609E-02  0.8161203E-01
        2   -1    0    0  501    0  0.00000000000E+00  0.00000000000E+00  0.21792873955E+04  0.21792873955E+04  0.25500000920E-02 0. -1.
       -2   -1    0    0    0  501  0.00000000000E+00  0.00000000000E+00 -0.12543088747E+04  0.12543088747E+04  0.25500000920E-02 0.  1.
    10030    2    1    2    0    0  0.00000000000E+00  0.00000000000E+00  0.92497852076E+03  0.34335962701E+04  0.33066596563E+04 0.  0.
        4    1    3    3  502    0  0.12985605239E+04  0.37023470683E+03  0.14531380976E+04  0.19836696086E+04  0.12699999809E+01 0. -1.
       -4    1    3    3    0  502 -0.12985605239E+04 -0.37023470683E+03 -0.52815957684E+03  0.14499266616E+04  0.12699999809E+01 0.  1.
</event>
<event>
 5   0  0.1352708E-06  0.3595751E+04  0.7818609E-02  0.8091466E-01
        1   -1    0    0  501    0  0.00000000000E+00  0.00000000000E+00  0.26897016543E+04  0.26897016543E+04  0.50400001928E-02 0.  1.
       -1   -1    0    0    0  501  0.00000000000E+00  0.00000000000E+00 -0.12017525742E+04  0.12017525742E+04  0.50400001928E-02 0. -1.
    10030    2    1    2    0    0  0.00000000000E+00  0.00000000000E+00  0.14879490801E+04  0.38914542284E+04  0.35957507627E+04 0.  0.
        5    1    3    3  502    0  0.69400161164E+03 -0.16355410255E+04  0.10417394243E+04  0.20595814626E+04  0.46999998093E+01 0. -1.
       -5    1    3    3    0  502 -0.69400161164E+03  0.16355410255E+04  0.44620965583E+03  0.18318727658E+04  0.46999998093E+01 0.  1.
</event>
<event>
 5   0  0.3896210E-06  0.3067061E+04  0.7818609E-02  0.8224836E-01
        2   -1    0    0  501    0  0.00000000000E+00  0.00000000000E+00  0.23508032057E+04  0.23508032057E+04  0.25500000920E-02 0. -1.
       -2   -1    0    0    0  501  0.00000000000E+00  0.00000000000E+00 -0.10003883023E+04  0.10003883023E+04  0.25500000920E-02 0.  1.
    10030    2    1    2    0    0  0.00000000000E+00  0.00000000000E+00  0.13504149035E+04  0.33511915080E+04  0.30670611522E+04 0.  0.
        3    1    3    3  502    0  0.13451473315E+04  0.42413909027E+02 -0.12808363317E+03  0.13518970784E+04  0.10100000352E+00 0.  1.
       -3    1    3    3    0  502 -0.13451473315E+04 -0.42413909027E+02  0.14784985366E+04  0.19992944296E+04  0.10100000352E+00 0. -1.
</event>
<event>
 5   0  0.3896210E-06  0.3233970E+04  0.7818609E-02  0.8179903E-01
        2   -1    0    0  501    0  0.00000000000E+00  0.00000000000E+00  0.17513327201E+04  0.17513327201E+04  0.25500000920E-02 0.  1.
       -2   -1    0    0    0  501  0.00000000000E+00  0.00000000000E+00 -0.14929434671E+04  0.14929434671E+04  0.25500000920E-02 0. -1.
    10030    2    1    2    0    0  0.00000000000E+00  0.00000000000E+00  0.25838925301E+03  0.32442761871E+04  0.32339701564E+04 0.  0.
        3    1    3    3  502    0 -0.13744128775E+04  0.28460535587E+03  0.93464166464E+03  0.16862876439E+04  0.10100000352E+00 0.  1.
       -3    1    3    3    0  502  0.13744128775E+04 -0.28460535587E+03 -0.67625241163E+03  0.15579885432E+04  0.10100000352E+00 0. -1.
</event>
<event>
 5   0  0.1391878E-06  0.3224402E+04  0.7818609E-02  0.8182402E-01
       -1   -1    0    0    0  501  0.00000000000E+00  0.00000000000E+00  0.23349116487E+04  0.23349116487E+04  0.50400001928E-02 0.  1.
        1   -1    0    0  501    0  0.00000000000E+00  0.00000000000E+00 -0.11131862766E+04  0.11131862766E+04  0.50400001928E-02 0. -1.
    10030    2    1    2    0    0  0.00000000000E+00  0.00000000000E+00  0.12217253721E+04  0.34480979253E+04  0.32244017147E+04 0.  0.
        2    1    3    3  502    0  0.96613709341E+03  0.88847681425E+03  0.16119606898E+04  0.20787566472E+04  0.25500000920E-02 0.  1.
       -2    1    3    3    0  502 -0.96613709341E+03 -0.88847681425E+03 -0.39023531774E+03  0.13693412781E+04  0.25500000920E-02 0. -1.
</event>
<event>
 5   0  0.1352708E-06  0.3303993E+04  0.7818609E-02  0.8161880E-01
        1   -1    0    0  501    0  0.00000000000E+00  0.00000000000E+00  0.22318752116E+04  0.22318752116E+04  0.50400001928E-02 0.  1.
       -1   -1    0    0    0  501  0.00000000000E+00  0.00000000000E+00 -0.12227798906E+04  0.12227798906E+04  0.50400001928E-02 0. -1.
    10030    2    1    2    0    0  0.00000000000E+00  0.00000000000E+00  0.10090953210E+04  0.34546551022E+04  0.33039928130E+04 0.  0.
        5    1    3    3  502    0  0.99877028046E+01 -0.44906807688E+03  0.21667913787E+04  0.22128644017E+04  0.46999998093E+01 0.  1.
       -5    1    3    3    0  502 -0.99877028046E+01  0.44906807688E+03 -0.11576960576E+04  0.12417907005E+04  0.46999998093E+01 0. -1.
</event>
<event>
 5   0  0.1405389E-06  0.3336943E+04  0.7818609E-02  0.8153558E-01
        1   -1    0    0  501    0  0.00000000000E+00  0.00000000000E+00  0.23099726781E+04  0.23099726781E+04  0.50400001928E-02 0.  1.
       -1   -1    0    0    0  501  0.00000000000E+00  0.00000000000E+00 -0.12051213839E+04  0.12051213839E+04  0.50400001928E-02 0. -1.
    10030    2    1    2    0    0  0.00000000000E+00  0.00000000000E+00  0.11048512942E+04  0.35150940620E+04  0.33369431943E+04 0.  0.
        1    1    3    3  502    0  0.14058697461E+04  0.98883826158E+02 -0.38830874122E+03  0.14618588963E+04  0.50400001928E-02 0. -1.
       -1    1    3    3    0  502 -0.14058697461E+04 -0.98883826158E+02  0.14931600354E+04  0.20532351657E+04  0.50400001928E-02 0.  1.
</event>
<event>
 5   0  0.3812379E-06  0.3280310E+04  0.7818609E-02  0.8167924E-01
       -2   -1    0    0    0  501  0.00000000000E+00  0.00000000000E+00  0.13803315140E+04  0.13803315140E+04  0.25500000920E-02 0.  1.
        2   -1    0    0  501    0  0.00000000000E+00  0.00000000000E+00 -0.19488854984E+04  0.19488854984E+04  0.25500000920E-02 0. -1.
    10030    2    1    2    0    0  0.00000000000E+00  0.00000000000E+00 -0.56855398437E+03  0.33292170124E+04  0.32803097845E+04 0.  0.
        5    1    3    3  502    0  0.85074788708E+03 -0.10731109644E+04 -0.12003679502E+04  0.18210558517E+04  0.46999998093E+01 0. -1.
       -5    1    3    3    0  502 -0.85074788708E+03  0.10731109644E+04  0.63181396578E+03  0.15081611607E+04  0.46999998093E+01 0.  1.
</event>
<event>
 5   0  0.3896210E-06  0.3380414E+04  0.7818609E-02  0.8142730E-01
       -2   -1    0    0    0  501  0.00000000000E+00  0.00000000000E+00  0.15137732875E+04  0.15137732875E+04  0.25500000920E-02 0.  1.
        2   -1    0    0  501    0  0.00000000000E+00  0.00000000000E+00 -0.18872045938E+04  0.18872045938E+04  0.25500000920E-02 0. -1.
    10030    2    1    2    0    0  0.00000000000E+00  0.00000000000E+00 -0.37343130627E+03  0.34009778813E+04  0.33804141179E+04 0.  0.
        3    1    3    3  502    0 -0.33144613797E+03  0.16573899169E+04 -0.18814299615E+03  0.17006456646E+04  0.10100000352E+00 0.  1.
       -3    1    3    3    0  502  0.33144613797E+03 -0.16573899169E+04 -0.18528831011E+03  0.17003322167E+04  0.10100000352E+00 0. -1.
</event>
<event>
 5   0  0.3920487E-06  0.2389016E+04  0.7818609E-02  0.8443627E-01
        2   -1    0    0  501    0  0.00000000000E+00  0.00000000000E+00  0.10407726696E+04  0.10407726696E+04  0.25500000920E-02 0.  1.
       -2   -1    0    0    0  501  0.00000000000E+00  0.00000000000E+00 -0.13709522287E+04  0.13709522287E+04  0.25500000920E-02 0. -1.
    10030    2    1    2    0    0  0.00000000000E+00  0.00000000000E+00 -0.33017955915E+03  0.24117248983E+04  0.23890162083E+04 0.  0.
        4    1    3    3  502    0  0.12651724038E+03  0.10411835593E+04  0.41198912238E+03  0.11268568969E+04  0.12699999809E+01 0. -1.
       -4    1    3    3    0  502 -0.12651724038E+03 -0.10411835593E+04 -0.74216868153E+03  0.12848680014E+04  0.12699999809E+01 0.  1.
</event>
<event>
 5   0  0.3896210E-06  0.3314868E+04  0.7818609E-02  0.8159122E-01
       -2   -1    0    0    0  501  0.00000000000E+00  0.00000000000E+00  0.12606443572E+04  0.12606443572E+04  0.25500000920E-02 0. -1.
        2   -1    0    0  501    0  0.00000000000E+00  0.00000000000E+00 -0.21791138997E+04  0.21791138997E+04  0.25500000920E-02 0.  1.
    10030    2    1    2    0    0  0.00000000000E+00  0.00000000000E+00 -0.91846954252E+03  0.34397582570E+04  0.33148681068E+04 0.  0.
        3    1    3    3  502    0  0.15016261806E+04  0.23120694728E+03  0.22810287398E+03  0.15363491693E+04  0.10100000352E+00 0. -1.
       -3    1    3    3    0  502 -0.15016261806E+04 -0.23120694728E+03 -0.11465724165E+04  0.19034090877E+04  0.10100000352E+00 0.  1.
</event>
<event>
 5   0  0.1352708E-06  0.3086324E+04  0.7818609E-02  0.8219501E-01
        1   -1    0    0  501    0  0.00000000000E+00  0.00000000000E+00  0.19393632806E+04  0.19393632806E+04  0.50400001928E-02 0.  1.
       -1   -1    0    0    0  501  0.00000000000E+00  0.00000000000E+00 -0.12279025317E+04  0.12279025317E+04  0.50400001928E-02 0. -1.
    10030    2    1    2    0    0  0.00000000000E+00  0.00000000000E+00  0.71146074892E+03  0.31672658124E+04  0.30863240804E+04 0.  0.
        5    1    3    3  502    0 -0.13980412273E+04  0.45524105214E+03  0.83659503779E+03  0.16916492060E+04  0.46999998093E+01 0.  1.
       -5    1    3    3    0  502  0.13980412273E+04 -0.45524105214E+03 -0.12513428887E+03  0.14756166064E+04  0.46999998093E+01 0. -1.
</event>
<event>
 5   0  0.1282578E-06  0.3008603E+04  0.7818609E-02  0.8241279E-01
        1   -1    0    0  501    0  0.00000000000E+00  0.00000000000E+00  0.67105121404E+03  0.67105121406E+03  0.50400001928E-02 0. -1.
       -1   -1    0    0    0  501  0.00000000000E+00  0.00000000000E+00 -0.33722055691E+04  0.33722055691E+04  0.50400001928E-02 0.  1.
    10030    2    1    2    0    0  0.00000000000E+00  0.00000000000E+00 -0.27011543550E+04  0.40432567831E+04  0.30086027595E+04 0.  0.
        4    1    3    3  502    0 -0.81122819372E+02  0.65621241258E+03  0.46529051339E+03  0.80851253360E+03  0.12699999809E+01 0. -1.
       -4    1    3    3    0  502  0.81122819372E+02 -0.65621241258E+03 -0.31664448684E+04  0.32347442495E+04  0.12699999809E+01 0.  1.
</event>
<event>
 5   0  0.1352708E-06  0.2359401E+04  0.7818609E-02  0.8454861E-01
       -1   -1    0    0    0  501  0.00000000000E+00  0.00000000000E+00  0.99966981777E+03  0.99966981779E+03  0.50400001928E-02 0.  1.
        1   -1    0    0  501    0  0.00000000000E+00  0.00000000000E+00 -0.13921534186E+04  0.13921534186E+04  0.50400001928E-02 0. -1.
    10030    2    1    2    0    0  0.00000000000E+00  0.00000000000E+00 -0.39248360086E+03  0.23918232364E+04  0.23594014108E+04 0.  0.
        5    1    3    3  502    0 -0.63654542216E+03 -0.21881438368E+03  0.78588587705E+03  0.10347504582E+04  0.46999998093E+01 0.  1.
       -5    1    3    3    0  502  0.63654542216E+03  0.21881438368E+03 -0.11783694779E+04  0.13570727782E+04  0.46999998093E+01 0. -1.
</event>
<event>
 5   0  0.1282578E-06  0.3326393E+04  0.7818609E-02  0.8156212E-01
       -1   -1    0    0    0  501  0.00000000000E+00  0.00000000000E+00  0.14570762766E+04  0.14570762766E+04  0.50400001928E-02 0. -1.
        1   -1    0    0  501    0  0.00000000000E+00  0.00000000000E+00 -0.18984743267E+04  0.18984743267E+04  0.50400001928E-02 0.  1.
    10030    2    1    2    0    0  0.00000000000E+00  0.00000000000E+00 -0.44139805006E+03  0.33555506033E+04  0.33263925825E+04 0.  0.
        4    1    3    3  502    0  0.14717409871E+04 -0.74845072225E+03 -0.18894772014E+02  0.16512294335E+04  0.12699999809E+01 0. -1.
       -4    1    3    3    0  502 -0.14717409871E+04  0.74845072225E+03 -0.42250327804E+03  0.17043211698E+04  0.12699999809E+01 0.  1.
</event>
<event>
 5   0  0.3896210E-06  0.2697108E+04  0.7818609E-02  0.8335944E-01
       -2   -1    0    0    0  501  0.00000000000E+00  0.00000000000E+00  0.89692427260E+03  0.89692427260E+03  0.25500000920E-02 0. -1.
        2   -1    0    0  501    0  0.00000000000E+00  0.00000000000E+00 -0.20275936173E+04  0.20275936173E+04  0.25500000920E-02 0.  1.
    10030    2    1    2    0    0  0.00000000000E+00  0.00000000000E+00 -0.11306693447E+04  0.29245178899E+04  0.26971080292E+04 0.  0.
        3    1    3    3  502    0 -0.10099072585E+03  0.61180589019E+03 -0.18638422831E+04  0.19642845111E+04  0.10100000352E+00 0.  1.
       -3    1    3    3    0  502  0.10099072585E+03 -0.61180589019E+03  0.73317293841E+03  0.96023337882E+03  0.10100000352E+00 0. -1.
</event>
<event>
 5   0  0.1339825E-06  0.2277053E+04  0.7818609E-02  0.8487024E-01
        1   -1    0    0  501    0  0.00000000000E+00  0.00000000000E+00  0.14225948746E+04  0.14225948746E+04  0.50400001928E-02 0. -1.
       -1   -1    0    0    0  501  0.00000000000E+00  0.00000000000E+00 -0.91118195684E+03  0.91118195685E+03  0.50400001928E-02 0.  1.
    10030    2    1    2    0    0  0.00000000000E+00  0.00000000000E+00  0.51141291777E+03  0.23337768315E+04  0.22770531673E+04 0.  0.
        3    1    3    3  502    0  0.17517422498E+03  0.56041052981E+03 -0.74403987229E+03  0.94780868996E+03  0.10100000352E+00 0.  1.
       -3    1    3    3    0  502 -0.17517422498E+03 -0.56041052981E+03  0.12554527901E+04  0.13859681415E+04  0.10100000352E+00 0. -1.
</event>
<event>
 5   0  0.3812379E-06  0.3303272E+04  0.7818609E-02  0.8162063E-01
        2   -1    0    0  501    0  0.00000000000E+00  0.00000000000E+00  0.16833342399E+04  0.16833342399E+04  0.25500000920E-02 0. -1.
       -2   -1    0    0    0  501  0.00000000000E+00  0.00000000000E+00 -0.16205345634E+04  0.16205345634E+04  0.25500000920E-02 0.  1.
    10030    2    1    2    0    0  0.00000000000E+00  0.00000000000E+00  0.62799676488E+02  0.33038688034E+04  0.33032719038E+04 0.  0.
        5    1    3    3  502    0  0.49812669822E+03  0.10304578829E+04  0.12223734096E+04  0.16745723330E+04  0.46999998093E+01 0.  1.
       -5    1    3    3    0  502 -0.49812669822E+03 -0.10304578829E+04 -0.11595737331E+04  0.16292964704E+04  0.46999998093E+01 0. -1.
</event>
<event>
 5   0  0.3896210E-06  0.3315426E+04  0.7818609E-02  0.8158981E-01
       -2   -1    0    0    0  501  0.00000000000E+00  0.00000000000E+00  0.12362270196E+04  0.12362270196E+04  0.25500000920E-02 0. -1.
        2   -1    0    0  501    0  0.00000000000E+00  0.00000000000E+00 -0.22229028691E+04  0.22229028691E+04  0.25500000920E-02 0.  1.
    10030    2    1    2    0    0  0.00000000000E+00  0.00000000000E+00 -0.98667584950E+03  0.34591298888E+04  0.33154261197E+04 0.  0.
        3    1    3    3  502    0  0.96747450358E+03  0.76544837085E+03 -0.16486238422E+04  0.20590965754E+04  0.10100000352E+00 0.  1.
       -3    1    3    3    0  502 -0.96747450358E+03 -0.76544837085E+03  0.66194799267E+03  0.14000333134E+04  0.10100000352E+00 0. -1.
</event>
<event>
 5   0  0.1339825E-06  0.3284359E+04  0.7818609E-02  0.8166887E-01
       -1   -1    0    0    0  501  0.00000000000E+00  0.00000000000E+00  0.14478619920E+04  0.14478619920E+04  0.50400001928E-02 0.  1.
        1   -1    0    0  501    0  0.00000000000E+00  0.00000000000E+00 -0.18625764422E+04  0.18625764422E+04  0.50400001928E-02 0. -1.
    10030    2    1    2    0    0  0.00000000000E+00  0.00000000000E+00 -0.41471445016E+03  0.33104384342E+04  0.32843590778E+04 0.  0.
        3    1    3    3  502    0 -0.53943898778E+03  0.63816359131E+03 -0.16322679619E+04  0.18337245977E+04  0.10100000352E+00 0. -1.
       -3    1    3    3    0  502  0.53943898778E+03 -0.63816359131E+03  0.12175535117E+04  0.14767138365E+04  0.10100000352E+00 0.  1.
</event>
<event>
 5   0  0.3920487E-06  0.3205503E+04  0.7818609E-02  0.8187365E-01
        2   -1    0    0  501    0  0.00000000000E+00  0.00000000000E+00  0.23690178337E+04  0.23690178337E+04  0.25500000920E-02 0.  1.
       -2   -1    0    0    0  501  0.00000000000E+00  0.00000000000E+00 -0.10843361615E+04  0.10843361615E+04  0.25500000920E-02 0. -1.
    10030    2    1    2    0    0  0.00000000000E+00  0.00000000000E+00  0.12846816722E+04  0.34533539952E+04  0.32055025842E+04 0.  0.
        4    1    3    3  502    0  0.28658698474E+03  0.17633796637E+03  0.23305345125E+04  0.23547016595E+04  0.12699999809E+01 0.  1.
       -4    1    3    3    0  502 -0.28658698474E+03 -0.17633796637E+03 -0.10458528403E+04  0.10986523357E+04  0.12699999809E+01 0. -1.
</event>
<event>
 5   0  0.3812379E-06  0.3269777E+04  0.7818609E-02  0.8170628E-01
       -2   -1    0    0    0  501  0.00000000000E+00  0.00000000000E+00  0.11901630841E+04  0.11901630841E+04  0.25500000920E-02 0.  1.
        2   -1    0    0  501    0  0.00000000000E+00  0.00000000000E+00 -0.22457938898E+04  0.22457938898E+04  0.25500000920E-02 0. -1.
    10030    2    1    2    0    0  0.00000000000E+00  0.00000000000E+00 -0.10556308056E+04  0.34359569739E+04  0.32697773516E+04 0.  0.
        5    1    3    3  502    0  0.76723780251E+03  0.95995269212E+03  0.60526014175E+03  0.13698631121E+04  0.46999998093E+01 0.  1.
       -5    1    3    3    0  502 -0.76723780251E+03 -0.95995269212E+03 -0.16608909474E+04  0.20660938618E+04  0.46999998093E+01 0. -1.
</event>
<event>
 5   0  0.1391878E-06  0.3255770E+04  0.7818609E-02  0.8174242E-01
       -1   -1    0    0    0  501  0.00000000000E+00  0.00000000000E+00  0.90008806606E+03  0.90008806608E+03  0.50400001928E-02 0.  1.
        1   -1    0    0  501    0  0.00000000000E+00  0.00000000000E+00 -0.29441660905E+04  0.29441660905E+04  0.50400001928E-02 0. -1.
    10030    2    1    2    0    0  0.00000000000E+00  0.00000000000E+00 -0.20440780245E+04  0.38442541566E+04  0.32557695021E+04 0.  0.
        2    1    3    3  502    0 -0.18995698847E+03  0.15973610825E+04 -0.13169023774E+04  0.20789126862E+04  0.25500000920E-02 0. -1.
       -2    1    3    3    0  502  0.18995698847E+03 -0.15973610825E+04 -0.72717564705E+03  0.17653414704E+04  0.25500000920E-02 0.  1.
</event>
<event>
 5   0  0.1282578E-06  0.3286018E+04  0.7818609E-02  0.8166462E-01
        1   -1    0    0  501    0  0.00000000000E+00  0.00000000000E+00  0.25375920452E+04  0.25375920452E+04  0.50400001928E-02 0. -1.
       -1   -1    0    0    0  501  0.00000000000E+00  0.00000000000E+00 -0.10637951031E+04  0.10637951031E+04  0.50400001928E-02 0.  1.
    10030    2    1    2    0    0  0.00000000000E+00  0.00000000000E+00  0.14737969421E+04  0.36013871483E+04  0.32860176453E+04 0.  0.
        4    1    3    3  502    0 -0.10557858928E+04 -0.64912247799E+03 -0.44524590815E+03  0.13169242098E+04  0.12699999809E+01 0.  1.
       -4    1    3    3    0  502  0.10557858928E+04  0.64912247799E+03  0.19190428503E+04  0.22844629384E+04  0.12699999809E+01 0. -1.
</event>
<event>
 5   0  0.1339825E-06  0.3337671E+04  0.7818609E-02  0.8153376E-01
        1   -1    0    0  501    0  0.00000000000E+00  0.00000000000E+00  0.17209755327E+04  0.17209755327E+04  0.50400001928E-02 0.  1.
       -1   -1    0    0    0  501  0.00000000000E+00  0.00000000000E+00 -0.16182748024E+04  0.16182748024E+04  0.50400001928E-02 0. -1.
    10030    2    1    2    0    0  0.00000000000E+00  0.00000000000E+00  0.10270073028E+03  0.33392503352E+04  0.33376706490E+04 0.  0.
        3    1    3    3  502    0 -0.14606050734E+04 -0.79998441372E+03  0.15942504213E+03  0.16729490718E+04  0.10100000352E+00 0. -1.
       -3    1    3    3    0  502  0.14606050734E+04  0.79998441372E+03 -0.56724311853E+02  0.16663012634E+04  0.10100000352E+00 0.  1.
</event>
<event>
 5   0  0.1352708E-06  0.2755490E+04  0.7818609E-02  0.8317222E-01
       -1   -1    0    0    0  501  0.00000000000E+00  0.00000000000E+00  0.21471875781E+04  0.21471875781E+04  0.50400001928E-02 0. -1.
        1   -1    0    0  501    0  0.00000000000E+00  0.00000000000E+00 -0.88403136578E+03  0.88403136579E+03  0.50400001928E-02 0.  1.
    10030    2    1    2    0    0  0.00000000000E+00  0.00000000000E+00  0.12631562123E+04  0.30312189439E+04  0.27554899145E+04 0.  0.
        5    1    3    3  502    0  0.10190962313E+04  0.65049318808E+03 -0.95181839596E+02  0.12127572672E+04  0.46999998093E+01 0. -1.
       -5    1    3    3    0  502 -0.10190962313E+04 -0.65049318808E+03  0.13583380519E+04  0.18184616767E+04  0.46999998093E+01 0.  1.
</event>
<event>
 5   0  0.3896210E-06  0.3288562E+04  0.7818609E-02  0.8165812E-01
       -2   -1    0    0    0  501  0.00000000000E+00  0.00000000000E+00  0.11584853143E+04  0.11584853143E+04  0.25500000920E-02 0. -1.
        2   -1    0    0  501    0  0.00000000000E+00  0.00000000000E+00 -0.23337892641E+04  0.23337892641E+04  0.25500000920E-02 0.  1.
    10030    2    1    2    0    0  0.00000000000E+00  0.00000000000E+00 -0.11753039498E+04  0.34922745785E+04  0.32885623541E+04 0.  0.
        3    1    3    3  502    0 -0.81833105706E+03  0.11646658279E+04  0.28647083660E+03  0.14519565283E+04  0.10100000352E+00 0. -1.
       -3    1    3    3    0  502  0.81833105706E+03 -0.11646658279E+04 -0.14617747864E+04  0.20403180502E+04  0.10100000352E+00 0.  1.
</event>
<event>
 5   0  0.1405389E-06  0.3286523E+04  0.7818609E-02  0.8166333E-01
       -1   -1    0    0    0  501  0.00000000000E+00  0.00000000000E+00  0.13913745494E+04  0.13913745494E+04  0.50400001928E-02 0. -1.
        1   -1    0    0  501    0  0.00000000000E+00  0.00000000000E+00 -0.19407484657E+04  0.19407484657E+04  0.50400001928E-02 0.  1.
    10030    2    1    2    0    0  0.00000000000E+00  0.00000000000E+00 -0.54937391629E+03  0.33321230150E+04  0.32865227958E+04 0.  0.
        1    1    3    3  502    0 -0.10555044331E+04  0.89555105205E+01  0.10022071744E+04  0.14555373681E+04  0.50400001928E-02 0. -1.
       -1    1    3    3    0  502  0.10555044331E+04 -0.89555105205E+01 -0.15515810907E+04  0.18765856470E+04  0.50400001928E-02 0.  1.
</event>
<event>
 5   0  0.4017247E-06  0.3274243E+04  0.7818609E-02  0.8169480E-01
       -2   -1    0    0    0  501  0.00000000000E+00  0.00000000000E+00  0.15884325707E+04  0.15884325707E+04  0.25500000920E-02 0. -1.
        2   -1    0    0  501    0  0.00000000000E+00  0.00000000000E+00 -0.16873028505E+04  0.16873028505E+04  0.25500000920E-02 0.  1.
    10030    2    1    2    0    0  0.00000000000E+00  0.00000000000E+00 -0.98870279738E+02  0.32757354212E+04  0.32742429991E+04 0.  0.
        1    1    3    3  502    0 -0.78167672294E+03  0.44153294346E+03 -0.14190722807E+04  0.16792069489E+04  0.50400001928E-02 0.  1.
       -1    1    3    3    0  502  0.78167672294E+03 -0.44153294346E+03  0.13202020010E+04  0.15965284723E+04  0.50400001928E-02 0. -1.
</event>
<event>
 5   0  0.1339825E-06  0.3297886E+04  0.7818609E-02  0.8163434E-01
       -1   -1    0    0    0  501  0.00000000000E+00  0.00000000000E+00  0.14438114388E+04  0.14438114389E+04  0.50400001928E-02 0. -1.
        1   -1    0    0  501    0  0.00000000000E+00  0.00000000000E+00 -0.18832184013E+04  0.18832184013E+04  0.50400001928E-02 0.  1.
    10030    2    1    2    0    0  0.00000000000E+00  0.00000000000E+00 -0.43940696242E+03  0.33270298401E+04  0.32978855466E+04 0.  0.
        3    1    3    3  502    0  0.11379523890E+04 -0.11928756486E+04 -0.25353048626E+03  0.16679825150E+04  0.10100000352E+00 0.  1.
       -3    1    3    3    0  502 -0.11379523890E+04  0.11928756486E+04 -0.18587647616E+03  0.16590473252E+04  0.10100000352E+00 0. -1.
</event>
<event>
 5   0  0.1391878E-06  0.3092841E+04  0.7818609E-02  0.8217705E-01
        1   -1    0    0  501    0  0.00000000000E+00  0.00000000000E+00  0.16320678805E+04  0.16320678805E+04  0.50400001928E-02 0.  1.
       -1   -1    0    0    0  501  0.00000000000E+00  0.00000000000E+00 -0.14652679900E+04  0.14652679900E+04  0.50400001928E-02 0. -1.
    10030    2    1    2    0    0  0.00000000000E+00  0.00000000000E+00  0.16679989051E+03  0.30973358705E+04  0.30928412974E+04 0.  0.
        2    1    3    3  502    0  0.66527662607E+02  0.15129255725E+04 -0.23017983644E+03  0.15317808182E+04  0.25500000920E-02 0. -1.
       -2    1    3    3    0  502 -0.66527662607E+02 -0.15129255725E+04  0.39697972695E+03  0.15655550522E+04  0.25500000920E-02 0.  1.
</event>
<event>
 5   0  0.1352708E-06  0.3282299E+04  0.7818609E-02  0.8167414E-01
        1   -1    0    0  501    0  0.00000000000E+00  0.00000000000E+00  0.18196877409E+04  0.18196877409E+04  0.50400001928E-02 0. -1.
       -1   -1    0    0    0  501  0.00000000000E+00  0.00000000000E+00 -0.14801287052E+04  0.14801287052E+04  0.50400001928E-02 0.  1.
    10030    2    1    2    0    0  0.00000000000E+00  0.00000000000E+00  0.33955903572E+03  0.32998164461E+04  0.32822992306E+04 0.  0.
        5    1    3    3  502    0 -0.31132869645E+03  0.32578478431E+02  0.17893903431E+04  0.18165700659E+04  0.46999998093E+01 0. -1.
       -5    1    3    3    0  502  0.31132869645E+03 -0.32578478431E+02 -0.14498313074E+04  0.14832463802E+04  0.46999998093E+01 0.  1.
</event>
<event>
 5   0  0.3812379E-06  0.3236737E+04  0.7818609E-02  0.8179182E-01
        2   -1    0    0  501    0  0.00000000000E+00  0.00000000000E+00  0.15651762591E+04  0.15651762591E+04  0.25500000920E-02 0. -1.
       -2   -1    0    0    0  501  0.00000000000E+00  0.00000000000E+00 -0.16733680297E+04  0.16733680297E+04  0.25500000920E-02 0.  1.
    10030    2    1    2    0    0  0.00000000000E+00  0.00000000000E+00 -0.10819177055E+03  0.32385442888E+04  0.32367365743E+04 0.  0.
        5    1    3    3  502    0 -0.13886715702E+04  0.48024538349E+03 -0.73274416128E+03  0.16419441081E+04  0.46999998093E+01 0.  1.
       -5    1    3    3    0  502  0.13886715702E+04 -0.48024538349E+03  0.62455239074E+03  0.15966001807E+04  0.46999998093E+01 0. -1.
</event>
<event>
 5   0  0.3812379E-06  0.3394767E+04  0.7818609E-02  0.8139192E-01
       -2   -1    0    0    0  501  0.00000000000E+00  0.00000000000E+00  0.15155850105E+04  0.15155850105E+04  0.25500000920E-02 0.  1.
        2   -1    0    0  501    0  0.00000000000E+00  0.00000000000E+00 -0.19009888279E+04  0.19009888279E+04  0.25500000920E-02 0. -1.
    10030    2    1    2    0    0  0.00000000000E+00  0.00000000000E+00 -0.38540381739E+03  0.34165738385E+04  0.33947666623E+04 0.  0.
        5    1    3    3  502    0 -0.67237850665E+03 -0.13952646459E+04 -0.89159187081E+03  0.17871246298E+04  0.46999998093E+01 0. -1.
       -5    1    3    3    0  502  0.67237850665E+03  0.13952646459E+04  0.50618805342E+03  0.16294492087E+04  0.46999998093E+01 0.  1.
</event>
<event>
 5   0  0.3812379E-06  0.3123481E+04  0.7818609E-02  0.8209323E-01
       -2   -1    0    0    0  501  0.00000000000E+00  0.00000000000E+00  0.13506936087E+04  0.13506936087E+04  0.25500000920E-02 0.  1.
        2   -1    0    0  501    0  0.00000000000E+00  0.00000000000E+00 -0.18057635217E+04  0.18057635217E+04  0.25500000920E-02 0. -1.
    10030    2    1    2    0    0  0.00000000000E+00  0.00000000000E+00 -0.45506991297E+03  0.31564571305E+04  0.31234809093E+04 0.  0.
        5    1    3    3  502    0  0.54256744460E+03  0.97246931720E+03  0.87898407106E+03  0.14187004941E+04  0.46999998093E+01 0.  1.
       -5    1    3    3    0  502 -0.54256744460E+03 -0.97246931720E+03 -0.13340539840E+04  0.17377566363E+04  0.46999998093E+01 0. -1.
</event>
<event>
 5   0  0.1282578E-06  0.3138711E+04  0.7818609E-02  0.8205194E-01
       -1   -1    0    0    0  501  0.00000000000E+00  0.00000000000E+00  0.14207143137E+04  0.14207143137E+04  0.50400001928E-02 0.  1.
        1   -1    0    0  501    0  0.00000000000E+00  0.00000000000E+00 -0.17335482211E+04  0.17335482211E+04  0.50400001928E-02 0. -1.
    10030    2    1    2    0    0  0.00000000000E+00  0.00000000000E+00 -0.31283390741E+03  0.31542625349E+04  0.31387110547E+04 0.  0.
        4    1    3    3  502    0 -0.14819945001E+04 -0.21588304584E+03  0.31490785660E+03  0.15303861470E+04  0.12699999809E+01 0.  1.
       -4    1    3    3    0  502  0.14819945001E+04  0.21588304584E+03 -0.62774176402E+03  0.16238763879E+04  0.12699999809E+01 0. -1.
</event>
<event>
 5   0  0.3671997E-06  0.2963161E+04  0.7818609E-02  0.8254329E-01
       -2   -1    0    0    0  501  0.00000000000E+00  0.00000000000E+00  0.13236375871E+04  0.13236375871E+04  0.25500000920E-02 0.  1.
        2   -1    0    0  501    0  0.00000000000E+00  0.00000000000E+00 -0.16583702309E+04  0.16583702309E+04  0.25500000920E-02 0. -1.
    10030    2    1    2    0    0  0.00000000000E+00  0.00000000000E+00 -0.33473264388E+03  0.29820078180E+04  0.29631612652E+04 0.  0.
        2    1    3    3  502    0 -0.95551048309E+03 -0.12681587897E+03 -0.12996887409E+04  0.16181079611E+04  0.25500000920E-02 0. -1.
       -2    1    3    3    0  502  0.95551048309E+03  0.12681587897E+03  0.96495609705E+03  0.13638998569E+04  0.25500000920E-02 0.  1.
</event>
<event>
 5   0  0.3896210E-06  0.3193941E+04  0.7818609E-02  0.8190419E-01
        2   -1    0    0  501    0  0.00000000000E+00  0.00000000000E+00  0.19786380859E+04  0.19786380859E+04  0.25500000920E-02 0.  1.
       -2   -1    0    0    0  501  0.00000000000E+00  0.00000000000E+00 -0.12889244382E+04  0.12889244382E+04  0.25500000920E-02 0. -1.
    10030    2    1    2    0    0  0.00000000000E+00  0.00000000000E+00  0.68971364773E+03  0.32675625241E+04  0.31939411286E+04 0.  0.
        3    1    3    3  502    0  0.91070196403E+02  0.15809000831E+04  0.55644806826E+03  0.16784437185E+04  0.10100000352E+00 0.  1.
       -3    1    3    3    0  502 -0.91070196403E+02 -0.15809000831E+04  0.13326557947E+03  0.15891188056E+04  0.10100000352E+00 0. -1.
</event>
<event>
 5   0  0.1339825E-06  0.3437996E+04  0.7818609E-02  0.8128643E-01
        1   -1    0    0  501    0  0.00000000000E+00  0.00000000000E+00  0.11906555832E+04  0.11906555832E+04  0.50400001928E-02 0. -1.
       -1   -1    0    0    0  501  0.00000000000E+00  0.00000000000E+00 -0.24817871353E+04  0.24817871353E+04  0.50400001928E-02 0.  1.
    10030    2    1    2    0    0  0.00000000000E+00  0.00000000000E+00 -0.12911315521E+04  0.36724427185E+04  0.34379957586E+04 0.  0.
        3    1    3    3  502    0 -0.44090972160E+03  0.79487556120E+03 -0.22040754072E+04  0.23841512014E+04  0.10100000352E+00 0.  1.
       -3    1    3    3    0  502  0.44090972160E+03 -0.79487556120E+03  0.91294385505E+03  0.12882915171E+04  0.10100000352E+00 0. -1.
</event>
<event>
 5   0  0.3896210E-06  0.3362426E+04  0.7818609E-02  0.8147190E-01
       -2   -1    0    0    0  501  0.00000000000E+00  0.00000000000E+00  0.14225903586E+04  0.14225903586E+04  0.25500000920E-02 0.  1.
        2   -1    0    0  501    0  0.00000000000E+00  0.00000000000E+00 -0.19868528952E+04  0.19868528952E+04  0.25500000920E-02 0. -1.
    10030    2    1    2    0    0  0.00000000000E+00  0.00000000000E+00 -0.56426253658E+03  0.34094432538E+04  0.33624263695E+04 0.  0.
        3    1    3    3  502    0  0.68470532595E+03 -0.68591153484E+03 -0.16750877453E+04  0.19352557923E+04  0.10100000352E+00 0. -1.
       -3    1    3    3    0  502 -0.68470532595E+03  0.68591153484E+03  0.11108252087E+04  0.14741874615E+04  0.10100000352E+00 0.  1.
</event>
<event>
 5   0  0.1282578E-06  0.3259524E+04  0.7818609E-02  0.8173272E-01
       -1   -1    0    0    0  501  0.00000000000E+00  0.00000000000E+00  0.12854198111E+04  0.12854198111E+04  0.50400001928E-02 0.  1.
        1   -1    0    0  501    0  0.00000000000E+00  0.00000000000E+00 -0.20663475065E+04  0.20663475065E+04  0.50400001928E-02 0. -1.
    10030    2    1    2    0    0  0.00000000000E+00  0.00000000000E+00 -0.78092769539E+03  0.33517673176E+04  0.32595239048E+04 0.  0.
        4    1    3    3  502    0 -0.11483706493E+04 -0.69438606354E+03  0.56047443793E+03  0.14543247099E+04  0.12699999809E+01 0.  1.
       -4    1    3    3    0  502  0.11483706493E+04  0.69438606354E+03 -0.13414021333E+04  0.18974426077E+04  0.12699999809E+01 0. -1.
</event>
<event>
 5   0  0.3812379E-06  0.3299904E+04  0.7818609E-02  0.8162920E-01
       -2   -1    0    0    0  501  0.00000000000E+00  0.00000000000E+00  0.11405650399E+04  0.11405650399E+04  0.25500000920E-02 0.  1.
        2   -1    0    0  501    0  0.00000000000E+00  0.00000000000E+00 -0.23868351946E+04  0.23868351946E+04  0.25500000920E-02 0. -1.
    10030    2    1    2    0    0  0.00000000000E+00  0.00000000000E+00 -0.12462701547E+04  0.35274002345E+04  0.32999035011E+04 0.  0.
        5    1    3    3  502    0 -0.62078405392E+03  0.53585429432E+03 -0.21535524320E+04  0.23044137722E+04  0.46999998093E+01 0. -1.
       -5    1    3    3    0  502  0.62078405392E+03 -0.53585429432E+03  0.90728227730E+03  0.12229864623E+04  0.46999998093E+01 0.  1.
</event>
<event>
 5   0  0.1339825E-06  0.3314980E+04  0.7818609E-02  0.8159094E-01
       -1   -1    0    0    0  501  0.00000000000E+00  0.00000000000E+00  0.17119114758E+04  0.17119114758E+04  0.50400001928E-02 0. -1.
        1   -1    0    0  501    0  0.00000000000E+00  0.00000000000E+00 -0.16047987506E+04  0.16047987506E+04  0.50400001928E-02 0.  1.
    10030    2    1    2    0    0  0.00000000000E+00  0.00000000000E+00  0.10711272521E+03  0.33167102264E+04  0.33149801794E+04 0.  0.
        3    1    3    3  502    0 -0.85358593609E+03  0.13555602307E+04  0.47936147848E+03  0.16721064340E+04  0.10100000352E+00 0. -1.
       -3    1    3    3    0  502  0.85358593609E+03 -0.13555602307E+04 -0.37224875327E+03  0.16446037924E+04  0.10100000352E+00 0.  1.
</event>
<event>
 5   0  0.3671997E-06  0.3275617E+04  0.7818609E-02  0.8169128E-01
       -2   -1    0    0    0  501  0.00000000000E+00  0.00000000000E+00  0.14715248893E+04  0.14715248893E+04  0.25500000920E-02 0. -1.
        2   -1    0    0  501    0  0.00000000000E+00  0.00000000000E+00 -0.18228821904E+04  0.18228821904E+04  0.25500000920E-02 0.  1.
    10030    2    1    2    0    0  0.00000000000E+00  0.00000000000E+00 -0.35135730105E+03  0.32944070797E+04  0.32756168967E+04 0.  0.
        2    1    3    3  502    0 -0.15141370935E+04 -0.35072342448E+03 -0.69516700350E+03  0.17026083582E+04  0.25500000920E-02 0.  1.
       -2    1    3    3    0  502  0.15141370935E+04  0.35072342448E+03  0.34380970245E+03  0.15917987216E+04  0.25500000920E-02 0. -1.
</event>
<event>
 5   0  0.1352708E-06  0.3310572E+04  0.7818609E-02  0.8160211E-01
       -1   -1    0    0    0  501  0.00000000000E+00  0.00000000000E+00  0.13205538997E+04  0.13205538997E+04  0.50400001928E-02 0.  1.
        1   -1    0    0  501    0  0.00000000000E+00  0.00000000000E+00 -0.20748655175E+04  0.20748655175E+04  0.50400001928E-02 0. -1.
    10030    2    1    2    0    0  0.00000000000E+00  0.00000000000E+00 -0.75431161776E+03  0.33954194172E+04  0.33105720053E+04 0.  0.
        5    1    3    3  502    0 -0.61367629673E+03 -0.93339130903E+03  0.87567946376E+03  0.14193852705E+04  0.46999998093E+01 0.  1.
       -5    1    3    3    0  502  0.61367629673E+03  0.93339130903E+03 -0.16299910815E+04  0.19760341467E+04  0.46999998093E+01 0. -1.
</event>
<event>
 5   0  0.1391878E-06  0.3283948E+04  0.7818609E-02  0.8166992E-01
       -1   -1    0    0    0  501  0.00000000000E+00  0.00000000000E+00  0.11464599865E+04  0.11464599865E+04  0.50400001928E-02 0.  1.
        1   -1    0    0  501    0  0.00000000000E+00  0.00000000000E+00 -0.23516552093E+04  0.23516552094E+04  0.50400001928E-02 0. -1.
    10030    2    1    2    0    0  0.00000000000E+00  0.00000000000E+00 -0.12051952228E+04  0.34981151959E+04  0.32839479896E+04 0.  0.
        2    1    3    3  502    0 -0.16243034134E+03  0.16042215460E+04 -0.93293186871E+03  0.18628666770E+04  0.25500000920E-02 0. -1.
       -2    1    3    3    0  502  0.16243034134E+03 -0.16042215460E+04 -0.27226335411E+03  0.16352485189E+04  0.25500000920E-02 0.  1.
</event>
<event>
 5   0  0.1352708E-06  0.2389959E+04  0.7818609E-02  0.8443272E-01
       -1   -1    0    0    0  501  0.00000000000E+00  0.00000000000E+00  0.86026502250E+03  0.86026502251E+03  0.50400001928E-02 0.  1.
        1   -1    0    0  501    0  0.00000000000E+00  0.00000000000E+00 -0.16599253521E+04  0.16599253521E+04  0.50400001928E-02 0. -1.
    10030    2    1    2    0    0  0.00000000000E+00  0.00000000000E+00 -0.79966032956E+03  0.25201903746E+04  0.23899587615E+04 0.  0.
        5    1    3    3  502    0 -0.11425283135E+04 -0.67280761377E+02 -0.76214568755E+03  0.13750584668E+04  0.46999998093E+01 0. -1.
       -5    1    3    3    0  502  0.11425283135E+04  0.67280761377E+02 -0.37514642007E+02  0.11451319078E+04  0.46999998093E+01 0.  1.
</event>
<event>
 5   0  0.3812379E-06  0.2310625E+04  0.7818609E-02  0.8473743E-01
        2   -1    0    0  501    0  0.00000000000E+00  0.00000000000E+00  0.26445410100E+04  0.26445410100E+04  0.25500000920E-02 0.  1.
       -2   -1    0    0    0  501  0.00000000000E+00  0.00000000000E+00 -0.50471794289E+03  0.50471794290E+03  0.25500000920E-02 0. -1.
    10030    2    1    2    0    0  0.00000000000E+00  0.00000000000E+00  0.21398230671E+04  0.31492589529E+04  0.23106252820E+04 0.  0.
        5    1    3    3  502    0 -0.48729111023E+03 -0.37326752738E+03 -0.26406717492E+03  0.66823262116E+03  0.46999998093E+01 0. -1.
       -5    1    3    3    0  502  0.48729111023E+03  0.37326752738E+03  0.24038902420E+04  0.24810263317E+04  0.46999998093E+01 0.  1.
</event>
<event>
 5   0  0.1352708E-06  0.3292979E+04  0.7818609E-02  0.8164684E-01
       -1   -1    0    0    0  501  0.00000000000E+00  0.00000000000E+00  0.12742816128E+04  0.12742816128E+04  0.50400001928E-02 0. -1.
        1   -1    0    0  501    0  0.00000000000E+00  0.00000000000E+00 -0.21274164594E+04  0.21274164594E+04  0.50400001928E-02 0.  1.
    10030    2    1    2    0    0  0.00000000000E+00  0.00000000000E+00 -0.85313484663E+03  0.34016980722E+04  0.32929790020E+04 0.  0.
        5    1    3    3  502    0 -0.61776987987E+03  0.65486009873E+03 -0.18506398582E+04  0.20580017853E+04  0.46999998093E+01 0.  1.
       -5    1    3    3    0  502  0.61776987987E+03 -0.65486009873E+03  0.99750501159E+03  0.13436962869E+04  0.46999998093E+01 0. -1.
</event>
<event>
 5   0  0.4017247E-06  0.3303709E+04  0.7818609E-02  0.8161952E-01
        2   -1    0    0  501    0  0.00000000000E+00  0.00000000000E+00  0.27964732553E+04  0.27964732553E+04  0.25500000920E-02 0. -1.
       -2   -1    0    0    0  501  0.00000000000E+00  0.00000000000E+00 -0.97573703421E+03  0.97573703421E+03  0.25500000920E-02 0.  1.
    10030    2    1    2    0    0  0.00000000000E+00  0.00000000000E+00  0.18207362211E+04  0.37722102895E+04  0.33037085346E+04 0.  0.
        1    1    3    3  502    0 -0.10533137759E+04 -0.98195054879E+03  0.18344068871E+04  0.23321117936E+04  0.50400001928E-02 0. -1.
       -1    1    3    3    0  502  0.10533137759E+04  0.98195054879E+03 -0.13670665988E+02  0.14400984959E+04  0.50400001928E-02 0.  1.
</event>
<event>
 5   0  0.3812379E-06  0.3214660E+04  0.7818609E-02  0.8184956E-01
       -2   -1    0    0    0  501  0.00000000000E+00  0.00000000000E+00  0.98427448533E+03  0.98427448533E+03  0.25500000920E-02 0. -1.
        2   -1    0    0  501    0  0.00000000000E+00  0.00000000000E+00 -0.26247863848E+04  0.26247863848E+04  0.25500000920E-02 0.  1.
    10030    2    1    2    0    0  0.00000000000E+00  0.00000000000E+00 -0.16405118994E+04  0.36090608701E+04  0.32146603354E+04 0.  0.
        5    1    3    3  502    0  0.45448787324E+03  0.23130923292E+03 -0.25315452829E+04  0.25824032988E+04  0.46999998093E+01 0.  1.
       -5    1    3    3    0  502 -0.45448787324E+03 -0.23130923292E+03  0.89103338351E+03  0.10266575713E+04  0.46999998093E+01 0. -1.
</event>
<event>
 5   0  0.3812379E-06  0.3300491E+04  0.7818609E-02  0.8162770E-01
       -2   -1    0    0    0  501  0.00000000000E+00  0.00000000000E+00  0.11482394920E+04  0.11482394920E+04  0.25500000920E-02 0.  1.
        2   -1    0    0  501    0  0.00000000000E+00  0.00000000000E+00 -0.23717269853E+04  0.23717269853E+04  0.25500000920E-02 0. -1.
    10030    2    1    2    0    0  0.00000000000E+00  0.00000000000E+00 -0.12234874933E+04  0.35199664774E+04  0.33004912294E+04 0.  0.
        5    1    3    3  502    0 -0.11213381863E+04 -0.34113285160E+03  0.62719322348E+03  0.13293473512E+04  0.46999998093E+01 0.  1.
       -5    1    3    3    0  502  0.11213381863E+04  0.34113285160E+03 -0.18506807168E+04  0.21906191262E+04  0.46999998093E+01 0. -1.
</event>
<event>
 5   0  0.1352708E-06  0.3284097E+04  0.7818609E-02  0.8166954E-01
        1   -1    0    0  501    0  0.00000000000E+00  0.00000000000E+00  0.16665698644E+04  0.16665698644E+04  0.50400001928E-02 0. -1.
       -1   -1    0    0    0  501  0.00000000000E+00  0.00000000000E+00 -0.16178877120E+04  0.16178877120E+04  0.50400001928E-02 0.  1.
    10030    2    1    2    0    0  0.00000000000E+00  0.00000000000E+00  0.48682152430E+02  0.32844575764E+04  0.32840967738E+04 0.  0.
        5    1    3    3  502    0  0.11614600620E+04  0.75749426510E+03 -0.85525186880E+03  0.16291914824E+04  0.46999998093E+01 0.  1.
       -5    1    3    3    0  502 -0.11614600620E+04 -0.75749426510E+03  0.90393402123E+03  0.16552660940E+04  0.46999998093E+01 0. -1.
</event>
<event>
 5   0  0.1352708E-06  0.2765653E+04  0.7818609E-02  0.8314012E-01
       -1   -1    0    0    0  501  0.00000000000E+00  0.00000000000E+00  0.16163831271E+04  0.16163831271E+04  0.50400001928E-02 0. -1.
        1   -1    0    0  501    0  0.00000000000E+00  0.00000000000E+00 -0.11830171117E+04  0.11830171117E+04  0.50400001928E-02 0.  1.
    10030    2    1    2    0    0  0.00000000000E+00  0.00000000000E+00  0.43336601536E+03  0.27994002388E+04  0.27656528332E+04 0.  0.
        5    1    3    3  502    0 -0.26126287069E+03 -0.12625169139E+02  0.15911066003E+04  0.16124701505E+04  0.46999998093E+01 0. -1.
       -5    1    3    3    0  502  0.26126287069E+03  0.12625169139E+02 -0.11577405850E+04  0.11869300883E+04  0.46999998093E+01 0.  1.
</event>
<event>
 5   0  0.3812379E-06  0.3419465E+04  0.7818609E-02  0.8133146E-01
        2   -1    0    0  501    0  0.00000000000E+00  0.00000000000E+00  0.16469434861E+04  0.16469434861E+04  0.25500000920E-02 0.  1.
       -2   -1    0    0    0  501  0.00000000000E+00  0.00000000000E+00 -0.17749150158E+04  0.17749150158E+04  0.25500000920E-02 0. -1.
    10030    2    1    2    0    0  0.00000000000E+00  0.00000000000E+00 -0.12797152962E+03  0.34218585019E+04  0.34194647088E+04 0.  0.
        5    1    3    3  502    0 -0.95700068682E+03 -0.13125193582E+04  0.46987177065E+03  0.16909639118E+04  0.46999998093E+01 0.  1.
       -5    1    3    3    0  502  0.95700068682E+03  0.13125193582E+04 -0.59784330027E+03  0.17308945901E+04  0.46999998093E+01 0. -1.
</event>
<event>
 5   0  0.1282578E-06  0.3415485E+04  0.7818609E-02  0.8134116E-01
       -1   -1    0    0    0  501  0.00000000000E+00  0.00000000000E+00  0.16406865581E+04  0.16406865581E+04  0.50400001928E-02 0.  1.
        1   -1    0    0  501    0  0.00000000000E+00  0.00000000000E+00 -0.17775388982E+04  0.17775388982E+04  0.50400001928E-02 0. -1.
    10030    2    1    2    0    0  0.00000000000E+00  0.00000000000E+00 -0.13685234008E+03  0.34182254563E+04  0.34154848422E+04 0.  0.
        4    1    3    3  502    0 -0.72956198496E+03 -0.98651934664E+03 -0.12571930100E+04  0.17567062898E+04  0.12699999809E+01 0. -1.
       -4    1    3    3    0  502  0.72956198496E+03  0.98651934664E+03  0.11203406699E+04  0.16615191665E+04  0.12699999809E+01 0.  1.
</event>
<event>
 5   0  0.4017247E-06  0.3193674E+04  0.7818609E-02  0.8190490E-01
       -2   -1    0    0    0  501  0.00000000000E+00  0.00000000000E+00  0.99744936714E+03  0.99744936714E+03  0.25500000920E-02 0. -1.
        2   -1    0    0  501    0  0.00000000000E+00  0.00000000000E+00 -0.25564090639E+04  0.25564090639E+04  0.25500000920E-02 0.  1.
    10030    2    1    2    0    0  0.00000000000E+00  0.00000000000E+00 -0.15589596968E+04  0.35538584311E+04  0.31936741243E+04 0.  0.
        1    1    3    3  502    0  0.43165630063E+03 -0.24282288889E+03  0.90982162206E+03  0.10358887494E+04  0.50400001928E-02 0. -1.
       -1    1    3    3    0  502 -0.43165630063E+03  0.24282288889E+03 -0.24687813189E+04  0.25179696816E+04  0.50400001928E-02 0.  1.
</event>
<event>
 5   0  0.1352708E-06  0.3347691E+04  0.7818609E-02  0.8150865E-01
       -1   -1    0    0    0  501  0.00000000000E+00  0.00000000000E+00  0.11870859832E+04  0.11870859832E+04  0.50400001928E-02 0.  1.
        1   -1    0    0  501    0  0.00000000000E+00  0.00000000000E+00 -0.23601988959E+04  0.23601988960E+04  0.50400001928E-02 0. -1.
    10030    2    1    2    0    0  0.00000000000E+00  0.00000000000E+00 -0.11731129128E+04  0.35472848791E+04  0.33476911607E+04 0.  0.
        5    1    3    3  502    0  0.61922406883E+03  0.32303666814E+03 -0.21984162903E+04  0.23066962115E+04  0.46999998093E+01 0. -1.
       -5    1    3    3    0  502 -0.61922406883E+03 -0.32303666814E+03  0.10253033775E+04  0.12405886677E+04  0.46999998093E+01 0.  1.
</event>
<event>
 5   0  0.1405389E-06  0.2426612E+04  0.7818609E-02  0.8429607E-01
        1   -1    0    0  501    0  0.00000000000E+00  0.00000000000E+00  0.11268920955E+04  0.11268920955E+04  0.50400001928E-02 0. -1.
       -1   -1    0    0    0  501  0.00000000000E+00  0.00000000000E+00 -0.13063463627E+04  0.13063463628E+04  0.50400001928E-02 0.  1.
    10030    2    1    2    0    0  0.00000000000E+00  0.00000000000E+00 -0.17945426729E+03  0.24332384582E+04  0.24266119510E+04 0.  0.
        1    1    3    3  502    0  0.26982662701E+03  0.21615801088E+03  0.10764537882E+04  0.11306119814E+04  0.50400001928E-02 0. -1.
       -1    1    3    3    0  502 -0.26982662701E+03 -0.21615801088E+03 -0.12559080555E+04  0.13026264768E+04  0.50400001928E-02 0.  1.
</event>
<event>
 5   0  0.1405389E-06  0.2204260E+04  0.7818609E-02  0.8516657E-01
       -1   -1    0    0    0  501  0.00000000000E+00  0.00000000000E+00  0.83666049533E+03  0.83666049535E+03  0.50400001928E-02 0. -1.
        1   -1    0    0  501    0  0.00000000000E+00  0.00000000000E+00 -0.14518318042E+04  0.14518318042E+04  0.50400001928E-02 0.  1.
    10030    2    1    2    0    0  0.00000000000E+00  0.00000000000E+00 -0.61517130883E+03  0.22884922995E+04  0.22042598000E+04 0.  0.
        1    1    3    3  502    0  0.99609629161E+03 -0.37422967609E+03 -0.94996690934E+01  0.10641174354E+04  0.50400001928E-02 0. -1.
       -1    1    3    3    0  502 -0.99609629161E+03  0.37422967609E+03 -0.60567163973E+03  0.12243748641E+04  0.50400001928E-02 0.  1.
</event>
<event>
 5   0  0.1282578E-06  0.3333641E+04  0.7818609E-02  0.8154388E-01
        1   -1    0    0  501    0  0.00000000000E+00  0.00000000000E+00  0.23965323543E+04  0.23965323543E+04  0.50400001928E-02 0.  1.
       -1   -1    0    0    0  501  0.00000000000E+00  0.00000000000E+00 -0.11592960052E+04  0.11592960052E+04  0.50400001928E-02 0. -1.
    10030    2    1    2    0    0  0.00000000000E+00  0.00000000000E+00  0.12372363492E+04  0.35558283595E+04  0.33336408833E+04 0.  0.
        4    1    3    3  502    0  0.58865535175E+03 -0.88027199807E+03 -0.75437839074E+03  0.13001854802E+04  0.12699999809E+01 0. -1.
       -4    1    3    3    0  502 -0.58865535175E+03  0.88027199807E+03  0.19916147399E+04  0.22556428793E+04  0.12699999809E+01 0.  1.
</event>
<event>
 5   0  0.3920487E-06  0.3240777E+04  0.7818609E-02  0.8178130E-01
       -2   -1    0    0    0  501  0.00000000000E+00  0.00000000000E+00  0.12901041235E+04  0.12901041235E+04  0.25500000920E-02 0.  1.
        2   -1    0    0  501    0  0.00000000000E+00  0.00000000000E+00 -0.20352301786E+04  0.20352301786E+04  0.25500000920E-02 0. -1.
    10030    2    1    2    0    0  0.00000000000E+00  0.00000000000E+00 -0.74512605507E+03  0.33253343021E+04  0.32407769721E+04 0.  0.
        4    1    3    3  502    0  0.74988194170E+03 -0.52803559663E+03 -0.17432743223E+04  0.19698100146E+04  0.12699999809E+01 0. -1.
       -4    1    3    3    0  502 -0.74988194170E+03  0.52803559663E+03  0.99814826722E+03  0.13555242875E+04  0.12699999809E+01 0.  1.
</event>
<event>
 5   0  0.3896210E-06  0.3007585E+04  0.7818609E-02  0.8241568E-01
       -2   -1    0    0    0  501  0.00000000000E+00  0.00000000000E+00  0.14851666969E+04  0.14851666969E+04  0.25500000920E-02 0. -1.
        2   -1    0    0  501    0  0.00000000000E+00  0.00000000000E+00 -0.15226515008E+04  0.15226515008E+04  0.25500000920E-02 0.  1.
    10030    2    1    2    0    0  0.00000000000E+00  0.00000000000E+00 -0.37484803812E+02  0.30078181977E+04  0.30075846123E+04 0.  0.
        3    1    3    3  502    0 -0.12430381405E+04 -0.70137922268E+03 -0.49239786885E+03  0.15098120096E+04  0.10100000352E+00 0.  1.
       -3    1    3    3    0  502  0.12430381405E+04  0.70137922268E+03  0.45491306504E+03  0.14980061881E+04  0.10100000352E+00 0. -1.
</event>
<event>
 5   0  0.1282578E-06  0.3157279E+04  0.7818609E-02  0.8200192E-01
        1   -1    0    0  501    0  0.00000000000E+00  0.00000000000E+00  0.14410445601E+04  0.14410445601E+04  0.50400001928E-02 0. -1.
       -1   -1    0    0    0  501  0.00000000000E+00  0.00000000000E+00 -0.17293728867E+04  0.17293728867E+04  0.50400001928E-02 0.  1.
    10030    2    1    2    0    0  0.00000000000E+00  0.00000000000E+00 -0.28832832655E+03  0.31704174468E+04  0.31572794559E+04 0.  0.
        4    1    3    3  502    0 -0.14030562716E+04  0.71802967441E+03 -0.54527587251E+02  0.15770568745E+04  0.12699999809E+01 0. -1.
       -4    1    3    3    0  502  0.14030562716E+04 -0.71802967441E+03 -0.23380073930E+03  0.15933605723E+04  0.12699999809E+01 0.  1.
</event>
<event>
 5   0  0.3812379E-06  0.3318920E+04  0.7818609E-02  0.8158098E-01
       -2   -1    0    0    0  501  0.00000000000E+00  0.00000000000E+00  0.13372562707E+04  0.13372562707E+04  0.25500000920E-02 0. -1.
        2   -1    0    0  501    0  0.00000000000E+00  0.00000000000E+00 -0.20592963255E+04  0.20592963255E+04  0.25500000920E-02 0.  1.
    10030    2    1    2    0    0  0.00000000000E+00  0.00000000000E+00 -0.72204005479E+03  0.33965525963E+04  0.33189196584E+04 0.  0.
        5    1    3    3  502    0 -0.69546017735E+03  0.13955090060E+04  0.22031164951E+03  0.15746966556E+04  0.46999998093E+01 0. -1.
       -5    1    3    3    0  502  0.69546017735E+03 -0.13955090060E+04 -0.94235170430E+03  0.18218559407E+04  0.46999998093E+01 0.  1.
</event>
<event>
 5   0  0.3896210E-06  0.3260769E+04  0.7818609E-02  0.8172950E-01
        2   -1    0    0  501    0  0.00000000000E+00  0.00000000000E+00  0.26032639902E+04  0.26032639902E+04  0.25500000920E-02 0.  1.
       -2   -1    0    0    0  501  0.00000000000E+00  0.00000000000E+00 -0.10210846619E+04  0.10210846619E+04  0.25500000920E-02 0. -1.
    10030    2    1    2    0    0  0.00000000000E+00  0.00000000000E+00  0.15821793283E+04  0.36243486521E+04  0.32607685789E+04 0.  0.
        3    1    3    3  502    0 -0.14428719064E+04 -0.50631216095E+03  0.14197727243E+04  0.20866206990E+04  0.10100000352E+00 0.  1.
       -3    1    3    3    0  502  0.14428719064E+04  0.50631216095E+03  0.16240660397E+03  0.15377279531E+04  0.10100000352E+00 0. -1.
</event>
<event>
 5   0  0.3671997E-06  0.3196481E+04  0.7818609E-02  0.8189747E-01
       -2   -1    0    0    0  501  0.00000000000E+00  0.00000000000E+00  0.12258524020E+04  0.12258524020E+04  0.25500000920E-02 0.  1.
        2   -1    0    0  501    0  0.00000000000E+00  0.00000000000E+00 -0.20837516981E+04  0.20837516981E+04  0.25500000920E-02 0. -1.
    10030    2    1    2    0    0  0.00000000000E+00  0.00000000000E+00 -0.85789929606E+03  0.33096041001E+04  0.31964805798E+04 0.  0.
        2    1    3    3  502    0  0.30274587278E+03  0.12500996025E+04  0.55329008069E+03  0.14001906988E+04  0.25500000920E-02 0.  1.
       -2    1    3    3    0  502 -0.30274587278E+03 -0.12500996025E+04 -0.14111893768E+04  0.19094134012E+04  0.25500000920E-02 0. -1.
</event>
<event>
 5   0  0.3671997E-06  0.3684171E+04  0.7818609E-02  0.8071479E-01
       -2   -1    0    0    0  501  0.00000000000E+00  0.00000000000E+00  0.18053911224E+04  0.18053911224E+04  0.25500000920E-02 0.  1.
        2   -1    0    0  501    0  0.00000000000E+00  0.00000000000E+00 -0.18795259992E+04  0.18795259992E+04  0.25500000920E-02 0. -1.
    10030    2    1    2    0    0  0.00000000000E+00  0.00000000000E+00 -0.74134876754E+02  0.36849171216E+04  0.36841713061E+04 0.  0.
        2    1    3    3  502    0 -0.12561679572E+04 -0.86451950513E+03  0.99654760766E+03  0.18216638125E+04  0.25500000920E-02 0.  1.
       -2    1    3    3    0  502  0.12561679572E+04  0.86451950513E+03 -0.10706824844E+04  0.18632533091E+04  0.25500000920E-02 0. -1.
</event>
<event>
 5   0  0.3671997E-06  0.3288512E+04  0.7818609E-02  0.8165825E-01
       -2   -1    0    0    0  501  0.00000000000E+00  0.00000000000E+00  0.19337619251E+04  0.19337619251E+04  0.25500000920E-02 0.  1.
        2   -1    0    0  501    0  0.00000000000E+00  0.00000000000E+00 -0.13980923293E+04  0.13980923293E+04  0.25500000920E-02 0. -1.
    10030    2    1    2    0    0  0.00000000000E+00  0.00000000000E+00  0.53566959581E+03  0.33318542544E+04  0.32885119517E+04 0.  0.
        2    1    3    3  502    0  0.77749992775E+03 -0.12448589789E+04 -0.48314800030E+03  0.15451899577E+04  0.25500000920E-02 0. -1.
       -2    1    3    3    0  502 -0.77749992775E+03  0.12448589789E+04  0.10188175961E+04  0.17866642967E+04  0.25500000920E-02 0.  1.
</event>
<event>
 5   0  0.3671997E-06  0.3317313E+04  0.7818609E-02  0.8158504E-01
        2   -1    0    0  501    0  0.00000000000E+00  0.00000000000E+00  0.10862775579E+04  0.10862775579E+04  0.25500000920E-02 0. -1.
       -2   -1    0    0    0  501  0.00000000000E+00  0.00000000000E+00 -0.25326326604E+04  0.25326326604E+04  0.25500000920E-02 0.  1.
    10030    2    1    2    0    0  0.00000000000E+00  0.00000000000E+00 -0.14463551025E+04  0.36189102184E+04  0.33173133837E+04 0.  0.
        2    1    3    3  502    0  0.11246679735E+04  0.89549679770E+03  0.17928724800E+03  0.14487706798E+04  0.25500000920E-02 0. -1.
       -2    1    3    3    0  502 -0.11246679735E+04 -0.89549679770E+03 -0.16256423505E+04  0.21701395386E+04  0.25500000920E-02 0.  1.
</event>
<event>
 5   0  0.3896210E-06  0.3269825E+04  0.7818609E-02  0.8170616E-01
        2   -1    0    0  501    0  0.00000000000E+00  0.00000000000E+00  0.20617309749E+04  0.20617309749E+04  0.25500000920E-02 0. -1.
       -2   -1    0    0    0  501  0.00000000000E+00  0.00000000000E+00 -0.12964535363E+04  0.12964535363E+04  0.25500000920E-02 0.  1.
    10030    2    1    2    0    0  0.00000000000E+00  0.00000000000E+00  0.76527743867E+03  0.33581845112E+04  0.32698247129E+04 0.  0.
        3    1    3    3  502    0 -0.99855973136E+03 -0.39143296450E+03  0.16499187211E+04  0.19678854385E+04  0.10100000352E+00 0. -1.
       -3    1    3    3    0  502  0.99855973136E+03  0.39143296450E+03 -0.88464128242E+03  0.13902990727E+04  0.10100000352E+00 0.  1.
</event>
<event>
 5   0  0.3920487E-06  0.3254373E+04  0.7818609E-02  0.8174603E-01
       -2   -1    0    0    0  501  0.00000000000E+00  0.00000000000E+00  0.14414565125E+04  0.14414565125E+04  0.25500000920E-02 0.  1.
        2   -1    0    0  501    0  0.00000000000E+00  0.00000000000E+00 -0.18368480033E+04  0.18368480033E+04  0.25500000920E-02 0. -1.
    10030    2    1    2    0    0  0.00000000000E+00  0.00000000000E+00 -0.39539149079E+03  0.32783045159E+04  0.32543733756E+04 0.  0.
        4    1    3    3  502    0 -0.12669388419E+04  0.10163351389E+04 -0.98668434664E+02  0.16272087195E+04  0.12699999809E+01 0. -1.
       -4    1    3    3    0  502  0.12669388419E+04 -0.10163351389E+04 -0.29672305613E+03  0.16510957964E+04  0.12699999809E+01 0.  1.
</event>
<event>
 5   0  0.4017247E-06  0.3321080E+04  0.7818609E-02  0.8157552E-01
        2   -1    0    0  501    0  0.00000000000E+00  0.00000000000E+00  0.28754830303E+04  0.28754830303E+04  0.25500000920E-02 0.  1.
       -2   -1    0    0    0  501  0.00000000000E+00  0.00000000000E+00 -0.95893213371E+03  0.95893213372E+03  0.25500000920E-02 0. -1.
    10030    2    1    2    0    0  0.00000000000E+00  0.00000000000E+00  0.19165508966E+04  0.38344151640E+04  0.33210799917E+04 0.  0.
        1    1    3    3  502    0 -0.97276646161E+03  0.57165509935E+03 -0.44837074189E+03  0.12141253904E+04  0.50400001928E-02 0. -1.
       -1    1    3    3    0  502  0.97276646161E+03 -0.57165509935E+03  0.23649216385E+04  0.26202897736E+04  0.50400001928E-02 0.  1.
</event>
<event>
 5   0  0.1405389E-06  0.2595316E+04  0.7818609E-02  0.8369794E-01
       -1   -1    0    0    0  501  0.00000000000E+00  0.00000000000E+00  0.12373110011E+04  0.12373110011E+04  0.50400001928E-02 0. -1.
        1   -1    0    0  501    0  0.00000000000E+00  0.00000000000E+00 -0.13609483412E+04  0.13609483412E+04  0.50400001928E-02 0.  1.
    10030    2    1    2    0    0  0.00000000000E+00  0.00000000000E+00 -0.12363734006E+03  0.25982593424E+04  0.25953160536E+04 0.  0.
        1    1    3    3  502    0  0.38332629992E+03 -0.10034951014E+04  0.66700066984E+03  0.12644490359E+04  0.50400001928E-02 0.  1.
       -1    1    3    3    0  502 -0.38332629992E+03  0.10034951014E+04 -0.79063800989E+03  0.13338103064E+04  0.50400001928E-02 0. -1.
</event>
<event>
 5   0  0.1339825E-06  0.3285627E+04  0.7818609E-02  0.8166562E-01
       -1   -1    0    0    0  501  0.00000000000E+00  0.00000000000E+00  0.23535047446E+04  0.23535047446E+04  0.50400001928E-02 0. -1.
        1   -1    0    0  501    0  0.00000000000E+00  0.00000000000E+00 -0.11467306567E+04  0.11467306567E+04  0.50400001928E-02 0.  1.
    10030    2    1    2    0    0  0.00000000000E+00  0.00000000000E+00  0.12067740879E+04  0.35002354012E+04  0.32856269059E+04 0.  0.
        3    1    3    3  502    0 -0.45701822666E+03 -0.11125716244E+04  0.17954742024E+04  0.21611128848E+04  0.10100000352E+00 0. -1.
       -3    1    3    3    0  502  0.45701822666E+03  0.11125716244E+04 -0.58870011456E+03  0.13391225165E+04  0.10100000352E+00 0.  1.
</event>
<event>
 5   0  0.1405389E-06  0.3382945E+04  0.7818609E-02  0.8142105E-01
       -1   -1    0    0    0  501  0.00000000000E+00  0.00000000000E+00  0.20180425012E+04  0.20180425012E+04  0.50400001928E-02 0.  1.
        1   -1    0    0  501    0  0.00000000000E+00  0.00000000000E+00 -0.14177498126E+04  0.14177498126E+04  0.50400001928E-02 0. -1.
    10030    2    1    2    0    0  0.00000000000E+00  0.00000000000E+00  0.60029268861E+03  0.34357923137E+04  0.33829450943E+04 0.  0.
        1    1    3    3  502    0 -0.90575009120E+03  0.11988843779E+04  0.10890512820E+04  0.18557315738E+04  0.50400001928E-02 0. -1.
       -1    1    3    3    0  502  0.90575009120E+03 -0.11988843779E+04 -0.48875859337E+03  0.15800607399E+04  0.50400001928E-02 0.  1.
</event>
<event>
 5   0  0.3920487E-06  0.3274233E+04  0.7818609E-02  0.8169483E-01
        2   -1    0    0  501    0  0.00000000000E+00  0.00000000000E+00  0.20539530892E+04  0.20539530892E+04  0.25500000920E-02 0. -1.
       -2   -1    0    0    0  501  0.00000000000E+00  0.00000000000E+00 -0.13048741068E+04  0.13048741068E+04  0.25500000920E-02 0.  1.
    10030    2    1    2    0    0  0.00000000000E+00  0.00000000000E+00  0.74907898240E+03  0.33588271959E+04  0.32742328583E+04 0.  0.
        4    1    3    3  502    0 -0.65319032333E+03 -0.73772248961E+03 -0.96662399476E+03  0.13803099762E+04  0.12699999809E+01 0.  1.
       -4    1    3    3    0  502  0.65319032333E+03  0.73772248961E+03  0.17157029772E+04  0.19785172198E+04  0.12699999809E+01 0. -1.
</event>
<event>
 5   0  0.3671997E-06  0.3237420E+04  0.7818609E-02  0.8179004E-01
        2   -1    0    0  501    0  0.00000000000E+00  0.00000000000E+00  0.31438982648E+04  0.31438982648E+04  0.25500000920E-02 0.  1.
       -2   -1    0    0    0  501  0.00000000000E+00  0.00000000000E+00 -0.83343101364E+03  0.83343101365E+03  0.25500000920E-02 0. -1.
    10030    2    1    2    0    0  0.00000000000E+00  0.00000000000E+00  0.23104672512E+04  0.39773292785E+04  0.32374201567E+04 0.  0.
        2    1    3    3  502    0 -0.11985137111E+03  0.73796078768E+02 -0.82589909266E+03  0.83780637600E+03  0.25500000920E-02 0. -1.
       -2    1    3    3    0  502  0.11985137111E+03 -0.73796078768E+02  0.31363663439E+04  0.31395229025E+04  0.25500000920E-02 0.  1.
</event>
<event>
 5   0  0.3671997E-06  0.2452933E+04  0.7818609E-02  0.8419948E-01
        2   -1    0    0  501    0  0.00000000000E+00  0.00000000000E+00  0.10784865418E+04  0.10784865418E+04  0.25500000920E-02 0.  1.
       -2   -1    0    0    0  501  0.00000000000E+00  0.00000000000E+00 -0.13947511891E+04  0.13947511891E+04  0.25500000920E-02 0. -1.
    10030    2    1    2    0    0  0.00000000000E+00  0.00000000000E+00 -0.31626464732E+03  0.24732377310E+04  0.24529332536E+04 0.  0.
        2    1    3    3  502    0  0.91547229393E+03  0.79044588993E+03 -0.36310343848E+03  0.12628294948E+04  0.25500000920E-02 0. -1.
       -2    1    3    3    0  502 -0.91547229393E+03 -0.79044588993E+03  0.46838791159E+02  0.12104082362E+04  0.25500000920E-02 0.  1.
</event>
<event>
 5   0  0.4017247E-06  0.3253305E+04  0.7818609E-02  0.8174880E-01
        2   -1    0    0  501    0  0.00000000000E+00  0.00000000000E+00  0.20959043062E+04  0.20959043062E+04  0.25500000920E-02 0. -1.
       -2   -1    0    0    0  501  0.00000000000E+00  0.00000000000E+00 -0.12624612379E+04  0.12624612379E+04  0.25500000920E-02 0.  1.
    10030    2    1    2    0    0  0.00000000000E+00  0.00000000000E+00  0.83344306833E+03  0.33583655441E+04  0.32533047475E+04 0.  0.
        1    1    3    3  502    0 -0.92303479795E+03  0.21396923116E+03 -0.94818053966E+03  0.13404560440E+04  0.50400001928E-02 0.  1.
       -1    1    3    3    0  502  0.92303479795E+03 -0.21396923116E+03  0.17816236080E+04  0.20179095001E+04  0.50400001928E-02 0. -1.
</event>
<event>
 5   0  0.3812379E-06  0.2774966E+04  0.7818609E-02  0.8311083E-01
        2   -1    0    0  501    0  0.00000000000E+00  0.00000000000E+00  0.11949632077E+04  0.11949632077E+04  0.25500000920E-02 0. -1.
       -2   -1    0    0    0  501  0.00000000000E+00  0.00000000000E+00 -0.16110192692E+04  0.16110192692E+04  0.25500000920E-02 0.  1.
    10030    2    1    2    0    0  0.00000000000E+00  0.00000000000E+00 -0.41605606156E+03  0.28059824769E+04  0.27749657681E+04 0.  0.
        5    1    3    3  502    0  0.82447385495E+03  0.10216169479E+04 -0.66207743438E+03  0.14703152535E+04  0.46999998093E+01 0.  1.
       -5    1    3    3    0  502 -0.82447385495E+03 -0.10216169479E+04  0.24602137282E+03  0.13356672234E+04  0.46999998093E+01 0. -1.
</event>
<event>
 5   0  0.1391878E-06  0.3311889E+04  0.7818609E-02  0.8159877E-01
        1   -1    0    0  501    0  0.00000000000E+00  0.00000000000E+00  0.25901177250E+04  0.25901177250E+04  0.50400001928E-02 0.  1.
       -1   -1    0    0    0  501  0.00000000000E+00  0.00000000000E+00 -0.10586981452E+04  0.10586981452E+04  0.50400001928E-02 0. -1.
    10030    2    1    2    0    0  0.00000000000E+00  0.00000000000E+00  0.15314195798E+04  0.36488158702E+04  0.33118893890E+04 0.  0.
        2    1    3    3  502    0 -0.60241660952E+03 -0.47879242066E+03 -0.84974886360E+03  0.11463948206E+04  0.25500000920E-02 0. -1.
       -2    1    3    3    0  502  0.60241660952E+03  0.47879242066E+03  0.23811684434E+04  0.25024210496E+04  0.25500000920E-02 0.  1.
</event>
<event>
 5   0  0.1339825E-06  0.3255267E+04  0.7818609E-02  0.8174372E-01
       -1   -1    0    0    0  501  0.00000000000E+00  0.00000000000E+00  0.22284429402E+04  0.22284429402E+04  0.50400001928E-02 0.  1.
        1   -1    0    0  501    0  0.00000000000E+00  0.00000000000E+00 -0.11888078536E+04  0.11888078536E+04  0.50400001928E-02 0. -1.
    10030    2    1    2    0    0  0.00000000000E+00  0.00000000000E+00  0.10396350866E+04  0.34172507938E+04  0.32552667900E+04 0.  0.
        3    1    3    3  502    0 -0.15990976704E+04 -0.22220035248E+03  0.73675026425E+03  0.17746231482E+04  0.10100000352E+00 0.  1.
       -3    1    3    3    0  502  0.15990976704E+04  0.22220035248E+03  0.30288482233E+03  0.16426276456E+04  0.10100000352E+00 0. -1.
</event>
<event>
 5   0  0.1405389E-06  0.3309222E+04  0.7818609E-02  0.8160553E-01
       -1   -1    0    0    0  501  0.00000000000E+00  0.00000000000E+00  0.12907131924E+04  0.12907131924E+04  0.50400001928E-02 0.  1.
        1   -1    0    0  501    0  0.00000000000E+00  0.00000000000E+00 -0.21211048039E+04  0.21211048039E+04  0.50400001928E-02 0. -1.
    10030    2    1    2    0    0  0.00000000000E+00  0.00000000000E+00 -0.83039161149E+03  0.34118179963E+04  0.33092222367E+04 0.  0.
        1    1    3    3  502    0 -0.11442326207E+04  0.11624847348E+04 -0.12892040993E+03  0.16362333333E+04  0.50400001928E-02 0. -1.
       -1    1    3    3    0  502  0.11442326207E+04 -0.11624847348E+04 -0.70147120155E+03  0.17755846630E+04  0.50400001928E-02 0.  1.
</event>
<event>
 5   0  0.1391878E-06  0.3225458E+04  0.7818609E-02  0.8182126E-01
        1   -1    0    0  501    0  0.00000000000E+00  0.00000000000E+00  0.17793140073E+04  0.17793140073E+04  0.50400001928E-02 0. -1.
       -1   -1    0    0    0  501  0.00000000000E+00  0.00000000000E+00 -0.14617398508E+04  0.14617398508E+04  0.50400001928E-02 0.  1.
    10030    2    1    2    0    0  0.00000000000E+00  0.00000000000E+00  0.31757415647E+03  0.32410538581E+04  0.32254576057E+04 0.  0.
        2    1    3    3  502    0 -0.92324584209E+03 -0.46793195921E+03 -0.10839432276E+04  0.14987581940E+04  0.25500000920E-02 0.  1.
       -2    1    3    3    0  502  0.92324584209E+03  0.46793195921E+03  0.14015173840E+04  0.17422956641E+04  0.25500000920E-02 0. -1.
</event>
<event>
 5   0  0.3896210E-06  0.3164462E+04  0.7818609E-02  0.8198266E-01
       -2   -1    0    0    0  501  0.00000000000E+00  0.00000000000E+00  0.18241815321E+04  0.18241815321E+04  0.25500000920E-02 0.  1.
        2   -1    0    0  501    0  0.00000000000E+00  0.00000000000E+00 -0.13723715060E+04  0.13723715060E+04  0.25500000920E-02 0. -1.
    10030    2    1    2    0    0  0.00000000000E+00  0.00000000000E+00  0.45181002609E+03  0.31965530381E+04  0.31644618856E+04 0.  0.
        3    1    3    3  502    0  0.12898022815E+04 -0.71391360632E+03  0.80635584717E+03  0.16803191141E+04  0.10100000352E+00 0.  1.
       -3    1    3    3    0  502 -0.12898022815E+04  0.71391360632E+03 -0.35454582108E+03  0.15162339240E+04  0.10100000352E+00 0. -1.
</event>
<event>
 5   0  0.1391878E-06  0.3334249E+04  0.7818609E-02  0.8154235E-01
       -1   -1    0    0    0  501  0.00000000000E+00  0.00000000000E+00  0.14871757217E+04  0.14871757217E+04  0.50400001928E-02 0.  1.
        1   -1    0    0  501    0  0.00000000000E+00  0.00000000000E+00 -0.18688468549E+04  0.18688468549E+04  0.50400001928E-02 0. -1.
    10030    2    1    2    0    0  0.00000000000E+00  0.00000000000E+00 -0.38167113319E+03  0.33560225766E+04  0.33342487431E+04 0.  0.
        2    1    3    3  502    0 -0.56687814228E+03 -0.13292980764E+04 -0.10274793569E+04  0.17731604645E+04  0.25500000920E-02 0. -1.
       -2    1    3    3    0  502  0.56687814228E+03  0.13292980764E+04  0.64580822372E+03  0.15828621121E+04  0.25500000920E-02 0.  1.
</event>
<event>
 5   0  0.3812379E-06  0.2373316E+04  0.7818609E-02  0.8449562E-01
       -2   -1    0    0    0  501  0.00000000000E+00  0.00000000000E+00  0.14426701252E+04  0.14426701252E+04  0.25500000920E-02 0. -1.
        2   -1    0    0  501    0  0.00000000000E+00  0.00000000000E+00 -0.97607665279E+03  0.97607665279E+03  0.25500000920E-02 0.  1.
    10030    2    1    2    0    0  0.00000000000E+00  0.00000000000E+00  0.46659347242E+03  0.24187467780E+04  0.23733155095E+04 0.  0.
        5    1    3    3  502    0  0.10656418477E+04  0.18282786867E+03 -0.26505870980E+03  0.11132370757E+04  0.46999998093E+01 0.  1.
       -5    1    3    3    0  502 -0.10656418477E+04 -0.18282786867E+03  0.73165218222E+03  0.13055097023E+04  0.46999998093E+01 0. -1.
</event>
<event>
 5   0  0.3920487E-06  0.3154473E+04  0.7818609E-02  0.8200945E-01
        2   -1    0    0  501    0  0.00000000000E+00  0.00000000000E+00  0.21500905537E+04  0.21500905537E+04  0.25500000920E-02 0. -1.
       -2   -1    0    0    0  501  0.00000000000E+00  0.00000000000E+00 -0.11570093211E+04  0.11570093211E+04  0.25500000920E-02 0.  1.
    10030    2    1    2    0    0  0.00000000000E+00  0.00000000000E+00  0.99308123257E+03  0.33070998748E+04  0.31544728953E+04 0.  0.
        4    1    3    3  502    0 -0.74385544326E+03 -0.13720893666E+04  0.73497153228E+03  0.17251477956E+04  0.12699999809E+01 0.  1.
       -4    1    3    3    0  502  0.74385544326E+03  0.13720893666E+04  0.25810970029E+03  0.15819520792E+04  0.12699999809E+01 0. -1.
</event>
<event>
 5   0  0.1352708E-06  0.3130794E+04  0.7818609E-02  0.8207337E-01
        1   -1    0    0  501    0  0.00000000000E+00  0.00000000000E+00  0.19576945453E+04  0.19576945453E+04  0.50400001928E-02 0.  1.
       -1   -1    0    0    0  501  0.00000000000E+00  0.00000000000E+00 -0.12517113541E+04  0.12517113542E+04  0.50400001928E-02 0. -1.
    10030    2    1    2    0    0  0.00000000000E+00  0.00000000000E+00  0.70598319112E+03  0.32094058994E+04  0.31307944617E+04 0.  0.
        5    1    3    3  502    0 -0.45613635138E+03 -0.97881292663E+03  0.15147216873E+04  0.18602524013E+04  0.46999998093E+01 0.  1.
       -5    1    3    3    0  502  0.45613635138E+03  0.97881292663E+03 -0.80873849619E+03  0.13491534982E+04  0.46999998093E+01 0. -1.
</event>
<event>
 5   0  0.1339825E-06  0.3285265E+04  0.7818609E-02  0.8166655E-01
        1   -1    0    0  501    0  0.00000000000E+00  0.00000000000E+00  0.15241372381E+04  0.15241372381E+04  0.50400001928E-02 0. -1.
       -1   -1    0    0    0  501  0.00000000000E+00  0.00000000000E+00 -0.17703403725E+04  0.17703403725E+04  0.50400001928E-02 0.  1.
    10030    2    1    2    0    0  0.00000000000E+00  0.00000000000E+00 -0.24620313439E+03  0.32944776106E+04  0.32852650949E+04 0.  0.
        3    1    3    3  502    0  0.96555222793E+03 -0.10015328301E+04  0.75277918898E+03  0.15817824226E+04  0.10100000352E+00 0. -1.
       -3    1    3    3    0  502 -0.96555222793E+03  0.10015328301E+04 -0.99898232337E+03  0.17126951881E+04  0.10100000352E+00 0.  1.
</event>
<event>
 5   0  0.1405389E-06  0.3293151E+04  0.7818609E-02  0.8164640E-01
       -1   -1    0    0    0  501  0.00000000000E+00  0.00000000000E+00  0.10790442227E+04  0.10790442227E+04  0.50400001928E-02 0. -1.
        1   -1    0    0  501    0  0.00000000000E+00  0.00000000000E+00 -0.25126042814E+04  0.25126042814E+04  0.50400001928E-02 0.  1.
    10030    2    1    2    0    0  0.00000000000E+00  0.00000000000E+00 -0.14335600587E+04  0.35916485042E+04  0.32931511559E+04 0.  0.
        1    1    3    3  502    0 -0.44334928047E+03 -0.12728904111E+04 -0.17482312097E+04  0.22075146536E+04  0.50400001928E-02 0.  1.
       -1    1    3    3    0  502  0.44334928047E+03  0.12728904111E+04  0.31467115098E+03  0.13841338506E+04  0.50400001928E-02 0. -1.
</event>
<event>
 5   0  0.1352708E-06  0.2057827E+04  0.7818609E-02  0.8580052E-01
       -1   -1    0    0    0  501  0.00000000000E+00  0.00000000000E+00  0.20886147064E+04  0.20886147064E+04  0.50400001928E-02 0.  1.
        1   -1    0    0  501    0  0.00000000000E+00  0.00000000000E+00 -0.50687308260E+03  0.50687308263E+03  0.50400001928E-02 0. -1.
    10030    2    1    2    0    0  0.00000000000E+00  0.00000000000E+00  0.15817416238E+04  0.25954877890E+04  0.20578265958E+04 0.  0.
        5    1    3    3  502    0  0.43911235109E+03  0.75272384893E+03  0.14808103986E+04  0.17182067326E+04  0.46999998093E+01 0.  1.
       -5    1    3    3    0  502 -0.43911235109E+03 -0.75272384893E+03  0.10093122520E+03  0.87728105635E+03  0.46999998093E+01 0. -1.
</event>
<event>
 5   0  0.3671997E-06  0.3244613E+04  0.7818609E-02  0.8177133E-01
        2   -1    0    0  501    0  0.00000000000E+00  0.00000000000E+00  0.25144450363E+04  0.25144450363E+04  0.25500000920E-02 0. -1.
       -2   -1    0    0    0  501  0.00000000000E+00  0.00000000000E+00 -0.10467037877E+04  0.10467037877E+04  0.25500000920E-02 0.  1.
    10030    2    1    2    0    0  0.00000000000E+00  0.00000000000E+00  0.14677412485E+04  0.35611488240E+04  0.32446134707E+04 0.  0.
        2    1    3    3  502    0  0.15539396130E+04  0.43604265746E+03  0.55346472758E+03  0.17062194246E+04  0.25500000920E-02 0. -1.
       -2    1    3    3    0  502 -0.15539396130E+04 -0.43604265746E+03  0.91427652096E+03  0.18549293994E+04  0.25500000920E-02 0.  1.
</event>
<event>
 5   0  0.1391878E-06  0.2380540E+04  0.7818609E-02  0.8446825E-01
        1   -1    0    0  501    0  0.00000000000E+00  0.00000000000E+00  0.16001897979E+04  0.16001897979E+04  0.50400001928E-02 0.  1.
       -1   -1    0    0    0  501  0.00000000000E+00  0.00000000000E+00 -0.88535892541E+03  0.88535892542E+03  0.50400001928E-02 0. -1.
    10030    2    1    2    0    0  0.00000000000E+00  0.00000000000E+00  0.71483087250E+03  0.24855487233E+04  0.23805397035E+04 0.  0.
        2    1    3    3  502    0 -0.94321713981E+03 -0.59372307259E+03  0.79366995866E+03  0.13682388911E+04  0.25500000920E-02 0.  1.
       -2    1    3    3    0  502  0.94321713981E+03  0.59372307259E+03 -0.78839086166E+02  0.11173098323E+04  0.25500000920E-02 0. -1.
</event>
<event>
 5   0  0.3812379E-06  0.3339750E+04  0.7818609E-02  0.8152854E-01
        2   -1    0    0  501    0  0.00000000000E+00  0.00000000000E+00  0.19259001761E+04  0.19259001761E+04  0.25500000920E-02 0.  1.
       -2   -1    0    0    0  501  0.00000000000E+00  0.00000000000E+00 -0.14478849730E+04  0.14478849730E+04  0.25500000920E-02 0. -1.
    10030    2    1    2    0    0  0.00000000000E+00  0.00000000000E+00  0.47801520306E+03  0.33737851491E+04  0.33397496460E+04 0.  0.
        5    1    3    3  502    0 -0.63807180022E+02  0.15581083297E+04 -0.36431152860E+03  0.16014112224E+04  0.46999998093E+01 0. -1.
       -5    1    3    3    0  502  0.63807180022E+02 -0.15581083297E+04  0.84232673166E+03  0.17723739267E+04  0.46999998093E+01 0.  1.
</event>
<event>
 5   0  0.1405389E-06  0.3163842E+04  0.7818609E-02  0.8198432E-01
       -1   -1    0    0    0  501  0.00000000000E+00  0.00000000000E+00  0.15984719386E+04  0.15984719386E+04  0.50400001928E-02 0.  1.
        1   -1    0    0  501    0  0.00000000000E+00  0.00000000000E+00 -0.15655413299E+04  0.15655413299E+04  0.50400001928E-02 0. -1.
    10030    2    1    2    0    0  0.00000000000E+00  0.00000000000E+00  0.32930608694E+02  0.31640132685E+04  0.31638418953E+04 0.  0.
        1    1    3    3  502    0  0.97870836692E+03 -0.12134985445E+04  0.28485476489E+03  0.15847999943E+04  0.50400001928E-02 0. -1.
       -1    1    3    3    0  502 -0.97870836692E+03  0.12134985445E+04 -0.25192415620E+03  0.15792132742E+04  0.50400001928E-02 0.  1.
</event>
<event>
 5   0  0.3896210E-06  0.3329203E+04  0.7818609E-02  0.8155504E-01
       -2   -1    0    0    0  501  0.00000000000E+00  0.00000000000E+00  0.20001746157E+04  0.20001746157E+04  0.25500000920E-02 0. -1.
        2   -1    0    0  501    0  0.00000000000E+00  0.00000000000E+00 -0.13853283224E+04  0.13853283224E+04  0.25500000920E-02 0.  1.
    10030    2    1    2    0    0  0.00000000000E+00  0.00000000000E+00  0.61484629330E+03  0.33855029382E+04  0.33292032350E+04 0.  0.
        3    1    3    3  502    0  0.75908587364E+03 -0.11228474640E+04  0.12901509601E+04  0.18712261490E+04  0.10100000352E+00 0. -1.
       -3    1    3    3    0  502 -0.75908587364E+03  0.11228474640E+04 -0.67530466678E+03  0.15142767891E+04  0.10100000352E+00 0.  1.
</event>
<event>
 5   0  0.3812379E-06  0.3097160E+04  0.7818609E-02  0.8216518E-01
        2   -1    0    0  501    0  0.00000000000E+00  0.00000000000E+00  0.18340783645E+04  0.18340783645E+04  0.25500000920E-02 0. -1.
       -2   -1    0    0    0  501  0.00000000000E+00  0.00000000000E+00 -0.13075235344E+04  0.13075235344E+04  0.25500000920E-02 0.  1.
    10030    2    1    2    0    0  0.00000000000E+00  0.00000000000E+00  0.52655483007E+03  0.31416018989E+04  0.30971603933E+04 0.  0.
        5    1    3    3  502    0  0.12243256311E+04 -0.83715777082E+03 -0.18838953526E+03  0.14950983551E+04  0.46999998093E+01 0.  1.
       -5    1    3    3    0  502 -0.12243256311E+04  0.83715777082E+03  0.71494436533E+03  0.16465035438E+04  0.46999998093E+01 0. -1.
</event>
<event>
 5   0  0.3812379E-06  0.2419837E+04  0.7818609E-02  0.8432114E-01
        2   -1    0    0  501    0  0.00000000000E+00  0.00000000000E+00  0.18876160955E+04  0.18876160955E+04  0.25500000920E-02 0. -1.
       -2   -1    0    0    0  501  0.00000000000E+00  0.00000000000E+00 -0.77553020342E+03  0.77553020342E+03  0.25500000920E-02 0.  1.
    10030    2    1    2    0    0  0.00000000000E+00  0.00000000000E+00  0.11120858920E+04  0.26631462989E+04  0.24198374280E+04 0.  0.
        5    1    3    3  502    0 -0.44673978139E+03 -0.98603018788E+03 -0.38710375272E+02  0.10832139894E+04  0.46999998093E+01 0.  1.
       -5    1    3    3    0  502  0.44673978139E+03  0.98603018788E+03  0.11507962673E+04  0.15799323095E+04  0.46999998093E+01 0. -1.
</event>
<event>
 5   0  0.3896210E-06  0.3283226E+04  0.7818609E-02  0.8167177E-01
        2   -1    0    0  501    0  0.00000000000E+00  0.00000000000E+00  0.19305419604E+04  0.19305419604E+04  0.25500000920E-02 0. -1.
       -2   -1    0    0    0  501  0.00000000000E+00  0.00000000000E+00 -0.13959256458E+04  0.13959256458E+04  0.25500000920E-02 0.  1.
    10030    2    1    2    0    0  0.00000000000E+00  0.00000000000E+00  0.53461631462E+03  0.33264676061E+04  0.32832258726E+04 0.  0.
        3    1    3    3  502    0  0.11063561225E+04 -0.42591902749E+03  0.14178087158E+04  0.18481375633E+04  0.10100000352E+00 0. -1.
       -3    1    3    3    0  502 -0.11063561225E+04  0.42591902749E+03 -0.88319240122E+03  0.14783300429E+04  0.10100000352E+00 0.  1.
</event>
<event>
 5   0  0.1405389E-06  0.2600146E+04  0.7818609E-02  0.8368152E-01
        1   -1    0    0  501    0  0.00000000000E+00  0.00000000000E+00  0.14198961258E+04  0.14198961258E+04  0.50400001928E-02 0. -1.
       -1   -1    0    0    0  501  0.00000000000E+00  0.00000000000E+00 -0.11903612759E+04  0.11903612759E+04  0.50400001928E-02 0.  1.
    10030    2    1    2    0    0  0.00000000000E+00  0.00000000000E+00  0.22953484985E+03  0.26102574017E+04  0.26001456605E+04 0.  0.
        1    1    3    3  502    0  0.46351884246E+03 -0.12104241102E+04  0.13314428507E+02  0.12962073591E+04  0.50400001928E-02 0.  1.
       -1    1    3    3    0  502 -0.46351884246E+03  0.12104241102E+04  0.21622042135E+03  0.13140500426E+04  0.50400001928E-02 0. -1.
</event>
<event>
 5   0  0.1282578E-06  0.3248524E+04  0.7818609E-02  0.8176118E-01
        1   -1    0    0  501    0  0.00000000000E+00  0.00000000000E+00  0.25651552980E+04  0.25651552980E+04  0.50400001928E-02 0. -1.
       -1   -1    0    0    0  501  0.00000000000E+00  0.00000000000E+00 -0.10284862150E+04  0.10284862150E+04  0.50400001928E-02 0.  1.
    10030    2    1    2    0    0  0.00000000000E+00  0.00000000000E+00  0.15366690831E+04  0.35936415130E+04  0.32485238883E+04 0.  0.
        4    1    3    3  502    0 -0.16607072403E+03 -0.47396398829E+03 -0.94043801939E+03  0.10661363087E+04  0.12699999809E+01 0.  1.
       -4    1    3    3    0  502  0.16607072403E+03  0.47396398829E+03  0.24771071024E+04  0.25275052042E+04  0.12699999809E+01 0. -1.
</event>
<event>
 5   0  0.1352708E-06  0.3233288E+04  0.7818609E-02  0.8180081E-01
        1   -1    0    0  501    0  0.00000000000E+00  0.00000000000E+00  0.15862508121E+04  0.15862508121E+04  0.50400001928E-02 0.  1.
       -1   -1    0    0    0  501  0.00000000000E+00  0.00000000000E+00 -0.16476198702E+04  0.16476198702E+04  0.50400001928E-02 0. -1.
    10030    2    1    2    0    0  0.00000000000E+00  0.00000000000E+00 -0.61369058095E+02  0.32338706823E+04  0.32332883306E+04 0.  0.
        5    1    3    3  502    0  0.10544799497E+04  0.22682020337E+03 -0.12351193835E+04  0.16397918620E+04  0.46999998093E+01 0. -1.
       -5    1    3    3    0  502 -0.10544799497E+04 -0.22682020337E+03  0.11737503254E+04  0.15940788204E+04  0.46999998093E+01 0.  1.
</event>
<event>
 5   0  0.3671997E-06  0.2949764E+04  0.7818609E-02  0.8258223E-01
       -2   -1    0    0    0  501  0.00000000000E+00  0.00000000000E+00  0.19623108611E+04  0.19623108611E+04  0.25500000920E-02 0.  1.
        2   -1    0    0  501    0  0.00000000000E+00  0.00000000000E+00 -0.11085278269E+04  0.11085278269E+04  0.25500000920E-02 0. -1.
    10030    2    1    2    0    0  0.00000000000E+00  0.00000000000E+00  0.85378303420E+03  0.30708386879E+04  0.29497635122E+04 0.  0.
        2    1    3    3  502    0  0.32547619896E+03  0.19015952534E+03 -0.10575319226E+04  0.11227061808E+04  0.25500000920E-02 0. -1.
       -2    1    3    3    0  502 -0.32547619896E+03 -0.19015952534E+03  0.19113149568E+04  0.19481325071E+04  0.25500000920E-02 0.  1.
</event>
<event>
 5   0  0.1339825E-06  0.3268031E+04  0.7818609E-02  0.8171078E-01
       -1   -1    0    0    0  501  0.00000000000E+00  0.00000000000E+00  0.22572908988E+04  0.22572908988E+04  0.50400001928E-02 0.  1.
        1   -1    0    0  501    0  0.00000000000E+00  0.00000000000E+00 -0.11828364287E+04  0.11828364288E+04  0.50400001928E-02 0. -1.
    10030    2    1    2    0    0  0.00000000000E+00  0.00000000000E+00  0.10744544701E+04  0.34401273276E+04  0.32680305417E+04 0.  0.
        3    1    3    3  502    0  0.14529475377E+04  0.70949984555E+03  0.28910432814E+03  0.16425674722E+04  0.10100000352E+00 0. -1.
       -3    1    3    3    0  502 -0.14529475377E+04 -0.70949984555E+03  0.78535014192E+03  0.17975598554E+04  0.10100000352E+00 0.  1.
</event>
<event>
 5   0  0.1282578E-06  0.3192754E+04  0.7818609E-02  0.8190733E-01
       -1   -1    0    0    0  501  0.00000000000E+00  0.00000000000E+00  0.93730552940E+03  0.93730552942E+03  0.50400001928E-02 0. -1.
        1   -1    0    0  501    0  0.00000000000E+00  0.00000000000E+00 -0.27188779263E+04  0.27188779263E+04  0.50400001928E-02 0.  1.
    10030    2    1    2    0    0  0.00000000000E+00  0.00000000000E+00 -0.17815723969E+04  0.36561834557E+04  0.31927538672E+04 0.  0.
        4    1    3    3  502    0 -0.34252741997E+03  0.15382619077E+04 -0.59918185203E+03  0.16859997730E+04  0.12699999809E+01 0. -1.
       -4    1    3    3    0  502  0.34252741997E+03 -0.15382619077E+04 -0.11823905449E+04  0.19701836827E+04  0.12699999809E+01 0.  1.
</event>
<event>
 5   0  0.3920487E-06  0.3313754E+04  0.7818609E-02  0.8159404E-01
       -2   -1    0    0    0  501  0.00000000000E+00  0.00000000000E+00  0.23006573779E+04  0.23006573779E+04  0.25500000920E-02 0.  1.
        2   -1    0    0  501    0  0.00000000000E+00  0.00000000000E+00 -0.11932424341E+04  0.11932424341E+04  0.25500000920E-02 0. -1.
    10030    2    1    2    0    0  0.00000000000E+00  0.00000000000E+00  0.11074149438E+04  0.34938998121E+04  0.33137543722E+04 0.  0.
        4    1    3    3  502    0 -0.10546163521E+04 -0.51487279976E+03  0.17868753093E+04  0.21378107105E+04  0.12699999809E+01 0.  1.
       -4    1    3    3    0  502  0.10546163521E+04  0.51487279976E+03 -0.67946036551E+03  0.13560891016E+04  0.12699999809E+01 0. -1.
</event>
<event>
 5   0  0.1282578E-06  0.2293560E+04  0.7818609E-02  0.8480465E-01
        1   -1    0    0  501    0  0.00000000000E+00  0.00000000000E+00  0.13103961627E+04  0.13103961627E+04  0.50400001928E-02 0.  1.
       -1   -1    0    0    0  501  0.00000000000E+00  0.00000000000E+00 -0.10035932486E+04  0.10035932486E+04  0.50400001928E-02 0. -1.
    10030    2    1    2    0    0  0.00000000000E+00  0.00000000000E+00  0.30680291410E+03  0.23139894113E+04  0.22935603256E+04 0.  0.
        4    1    3    3  502    0 -0.24082426180E+03  0.46786221046E+03  0.11814039572E+04  0.12932935846E+04  0.12699999809E+01 0.  1.
       -4    1    3    3    0  502  0.24082426180E+03 -0.46786221046E+03 -0.87460104310E+03  0.10206958266E+04  0.12699999809E+01 0. -1.
</event>
<event>
 5   0  0.1282578E-06  0.3326247E+04  0.7818609E-02  0.8156249E-01
        1   -1    0    0  501    0  0.00000000000E+00  0.00000000000E+00  0.12822781436E+04  0.12822781436E+04  0.50400001928E-02 0. -1.
       -1   -1    0    0    0  501  0.00000000000E+00  0.00000000000E+00 -0.21570828694E+04  0.21570828694E+04  0.50400001928E-02 0.  1.
    10030    2    1    2    0    0  0.00000000000E+00  0.00000000000E+00 -0.87480472576E+03  0.34393610130E+04  0.33262472652E+04 0.  0.
        4    1    3    3  502    0  0.68398982733E+03  0.12373433405E+04  0.46823496379E+03  0.14893307961E+04  0.12699999809E+01 0.  1.
       -4    1    3    3    0  502 -0.68398982733E+03 -0.12373433405E+04 -0.13430396895E+04  0.19500302169E+04  0.12699999809E+01 0. -1.
</event>
<event>
 5   0  0.1405389E-06  0.3694305E+04  0.7818609E-02  0.8069225E-01
       -1   -1    0    0    0  501  0.00000000000E+00  0.00000000000E+00  0.13101334861E+04  0.13101334861E+04  0.50400001928E-02 0.  1.
        1   -1    0    0  501    0  0.00000000000E+00  0.00000000000E+00 -0.26042931926E+04  0.26042931926E+04  0.50400001928E-02 0. -1.
    10030    2    1    2    0    0  0.00000000000E+00  0.00000000000E+00 -0.12941597065E+04  0.39144266787E+04  0.36943046541E+04 0.  0.
        1    1    3    3  502    0  0.63328143857E+02  0.11009641139E+04  0.92305057831E+03  0.14381080641E+04  0.50400001928E-02 0.  1.
       -1    1    3    3    0  502 -0.63328143857E+02 -0.11009641139E+04 -0.22172102848E+04  0.24763186146E+04  0.50400001928E-02 0. -1.
</event>
<event>
 5   0  0.4017247E-06  0.3313228E+04  0.7818609E-02  0.8159538E-01
        2   -1    0    0  501    0  0.00000000000E+00  0.00000000000E+00  0.31998142074E+04  0.31998142074E+04  0.25500000920E-02 0. -1.
       -2   -1    0    0    0  501  0.00000000000E+00  0.00000000000E+00 -0.85766565331E+03  0.85766565332E+03  0.25500000920E-02 0.  1.
    10030    2    1    2    0    0  0.00000000000E+00  0.00000000000E+00  0.23421485541E+04  0.40574798607E+04  0.33132284815E+04 0.  0.
        1    1    3    3  502    0  0.18073082311E+03  0.10554547822E+04  0.27190196748E+04  0.29222793193E+04  0.50400001928E-02 0. -1.
       -1    1    3    3    0  502 -0.18073082311E+03 -0.10554547822E+04 -0.37687112074E+03  0.11352005415E+04  0.50400001928E-02 0.  1.
</event>
<event>
 5   0  0.1339825E-06  0.3262104E+04  0.7818609E-02  0.8172606E-01
       -1   -1    0    0    0  501  0.00000000000E+00  0.00000000000E+00  0.25845925967E+04  0.25845925967E+04  0.50400001928E-02 0. -1.
        1   -1    0    0  501    0  0.00000000000E+00  0.00000000000E+00 -0.10293035210E+04  0.10293035210E+04  0.50400001928E-02 0.  1.
    10030    2    1    2    0    0  0.00000000000E+00  0.00000000000E+00  0.15552890757E+04  0.36138961177E+04  0.32621037753E+04 0.  0.
        3    1    3    3  502    0  0.14340334201E+04 -0.66642974205E+03  0.12204347905E+04  0.19975088332E+04  0.10100000352E+00 0.  1.
       -3    1    3    3    0  502 -0.14340334201E+04  0.66642974205E+03  0.33485428525E+03  0.16163872845E+04  0.10100000352E+00 0. -1.
</event>
<event>
 5   0  0.3671997E-06  0.3101192E+04  0.7818609E-02  0.8215411E-01
        2   -1    0    0  501    0  0.00000000000E+00  0.00000000000E+00  0.24628742377E+04  0.24628742377E+04  0.25500000920E-02 0.  1.
       -2   -1    0    0    0  501  0.00000000000E+00  0.00000000000E+00 -0.97623678482E+03  0.97623678482E+03  0.25500000920E-02 0. -1.
    10030    2    1    2    0    0  0.00000000000E+00  0.00000000000E+00  0.14866374528E+04  0.34391110225E+04  0.31011923044E+04 0.  0.
        2    1    3    3  502    0 -0.21476963050E+03  0.80552371820E+03  0.21932035410E+04  0.23463026716E+04  0.25500000920E-02 0.  1.
       -2    1    3    3    0  502  0.21476963050E+03 -0.80552371820E+03 -0.70656608813E+03  0.10928083508E+04  0.25500000920E-02 0. -1.
</event>
<event>
 5   0  0.3896210E-06  0.3543844E+04  0.7818609E-02  0.8103477E-01
        2   -1    0    0  501    0  0.00000000000E+00  0.00000000000E+00  0.22932797432E+04  0.22932797432E+04  0.25500000920E-02 0.  1.
       -2   -1    0    0    0  501  0.00000000000E+00  0.00000000000E+00 -0.13690908701E+04  0.13690908701E+04  0.25500000920E-02 0. -1.
    10030    2    1    2    0    0  0.00000000000E+00  0.00000000000E+00  0.92418887313E+03  0.36623706133E+04  0.35438444429E+04 0.  0.
        3    1    3    3  502    0 -0.27536180325E+03 -0.62288880229E+03 -0.12284324185E+04  0.14045856328E+04  0.10100000352E+00 0. -1.
       -3    1    3    3    0  502  0.27536180325E+03  0.62288880229E+03  0.21526212916E+04  0.22577849805E+04  0.10100000352E+00 0.  1.
</event>
<event>
 5   0  0.1352708E-06  0.2597335E+04  0.7818609E-02  0.8369107E-01
       -1   -1    0    0    0  501  0.00000000000E+00  0.00000000000E+00  0.11020975938E+04  0.11020975938E+04  0.50400001928E-02 0. -1.
        1   -1    0    0  501    0  0.00000000000E+00  0.00000000000E+00 -0.15302981196E+04  0.15302981196E+04  0.50400001928E-02 0.  1.
    10030    2    1    2    0    0  0.00000000000E+00  0.00000000000E+00 -0.42820052572E+03  0.26323957134E+04  0.25973354619E+04 0.  0.
        5    1    3    3  502    0  0.93122111595E+03 -0.50647568402E+03 -0.97444400208E+03  0.14398797132E+04  0.46999998093E+01 0.  1.
       -5    1    3    3    0  502 -0.93122111595E+03  0.50647568402E+03  0.54624347635E+03  0.11925160002E+04  0.46999998093E+01 0. -1.
</event>
<event>
 5   0  0.3920487E-06  0.3334707E+04  0.7818609E-02  0.8154120E-01
        2   -1    0    0  501    0  0.00000000000E+00  0.00000000000E+00  0.23612726367E+04  0.23612726367E+04  0.25500000920E-02 0.  1.
       -2   -1    0    0    0  501  0.00000000000E+00  0.00000000000E+00 -0.11773597881E+04  0.11773597881E+04  0.25500000920E-02 0. -1.
    10030    2    1    2    0    0  0.00000000000E+00  0.00000000000E+00  0.11839128485E+04  0.35386324248E+04  0.33347068544E+04 0.  0.
        4    1    3    3  502    0  0.10012686009E+04 -0.89260784598E+03  0.16428608135E+04  0.21209150957E+04  0.12699999809E+01 0.  1.
       -4    1    3    3    0  502 -0.10012686009E+04  0.89260784598E+03 -0.45894796494E+03  0.14177173291E+04  0.12699999809E+01 0. -1.
</event>
<event>
 5   0  0.3920487E-06  0.3382502E+04  0.7818609E-02  0.8142214E-01
        2   -1    0    0  501    0  0.00000000000E+00  0.00000000000E+00  0.21976782535E+04  0.21976782535E+04  0.25500000920E-02 0. -1.
       -2   -1    0    0    0  501  0.00000000000E+00  0.00000000000E+00 -0.13015236771E+04  0.13015236771E+04  0.25500000920E-02 0.  1.
    10030    2    1    2    0    0  0.00000000000E+00  0.00000000000E+00  0.89615457639E+03  0.34992019305E+04  0.33825021990E+04 0.  0.
        4    1    3    3  502    0 -0.78199769575E+03  0.10972436376E+04 -0.60937538748E+03  0.14787846267E+04  0.12699999809E+01 0. -1.
       -4    1    3    3    0  502  0.78199769575E+03 -0.10972436376E+04  0.15055299639E+04  0.20204173038E+04  0.12699999809E+01 0.  1.
</event>
<event>
 5   0  0.3671997E-06  0.2045632E+04  0.7818609E-02  0.8585579E-01
       -2   -1    0    0    0  501  0.00000000000E+00  0.00000000000E+00  0.86312336770E+03  0.86312336770E+03  0.25500000920E-02 0. -1.
        2   -1    0    0  501    0  0.00000000000E+00  0.00000000000E+00 -0.12120542163E+04  0.12120542163E+04  0.25500000920E-02 0.  1.
    10030    2    1    2    0    0  0.00000000000E+00  0.00000000000E+00 -0.34893084862E+03  0.20751775840E+04  0.20456317528E+04 0.  0.
        2    1    3    3  502    0  0.93086092824E+03 -0.87272191032E+02 -0.59522568943E+03  0.11083375499E+04  0.25500000920E-02 0.  1.
       -2    1    3    3    0  502 -0.93086092824E+03  0.87272191032E+02  0.24629484081E+03  0.96684003417E+03  0.25500000920E-02 0. -1.
</event>
<event>
 5   0  0.1352708E-06  0.2092253E+04  0.7818609E-02  0.8564664E-01
        1   -1    0    0  501    0  0.00000000000E+00  0.00000000000E+00  0.80514395438E+03  0.80514395440E+03  0.50400001928E-02 0.  1.
       -1   -1    0    0    0  501  0.00000000000E+00  0.00000000000E+00 -0.13592357049E+04  0.13592357049E+04  0.50400001928E-02 0. -1.
    10030    2    1    2    0    0  0.00000000000E+00  0.00000000000E+00 -0.55409175055E+03  0.21643796593E+04  0.20922527672E+04 0.  0.
        5    1    3    3  502    0  0.69338979882E+00  0.90085191911E+03  0.27309911377E+03  0.94135002889E+03  0.46999998093E+01 0.  1.
       -5    1    3    3    0  502 -0.69338979882E+00 -0.90085191911E+03 -0.82719086431E+03  0.12230296304E+04  0.46999998093E+01 0. -1.
</event>
<event>
 5   0  0.3896210E-06  0.3215446E+04  0.7818609E-02  0.8184750E-01
        2   -1    0    0  501    0  0.00000000000E+00  0.00000000000E+00  0.18253143869E+04  0.18253143870E+04  0.25500000920E-02 0.  1.
       -2   -1    0    0    0  501  0.00000000000E+00  0.00000000000E+00 -0.14160697258E+04  0.14160697258E+04  0.25500000920E-02 0. -1.
    10030    2    1    2    0    0  0.00000000000E+00  0.00000000000E+00  0.40924466114E+03  0.32413841128E+04  0.32154455016E+04 0.  0.
        3    1    3    3  502    0  0.33326522045E+03  0.13323559135E+04  0.10471482286E+04  0.17270661280E+04  0.10100000352E+00 0.  1.
       -3    1    3    3    0  502 -0.33326522045E+03 -0.13323559135E+04 -0.63790356747E+03  0.15143179848E+04  0.10100000352E+00 0. -1.
</event>
<event>
 5   0  0.1259875E-06  0.2357174E+04  0.7818609E-02  0.8455713E-01
        3   -1    0    0  501    0  0.00000000000E+00  0.00000000000E+00  0.16720367867E+04  0.16720367898E+04  0.10100000352E+00 0.  1.
       -3   -1    0    0    0  501  0.00000000000E+00  0.00000000000E+00 -0.83076377926E+03  0.83076378540E+03  0.10100000352E+00 0. -1.
    10030    2    1    2    0    0  0.00000000000E+00  0.00000000000E+00  0.84127300747E+03  0.25028005752E+04  0.23571742503E+04 0.  0.
        1    1    3    3  502    0  0.61100011963E+03  0.99478150585E+03  0.24891603853E+03  0.11936794313E+04  0.50400001928E-02 0. -1.
       -1    1    3    3    0  502 -0.61100011963E+03 -0.99478150585E+03  0.59235696894E+03  0.13091211438E+04  0.50400001928E-02 0.  1.
</event>
<event>
 5   0  0.1339825E-06  0.3318070E+04  0.7818609E-02  0.8158313E-01
        1   -1    0    0  501    0  0.00000000000E+00  0.00000000000E+00  0.21076982217E+04  0.21076982217E+04  0.50400001928E-02 0. -1.
       -1   -1    0    0    0  501  0.00000000000E+00  0.00000000000E+00 -0.13058782579E+04  0.13058782579E+04  0.50400001928E-02 0.  1.
    10030    2    1    2    0    0  0.00000000000E+00  0.00000000000E+00  0.80181996380E+03  0.34135764797E+04  0.33180700909E+04 0.  0.
        3    1    3    3  502    0  0.12350702967E+04  0.50408706547E+03 -0.61383529154E+03  0.14684332408E+04  0.10100000352E+00 0.  1.
       -3    1    3    3    0  502 -0.12350702967E+04 -0.50408706547E+03  0.14156552553E+04  0.19451432388E+04  0.10100000352E+00 0. -1.
</event>
<event>
 5   0  0.1259875E-06  0.3306014E+04  0.7818609E-02  0.8161367E-01
        3   -1    0    0  501    0  0.00000000000E+00  0.00000000000E+00  0.18691259623E+04  0.18691259650E+04  0.10100000352E+00 0. -1.
       -3   -1    0    0    0  501  0.00000000000E+00  0.00000000000E+00 -0.14618765712E+04  0.14618765747E+04  0.10100000352E+00 0.  1.
    10030    2    1    2    0    0  0.00000000000E+00  0.00000000000E+00  0.40724939105E+03  0.33310025397E+04  0.33060135893E+04 0.  0.
        5    1    3    3  502    0  0.10102772820E+04 -0.85014810946E+03  0.12056251065E+04  0.17880061471E+04  0.46999998093E+01 0. -1.
       -5    1    3    3    0  502 -0.10102772820E+04  0.85014810946E+03 -0.79837571544E+03  0.15429963926E+04  0.46999998093E+01 0.  1.
</event>
<event>
 5   0  0.3920487E-06  0.3074824E+04  0.7818609E-02  0.8222681E-01
       -2   -1    0    0    0  501  0.00000000000E+00  0.00000000000E+00  0.99613436873E+03  0.99613436874E+03  0.25500000920E-02 0.  1.
        2   -1    0    0  501    0  0.00000000000E+00  0.00000000000E+00 -0.23728079169E+04  0.23728079169E+04  0.25500000920E-02 0. -1.
    10030    2    1    2    0    0  0.00000000000E+00  0.00000000000E+00 -0.13766735482E+04  0.33689422857E+04  0.30748239081E+04 0.  0.
        4    1    3    3  502    0  0.67404905063E+03 -0.12911681989E+04 -0.14914992905E+03  0.14641395954E+04  0.12699999809E+01 0.  1.
       -4    1    3    3    0  502 -0.67404905063E+03  0.12911681989E+04 -0.12275236192E+04  0.19048026903E+04  0.12699999809E+01 0. -1.
</event>
<event>
 5   0  0.1282578E-06  0.3292398E+04  0.7818609E-02  0.8164832E-01
        1   -1    0    0  501    0  0.00000000000E+00  0.00000000000E+00  0.19062088395E+04  0.19062088395E+04  0.50400001928E-02 0. -1.
       -1   -1    0    0    0  501  0.00000000000E+00  0.00000000000E+00 -0.14216551325E+04  0.14216551325E+04  0.50400001928E-02 0.  1.
    10030    2    1    2    0    0  0.00000000000E+00  0.00000000000E+00  0.48455370702E+03  0.33278639720E+04  0.32923982629E+04 0.  0.
        4    1    3    3  502    0  0.16210517465E+04  0.26250498007E+03  0.35863571237E+03  0.16808744202E+04  0.12699999809E+01 0. -1.
       -4    1    3    3    0  502 -0.16210517465E+04 -0.26250498007E+03  0.12591799464E+03  0.16469895518E+04  0.12699999809E+01 0.  1.
</event>
<event>
 5   0  0.1339825E-06  0.3177094E+04  0.7818609E-02  0.8194893E-01
       -1   -1    0    0    0  501  0.00000000000E+00  0.00000000000E+00  0.95696840834E+03  0.95696840835E+03  0.50400001928E-02 0.  1.
        1   -1    0    0  501    0  0.00000000000E+00  0.00000000000E+00 -0.26369538072E+04  0.26369538072E+04  0.50400001928E-02 0. -1.
    10030    2    1    2    0    0  0.00000000000E+00  0.00000000000E+00 -0.16799853989E+04  0.35939222156E+04  0.31770939475E+04 0.  0.
        3    1    3    3  502    0 -0.15507270262E+03  0.10608885664E+04 -0.21659330373E+04  0.24167743018E+04  0.10100000352E+00 0. -1.
       -3    1    3    3    0  502  0.15507270262E+03 -0.10608885664E+04  0.48594763842E+03  0.11771479138E+04  0.10100000352E+00 0.  1.
</event>
<event>
 5   0  0.3671997E-06  0.3312876E+04  0.7818609E-02  0.8159627E-01
       -2   -1    0    0    0  501  0.00000000000E+00  0.00000000000E+00  0.21611465091E+04  0.21611465091E+04  0.25500000920E-02 0.  1.
        2   -1    0    0  501    0  0.00000000000E+00  0.00000000000E+00 -0.12695978650E+04  0.12695978650E+04  0.25500000920E-02 0. -1.
    10030    2    1    2    0    0  0.00000000000E+00  0.00000000000E+00  0.89154864410E+03  0.34307443740E+04  0.33128760881E+04 0.  0.
        2    1    3    3  502    0 -0.63049700641E+03 -0.10159735303E+04  0.16328830149E+04  0.20238665049E+04  0.25500000920E-02 0.  1.
       -2    1    3    3    0  502  0.63049700641E+03  0.10159735303E+04 -0.74133437079E+03  0.14068778691E+04  0.25500000920E-02 0. -1.
</event>
<event>
 5   0  0.1339825E-06  0.2088106E+04  0.7818609E-02  0.8566501E-01
       -1   -1    0    0    0  501  0.00000000000E+00  0.00000000000E+00  0.10418444241E+04  0.10418444241E+04  0.50400001928E-02 0. -1.
        1   -1    0    0  501    0  0.00000000000E+00  0.00000000000E+00 -0.10462664782E+04  0.10462664782E+04  0.50400001928E-02 0.  1.
    10030    2    1    2    0    0  0.00000000000E+00  0.00000000000E+00 -0.44220541220E+01  0.20881109024E+04  0.20881062200E+04 0.  0.
        3    1    3    3  502    0 -0.84843700444E+03  0.36672199468E+03  0.48329651310E+03  0.10430272775E+04  0.10100000352E+00 0.  1.
       -3    1    3    3    0  502  0.84843700444E+03 -0.36672199468E+03 -0.48771856722E+03  0.10450836248E+04  0.10100000352E+00 0. -1.
</event>
<event>
 5   0  0.3920487E-06  0.3218837E+04  0.7818609E-02  0.8183860E-01
        2   -1    0    0  501    0  0.00000000000E+00  0.00000000000E+00  0.20524836541E+04  0.20524836541E+04  0.25500000920E-02 0.  1.
       -2   -1    0    0    0  501  0.00000000000E+00  0.00000000000E+00 -0.12619965091E+04  0.12619965091E+04  0.25500000920E-02 0. -1.
    10030    2    1    2    0    0  0.00000000000E+00  0.00000000000E+00  0.79048714502E+03  0.33144801632E+04  0.32188365640E+04 0.  0.
        4    1    3    3  502    0  0.11145199960E+03  0.15831172858E+04  0.67066784497E+03  0.17229274099E+04  0.12699999809E+01 0.  1.
       -4    1    3    3    0  502 -0.11145199960E+03 -0.15831172858E+04  0.11981930005E+03  0.15915527532E+04  0.12699999809E+01 0. -1.
</event>
<event>
 5   0  0.4017247E-06  0.2691482E+04  0.7818609E-02  0.8337774E-01
        2   -1    0    0  501    0  0.00000000000E+00  0.00000000000E+00  0.13365342262E+04  0.13365342262E+04  0.25500000920E-02 0. -1.
       -2   -1    0    0    0  501  0.00000000000E+00  0.00000000000E+00 -0.13550114292E+04  0.13550114292E+04  0.25500000920E-02 0.  1.
    10030    2    1    2    0    0  0.00000000000E+00  0.00000000000E+00 -0.18477203010E+02  0.26915456554E+04  0.26914822326E+04 0.  0.
        1    1    3    3  502    0 -0.96571373511E+03  0.78956555344E+03  0.49575089216E+03  0.13423061232E+04  0.50400001928E-02 0. -1.
       -1    1    3    3    0  502  0.96571373511E+03 -0.78956555344E+03 -0.51422809517E+03  0.13492395322E+04  0.50400001928E-02 0.  1.
</event>
<event>
 5   0  0.4017247E-06  0.3322030E+04  0.7818609E-02  0.8157312E-01
       -2   -1    0    0    0  501  0.00000000000E+00  0.00000000000E+00  0.20129611414E+04  0.20129611414E+04  0.25500000920E-02 0.  1.
        2   -1    0    0  501    0  0.00000000000E+00  0.00000000000E+00 -0.13706030617E+04  0.13706030617E+04  0.25500000920E-02 0. -1.
    10030    2    1    2    0    0  0.00000000000E+00  0.00000000000E+00  0.64235807969E+03  0.33835642030E+04  0.33220299236E+04 0.  0.
        1    1    3    3  502    0  0.11451971477E+04  0.46707947980E+03  0.14504685405E+04  0.19061738469E+04  0.50400001928E-02 0.  1.
       -1    1    3    3    0  502 -0.11451971477E+04 -0.46707947980E+03 -0.80811046080E+03  0.14773903562E+04  0.50400001928E-02 0. -1.
</event>
<event>
 5   0  0.3896210E-06  0.3404909E+04  0.7818609E-02  0.8136702E-01
        2   -1    0    0  501    0  0.00000000000E+00  0.00000000000E+00  0.14003065909E+04  0.14003065909E+04  0.25500000920E-02 0.  1.
       -2   -1    0    0    0  501  0.00000000000E+00  0.00000000000E+00 -0.20697979641E+04  0.20697979641E+04  0.25500000920E-02 0. -1.
    10030    2    1    2    0    0  0.00000000000E+00  0.00000000000E+00 -0.66949137325E+03  0.34701045550E+04  0.34049092387E+04 0.  0.
        3    1    3    3  502    0  0.16492388555E+04 -0.22696198583E+03 -0.69772700058E+03  0.18050826914E+04  0.10100000352E+00 0. -1.
       -3    1    3    3    0  502 -0.16492388555E+04  0.22696198583E+03  0.28235627332E+02  0.16650218636E+04  0.10100000352E+00 0.  1.
</event>
<event>
 5   0  0.3812379E-06  0.2457631E+04  0.7818609E-02  0.8418237E-01
        2   -1    0    0  501    0  0.00000000000E+00  0.00000000000E+00  0.10417034893E+04  0.10417034893E+04  0.25500000920E-02 0.  1.
       -2   -1    0    0    0  501  0.00000000000E+00  0.00000000000E+00 -0.14495369455E+04  0.14495369455E+04  0.25500000920E-02 0. -1.
    10030    2    1    2    0    0  0.00000000000E+00  0.00000000000E+00 -0.40783345624E+03  0.24912404348E+04  0.24576311310E+04 0.  0.
        5    1    3    3  502    0 -0.48848541344E+03  0.94291323096E+03 -0.83064552045E+03  0.13482200974E+04  0.46999998093E+01 0. -1.
       -5    1    3    3    0  502  0.48848541344E+03 -0.94291323096E+03  0.42281206421E+03  0.11430203375E+04  0.46999998093E+01 0.  1.
</event>
<event>
 5   0  0.1339825E-06  0.3148875E+04  0.7818609E-02  0.8202451E-01
       -1   -1    0    0    0  501  0.00000000000E+00  0.00000000000E+00  0.90184609124E+03  0.90184609126E+03  0.50400001928E-02 0.  1.
        1   -1    0    0  501    0  0.00000000000E+00  0.00000000000E+00 -0.27486431248E+04  0.27486431248E+04  0.50400001928E-02 0. -1.
    10030    2    1    2    0    0  0.00000000000E+00  0.00000000000E+00 -0.18467970336E+04  0.36504892161E+04  0.31488747567E+04 0.  0.
        3    1    3    3  502    0 -0.12229677043E+04 -0.66800401438E+03 -0.73881306315E+02  0.13954704678E+04  0.10100000352E+00 0.  1.
       -3    1    3    3    0  502  0.12229677043E+04  0.66800401438E+03 -0.17729157272E+04  0.22550187483E+04  0.10100000352E+00 0. -1.
</event>
<event>
 5   0  0.1282578E-06  0.3197663E+04  0.7818609E-02  0.8189435E-01
        1   -1    0    0  501    0  0.00000000000E+00  0.00000000000E+00  0.20846106830E+04  0.20846106830E+04  0.50400001928E-02 0.  1.
       -1   -1    0    0    0  501  0.00000000000E+00  0.00000000000E+00 -0.12262542995E+04  0.12262542996E+04  0.50400001928E-02 0. -1.
    10030    2    1    2    0    0  0.00000000000E+00  0.00000000000E+00  0.85835638344E+03  0.33108649825E+04  0.31976634050E+04 0.  0.
        4    1    3    3  502    0  0.14280270995E+04 -0.35571587863E+03 -0.21781594475E+03  0.14876964012E+04  0.12699999809E+01 0. -1.
       -4    1    3    3    0  502 -0.14280270995E+04  0.35571587863E+03  0.10761723282E+04  0.18231685814E+04  0.12699999809E+01 0.  1.
</event>
<event>
 5   0  0.3920487E-06  0.3299809E+04  0.7818609E-02  0.8162944E-01
        2   -1    0    0  501    0  0.00000000000E+00  0.00000000000E+00  0.22176646391E+04  0.22176646391E+04  0.25500000920E-02 0.  1.
       -2   -1    0    0    0  501  0.00000000000E+00  0.00000000000E+00 -0.12275005276E+04  0.12275005276E+04  0.25500000920E-02 0. -1.
    10030    2    1    2    0    0  0.00000000000E+00  0.00000000000E+00  0.99016411146E+03  0.34451651667E+04  0.32998087911E+04 0.  0.
        4    1    3    3  502    0  0.19569416397E+03  0.10842204780E+04 -0.78716797373E+03  0.13540551254E+04  0.12699999809E+01 0. -1.
       -4    1    3    3    0  502 -0.19569416397E+03 -0.10842204780E+04  0.17773320852E+04  0.20911100413E+04  0.12699999809E+01 0.  1.
</event>
<event>
 5   0  0.1339825E-06  0.3375130E+04  0.7818609E-02  0.8144037E-01
        1   -1    0    0  501    0  0.00000000000E+00  0.00000000000E+00  0.20762513790E+04  0.20762513790E+04  0.50400001928E-02 0.  1.
       -1   -1    0    0    0  501  0.00000000000E+00  0.00000000000E+00 -0.13716431179E+04  0.13716431179E+04  0.50400001928E-02 0. -1.
    10030    2    1    2    0    0  0.00000000000E+00  0.00000000000E+00  0.70460826108E+03  0.34478944970E+04  0.33751301694E+04 0.  0.
        3    1    3    3  502    0  0.11173959906E+04  0.55676573554E+03  0.15122635448E+04  0.19609953909E+04  0.10100000352E+00 0.  1.
       -3    1    3    3    0  502 -0.11173959906E+04 -0.55676573554E+03 -0.80765528369E+03  0.14868991061E+04  0.10100000352E+00 0. -1.
</event>
<event>
 5   0  0.1391878E-06  0.2294523E+04  0.7818609E-02  0.8480084E-01
        1   -1    0    0  501    0  0.00000000000E+00  0.00000000000E+00  0.20527013914E+04  0.20527013914E+04  0.50400001928E-02 0. -1.
       -1   -1    0    0    0  501  0.00000000000E+00  0.00000000000E+00 -0.64120806268E+03  0.64120806270E+03  0.50400001928E-02 0.  1.
    10030    2    1    2    0    0  0.00000000000E+00  0.00000000000E+00  0.14114933287E+04  0.26939094541E+04  0.22945227674E+04 0.  0.
        2    1    3    3  502    0  0.14154668029E+03  0.47818628653E+03 -0.50729808367E+03  0.71137116404E+03  0.25500000920E-02 0.  1.
       -2    1    3    3    0  502 -0.14154668029E+03 -0.47818628653E+03  0.19187914124E+04  0.19825382901E+04  0.25500000920E-02 0. -1.
</event>
<event>
 5   0  0.1339825E-06  0.2038814E+04  0.7818609E-02  0.8588686E-01
       -1   -1    0    0    0  501  0.00000000000E+00  0.00000000000E+00  0.37140705378E+03  0.37140705381E+03  0.50400001928E-02 0. -1.
        1   -1    0    0  501    0  0.00000000000E+00  0.00000000000E+00 -0.27979817693E+04  0.27979817693E+04  0.50400001928E-02 0.  1.
    10030    2    1    2    0    0  0.00000000000E+00  0.00000000000E+00 -0.24265747155E+04  0.31693888231E+04  0.20388135427E+04 0.  0.
        3    1    3    3  502    0 -0.31379633187E+03  0.91212203995E+03 -0.70063444334E+03  0.11921926803E+04  0.10100000352E+00 0.  1.
       -3    1    3    3    0  502  0.31379633187E+03 -0.91212203995E+03 -0.17259402721E+04  0.19771961427E+04  0.10100000352E+00 0. -1.
</event>
<event>
 5   0  0.1339825E-06  0.3326879E+04  0.7818609E-02  0.8156089E-01
        1   -1    0    0  501    0  0.00000000000E+00  0.00000000000E+00  0.21589651043E+04  0.21589651043E+04  0.50400001928E-02 0. -1.
       -1   -1    0    0    0  501  0.00000000000E+00  0.00000000000E+00 -0.12816471432E+04  0.12816471432E+04  0.50400001928E-02 0.  1.
    10030    2    1    2    0    0  0.00000000000E+00  0.00000000000E+00  0.87731796105E+03  0.34406122475E+04  0.33268792934E+04 0.  0.
        3    1    3    3  502    0 -0.19944461023E+03  0.10256778281E+04 -0.89989836670E+03  0.13789888470E+04  0.10100000352E+00 0.  1.
       -3    1    3    3    0  502  0.19944461023E+03 -0.10256778281E+04  0.17772163278E+04  0.20616234005E+04  0.10100000352E+00 0. -1.
</event>
<event>
 5   0  0.1352708E-06  0.3036336E+04  0.7818609E-02  0.8233430E-01
        1   -1    0    0  501    0  0.00000000000E+00  0.00000000000E+00  0.17276645340E+04  0.17276645340E+04  0.50400001928E-02 0. -1.
       -1   -1    0    0    0  501  0.00000000000E+00  0.00000000000E+00 -0.13340751387E+04  0.13340751387E+04  0.50400001928E-02 0.  1.
    10030    2    1    2    0    0  0.00000000000E+00  0.00000000000E+00  0.39358939527E+03  0.30617396727E+04  0.30363361492E+04 0.  0.
        5    1    3    3  502    0 -0.36303104529E+03 -0.26308730619E+03  0.16593800833E+04  0.17188865063E+04  0.46999998093E+01 0. -1.
       -5    1    3    3    0  502  0.36303104529E+03  0.26308730619E+03 -0.12657906881E+04  0.13428531664E+04  0.46999998093E+01 0.  1.
</event>
<event>
 5   0  0.1391878E-06  0.3244388E+04  0.7818609E-02  0.8177192E-01
       -1   -1    0    0    0  501  0.00000000000E+00  0.00000000000E+00  0.13286280885E+04  0.13286280885E+04  0.50400001928E-02 0.  1.
        1   -1    0    0  501    0  0.00000000000E+00  0.00000000000E+00 -0.19806240059E+04  0.19806240059E+04  0.50400001928E-02 0. -1.
    10030    2    1    2    0    0  0.00000000000E+00  0.00000000000E+00 -0.65199591743E+03  0.33092520944E+04  0.32443875768E+04 0.  0.
        2    1    3    3  502    0 -0.13913930457E+02 -0.11050453455E+04  0.88525969562E+03  0.14159814765E+04  0.25500000920E-02 0.  1.
       -2    1    3    3    0  502  0.13913930457E+02  0.11050453455E+04 -0.15372556131E+04  0.18932706180E+04  0.25500000920E-02 0. -1.
</event>
<event>
 5   0  0.1391878E-06  0.3276562E+04  0.7818609E-02  0.8168885E-01
       -1   -1    0    0    0  501  0.00000000000E+00  0.00000000000E+00  0.14365427503E+04  0.14365427503E+04  0.50400001928E-02 0. -1.
        1   -1    0    0  501    0  0.00000000000E+00  0.00000000000E+00 -0.18683503878E+04  0.18683503879E+04  0.50400001928E-02 0.  1.
    10030    2    1    2    0    0  0.00000000000E+00  0.00000000000E+00 -0.43180763755E+03  0.33048931382E+04  0.32765623478E+04 0.  0.
        2    1    3    3  502    0 -0.19699842960E+03 -0.51259370408E+03 -0.17727536972E+04  0.18558600048E+04  0.25500000920E-02 0.  1.
       -2    1    3    3    0  502  0.19699842960E+03  0.51259370408E+03  0.13409460596E+04  0.14490331333E+04  0.25500000920E-02 0. -1.
</event>
<event>
 5   0  0.3812379E-06  0.3329695E+04  0.7818609E-02  0.8155380E-01
        2   -1    0    0  501    0  0.00000000000E+00  0.00000000000E+00  0.28173914445E+04  0.28173914445E+04  0.25500000920E-02 0. -1.
       -2   -1    0    0    0  501  0.00000000000E+00  0.00000000000E+00 -0.98378873026E+03  0.98378873026E+03  0.25500000920E-02 0.  1.
    10030    2    1    2    0    0  0.00000000000E+00  0.00000000000E+00  0.18336027143E+04  0.38011801748E+04  0.33296954527E+04 0.  0.
        5    1    3    3  502    0 -0.40483101769E+03  0.15928432246E+04  0.61334577031E+03  0.17542100259E+04  0.46999998093E+01 0.  1.
       -5    1    3    3    0  502  0.40483101769E+03 -0.15928432246E+04  0.12202569440E+04  0.20469701489E+04  0.46999998093E+01 0. -1.
</event>
<event>
 5   0  0.1339825E-06  0.3329766E+04  0.7818609E-02  0.8155363E-01
        1   -1    0    0  501    0  0.00000000000E+00  0.00000000000E+00  0.13764794470E+04  0.13764794471E+04  0.50400001928E-02 0.  1.
       -1   -1    0    0    0  501  0.00000000000E+00  0.00000000000E+00 -0.20137133747E+04  0.20137133747E+04  0.50400001928E-02 0. -1.
    10030    2    1    2    0    0  0.00000000000E+00  0.00000000000E+00 -0.63723392766E+03  0.33901928218E+04  0.33297658011E+04 0.  0.
        3    1    3    3  502    0  0.79344988479E+03 -0.55863165133E+03  0.10587838822E+04  0.14361947504E+04  0.10100000352E+00 0.  1.
       -3    1    3    3    0  502 -0.79344988479E+03  0.55863165133E+03 -0.16960178099E+04  0.19539980714E+04  0.10100000352E+00 0. -1.
</event>
<event>
 5   0  0.3812379E-06  0.2367134E+04  0.7818609E-02  0.8451912E-01
        2   -1    0    0  501    0  0.00000000000E+00  0.00000000000E+00  0.13718977978E+04  0.13718977978E+04  0.25500000920E-02 0.  1.
       -2   -1    0    0    0  501  0.00000000000E+00  0.00000000000E+00 -0.10210894425E+04  0.10210894425E+04  0.25500000920E-02 0. -1.
    10030    2    1    2    0    0  0.00000000000E+00  0.00000000000E+00  0.35080835530E+03  0.23929872403E+04  0.23671335894E+04 0.  0.
        5    1    3    3  502    0 -0.24280905409E+03  0.30405501181E+03 -0.95457076784E+03  0.10308409808E+04  0.46999998093E+01 0. -1.
       -5    1    3    3    0  502  0.24280905409E+03 -0.30405501181E+03  0.13053791231E+04  0.13621462594E+04  0.46999998093E+01 0.  1.
</event>
<event>
 5   0  0.1339825E-06  0.3300366E+04  0.7818609E-02  0.8162802E-01
       -1   -1    0    0    0  501  0.00000000000E+00  0.00000000000E+00  0.16369012638E+04  0.16369012638E+04  0.50400001928E-02 0.  1.
        1   -1    0    0  501    0  0.00000000000E+00  0.00000000000E+00 -0.16635726527E+04  0.16635726527E+04  0.50400001928E-02 0. -1.
    10030    2    1    2    0    0  0.00000000000E+00  0.00000000000E+00 -0.26671388930E+02  0.33004739165E+04  0.33003661479E+04 0.  0.
        3    1    3    3  502    0  0.15543218978E+04  0.54755859133E+03 -0.99170859135E+02  0.16509305989E+04  0.10100000352E+00 0.  1.
       -3    1    3    3    0  502 -0.15543218978E+04 -0.54755859133E+03  0.72499470205E+02  0.16495433175E+04  0.10100000352E+00 0. -1.
</event>
<event>
 5   0  0.3920487E-06  0.3149381E+04  0.7818609E-02  0.8202315E-01
       -2   -1    0    0    0  501  0.00000000000E+00  0.00000000000E+00  0.16863084144E+04  0.16863084144E+04  0.25500000920E-02 0. -1.
        2   -1    0    0  501    0  0.00000000000E+00  0.00000000000E+00 -0.14704602706E+04  0.14704602706E+04  0.25500000920E-02 0.  1.
    10030    2    1    2    0    0  0.00000000000E+00  0.00000000000E+00  0.21584814385E+03  0.31567686850E+04  0.31493805914E+04 0.  0.
        4    1    3    3  502    0  0.97047095561E+03  0.77513946321E+03 -0.86233062045E+03  0.15120419224E+04  0.12699999809E+01 0.  1.
       -4    1    3    3    0  502 -0.97047095561E+03 -0.77513946321E+03  0.10781787643E+04  0.16447267627E+04  0.12699999809E+01 0. -1.
</event>
<event>
 5   0  0.1282578E-06  0.2017493E+04  0.7818609E-02  0.8598485E-01
        1   -1    0    0  501    0  0.00000000000E+00  0.00000000000E+00  0.14690498508E+04  0.14690498508E+04  0.50400001928E-02 0.  1.
       -1   -1    0    0    0  501  0.00000000000E+00  0.00000000000E+00 -0.69267218496E+03  0.69267218497E+03  0.50400001928E-02 0. -1.
    10030    2    1    2    0    0  0.00000000000E+00  0.00000000000E+00  0.77637766584E+03  0.21617220358E+04  0.20174934647E+04 0.  0.
        4    1    3    3  502    0  0.68534966874E+03  0.28117102238E+03 -0.34545416633E+03  0.81737476485E+03  0.12699999809E+01 0. -1.
       -4    1    3    3    0  502 -0.68534966874E+03 -0.28117102238E+03  0.11218318322E+04  0.13443472709E+04  0.12699999809E+01 0.  1.
</event>
<event>
 5   0  0.3920487E-06  0.3288962E+04  0.7818609E-02  0.8165710E-01
       -2   -1    0    0    0  501  0.00000000000E+00  0.00000000000E+00  0.12887544560E+04  0.12887544560E+04  0.25500000920E-02 0. -1.
        2   -1    0    0  501    0  0.00000000000E+00  0.00000000000E+00 -0.20983964215E+04  0.20983964215E+04  0.25500000920E-02 0.  1.
    10030    2    1    2    0    0  0.00000000000E+00  0.00000000000E+00 -0.80964196547E+03  0.33871508775E+04  0.32889619874E+04 0.  0.
        4    1    3    3  502    0 -0.30616546185E+03  0.16144619198E+04 -0.33894617334E+03  0.16778291634E+04  0.12699999809E+01 0.  1.
       -4    1    3    3    0  502  0.30616546185E+03 -0.16144619198E+04 -0.47069579212E+03  0.17093217140E+04  0.12699999809E+01 0. -1.
</event>
<event>
 5   0  0.3671997E-06  0.3274043E+04  0.7818609E-02  0.8169532E-01
        2   -1    0    0  501    0  0.00000000000E+00  0.00000000000E+00  0.24197799289E+04  0.24197799289E+04  0.25500000920E-02 0.  1.
       -2   -1    0    0    0  501  0.00000000000E+00  0.00000000000E+00 -0.11074721223E+04  0.11074721223E+04  0.25500000920E-02 0. -1.
    10030    2    1    2    0    0  0.00000000000E+00  0.00000000000E+00  0.13123078066E+04  0.35272520512E+04  0.32740426469E+04 0.  0.
        2    1    3    3  502    0 -0.88612179230E+03  0.11536247903E+04 -0.15276646821E+03  0.14626686506E+04  0.25500000920E-02 0. -1.
       -2    1    3    3    0  502  0.88612179230E+03 -0.11536247903E+04  0.14650742748E+04  0.20645834007E+04  0.25500000920E-02 0.  1.
</event>
<event>
 5   0  0.1405389E-06  0.3348593E+04  0.7818609E-02  0.8150640E-01
        1   -1    0    0  501    0  0.00000000000E+00  0.00000000000E+00  0.20512197276E+04  0.20512197276E+04  0.50400001928E-02 0.  1.
       -1   -1    0    0    0  501  0.00000000000E+00  0.00000000000E+00 -0.13666353298E+04  0.13666353298E+04  0.50400001928E-02 0. -1.
    10030    2    1    2    0    0  0.00000000000E+00  0.00000000000E+00  0.68458439777E+03  0.34178550574E+04  0.33485933458E+04 0.  0.
        1    1    3    3  502    0  0.65545012913E+03  0.20814072179E+03 -0.12158250066E+04  0.13968421094E+04  0.50400001928E-02 0. -1.
       -1    1    3    3    0  502 -0.65545012913E+03 -0.20814072179E+03  0.19004094044E+04  0.20210129480E+04  0.50400001928E-02 0.  1.
</event>
<event>
 5   0  0.1259875E-06  0.2533552E+04  0.7818609E-02  0.8391129E-01
       -3   -1    0    0    0  501  0.00000000000E+00  0.00000000000E+00  0.48652789830E+03  0.48652790878E+03  0.10100000352E+00 0.  1.
        3   -1    0    0  501    0  0.00000000000E+00  0.00000000000E+00 -0.32983128735E+04  0.32983128750E+04  0.10100000352E+00 0. -1.
    10030    2    1    2    0    0  0.00000000000E+00  0.00000000000E+00 -0.28117849752E+04  0.37848407838E+04  0.25335518570E+04 0.  0.
        5    1    3    3  502    0  0.80799976287E+03 -0.52765488817E+03 -0.26318050314E+04  0.28031594873E+04  0.46999998093E+01 0. -1.
       -5    1    3    3    0  502 -0.80799976287E+03  0.52765488817E+03 -0.17997994379E+03  0.98168129654E+03  0.46999998093E+01 0.  1.
</event>
<event>
 5   0  0.1405389E-06  0.3249151E+04  0.7818609E-02  0.8175956E-01
        1   -1    0    0  501    0  0.00000000000E+00  0.00000000000E+00  0.21264019650E+04  0.21264019650E+04  0.50400001928E-02 0. -1.
       -1   -1    0    0    0  501  0.00000000000E+00  0.00000000000E+00 -0.12411788052E+04  0.12411788052E+04  0.50400001928E-02 0.  1.
    10030    2    1    2    0    0  0.00000000000E+00  0.00000000000E+00  0.88522315986E+03  0.33675807702E+04  0.32491506892E+04 0.  0.
        1    1    3    3  502    0 -0.22134827538E+03 -0.13802020050E+03  0.21045546089E+04  0.21206590335E+04  0.50400001928E-02 0. -1.
       -1    1    3    3    0  502  0.22134827538E+03  0.13802020050E+03 -0.12193314490E+04  0.12469217367E+04  0.50400001928E-02 0.  1.
</event>
<event>
 5   0  0.3812379E-06  0.2965813E+04  0.7818609E-02  0.8253561E-01
       -2   -1    0    0    0  501  0.00000000000E+00  0.00000000000E+00  0.11782659041E+04  0.11782659041E+04  0.25500000920E-02 0. -1.
        2   -1    0    0  501    0  0.00000000000E+00  0.00000000000E+00 -0.18663117403E+04  0.18663117403E+04  0.25500000920E-02 0.  1.
    10030    2    1    2    0    0  0.00000000000E+00  0.00000000000E+00 -0.68804583624E+03  0.30445776444E+04  0.29658128666E+04 0.  0.
        5    1    3    3  502    0  0.79733506666E+03 -0.11883433953E+04  0.54997996488E+02  0.14321138584E+04  0.46999998093E+01 0.  1.
       -5    1    3    3    0  502 -0.79733506666E+03  0.11883433953E+04 -0.74304383273E+03  0.16124637860E+04  0.46999998093E+01 0. -1.
</event>
<event>
 5   0  0.3896210E-06  0.2786214E+04  0.7818609E-02  0.8307561E-01
        2   -1    0    0  501    0  0.00000000000E+00  0.00000000000E+00  0.28549857055E+04  0.28549857055E+04  0.25500000920E-02 0. -1.
       -2   -1    0    0    0  501  0.00000000000E+00  0.00000000000E+00 -0.67977461370E+03  0.67977461370E+03  0.25500000920E-02 0.  1.
    10030    2    1    2    0    0  0.00000000000E+00  0.00000000000E+00  0.21752110918E+04  0.35347603192E+04  0.27862137787E+04 0.  0.
        3    1    3    3  502    0  0.15190535714E+03  0.34364613737E+03  0.27894935627E+04  0.28146833307E+04  0.10100000352E+00 0. -1.
       -3    1    3    3    0  502 -0.15190535714E+03 -0.34364613737E+03 -0.61428247087E+03  0.72007698858E+03  0.10100000352E+00 0.  1.
</event>
<event>
 5   0  0.3812379E-06  0.2856098E+04  0.7818609E-02  0.8286061E-01
        2   -1    0    0  501    0  0.00000000000E+00  0.00000000000E+00  0.16634179094E+04  0.16634179094E+04  0.25500000920E-02 0.  1.
       -2   -1    0    0    0  501  0.00000000000E+00  0.00000000000E+00 -0.12259840744E+04  0.12259840744E+04  0.25500000920E-02 0. -1.
    10030    2    1    2    0    0  0.00000000000E+00  0.00000000000E+00  0.43743383495E+03  0.28894019838E+04  0.28560979438E+04 0.  0.
        5    1    3    3  502    0  0.95194204455E+03  0.10552877374E+04  0.35990035865E+03  0.14660751082E+04  0.46999998093E+01 0.  1.
       -5    1    3    3    0  502 -0.95194204455E+03 -0.10552877374E+04  0.77533476299E+02  0.14233268756E+04  0.46999998093E+01 0. -1.
</event>
<event>
 5   0  0.1391878E-06  0.3326107E+04  0.7818609E-02  0.8156284E-01
       -1   -1    0    0    0  501  0.00000000000E+00  0.00000000000E+00  0.14093885913E+04  0.14093885913E+04  0.50400001928E-02 0. -1.
        1   -1    0    0  501    0  0.00000000000E+00  0.00000000000E+00 -0.19623740109E+04  0.19623740110E+04  0.50400001928E-02 0.  1.
    10030    2    1    2    0    0  0.00000000000E+00  0.00000000000E+00 -0.55298541967E+03  0.33717626022E+04  0.33261073602E+04 0.  0.
        2    1    3    3  502    0 -0.45906857707E+03  0.94539678921E+03 -0.15830709229E+04  0.19001664649E+04  0.25500000920E-02 0.  1.
       -2    1    3    3    0  502  0.45906857707E+03 -0.94539678921E+03  0.10300855032E+04  0.14715961373E+04  0.25500000920E-02 0. -1.
</event>
<event>
 5   0  0.3920487E-06  0.2203483E+04  0.7818609E-02  0.8516980E-01
       -2   -1    0    0    0  501  0.00000000000E+00  0.00000000000E+00  0.73454954107E+03  0.73454954107E+03  0.25500000920E-02 0. -1.
        2   -1    0    0  501    0  0.00000000000E+00  0.00000000000E+00 -0.16524877048E+04  0.16524877048E+04  0.25500000920E-02 0.  1.
    10030    2    1    2    0    0  0.00000000000E+00  0.00000000000E+00 -0.91793816374E+03  0.23870372459E+04  0.22034827752E+04 0.  0.
        4    1    3    3  502    0 -0.13900435541E+03  0.19293728185E+03  0.70641688776E+03  0.74536798815E+03  0.12699999809E+01 0. -1.
       -4    1    3    3    0  502  0.13900435541E+03 -0.19293728185E+03 -0.16243550515E+04  0.16416692577E+04  0.12699999809E+01 0.  1.
</event>
<event>
 5   0  0.1405389E-06  0.3294650E+04  0.7818609E-02  0.8164258E-01
        1   -1    0    0  501    0  0.00000000000E+00  0.00000000000E+00  0.29647551308E+04  0.29647551308E+04  0.50400001928E-02 0. -1.
       -1   -1    0    0    0  501  0.00000000000E+00  0.00000000000E+00 -0.91531345766E+03  0.91531345768E+03  0.50400001928E-02 0.  1.
    10030    2    1    2    0    0  0.00000000000E+00  0.00000000000E+00  0.20494416731E+04  0.38800685885E+04  0.32946503729E+04 0.  0.
        1    1    3    3  502    0  0.93893252929E+03 -0.11077547367E+04  0.19407205621E+04  0.24238628574E+04  0.50400001928E-02 0. -1.
       -1    1    3    3    0  502 -0.93893252929E+03  0.11077547367E+04  0.10872111099E+03  0.14562057311E+04  0.50400001928E-02 0.  1.
</event>
<event>
 5   0  0.3896210E-06  0.2248175E+04  0.7818609E-02  0.8498640E-01
        2   -1    0    0  501    0  0.00000000000E+00  0.00000000000E+00  0.13536680148E+04  0.13536680148E+04  0.25500000920E-02 0. -1.
       -2   -1    0    0    0  501  0.00000000000E+00  0.00000000000E+00 -0.93344377063E+03  0.93344377064E+03  0.25500000920E-02 0.  1.
    10030    2    1    2    0    0  0.00000000000E+00  0.00000000000E+00  0.42022424415E+03  0.22871117854E+04  0.22481752386E+04 0.  0.
        3    1    3    3  502    0  0.30981591439E+03  0.50154245577E+03 -0.76356503027E+03  0.96465657174E+03  0.10100000352E+00 0.  1.
       -3    1    3    3    0  502 -0.30981591439E+03 -0.50154245577E+03  0.11837892744E+04  0.13224552137E+04  0.10100000352E+00 0. -1.
</event>
<event>
 5   0  0.1405389E-06  0.2213745E+04  0.7818609E-02  0.8512729E-01
       -1   -1    0    0    0  501  0.00000000000E+00  0.00000000000E+00  0.12081725599E+04  0.12081725599E+04  0.50400001928E-02 0.  1.
        1   -1    0    0  501    0  0.00000000000E+00  0.00000000000E+00 -0.10140656346E+04  0.10140656346E+04  0.50400001928E-02 0. -1.
    10030    2    1    2    0    0  0.00000000000E+00  0.00000000000E+00  0.19410692529E+03  0.22222381946E+04  0.22137445866E+04 0.  0.
        1    1    3    3  502    0 -0.17134316591E+03 -0.34031643412E+03  0.11402676121E+04  0.12022412333E+04  0.50400001928E-02 0.  1.
       -1    1    3    3    0  502  0.17134316591E+03  0.34031643412E+03 -0.94616068677E+03  0.10199969613E+04  0.50400001928E-02 0. -1.
</event>
<event>
 5   0  0.3812379E-06  0.3175026E+04  0.7818609E-02  0.8195444E-01
        2   -1    0    0  501    0  0.00000000000E+00  0.00000000000E+00  0.12953288066E+04  0.12953288066E+04  0.25500000920E-02 0. -1.
       -2   -1    0    0    0  501  0.00000000000E+00  0.00000000000E+00 -0.19456047105E+04  0.19456047105E+04  0.25500000920E-02 0.  1.
    10030    2    1    2    0    0  0.00000000000E+00  0.00000000000E+00 -0.65027590387E+03  0.32409335170E+04  0.31750261906E+04 0.  0.
        5    1    3    3  502    0 -0.51751695961E+03 -0.13384142545E+04  0.36792535144E+03  0.14814073290E+04  0.46999998093E+01 0. -1.
       -5    1    3    3    0  502  0.51751695961E+03  0.13384142545E+04 -0.10182012553E+04  0.17595261881E+04  0.46999998093E+01 0.  1.
</event>
<event>
 5   0  0.1282578E-06  0.3330658E+04  0.7818609E-02  0.8155138E-01
       -1   -1    0    0    0  501  0.00000000000E+00  0.00000000000E+00  0.26562859363E+04  0.26562859363E+04  0.50400001928E-02 0.  1.
        1   -1    0    0  501    0  0.00000000000E+00  0.00000000000E+00 -0.10440595586E+04  0.10440595586E+04  0.50400001928E-02 0. -1.
    10030    2    1    2    0    0  0.00000000000E+00  0.00000000000E+00  0.16122263778E+04  0.37003454949E+04  0.33306580263E+04 0.  0.
        4    1    3    3  502    0  0.68659087322E+03 -0.14220408764E+04  0.13936940574E+04  0.21061794843E+04  0.12699999809E+01 0.  1.
       -4    1    3    3    0  502 -0.68659087322E+03  0.14220408764E+04  0.21853232033E+03  0.15941660106E+04  0.12699999809E+01 0. -1.
</event>
<event>
 5   0  0.3671997E-06  0.3291480E+04  0.7818609E-02  0.8165067E-01
        2   -1    0    0  501    0  0.00000000000E+00  0.00000000000E+00  0.20685294692E+04  0.20685294692E+04  0.25500000920E-02 0. -1.
       -2   -1    0    0    0  501  0.00000000000E+00  0.00000000000E+00 -0.13093646936E+04  0.13093646936E+04  0.25500000920E-02 0.  1.
    10030    2    1    2    0    0  0.00000000000E+00  0.00000000000E+00  0.75916477559E+03  0.33778941628E+04  0.32914795789E+04 0.  0.
        2    1    3    3  502    0  0.33902912171E+03  0.10883383822E+04  0.15977758608E+04  0.19627299561E+04  0.25500000920E-02 0. -1.
       -2    1    3    3    0  502 -0.33902912171E+03 -0.10883383822E+04 -0.83861108516E+03  0.14151642066E+04  0.25500000920E-02 0.  1.
</event>
<event>
 5   0  0.3896210E-06  0.3323502E+04  0.7818609E-02  0.8156941E-01
       -2   -1    0    0    0  501  0.00000000000E+00  0.00000000000E+00  0.15451165388E+04  0.15451165388E+04  0.25500000920E-02 0.  1.
        2   -1    0    0  501    0  0.00000000000E+00  0.00000000000E+00 -0.17871892104E+04  0.17871892104E+04  0.25500000920E-02 0. -1.
    10030    2    1    2    0    0  0.00000000000E+00  0.00000000000E+00 -0.24207267158E+03  0.33323057491E+04  0.33235015311E+04 0.  0.
        3    1    3    3  502    0 -0.10235205667E+04  0.84090322648E+02  0.11888509390E+04  0.15709971668E+04  0.10100000352E+00 0.  1.
       -3    1    3    3    0  502  0.10235205667E+04 -0.84090322648E+02 -0.14309236105E+04  0.17613085823E+04  0.10100000352E+00 0. -1.
</event>
<event>
 5   0  0.1352708E-06  0.3251201E+04  0.7818609E-02  0.8175425E-01
        1   -1    0    0  501    0  0.00000000000E+00  0.00000000000E+00  0.15662093620E+04  0.15662093620E+04  0.50400001928E-02 0.  1.
       -1   -1    0    0    0  501  0.00000000000E+00  0.00000000000E+00 -0.16872435686E+04  0.16872435686E+04  0.50400001928E-02 0. -1.
    10030    2    1    2    0    0  0.00000000000E+00  0.00000000000E+00 -0.12103420654E+03  0.32534529306E+04  0.32512008078E+04 0.  0.
        5    1    3    3  502    0 -0.68732290545E+03 -0.90282047695E+03  0.11043584063E+04  0.15833910349E+04  0.46999998093E+01 0.  1.
       -5    1    3    3    0  502  0.68732290545E+03  0.90282047695E+03 -0.12253926128E+04  0.16700618957E+04  0.46999998093E+01 0. -1.
</event>
<event>
 5   0  0.1259875E-06  0.2189867E+04  0.7818609E-02  0.8522657E-01
        4   -1    0    0  501    0  0.00000000000E+00  0.00000000000E+00  0.72535116258E+03  0.72535227438E+03  0.12699999809E+01 0. -1.
       -4   -1    0    0    0  501  0.00000000000E+00  0.00000000000E+00 -0.16528239918E+04  0.16528244797E+04  0.12699999809E+01 0.  1.
    10030    2    1    2    0    0  0.00000000000E+00  0.00000000000E+00 -0.92747282918E+03  0.23781767541E+04  0.21898673076E+04 0.  0.
        4    1    3    3  502    0 -0.69408430330E+03 -0.56502230773E+03 -0.11487506263E+04  0.14562392807E+04  0.12699999809E+01 0.  1.
       -4    1    3    3    0  502  0.69408430330E+03  0.56502230773E+03  0.22127779716E+03  0.92193747333E+03  0.12699999809E+01 0. -1.
</event>
<event>
 5   0  0.3920487E-06  0.3502763E+04  0.7818609E-02  0.8113135E-01
        2   -1    0    0  501    0  0.00000000000E+00  0.00000000000E+00  0.15166407442E+04  0.15166407442E+04  0.25500000920E-02 0.  1.
       -2   -1    0    0    0  501  0.00000000000E+00  0.00000000000E+00 -0.20224551586E+04  0.20224551586E+04  0.25500000920E-02 0. -1.
    10030    2    1    2    0    0  0.00000000000E+00  0.00000000000E+00 -0.50581441443E+03  0.35390959028E+04  0.35027634216E+04 0.  0.
        4    1    3    3  502    0  0.11392115518E+04  0.16206434841E+03  0.10811168555E+04  0.15788866586E+04  0.12699999809E+01 0.  1.
       -4    1    3    3    0  502 -0.11392115518E+04 -0.16206434841E+03 -0.15869312699E+04  0.19602092442E+04  0.12699999809E+01 0. -1.
</event>
<event>
 5   0  0.3671997E-06  0.3556250E+04  0.7818609E-02  0.8100587E-01
        2   -1    0    0  501    0  0.00000000000E+00  0.00000000000E+00  0.32398024858E+04  0.32398024858E+04  0.25500000920E-02 0.  1.
       -2   -1    0    0    0  501  0.00000000000E+00  0.00000000000E+00 -0.97590182204E+03  0.97590182204E+03  0.25500000920E-02 0. -1.
    10030    2    1    2    0    0  0.00000000000E+00  0.00000000000E+00  0.22639006638E+04  0.42157043078E+04  0.35562503562E+04 0.  0.
        2    1    3    3  502    0  0.14882943622E+04 -0.77619432636E+03  0.18274598231E+04  0.24813518787E+04  0.25500000920E-02 0.  1.
       -2    1    3    3    0  502 -0.14882943622E+04  0.77619432636E+03  0.43644084061E+03  0.17343524291E+04  0.25500000920E-02 0. -1.
</event>
<event>
 5   0  0.1391878E-06  0.3285541E+04  0.7818609E-02  0.8166584E-01
        1   -1    0    0  501    0  0.00000000000E+00  0.00000000000E+00  0.17097944427E+04  0.17097944427E+04  0.50400001928E-02 0.  1.
       -1   -1    0    0    0  501  0.00000000000E+00  0.00000000000E+00 -0.15783735151E+04  0.15783735151E+04  0.50400001928E-02 0. -1.
    10030    2    1    2    0    0  0.00000000000E+00  0.00000000000E+00  0.13142092764E+03  0.32881679578E+04  0.32855406037E+04 0.  0.
        2    1    3    3  502    0  0.84880648355E+03  0.43007725737E+03  0.14059061768E+04  0.16976486891E+04  0.25500000920E-02 0.  1.
       -2    1    3    3    0  502 -0.84880648355E+03 -0.43007725737E+03 -0.12744852491E+04  0.15905192687E+04  0.25500000920E-02 0. -1.
</event>
<event>
 5   0  0.3671997E-06  0.2623328E+04  0.7818609E-02  0.8360320E-01
        2   -1    0    0  501    0  0.00000000000E+00  0.00000000000E+00  0.79571503244E+03  0.79571503244E+03  0.25500000920E-02 0. -1.
       -2   -1    0    0    0  501  0.00000000000E+00  0.00000000000E+00 -0.21621590966E+04  0.21621590966E+04  0.25500000920E-02 0.  1.
    10030    2    1    2    0    0  0.00000000000E+00  0.00000000000E+00 -0.13664440642E+04  0.29578741291E+04  0.26233280357E+04 0.  0.
        2    1    3    3  502    0 -0.11246608339E+04  0.48717137942E+03 -0.12099891920E+04  0.17222867905E+04  0.25500000920E-02 0.  1.
       -2    1    3    3    0  502  0.11246608339E+04 -0.48717137942E+03 -0.15645487224E+03  0.12355873386E+04  0.25500000920E-02 0. -1.
</event>
<event>
 5   0  0.3812379E-06  0.3246547E+04  0.7818609E-02  0.8176631E-01
       -2   -1    0    0    0  501  0.00000000000E+00  0.00000000000E+00  0.12758509519E+04  0.12758509519E+04  0.25500000920E-02 0.  1.
        2   -1    0    0  501    0  0.00000000000E+00  0.00000000000E+00 -0.20653017332E+04  0.20653017332E+04  0.25500000920E-02 0. -1.
    10030    2    1    2    0    0  0.00000000000E+00  0.00000000000E+00 -0.78945078130E+03  0.33411526851E+04  0.32465472011E+04 0.  0.
        5    1    3    3  502    0 -0.50125471013E+03 -0.60681552709E+03 -0.18557834730E+04  0.20157965564E+04  0.46999998093E+01 0. -1.
       -5    1    3    3    0  502  0.50125471013E+03  0.60681552709E+03  0.10663326917E+04  0.13253561286E+04  0.46999998093E+01 0.  1.
</event>
<event>
 5   0  0.3920487E-06  0.3300144E+04  0.7818609E-02  0.8162859E-01
        2   -1    0    0  501    0  0.00000000000E+00  0.00000000000E+00  0.16761768707E+04  0.16761768707E+04  0.25500000920E-02 0.  1.
       -2   -1    0    0    0  501  0.00000000000E+00  0.00000000000E+00 -0.16243738070E+04  0.16243738070E+04  0.25500000920E-02 0. -1.
    10030    2    1    2    0    0  0.00000000000E+00  0.00000000000E+00  0.51803063724E+02  0.33005506777E+04  0.33001441209E+04 0.  0.
        4    1    3    3  502    0 -0.32288140231E+03 -0.15063561040E+03 -0.15854433457E+04  0.16249848314E+04  0.12699999809E+01 0. -1.
       -4    1    3    3    0  502  0.32288140231E+03  0.15063561040E+03  0.16372464094E+04  0.16755658462E+04  0.12699999809E+01 0.  1.
</event>
<event>
 5   0  0.3671997E-06  0.3145868E+04  0.7818609E-02  0.8203261E-01
       -2   -1    0    0    0  501  0.00000000000E+00  0.00000000000E+00  0.11031930455E+04  0.11031930455E+04  0.25500000920E-02 0. -1.
        2   -1    0    0  501    0  0.00000000000E+00  0.00000000000E+00 -0.22426916098E+04  0.22426916098E+04  0.25500000920E-02 0.  1.
    10030    2    1    2    0    0  0.00000000000E+00  0.00000000000E+00 -0.11394985643E+04  0.33458846554E+04  0.31458682663E+04 0.  0.
        2    1    3    3  502    0  0.65003961812E+03  0.12970404605E+04  0.76551088197E+02  0.14528336210E+04  0.25500000920E-02 0. -1.
       -2    1    3    3    0  502 -0.65003961812E+03 -0.12970404605E+04 -0.12160496525E+04  0.18930510343E+04  0.25500000920E-02 0.  1.
</event>
<event>
 5   0  0.3812379E-06  0.3343238E+04  0.7818609E-02  0.8151980E-01
        2   -1    0    0  501    0  0.00000000000E+00  0.00000000000E+00  0.21689082236E+04  0.21689082236E+04  0.25500000920E-02 0.  1.
       -2   -1    0    0    0  501  0.00000000000E+00  0.00000000000E+00 -0.12883483336E+04  0.12883483336E+04  0.25500000920E-02 0. -1.
    10030    2    1    2    0    0  0.00000000000E+00  0.00000000000E+00  0.88055989006E+03  0.34572565572E+04  0.33432375301E+04 0.  0.
        5    1    3    3  502    0  0.91475392410E+03  0.13895920149E+04  0.60876755829E+03  0.17715419102E+04  0.46999998093E+01 0. -1.
       -5    1    3    3    0  502 -0.91475392410E+03 -0.13895920149E+04  0.27179233177E+03  0.16857146470E+04  0.46999998093E+01 0.  1.
</event>
<event>
 5   0  0.1405389E-06  0.3603849E+04  0.7818609E-02  0.8089611E-01
        1   -1    0    0  501    0  0.00000000000E+00  0.00000000000E+00  0.16991047183E+04  0.16991047183E+04  0.50400001928E-02 0.  1.
       -1   -1    0    0    0  501  0.00000000000E+00  0.00000000000E+00 -0.19109667800E+04  0.19109667801E+04  0.50400001928E-02 0. -1.
    10030    2    1    2    0    0  0.00000000000E+00  0.00000000000E+00 -0.21186206175E+03  0.36100714984E+04  0.36038494267E+04 0.  0.
        1    1    3    3  502    0  0.42999234261E+03  0.47918095327E+03  0.15799555959E+04  0.17060971501E+04  0.50400001928E-02 0.  1.
       -1    1    3    3    0  502 -0.42999234261E+03 -0.47918095327E+03 -0.17918176576E+04  0.19039743483E+04  0.50400001928E-02 0. -1.
</event>
<event>
 5   0  0.3896210E-06  0.2224450E+04  0.7818609E-02  0.8508320E-01
        2   -1    0    0  501    0  0.00000000000E+00  0.00000000000E+00  0.12083537501E+04  0.12083537501E+04  0.25500000920E-02 0.  1.
       -2   -1    0    0    0  501  0.00000000000E+00  0.00000000000E+00 -0.10237440009E+04  0.10237440009E+04  0.25500000920E-02 0. -1.
    10030    2    1    2    0    0  0.00000000000E+00  0.00000000000E+00  0.18460974914E+03  0.22320977510E+04  0.22244504064E+04 0.  0.
        3    1    3    3  502    0 -0.95662567476E+03  0.55143230806E+03  0.22631031100E+03  0.11271320415E+04  0.10100000352E+00 0.  1.
       -3    1    3    3    0  502  0.95662567476E+03 -0.55143230806E+03 -0.41700561865E+02  0.11049657094E+04  0.10100000352E+00 0. -1.
</event>
<event>
 5   0  0.1405389E-06  0.3165804E+04  0.7818609E-02  0.8197907E-01
       -1   -1    0    0    0  501  0.00000000000E+00  0.00000000000E+00  0.11879495931E+04  0.11879495931E+04  0.50400001928E-02 0.  1.
        1   -1    0    0  501    0  0.00000000000E+00  0.00000000000E+00 -0.21091623168E+04  0.21091623168E+04  0.50400001928E-02 0. -1.
    10030    2    1    2    0    0  0.00000000000E+00  0.00000000000E+00 -0.92121272363E+03  0.32971119099E+04  0.31658038575E+04 0.  0.
        1    1    3    3  502    0 -0.13982466471E+04 -0.68973978736E+03 -0.17587360536E+03  0.15690016525E+04  0.50400001928E-02 0.  1.
       -1    1    3    3    0  502  0.13982466471E+04  0.68973978736E+03 -0.74533911827E+03  0.17281102574E+04  0.50400001928E-02 0. -1.
</event>
<event>
 5   0  0.3671997E-06  0.3307698E+04  0.7818609E-02  0.8160939E-01
        2   -1    0    0  501    0  0.00000000000E+00  0.00000000000E+00  0.12932303937E+04  0.12932303937E+04  0.25500000920E-02 0. -1.
       -2   -1    0    0    0  501  0.00000000000E+00  0.00000000000E+00 -0.21150261596E+04  0.21150261596E+04  0.25500000920E-02 0.  1.
    10030    2    1    2    0    0  0.00000000000E+00  0.00000000000E+00 -0.82179576582E+03  0.34082565533E+04  0.33076977571E+04 0.  0.
        2    1    3    3  502    0  0.35524456114E+03  0.57243961171E+03  0.11454280158E+04  0.13288683707E+04  0.25500000920E-02 0. -1.
       -2    1    3    3    0  502 -0.35524456114E+03 -0.57243961171E+03 -0.19672237816E+04  0.20793881826E+04  0.25500000920E-02 0.  1.
</event>
<event>
 5   0  0.3812379E-06  0.3281751E+04  0.7818609E-02  0.8167554E-01
       -2   -1    0    0    0  501  0.00000000000E+00  0.00000000000E+00  0.11858615604E+04  0.11858615604E+04  0.25500000920E-02 0.  1.
        2   -1    0    0  501    0  0.00000000000E+00  0.00000000000E+00 -0.22704781553E+04  0.22704781553E+04  0.25500000920E-02 0. -1.
    10030    2    1    2    0    0  0.00000000000E+00  0.00000000000E+00 -0.10846165949E+04  0.34563397157E+04  0.32817512203E+04 0.  0.
        5    1    3    3  502    0  0.14768103427E+04 -0.60990859786E+03 -0.14895066284E+03  0.16047322755E+04  0.46999998093E+01 0.  1.
       -5    1    3    3    0  502 -0.14768103427E+04  0.60990859786E+03 -0.93566593208E+03  0.18516074402E+04  0.46999998093E+01 0. -1.
</event>
<event>
 5   0  0.1339825E-06  0.2514395E+04  0.7818609E-02  0.8397875E-01
       -1   -1    0    0    0  501  0.00000000000E+00  0.00000000000E+00  0.48932916032E+03  0.48932916035E+03  0.50400001928E-02 0.  1.
        1   -1    0    0  501    0  0.00000000000E+00  0.00000000000E+00 -0.32300244348E+04  0.32300244348E+04  0.50400001928E-02 0. -1.
    10030    2    1    2    0    0  0.00000000000E+00  0.00000000000E+00 -0.27406952745E+04  0.37193535952E+04  0.25143946743E+04 0.  0.
        3    1    3    3  502    0 -0.40417341338E+02 -0.12083902771E+04 -0.86070279677E+03  0.14841327225E+04  0.10100000352E+00 0. -1.
       -3    1    3    3    0  502  0.40417341338E+02  0.12083902771E+04 -0.18799924777E+04  0.22352208727E+04  0.10100000352E+00 0.  1.
</event>
<event>
 5   0  0.1405389E-06  0.3185598E+04  0.7818609E-02  0.8192631E-01
       -1   -1    0    0    0  501  0.00000000000E+00  0.00000000000E+00  0.15685660261E+04  0.15685660261E+04  0.50400001928E-02 0.  1.
        1   -1    0    0  501    0  0.00000000000E+00  0.00000000000E+00 -0.16174064695E+04  0.16174064695E+04  0.50400001928E-02 0. -1.
    10030    2    1    2    0    0  0.00000000000E+00  0.00000000000E+00 -0.48840443375E+02  0.31859724956E+04  0.31855981155E+04 0.  0.
        1    1    3    3  502    0 -0.75254675588E+03 -0.13440801101E+04 -0.42959852389E+03  0.15991975657E+04  0.50400001928E-02 0. -1.
       -1    1    3    3    0  502  0.75254675588E+03  0.13440801101E+04  0.38075808051E+03  0.15867749299E+04  0.50400001928E-02 0.  1.
</event>
<event>
 5   0  0.1352708E-06  0.3279126E+04  0.7818609E-02  0.8168227E-01
        1   -1    0    0  501    0  0.00000000000E+00  0.00000000000E+00  0.15212477827E+04  0.15212477827E+04  0.50400001928E-02 0.  1.
       -1   -1    0    0    0  501  0.00000000000E+00  0.00000000000E+00 -0.17670804565E+04  0.17670804565E+04  0.50400001928E-02 0. -1.
    10030    2    1    2    0    0  0.00000000000E+00  0.00000000000E+00 -0.24583267386E+03  0.32883282392E+04  0.32791262411E+04 0.  0.
        5    1    3    3  502    0 -0.49811416859E+02 -0.14937040862E+04  0.55315065395E+03  0.15936219158E+04  0.46999998093E+01 0. -1.
       -5    1    3    3    0  502  0.49811416859E+02  0.14937040862E+04 -0.79898332781E+03  0.16947063234E+04  0.46999998093E+01 0.  1.
</event>
<event>
 5   0  0.1259875E-06  0.3264401E+04  0.7818609E-02  0.8172013E-01
        3   -1    0    0  501    0  0.00000000000E+00  0.00000000000E+00  0.12715070417E+04  0.12715070457E+04  0.10100000352E+00 0.  1.
       -3   -1    0    0    0  501  0.00000000000E+00  0.00000000000E+00 -0.20952134475E+04  0.20952134500E+04  0.10100000352E+00 0. -1.
    10030    2    1    2    0    0  0.00000000000E+00  0.00000000000E+00 -0.82370640580E+03  0.33667204957E+04  0.32644011171E+04 0.  0.
        1    1    3    3  502    0 -0.13113353641E+04 -0.97114484088E+03 -0.37387615201E+03  0.16740687310E+04  0.50400001928E-02 0. -1.
       -1    1    3    3    0  502  0.13113353641E+04  0.97114484088E+03 -0.44983025379E+03  0.16926517647E+04  0.50400001928E-02 0.  1.
</event>
<event>
 5   0  0.1339825E-06  0.3291616E+04  0.7818609E-02  0.8165032E-01
       -1   -1    0    0    0  501  0.00000000000E+00  0.00000000000E+00  0.16473331098E+04  0.16473331098E+04  0.50400001928E-02 0.  1.
        1   -1    0    0  501    0  0.00000000000E+00  0.00000000000E+00 -0.16442844934E+04  0.16442844934E+04  0.50400001928E-02 0. -1.
    10030    2    1    2    0    0  0.00000000000E+00  0.00000000000E+00  0.30486164477E+01  0.32916176032E+04  0.32916161914E+04 0.  0.
        3    1    3    3  502    0  0.54345806255E+03 -0.11834901345E+04  0.10078490978E+04  0.16467408352E+04  0.10100000352E+00 0.  1.
       -3    1    3    3    0  502 -0.54345806255E+03  0.11834901345E+04 -0.10048004813E+04  0.16448767680E+04  0.10100000352E+00 0. -1.
</event>
<event>
 5   0  0.3812379E-06  0.2352166E+04  0.7818609E-02  0.8457632E-01
        2   -1    0    0  501    0  0.00000000000E+00  0.00000000000E+00  0.19950250023E+04  0.19950250023E+04  0.25500000920E-02 0.  1.
       -2   -1    0    0    0  501  0.00000000000E+00  0.00000000000E+00 -0.69331050406E+03  0.69331050407E+03  0.25500000920E-02 0. -1.
    10030    2    1    2    0    0  0.00000000000E+00  0.00000000000E+00  0.13017144982E+04  0.26883355064E+04  0.23521664822E+04 0.  0.
        5    1    3    3  502    0 -0.47638911835E+03 -0.75732368086E+03 -0.22156048556E+03  0.92173580186E+03  0.46999998093E+01 0. -1.
       -5    1    3    3    0  502  0.47638911835E+03  0.75732368086E+03  0.15232749838E+04  0.17665997045E+04  0.46999998093E+01 0.  1.
</event>
<event>
 5   0  0.1259875E-06  0.3297905E+04  0.7818609E-02  0.8163429E-01
        3   -1    0    0  501    0  0.00000000000E+00  0.00000000000E+00  0.15837726944E+04  0.15837726976E+04  0.10100000352E+00 0. -1.
       -3   -1    0    0    0  501  0.00000000000E+00  0.00000000000E+00 -0.17168148777E+04  0.17168148807E+04  0.10100000352E+00 0.  1.
    10030    2    1    2    0    0  0.00000000000E+00  0.00000000000E+00 -0.13304218337E+03  0.33005875783E+04  0.32979051138E+04 0.  0.
        1    1    3    3  502    0 -0.40047587347E+03 -0.32038386553E+03 -0.16349645195E+04  0.17135156044E+04  0.50400001928E-02 0.  1.
       -1    1    3    3    0  502  0.40047587347E+03  0.32038386553E+03  0.15019223361E+04  0.15870719739E+04  0.50400001928E-02 0. -1.
</event>
<event>
 5   0  0.3812379E-06  0.3144480E+04  0.7818609E-02  0.8203636E-01
       -2   -1    0    0    0  501  0.00000000000E+00  0.00000000000E+00  0.14022030373E+04  0.14022030373E+04  0.25500000920E-02 0. -1.
        2   -1    0    0  501    0  0.00000000000E+00  0.00000000000E+00 -0.17628959095E+04  0.17628959095E+04  0.25500000920E-02 0.  1.
    10030    2    1    2    0    0  0.00000000000E+00  0.00000000000E+00 -0.36069287217E+03  0.31650989468E+04  0.31444796064E+04 0.  0.
        5    1    3    3  502    0 -0.73906464768E+03  0.12674227784E+04  0.38845985564E+03  0.15177286325E+04  0.46999998093E+01 0. -1.
       -5    1    3    3    0  502  0.73906464768E+03 -0.12674227784E+04 -0.74915272781E+03  0.16473703142E+04  0.46999998093E+01 0.  1.
</event>
<event>
 5   0  0.1405389E-06  0.3318496E+04  0.7818609E-02  0.8158205E-01
        1   -1    0    0  501    0  0.00000000000E+00  0.00000000000E+00  0.11580408280E+04  0.11580408280E+04  0.50400001928E-02 0. -1.
       -1   -1    0    0    0  501  0.00000000000E+00  0.00000000000E+00 -0.23773806955E+04  0.23773806956E+04  0.50400001928E-02 0.  1.
    10030    2    1    2    0    0  0.00000000000E+00  0.00000000000E+00 -0.12193398675E+04  0.35354215236E+04  0.33184959902E+04 0.  0.
        1    1    3    3  502    0 -0.61139835549E+03  0.10038596117E+04  0.63802267150E+03  0.13373911165E+04  0.50400001928E-02 0. -1.
       -1    1    3    3    0  502  0.61139835549E+03 -0.10038596117E+04 -0.18573625390E+04  0.21980304071E+04  0.50400001928E-02 0.  1.
</event>
<event>
 5   0  0.1352708E-06  0.3254599E+04  0.7818609E-02  0.8174545E-01
        1   -1    0    0  501    0  0.00000000000E+00  0.00000000000E+00  0.21625184754E+04  0.21625184754E+04  0.50400001928E-02 0.  1.
       -1   -1    0    0    0  501  0.00000000000E+00  0.00000000000E+00 -0.12245462136E+04  0.12245462136E+04  0.50400001928E-02 0. -1.
    10030    2    1    2    0    0  0.00000000000E+00  0.00000000000E+00  0.93797226185E+03  0.33870646890E+04  0.32545990911E+04 0.  0.
        5    1    3    3  502    0 -0.43615916105E+03 -0.10957793758E+04  0.16358317622E+04  0.20166642999E+04  0.46999998093E+01 0.  1.
       -5    1    3    3    0  502  0.43615916105E+03  0.10957793758E+04 -0.69785950040E+03  0.13704003891E+04  0.46999998093E+01 0. -1.
</event>
<event>
 5   0  0.3896210E-06  0.3240802E+04  0.7818609E-02  0.8178124E-01
        2   -1    0    0  501    0  0.00000000000E+00  0.00000000000E+00  0.18606273431E+04  0.18606273431E+04  0.25500000920E-02 0.  1.
       -2   -1    0    0    0  501  0.00000000000E+00  0.00000000000E+00 -0.14111901553E+04  0.14111901553E+04  0.25500000920E-02 0. -1.
    10030    2    1    2    0    0  0.00000000000E+00  0.00000000000E+00  0.44943718783E+03  0.32718174984E+04  0.32408017461E+04 0.  0.
        3    1    3    3  502    0  0.95090832972E+02  0.10633358647E+04  0.14553901028E+04  0.18049614370E+04  0.10100000352E+00 0.  1.
       -3    1    3    3    0  502 -0.95090832972E+02 -0.10633358647E+04 -0.10059529149E+04  0.14668560614E+04  0.10100000352E+00 0. -1.
</event>
<event>
 5   0  0.3812379E-06  0.3295050E+04  0.7818609E-02  0.8164156E-01
       -2   -1    0    0    0  501  0.00000000000E+00  0.00000000000E+00  0.15372506068E+04  0.15372506068E+04  0.25500000920E-02 0.  1.
        2   -1    0    0  501    0  0.00000000000E+00  0.00000000000E+00 -0.17657100468E+04  0.17657100468E+04  0.25500000920E-02 0. -1.
    10030    2    1    2    0    0  0.00000000000E+00  0.00000000000E+00 -0.22845944008E+03  0.33029606536E+04  0.32950501306E+04 0.  0.
        5    1    3    3  502    0 -0.51421537309E+02  0.42392122601E+02  0.15358922321E+04  0.15373445629E+04  0.46999998093E+01 0.  1.
       -5    1    3    3    0  502  0.51421537309E+02 -0.42392122601E+02 -0.17643516722E+04  0.17656160907E+04  0.46999998093E+01 0. -1.
</event>
<event>
 5   0  0.1259875E-06  0.2974907E+04  0.7818609E-02  0.8250933E-01
       -3   -1    0    0    0  501  0.00000000000E+00  0.00000000000E+00  0.15440589055E+04  0.15440589088E+04  0.10100000352E+00 0. -1.
        3   -1    0    0  501    0  0.00000000000E+00  0.00000000000E+00 -0.14329232133E+04  0.14329232169E+04  0.10100000352E+00 0.  1.
    10030    2    1    2    0    0  0.00000000000E+00  0.00000000000E+00  0.11113569213E+03  0.29769821257E+04  0.29749069623E+04 0.  0.
        5    1    3    3  502    0 -0.15079143608E+03  0.78152838238E+03  0.13130155420E+04  0.15354336759E+04  0.46999998093E+01 0. -1.
       -5    1    3    3    0  502  0.15079143608E+03 -0.78152838238E+03 -0.12018798498E+04  0.14415484498E+04  0.46999998093E+01 0.  1.
</event>
<event>
 5   0  0.3920487E-06  0.3303554E+04  0.7818609E-02  0.8161992E-01
       -2   -1    0    0    0  501  0.00000000000E+00  0.00000000000E+00  0.17063294398E+04  0.17063294398E+04  0.25500000920E-02 0.  1.
        2   -1    0    0  501    0  0.00000000000E+00  0.00000000000E+00 -0.15989689383E+04  0.15989689383E+04  0.25500000920E-02 0. -1.
    10030    2    1    2    0    0  0.00000000000E+00  0.00000000000E+00  0.10736050148E+03  0.33052983781E+04  0.33035543118E+04 0.  0.
        4    1    3    3  502    0 -0.13944311869E+04  0.49529648272E+03 -0.68060720797E+03  0.16287985527E+04  0.12699999809E+01 0. -1.
       -4    1    3    3    0  502  0.13944311869E+04 -0.49529648272E+03  0.78796770945E+03  0.16764998255E+04  0.12699999809E+01 0.  1.
</event>
<event>
 5   0  0.1339825E-06  0.3254649E+04  0.7818609E-02  0.8174532E-01
       -1   -1    0    0    0  501  0.00000000000E+00  0.00000000000E+00  0.20331866247E+04  0.20331866247E+04  0.50400001928E-02 0.  1.
        1   -1    0    0  501    0  0.00000000000E+00  0.00000000000E+00 -0.13024803034E+04  0.13024803034E+04  0.50400001928E-02 0. -1.
    10030    2    1    2    0    0  0.00000000000E+00  0.00000000000E+00  0.73070632130E+03  0.33356669282E+04  0.32546493095E+04 0.  0.
        3    1    3    3  502    0 -0.50751716709E+03 -0.43301450206E+03  0.18865891747E+04  0.20010732016E+04  0.10100000352E+00 0.  1.
       -3    1    3    3    0  502  0.50751716709E+03  0.43301450206E+03 -0.11558828534E+04  0.13345937265E+04  0.10100000352E+00 0. -1.
</event>
<event>
 5   0  0.1282578E-06  0.3319395E+04  0.7818609E-02  0.8157978E-01
       -1   -1    0    0    0  501  0.00000000000E+00  0.00000000000E+00  0.15142931535E+04  0.15142931535E+04  0.50400001928E-02 0. -1.
        1   -1    0    0  501    0  0.00000000000E+00  0.00000000000E+00 -0.18190642855E+04  0.18190642855E+04  0.50400001928E-02 0.  1.
    10030    2    1    2    0    0  0.00000000000E+00  0.00000000000E+00 -0.30477113203E+03  0.33333574390E+04  0.33193954831E+04 0.  0.
        4    1    3    3  502    0 -0.26145635705E+02  0.15961102682E+04 -0.60854659135E+03  0.17083858315E+04  0.12699999809E+01 0. -1.
       -4    1    3    3    0  502  0.26145635705E+02 -0.15961102682E+04  0.30377545932E+03  0.16249716075E+04  0.12699999809E+01 0.  1.
</event>
<event>
 5   0  0.1282578E-06  0.3667093E+04  0.7818609E-02  0.8075294E-01
       -1   -1    0    0    0  501  0.00000000000E+00  0.00000000000E+00  0.22096068632E+04  0.22096068632E+04  0.50400001928E-02 0.  1.
        1   -1    0    0  501    0  0.00000000000E+00  0.00000000000E+00 -0.15214891149E+04  0.15214891150E+04  0.50400001928E-02 0. -1.
    10030    2    1    2    0    0  0.00000000000E+00  0.00000000000E+00  0.68811774822E+03  0.37310959781E+04  0.36670930125E+04 0.  0.
        4    1    3    3  502    0 -0.29648041399E+03 -0.66019491154E+03  0.20581380703E+04  0.21816718100E+04  0.12699999809E+01 0.  1.
       -4    1    3    3    0  502  0.29648041399E+03  0.66019491154E+03 -0.13700203221E+04  0.15494241682E+04  0.12699999809E+01 0. -1.
</event>
<event>
 5   0  0.1282578E-06  0.2510094E+04  0.7818609E-02  0.8399398E-01
       -1   -1    0    0    0  501  0.00000000000E+00  0.00000000000E+00  0.12781390379E+04  0.12781390379E+04  0.50400001928E-02 0. -1.
        1   -1    0    0  501    0  0.00000000000E+00  0.00000000000E+00 -0.12323722423E+04  0.12323722423E+04  0.50400001928E-02 0.  1.
    10030    2    1    2    0    0  0.00000000000E+00  0.00000000000E+00  0.45766795606E+02  0.25105112801E+04  0.25100940795E+04 0.  0.
        4    1    3    3  502    0  0.27854016563E+03  0.62118648482E+03  0.10774229946E+04  0.12744799704E+04  0.12699999809E+01 0. -1.
       -4    1    3    3    0  502 -0.27854016563E+03 -0.62118648482E+03 -0.10316561990E+04  0.12360313097E+04  0.12699999809E+01 0.  1.
</event>
<event>
 5   0  0.1405389E-06  0.3307951E+04  0.7818609E-02  0.8160875E-01
        1   -1    0    0  501    0  0.00000000000E+00  0.00000000000E+00  0.18069770899E+04  0.18069770899E+04  0.50400001928E-02 0.  1.
       -1   -1    0    0    0  501  0.00000000000E+00  0.00000000000E+00 -0.15139294046E+04  0.15139294046E+04  0.50400001928E-02 0. -1.
    10030    2    1    2    0    0  0.00000000000E+00  0.00000000000E+00  0.29304768539E+03  0.33209064945E+04  0.33079514808E+04 0.  0.
        1    1    3    3  502    0 -0.90317375254E+03 -0.58899079245E+03  0.14056297460E+04  0.17715608834E+04  0.50400001928E-02 0.  1.
       -1    1    3    3    0  502  0.90317375254E+03  0.58899079245E+03 -0.11125820606E+04  0.15493456111E+04  0.50400001928E-02 0. -1.
</event>
<event>
 5   0  0.1352708E-06  0.2189734E+04  0.7818609E-02  0.8522713E-01
       -1   -1    0    0    0  501  0.00000000000E+00  0.00000000000E+00  0.60366543867E+03  0.60366543869E+03  0.50400001928E-02 0. -1.
        1   -1    0    0  501    0  0.00000000000E+00  0.00000000000E+00 -0.19857581613E+04  0.19857581613E+04  0.50400001928E-02 0.  1.
    10030    2    1    2    0    0  0.00000000000E+00  0.00000000000E+00 -0.13820927227E+04  0.25894236000E+04  0.21897338392E+04 0.  0.
        5    1    3    3  502    0 -0.66785062731E+03  0.75855055903E+03 -0.11889571411E+04  0.15604693475E+04  0.46999998093E+01 0.  1.
       -5    1    3    3    0  502  0.66785062731E+03 -0.75855055903E+03 -0.19313558155E+03  0.10289542526E+04  0.46999998093E+01 0. -1.
</event>
<event>
 5   0  0.3920487E-06  0.3270062E+04  0.7818609E-02  0.8170555E-01
        2   -1    0    0  501    0  0.00000000000E+00  0.00000000000E+00  0.18927728126E+04  0.18927728126E+04  0.25500000920E-02 0. -1.
       -2   -1    0    0    0  501  0.00000000000E+00  0.00000000000E+00 -0.14123859025E+04  0.14123859025E+04  0.25500000920E-02 0.  1.
    10030    2    1    2    0    0  0.00000000000E+00  0.00000000000E+00  0.48038691013E+03  0.33051587151E+04  0.32700615512E+04 0.  0.
        4    1    3    3  502    0 -0.55190308118E+03  0.28183038746E+03 -0.12890886890E+04  0.14303064844E+04  0.12699999809E+01 0.  1.
       -4    1    3    3    0  502  0.55190308118E+03 -0.28183038746E+03  0.17694755991E+04  0.18748522307E+04  0.12699999809E+01 0. -1.
</event>
<event>
 5   0  0.1352708E-06  0.3304410E+04  0.7818609E-02  0.8161774E-01
        1   -1    0    0  501    0  0.00000000000E+00  0.00000000000E+00  0.16783021105E+04  0.16783021105E+04  0.50400001928E-02 0.  1.
       -1   -1    0    0    0  501  0.00000000000E+00  0.00000000000E+00 -0.16265138735E+04  0.16265138735E+04  0.50400001928E-02 0. -1.
    10030    2    1    2    0    0  0.00000000000E+00  0.00000000000E+00  0.51788236946E+02  0.33048159840E+04  0.33044101843E+04 0.  0.
        5    1    3    3  502    0 -0.16277457158E+04 -0.23410704358E+03 -0.13349092371E+03  0.16499103430E+04  0.46999998093E+01 0. -1.
       -5    1    3    3    0  502  0.16277457158E+04  0.23410704358E+03  0.18527916065E+03  0.16549056410E+04  0.46999998093E+01 0.  1.
</event>
<event>
 5   0  0.3920487E-06  0.3381416E+04  0.7818609E-02  0.8142482E-01
        2   -1    0    0  501    0  0.00000000000E+00  0.00000000000E+00  0.18982914097E+04  0.18982914097E+04  0.25500000920E-02 0.  1.
       -2   -1    0    0    0  501  0.00000000000E+00  0.00000000000E+00 -0.15058247454E+04  0.15058247454E+04  0.25500000920E-02 0. -1.
    10030    2    1    2    0    0  0.00000000000E+00  0.00000000000E+00  0.39246666431E+03  0.34041161550E+04  0.33814163770E+04 0.  0.
        4    1    3    3  502    0 -0.15744008567E+04 -0.52215043943E+03  0.52571228388E+03  0.17400442975E+04  0.12699999809E+01 0.  1.
       -4    1    3    3    0  502  0.15744008567E+04  0.52215043943E+03 -0.13324561957E+03  0.16640718575E+04  0.12699999809E+01 0. -1.
</event>
<event>
 5   0  0.1405389E-06  0.3307566E+04  0.7818609E-02  0.8160973E-01
       -1   -1    0    0    0  501  0.00000000000E+00  0.00000000000E+00  0.14756512876E+04  0.14756512876E+04  0.50400001928E-02 0. -1.
        1   -1    0    0  501    0  0.00000000000E+00  0.00000000000E+00 -0.18534174902E+04  0.18534174902E+04  0.50400001928E-02 0.  1.
    10030    2    1    2    0    0  0.00000000000E+00  0.00000000000E+00 -0.37776620260E+03  0.33290687778E+04  0.33075658154E+04 0.  0.
        1    1    3    3  502    0 -0.23463032085E+03 -0.68165564008E+03 -0.16869450502E+04  0.18345270239E+04  0.50400001928E-02 0.  1.
       -1    1    3    3    0  502  0.23463032085E+03  0.68165564008E+03  0.13091788476E+04  0.14945417539E+04  0.50400001928E-02 0. -1.
</event>
<event>
 5   0  0.4017247E-06  0.3280705E+04  0.7818609E-02  0.8167822E-01
        2   -1    0    0  501    0  0.00000000000E+00  0.00000000000E+00  0.19486182416E+04  0.19486182416E+04  0.25500000920E-02 0.  1.
       -2   -1    0    0    0  501  0.00000000000E+00  0.00000000000E+00 -0.13808538410E+04  0.13808538410E+04  0.25500000920E-02 0. -1.
    10030    2    1    2    0    0  0.00000000000E+00  0.00000000000E+00  0.56776440053E+03  0.33294720826E+04  0.32807054019E+04 0.  0.
        1    1    3    3  502    0  0.15752583690E+04  0.32028730115E+03 -0.47675973314E+02  0.16081964689E+04  0.50400001928E-02 0. -1.
       -1    1    3    3    0  502 -0.15752583690E+04 -0.32028730115E+03  0.61544037385E+03  0.17212756136E+04  0.50400001928E-02 0.  1.
</event>
<event>
 5   0  0.1339825E-06  0.2949635E+04  0.7818609E-02  0.8258261E-01
        1   -1    0    0  501    0  0.00000000000E+00  0.00000000000E+00  0.11888238818E+04  0.11888238818E+04  0.50400001928E-02 0. -1.
       -1   -1    0    0    0  501  0.00000000000E+00  0.00000000000E+00 -0.18296126680E+04  0.18296126680E+04  0.50400001928E-02 0.  1.
    10030    2    1    2    0    0  0.00000000000E+00  0.00000000000E+00 -0.64078878621E+03  0.30184365498E+04  0.29496353904E+04 0.  0.
        3    1    3    3  502    0  0.36108548448E+03  0.13695346583E+04  0.10038935471E+03  0.14198894112E+04  0.10100000352E+00 0. -1.
       -3    1    3    3    0  502 -0.36108548448E+03 -0.13695346583E+04 -0.74117814091E+03  0.15985471385E+04  0.10100000352E+00 0.  1.
</event>
<event>
 5   0  0.3671997E-06  0.2046268E+04  0.7818609E-02  0.8585289E-01
        2   -1    0    0  501    0  0.00000000000E+00  0.00000000000E+00  0.15770387961E+04  0.15770387961E+04  0.25500000920E-02 0. -1.
       -2   -1    0    0    0  501  0.00000000000E+00  0.00000000000E+00 -0.66377763890E+03  0.66377763890E+03  0.25500000920E-02 0.  1.
    10030    2    1    2    0    0  0.00000000000E+00  0.00000000000E+00  0.91326115721E+03  0.22408164350E+04  0.20462679087E+04 0.  0.
        2    1    3    3  502    0  0.64375654380E+03 -0.14367198684E+03  0.13131295749E+04  0.14694806593E+04  0.25500000920E-02 0. -1.
       -2    1    3    3    0  502 -0.64375654380E+03  0.14367198684E+03 -0.39986841768E+03  0.77133577575E+03  0.25500000920E-02 0.  1.
</event>
<event>
 5   0  0.1405389E-06  0.2177195E+04  0.7818609E-02  0.8527981E-01
        1   -1    0    0  501    0  0.00000000000E+00  0.00000000000E+00  0.20163412908E+04  0.20163412908E+04  0.50400001928E-02 0. -1.
       -1   -1    0    0    0  501  0.00000000000E+00  0.00000000000E+00 -0.58771993567E+03  0.58771993569E+03  0.50400001928E-02 0.  1.
    10030    2    1    2    0    0  0.00000000000E+00  0.00000000000E+00  0.14286213551E+04  0.26040612265E+04  0.21771945010E+04 0.  0.
        1    1    3    3  502    0  0.24051079607E+03  0.83450407053E+03  0.14993520755E+04  0.17327143830E+04  0.50400001928E-02 0. -1.
       -1    1    3    3    0  502 -0.24051079607E+03 -0.83450407053E+03 -0.70730720409E+02  0.87134684345E+03  0.50400001928E-02 0.  1.
</event>
<event>
 5   0  0.1339825E-06  0.3351016E+04  0.7818609E-02  0.8150034E-01
       -1   -1    0    0    0  501  0.00000000000E+00  0.00000000000E+00  0.13650922008E+04  0.13650922008E+04  0.50400001928E-02 0. -1.
        1   -1    0    0  501    0  0.00000000000E+00  0.00000000000E+00 -0.20565106120E+04  0.20565106120E+04  0.50400001928E-02 0.  1.
    10030    2    1    2    0    0  0.00000000000E+00  0.00000000000E+00 -0.69141841116E+03  0.34216028128E+04  0.33510157251E+04 0.  0.
        3    1    3    3  502    0  0.43143321322E+03  0.10359838804E+04  0.92465631701E+03  0.14540930276E+04  0.10100000352E+00 0. -1.
       -3    1    3    3    0  502 -0.43143321322E+03 -0.10359838804E+04 -0.16160747282E+04  0.19675097853E+04  0.10100000352E+00 0.  1.
</event>
<event>
 5   0  0.1405389E-06  0.3308655E+04  0.7818609E-02  0.8160697E-01
        1   -1    0    0  501    0  0.00000000000E+00  0.00000000000E+00  0.17907437308E+04  0.17907437308E+04  0.50400001928E-02 0. -1.
       -1   -1    0    0    0  501  0.00000000000E+00  0.00000000000E+00 -0.15283034154E+04  0.15283034154E+04  0.50400001928E-02 0.  1.
    10030    2    1    2    0    0  0.00000000000E+00  0.00000000000E+00  0.26244031537E+03  0.33190471462E+04  0.33086551709E+04 0.  0.
        1    1    3    3  502    0 -0.96600666799E+02 -0.28811182059E+03  0.17625072007E+04  0.17885110407E+04  0.50400001928E-02 0. -1.
       -1    1    3    3    0  502  0.96600666799E+02  0.28811182059E+03 -0.15000668853E+04  0.15305361056E+04  0.50400001928E-02 0.  1.
</event>
<event>
 5   0  0.3812379E-06  0.3250555E+04  0.7818609E-02  0.8175592E-01
       -2   -1    0    0    0  501  0.00000000000E+00  0.00000000000E+00  0.19531963262E+04  0.19531963262E+04  0.25500000920E-02 0.  1.
        2   -1    0    0  501    0  0.00000000000E+00  0.00000000000E+00 -0.13524126201E+04  0.13524126201E+04  0.25500000920E-02 0. -1.
    10030    2    1    2    0    0  0.00000000000E+00  0.00000000000E+00  0.60078370610E+03  0.33056089464E+04  0.32505552518E+04 0.  0.
        5    1    3    3  502    0 -0.46333328029E+03  0.69160017878E+03  0.17199264868E+04  0.19108002894E+04  0.46999998093E+01 0.  1.
       -5    1    3    3    0  502  0.46333328029E+03 -0.69160017878E+03 -0.11191427807E+04  0.13948086570E+04  0.46999998093E+01 0. -1.
</event>
<event>
 5   0  0.3896210E-06  0.3312367E+04  0.7818609E-02  0.8159756E-01
        2   -1    0    0  501    0  0.00000000000E+00  0.00000000000E+00  0.24231728718E+04  0.24231728718E+04  0.25500000920E-02 0.  1.
       -2   -1    0    0    0  501  0.00000000000E+00  0.00000000000E+00 -0.11319637033E+04  0.11319637033E+04  0.25500000920E-02 0. -1.
    10030    2    1    2    0    0  0.00000000000E+00  0.00000000000E+00  0.12912091686E+04  0.35551365751E+04  0.33123669710E+04 0.  0.
        3    1    3    3  502    0 -0.62411451740E+03  0.63316433008E+03 -0.85413705283E+03  0.12328690583E+04  0.10100000352E+00 0. -1.
       -3    1    3    3    0  502  0.62411451740E+03 -0.63316433008E+03  0.21453462214E+04  0.23222675168E+04  0.10100000352E+00 0.  1.
</event>
<event>
 5   0  0.4017247E-06  0.3167605E+04  0.7818609E-02  0.8197425E-01
       -2   -1    0    0    0  501  0.00000000000E+00  0.00000000000E+00  0.17614396647E+04  0.17614396647E+04  0.25500000920E-02 0. -1.
        2   -1    0    0  501    0  0.00000000000E+00  0.00000000000E+00 -0.14240795403E+04  0.14240795403E+04  0.25500000920E-02 0.  1.
    10030    2    1    2    0    0  0.00000000000E+00  0.00000000000E+00  0.33736012445E+03  0.31855192050E+04  0.31676048920E+04 0.  0.
        1    1    3    3  502    0 -0.27555192947E+03 -0.57194014467E+03  0.16278808879E+04  0.17472952183E+04  0.50400001928E-02 0. -1.
       -1    1    3    3    0  502  0.27555192947E+03  0.57194014467E+03 -0.12905207634E+04  0.14382239866E+04  0.50400001928E-02 0.  1.
</event>
<event>
 5   0  0.1391878E-06  0.3213467E+04  0.7818609E-02  0.8185270E-01
       -1   -1    0    0    0  501  0.00000000000E+00  0.00000000000E+00  0.27854531898E+04  0.27854531898E+04  0.50400001928E-02 0. -1.
        1   -1    0    0  501    0  0.00000000000E+00  0.00000000000E+00 -0.92681254677E+03  0.92681254678E+03  0.50400001928E-02 0.  1.
    10030    2    1    2    0    0  0.00000000000E+00  0.00000000000E+00  0.18586406430E+04  0.37122657366E+04  0.32134672643E+04 0.  0.
        2    1    3    3  502    0  0.33930060152E+03  0.15511217626E+04  0.64519848381E+03  0.17138800145E+04  0.25500000920E-02 0.  1.
       -2    1    3    3    0  502 -0.33930060152E+03 -0.15511217626E+04  0.12134421592E+04  0.19983857221E+04  0.25500000920E-02 0. -1.
</event>
<event>
 5   0  0.1405389E-06  0.3258318E+04  0.7818609E-02  0.8173583E-01
       -1   -1    0    0    0  501  0.00000000000E+00  0.00000000000E+00  0.16273797408E+04  0.16273797408E+04  0.50400001928E-02 0. -1.
        1   -1    0    0  501    0  0.00000000000E+00  0.00000000000E+00 -0.16309404772E+04  0.16309404772E+04  0.50400001928E-02 0.  1.
    10030    2    1    2    0    0  0.00000000000E+00  0.00000000000E+00 -0.35607363405E+01  0.32583202180E+04  0.32583182724E+04 0.  0.
        1    1    3    3  502    0  0.84678056324E+03  0.96126768763E+03  0.10047422651E+04  0.16280601675E+04  0.50400001928E-02 0. -1.
       -1    1    3    3    0  502 -0.84678056324E+03 -0.96126768763E+03 -0.10083030015E+04  0.16302600505E+04  0.50400001928E-02 0.  1.
</event>
<event>
 5   0  0.3812379E-06  0.3295023E+04  0.7818609E-02  0.8164163E-01
       -2   -1    0    0    0  501  0.00000000000E+00  0.00000000000E+00  0.14614576496E+04  0.14614576496E+04  0.25500000920E-02 0.  1.
        2   -1    0    0  501    0  0.00000000000E+00  0.00000000000E+00 -0.18572508703E+04  0.18572508703E+04  0.25500000920E-02 0. -1.
    10030    2    1    2    0    0  0.00000000000E+00  0.00000000000E+00 -0.39579322063E+03  0.33187085199E+04  0.32950226049E+04 0.  0.
        5    1    3    3  502    0  0.10241472166E+04 -0.11751980374E+04  0.33913738627E+03  0.15953069314E+04  0.46999998093E+01 0.  1.
       -5    1    3    3    0  502 -0.10241472166E+04  0.11751980374E+04 -0.73493060690E+03  0.17234015885E+04  0.46999998093E+01 0. -1.
</event>
<event>
 5   0  0.1352708E-06  0.3247192E+04  0.7818609E-02  0.8176464E-01
       -1   -1    0    0    0  501  0.00000000000E+00  0.00000000000E+00  0.13253131187E+04  0.13253131187E+04  0.50400001928E-02 0. -1.
        1   -1    0    0  501    0  0.00000000000E+00  0.00000000000E+00 -0.19890117240E+04  0.19890117240E+04  0.50400001928E-02 0.  1.
    10030    2    1    2    0    0  0.00000000000E+00  0.00000000000E+00 -0.66369860523E+03  0.33143248427E+04  0.32471916057E+04 0.  0.
        5    1    3    3  502    0  0.14129887020E+04  0.77876998787E+03 -0.51732430762E+03  0.16943040740E+04  0.46999998093E+01 0. -1.
       -5    1    3    3    0  502 -0.14129887020E+04 -0.77876998787E+03 -0.14637429761E+03  0.16200207687E+04  0.46999998093E+01 0.  1.
</event>
<event>
 5   0  0.1282578E-06  0.2350590E+04  0.7818609E-02  0.8458237E-01
        1   -1    0    0  501    0  0.00000000000E+00  0.00000000000E+00  0.17093289328E+04  0.17093289328E+04  0.50400001928E-02 0. -1.
       -1   -1    0    0    0  501  0.00000000000E+00  0.00000000000E+00 -0.80810534041E+03  0.80810534042E+03  0.50400001928E-02 0.  1.
    10030    2    1    2    0    0  0.00000000000E+00  0.00000000000E+00  0.90122359238E+03  0.25174342732E+04  0.23505895764E+04 0.  0.
        4    1    3    3  502    0  0.58123158905E+02  0.74969674985E+03 -0.51676988783E+03  0.91240136354E+03  0.12699999809E+01 0.  1.
       -4    1    3    3    0  502 -0.58123158905E+02 -0.74969674985E+03  0.14179934802E+04  0.16050329097E+04  0.12699999809E+01 0. -1.
</event>
<event>
 5   0  0.3812379E-06  0.3329697E+04  0.7818609E-02  0.8155380E-01
       -2   -1    0    0    0  501  0.00000000000E+00  0.00000000000E+00  0.15799289333E+04  0.15799289333E+04  0.25500000920E-02 0.  1.
        2   -1    0    0  501    0  0.00000000000E+00  0.00000000000E+00 -0.17543322768E+04  0.17543322768E+04  0.25500000920E-02 0. -1.
    10030    2    1    2    0    0  0.00000000000E+00  0.00000000000E+00 -0.17440334349E+03  0.33342612101E+04  0.33296968768E+04 0.  0.
        5    1    3    3  502    0 -0.97932208373E+03  0.87522000593E+03 -0.11116467855E+04  0.17207156849E+04  0.46999998093E+01 0. -1.
       -5    1    3    3    0  502  0.97932208373E+03 -0.87522000593E+03  0.93724344202E+03  0.16135455253E+04  0.46999998093E+01 0.  1.
</event>
<event>
 5   0  0.1259875E-06  0.3270817E+04  0.7818609E-02  0.8170361E-01
       -3   -1    0    0    0  501  0.00000000000E+00  0.00000000000E+00  0.16303099186E+04  0.16303099217E+04  0.10100000352E+00 0.  1.
        3   -1    0    0  501    0  0.00000000000E+00  0.00000000000E+00 -0.16405231309E+04  0.16405231340E+04  0.10100000352E+00 0. -1.
    10030    2    1    2    0    0  0.00000000000E+00  0.00000000000E+00 -0.10213212285E+02  0.32708330558E+04  0.32708171103E+04 0.  0.
        4    1    3    3  502    0 -0.87515603677E+03  0.16136983321E+03  0.13669865297E+04  0.16311321519E+04  0.12699999809E+01 0.  1.
       -4    1    3    3    0  502  0.87515603677E+03 -0.16136983321E+03 -0.13771997420E+04  0.16397009038E+04  0.12699999809E+01 0. -1.
</event>
<event>
 5   0  0.3812379E-06  0.3292780E+04  0.7818609E-02  0.8164735E-01
       -2   -1    0    0    0  501  0.00000000000E+00  0.00000000000E+00  0.12431285774E+04  0.12431285774E+04  0.25500000920E-02 0. -1.
        2   -1    0    0  501    0  0.00000000000E+00  0.00000000000E+00 -0.21804660457E+04  0.21804660457E+04  0.25500000920E-02 0.  1.
    10030    2    1    2    0    0  0.00000000000E+00  0.00000000000E+00 -0.93733746828E+03  0.34235946231E+04  0.32927797700E+04 0.  0.
        5    1    3    3  502    0  0.10975948585E+04 -0.54506071215E+03  0.67445128449E+03  0.13988253209E+04  0.46999998093E+01 0. -1.
       -5    1    3    3    0  502 -0.10975948585E+04  0.54506071215E+03 -0.16117887528E+04  0.20247693021E+04  0.46999998093E+01 0.  1.
</event>
<event>
 5   0  0.3920487E-06  0.3267316E+04  0.7818609E-02  0.8171262E-01
        2   -1    0    0  501    0  0.00000000000E+00  0.00000000000E+00  0.22144599655E+04  0.22144599655E+04  0.25500000920E-02 0.  1.
       -2   -1    0    0    0  501  0.00000000000E+00  0.00000000000E+00 -0.12051867866E+04  0.12051867866E+04  0.25500000920E-02 0. -1.
    10030    2    1    2    0    0  0.00000000000E+00  0.00000000000E+00  0.10092731789E+04  0.34196467522E+04  0.32673156505E+04 0.  0.
        4    1    3    3  502    0 -0.77641223371E+03  0.10428488358E+04 -0.53066671453E+03  0.14042643718E+04  0.12699999809E+01 0. -1.
       -4    1    3    3    0  502  0.77641223371E+03 -0.10428488358E+04  0.15399398934E+04  0.20153823804E+04  0.12699999809E+01 0.  1.
</event>
<event>
 5   0  0.4017247E-06  0.3334566E+04  0.7818609E-02  0.8154155E-01
        2   -1    0    0  501    0  0.00000000000E+00  0.00000000000E+00  0.19615467472E+04  0.19615467472E+04  0.25500000920E-02 0. -1.
       -2   -1    0    0    0  501  0.00000000000E+00  0.00000000000E+00 -0.14171634205E+04  0.14171634205E+04  0.25500000920E-02 0.  1.
    10030    2    1    2    0    0  0.00000000000E+00  0.00000000000E+00  0.54438332672E+03  0.33787101676E+04  0.33345658174E+04 0.  0.
        1    1    3    3  502    0 -0.51706244443E+03 -0.13977975336E+04 -0.48512578505E+03  0.15673348538E+04  0.50400001928E-02 0.  1.
       -1    1    3    3    0  502  0.51706244443E+03  0.13977975336E+04  0.10295091118E+04  0.18113753139E+04  0.50400001928E-02 0. -1.
</event>
<event>
 5   0  0.4017247E-06  0.3208709E+04  0.7818609E-02  0.8186521E-01
       -2   -1    0    0    0  501  0.00000000000E+00  0.00000000000E+00  0.13645922456E+04  0.13645922456E+04  0.25500000920E-02 0.  1.
        2   -1    0    0  501    0  0.00000000000E+00  0.00000000000E+00 -0.18862441070E+04  0.18862441070E+04  0.25500000920E-02 0. -1.
    10030    2    1    2    0    0  0.00000000000E+00  0.00000000000E+00 -0.52165186138E+03  0.32508363527E+04  0.32087094489E+04 0.  0.
        1    1    3    3  502    0 -0.15321866644E+04  0.45220686746E+03 -0.11100935182E+03  0.16013775638E+04  0.50400001928E-02 0. -1.
       -1    1    3    3    0  502  0.15321866644E+04 -0.45220686746E+03 -0.41064250956E+03  0.16494587889E+04  0.50400001928E-02 0.  1.
</event>
<event>
 5   0  0.1391878E-06  0.3253019E+04  0.7818609E-02  0.8174954E-01
       -1   -1    0    0    0  501  0.00000000000E+00  0.00000000000E+00  0.13507924387E+04  0.13507924387E+04  0.50400001928E-02 0. -1.
        1   -1    0    0  501    0  0.00000000000E+00  0.00000000000E+00 -0.19585041246E+04  0.19585041246E+04  0.50400001928E-02 0.  1.
    10030    2    1    2    0    0  0.00000000000E+00  0.00000000000E+00 -0.60771168598E+03  0.33092965633E+04  0.32530186367E+04 0.  0.
        2    1    3    3  502    0  0.20087558625E+03 -0.15767714217E+04  0.47036713692E+02  0.15902111715E+04  0.25500000920E-02 0. -1.
       -2    1    3    3    0  502 -0.20087558625E+03  0.15767714217E+04 -0.65474839967E+03  0.17190853918E+04  0.25500000920E-02 0.  1.
</event>
<event>
 5   0  0.4017247E-06  0.3344421E+04  0.7818609E-02  0.8151683E-01
       -2   -1    0    0    0  501  0.00000000000E+00  0.00000000000E+00  0.14540750343E+04  0.14540750343E+04  0.25500000920E-02 0. -1.
        2   -1    0    0  501    0  0.00000000000E+00  0.00000000000E+00 -0.19230704062E+04  0.19230704062E+04  0.25500000920E-02 0.  1.
    10030    2    1    2    0    0  0.00000000000E+00  0.00000000000E+00 -0.46899537188E+03  0.33771454405E+04  0.33444214249E+04 0.  0.
        1    1    3    3  502    0  0.85714375586E+03  0.10460297855E+04 -0.12276941430E+04  0.18265012015E+04  0.50400001928E-02 0.  1.
       -1    1    3    3    0  502 -0.85714375586E+03 -0.10460297855E+04  0.75869877116E+03  0.15506442389E+04  0.50400001928E-02 0. -1.
</event>
<event>
 5   0  0.1352708E-06  0.3379331E+04  0.7818609E-02  0.8142998E-01
        1   -1    0    0  501    0  0.00000000000E+00  0.00000000000E+00  0.13557777513E+04  0.13557777513E+04  0.50400001928E-02 0.  1.
       -1   -1    0    0    0  501  0.00000000000E+00  0.00000000000E+00 -0.21057800445E+04  0.21057800445E+04  0.50400001928E-02 0. -1.
    10030    2    1    2    0    0  0.00000000000E+00  0.00000000000E+00 -0.75000229317E+03  0.34615577958E+04  0.33793311370E+04 0.  0.
        5    1    3    3  502    0  0.14187849788E+04  0.55657174711E+02  0.56319944645E+03  0.15275026166E+04  0.46999998093E+01 0.  1.
       -5    1    3    3    0  502 -0.14187849788E+04 -0.55657174711E+02 -0.13132017396E+04  0.19340551792E+04  0.46999998093E+01 0. -1.
</event>
<event>
 5   0  0.1339825E-06  0.3346272E+04  0.7818609E-02  0.8151220E-01
        1   -1    0    0  501    0  0.00000000000E+00  0.00000000000E+00  0.10896366670E+04  0.10896366670E+04  0.50400001928E-02 0.  1.
       -1   -1    0    0    0  501  0.00000000000E+00  0.00000000000E+00 -0.25690984609E+04  0.25690984609E+04  0.50400001928E-02 0. -1.
    10030    2    1    2    0    0  0.00000000000E+00  0.00000000000E+00 -0.14794617938E+04  0.36587351279E+04  0.33462718862E+04 0.  0.
        3    1    3    3  502    0 -0.46854887935E+03  0.48530265927E+03  0.93435930304E+03  0.11524252864E+04  0.10100000352E+00 0.  1.
       -3    1    3    3    0  502  0.46854887935E+03 -0.48530265927E+03 -0.24138210969E+04  0.25063098415E+04  0.10100000352E+00 0. -1.
</event>
<event>
 5   0  0.3920487E-06  0.3277588E+04  0.7818609E-02  0.8168622E-01
        2   -1    0    0  501    0  0.00000000000E+00  0.00000000000E+00  0.24509350460E+04  0.24509350460E+04  0.25500000920E-02 0.  1.
       -2   -1    0    0    0  501  0.00000000000E+00  0.00000000000E+00 -0.10957635213E+04  0.10957635213E+04  0.25500000920E-02 0. -1.
    10030    2    1    2    0    0  0.00000000000E+00  0.00000000000E+00  0.13551715247E+04  0.35466985673E+04  0.32775876596E+04 0.  0.
        4    1    3    3  502    0  0.57160691074E+03 -0.11280105101E+04 -0.45035194451E+03  0.13423712817E+04  0.12699999809E+01 0. -1.
       -4    1    3    3    0  502 -0.57160691074E+03  0.11280105101E+04  0.18055234692E+04  0.22043272856E+04  0.12699999809E+01 0.  1.
</event>
<event>
 5   0  0.1282578E-06  0.3236284E+04  0.7818609E-02  0.8179300E-01
        1   -1    0    0  501    0  0.00000000000E+00  0.00000000000E+00  0.20007615891E+04  0.20007615891E+04  0.50400001928E-02 0. -1.
       -1   -1    0    0    0  501  0.00000000000E+00  0.00000000000E+00 -0.13086936590E+04  0.13086936590E+04  0.50400001928E-02 0.  1.
    10030    2    1    2    0    0  0.00000000000E+00  0.00000000000E+00  0.69206793012E+03  0.33094552481E+04  0.32362842921E+04 0.  0.
        4    1    3    3  502    0 -0.76808028270E+03  0.56764262775E+03 -0.98972152990E+03  0.13753965949E+04  0.12699999809E+01 0.  1.
       -4    1    3    3    0  502  0.76808028270E+03 -0.56764262775E+03  0.16817894600E+04  0.19340586533E+04  0.12699999809E+01 0. -1.
</event>
<event>
 5   0  0.3896210E-06  0.2092767E+04  0.7818609E-02  0.8564436E-01
       -2   -1    0    0    0  501  0.00000000000E+00  0.00000000000E+00  0.47866847552E+03  0.47866847553E+03  0.25500000920E-02 0.  1.
        2   -1    0    0  501    0  0.00000000000E+00  0.00000000000E+00 -0.22874258960E+04  0.22874258960E+04  0.25500000920E-02 0. -1.
    10030    2    1    2    0    0  0.00000000000E+00  0.00000000000E+00 -0.18087574205E+04  0.27660943715E+04  0.20927672269E+04 0.  0.
        3    1    3    3  502    0  0.32010692123E+03  0.26861224499E+03  0.36359494510E+03  0.55391540282E+03  0.10100000352E+00 0.  1.
       -3    1    3    3    0  502 -0.32010692123E+03 -0.26861224499E+03 -0.21723523656E+04  0.22121789687E+04  0.10100000352E+00 0. -1.
</event>
<event>
 5   0  0.3896210E-06  0.3186695E+04  0.7818609E-02  0.8192340E-01
        2   -1    0    0  501    0  0.00000000000E+00  0.00000000000E+00  0.20378011756E+04  0.20378011756E+04  0.25500000920E-02 0.  1.
       -2   -1    0    0    0  501  0.00000000000E+00  0.00000000000E+00 -0.12458310915E+04  0.12458310915E+04  0.25500000920E-02 0. -1.
    10030    2    1    2    0    0  0.00000000000E+00  0.00000000000E+00  0.79197008411E+03  0.32836322671E+04  0.31866948789E+04 0.  0.
        3    1    3    3  502    0 -0.17074968458E+03 -0.12704012195E+04 -0.57920845213E+03  0.14066119417E+04  0.10100000352E+00 0. -1.
       -3    1    3    3    0  502  0.17074968458E+03  0.12704012195E+04  0.13711785362E+04  0.18770203254E+04  0.10100000352E+00 0.  1.
</event>
<event>
 5   0  0.3896210E-06  0.3520038E+04  0.7818609E-02  0.8109058E-01
        2   -1    0    0  501    0  0.00000000000E+00  0.00000000000E+00  0.22484485149E+04  0.22484485149E+04  0.25500000920E-02 0.  1.
       -2   -1    0    0    0  501  0.00000000000E+00  0.00000000000E+00 -0.13776910004E+04  0.13776910004E+04  0.25500000920E-02 0. -1.
    10030    2    1    2    0    0  0.00000000000E+00  0.00000000000E+00  0.87075751456E+03  0.36261395153E+04  0.35200382292E+04 0.  0.
        3    1    3    3  502    0 -0.48552392292E+02 -0.12188799807E+04 -0.87157949082E+03  0.14992253203E+04  0.10100000352E+00 0. -1.
       -3    1    3    3    0  502  0.48552392292E+02  0.12188799807E+04  0.17423370054E+04  0.21269141949E+04  0.10100000352E+00 0.  1.
</event>
<event>
 5   0  0.1391878E-06  0.3420855E+04  0.7818609E-02  0.8132807E-01
       -1   -1    0    0    0  501  0.00000000000E+00  0.00000000000E+00  0.21300273368E+04  0.21300273368E+04  0.50400001928E-02 0.  1.
        1   -1    0    0  501    0  0.00000000000E+00  0.00000000000E+00 -0.13734855373E+04  0.13734855373E+04  0.50400001928E-02 0. -1.
    10030    2    1    2    0    0  0.00000000000E+00  0.00000000000E+00  0.75654179951E+03  0.35035128741E+04  0.34208547126E+04 0.  0.
        2    1    3    3  502    0  0.91449829480E+02 -0.50576615396E+03  0.20490695070E+04  0.21125454595E+04  0.25500000920E-02 0.  1.
       -2    1    3    3    0  502 -0.91449829480E+02  0.50576615396E+03 -0.12925277075E+04  0.13909674146E+04  0.25500000920E-02 0. -1.
</event>
<event>
 5   0  0.3812379E-06  0.3260704E+04  0.7818609E-02  0.8172967E-01
        2   -1    0    0  501    0  0.00000000000E+00  0.00000000000E+00  0.27438207356E+04  0.27438207356E+04  0.25500000920E-02 0.  1.
       -2   -1    0    0    0  501  0.00000000000E+00  0.00000000000E+00 -0.96873932931E+03  0.96873932931E+03  0.25500000920E-02 0. -1.
    10030    2    1    2    0    0  0.00000000000E+00  0.00000000000E+00  0.17750814063E+04  0.37125600649E+04  0.32607036414E+04 0.  0.
        5    1    3    3  502    0 -0.16222276889E+04 -0.98783532568E+02  0.74065063656E+03  0.17860476803E+04  0.46999998093E+01 0. -1.
       -5    1    3    3    0  502  0.16222276889E+04  0.98783532568E+02  0.10344307697E+04  0.19265123847E+04  0.46999998093E+01 0.  1.
</event>
<event>
 5   0  0.3812379E-06  0.3353774E+04  0.7818609E-02  0.8149346E-01
        2   -1    0    0  501    0  0.00000000000E+00  0.00000000000E+00  0.35125884624E+04  0.35125884624E+04  0.25500000920E-02 0.  1.
       -2   -1    0    0    0  501  0.00000000000E+00  0.00000000000E+00 -0.80053491125E+03  0.80053491126E+03  0.25500000920E-02 0. -1.
    10030    2    1    2    0    0  0.00000000000E+00  0.00000000000E+00  0.27120535512E+04  0.43131233737E+04  0.33537738105E+04 0.  0.
        5    1    3    3  502    0 -0.14650463253E+04 -0.69712551368E+03  0.81103420109E+03  0.18138752114E+04  0.46999998093E+01 0. -1.
       -5    1    3    3    0  502  0.14650463253E+04  0.69712551368E+03  0.19010193501E+04  0.24992481623E+04  0.46999998093E+01 0.  1.
</event>
<event>
 5   0  0.3920487E-06  0.3264285E+04  0.7818609E-02  0.8172043E-01
       -2   -1    0    0    0  501  0.00000000000E+00  0.00000000000E+00  0.16322467495E+04  0.16322467495E+04  0.25500000920E-02 0.  1.
        2   -1    0    0  501    0  0.00000000000E+00  0.00000000000E+00 -0.16320383908E+04  0.16320383908E+04  0.25500000920E-02 0. -1.
    10030    2    1    2    0    0  0.00000000000E+00  0.00000000000E+00  0.20835865521E+00  0.32642851403E+04  0.32642851336E+04 0.  0.
        4    1    3    3  502    0 -0.59777370437E+03  0.37486813504E+03  0.14718474430E+04  0.16322365112E+04  0.12699999809E+01 0.  1.
       -4    1    3    3    0  502  0.59777370437E+03 -0.37486813504E+03 -0.14716390843E+04  0.16320486291E+04  0.12699999809E+01 0. -1.
</event>
<event>
 5   0  0.3920487E-06  0.3415530E+04  0.7818609E-02  0.8134105E-01
       -2   -1    0    0    0  501  0.00000000000E+00  0.00000000000E+00  0.12067442993E+04  0.12067442993E+04  0.25500000920E-02 0. -1.
        2   -1    0    0  501    0  0.00000000000E+00  0.00000000000E+00 -0.24168009979E+04  0.24168009979E+04  0.25500000920E-02 0.  1.
    10030    2    1    2    0    0  0.00000000000E+00  0.00000000000E+00 -0.12100566986E+04  0.36235452972E+04  0.34155297257E+04 0.  0.
        4    1    3    3  502    0 -0.93473565140E+03 -0.56701602923E+03 -0.19968833081E+04  0.22765725278E+04  0.12699999809E+01 0.  1.
       -4    1    3    3    0  502  0.93473565140E+03  0.56701602923E+03  0.78682660942E+03  0.13469727694E+04  0.12699999809E+01 0. -1.
</event>
<event>
 5   0  0.1282578E-06  0.3239283E+04  0.7818609E-02  0.8178519E-01
       -1   -1    0    0    0  501  0.00000000000E+00  0.00000000000E+00  0.14326544142E+04  0.14326544142E+04  0.50400001928E-02 0.  1.
        1   -1    0    0  501    0  0.00000000000E+00  0.00000000000E+00 -0.18310337558E+04  0.18310337558E+04  0.50400001928E-02 0. -1.
    10030    2    1    2    0    0  0.00000000000E+00  0.00000000000E+00 -0.39837934157E+03  0.32636881700E+04  0.32392830026E+04 0.  0.
        4    1    3    3  502    0  0.14762043938E+04 -0.28187710750E+03 -0.80756249069E+03  0.17061045997E+04  0.12699999809E+01 0. -1.
       -4    1    3    3    0  502 -0.14762043938E+04  0.28187710750E+03  0.40918314912E+03  0.15575835703E+04  0.12699999809E+01 0.  1.
</event>
<event>
 5   0  0.3896210E-06  0.3273304E+04  0.7818609E-02  0.8169722E-01
        2   -1    0    0  501    0  0.00000000000E+00  0.00000000000E+00  0.21084858161E+04  0.21084858161E+04  0.25500000920E-02 0.  1.
       -2   -1    0    0    0  501  0.00000000000E+00  0.00000000000E+00 -0.12704046307E+04  0.12704046307E+04  0.25500000920E-02 0. -1.
    10030    2    1    2    0    0  0.00000000000E+00  0.00000000000E+00  0.83808118544E+03  0.33788904468E+04  0.32733042294E+04 0.  0.
        3    1    3    3  502    0  0.84983291691E+03  0.13929947172E+04  0.28855147316E+03  0.16570794283E+04  0.10100000352E+00 0. -1.
       -3    1    3    3    0  502 -0.84983291691E+03 -0.13929947172E+04  0.54952971228E+03  0.17218110185E+04  0.10100000352E+00 0.  1.
</event>
<event>
 5   0  0.1282578E-06  0.3185344E+04  0.7818609E-02  0.8192698E-01
       -1   -1    0    0    0  501  0.00000000000E+00  0.00000000000E+00  0.30159854906E+04  0.30159854906E+04  0.50400001928E-02 0.  1.
        1   -1    0    0  501    0  0.00000000000E+00  0.00000000000E+00 -0.84105340219E+03  0.84105340220E+03  0.50400001928E-02 0. -1.
    10030    2    1    2    0    0  0.00000000000E+00  0.00000000000E+00  0.21749320884E+04  0.38570388928E+04  0.31853444761E+04 0.  0.
        4    1    3    3  502    0  0.14595844158E+04 -0.63369155259E+03  0.11700505402E+04  0.19750877272E+04  0.12699999809E+01 0.  1.
       -4    1    3    3    0  502 -0.14595844158E+04  0.63369155259E+03  0.10048815482E+04  0.18819511656E+04  0.12699999809E+01 0. -1.
</event>
<event>
 5   0  0.4017247E-06  0.3283134E+04  0.7818609E-02  0.8167200E-01
       -2   -1    0    0    0  501  0.00000000000E+00  0.00000000000E+00  0.11450042827E+04  0.11450042827E+04  0.25500000920E-02 0.  1.
        2   -1    0    0  501    0  0.00000000000E+00  0.00000000000E+00 -0.23534782623E+04  0.23534782623E+04  0.25500000920E-02 0. -1.
    10030    2    1    2    0    0  0.00000000000E+00  0.00000000000E+00 -0.12084739796E+04  0.34984825450E+04  0.32831342888E+04 0.  0.
        1    1    3    3  502    0  0.70863616959E+02  0.13850236980E+04  0.33168453873E+03  0.14259477303E+04  0.50400001928E-02 0.  1.
       -1    1    3    3    0  502 -0.70863616959E+02 -0.13850236980E+04 -0.15401585184E+04  0.20725348147E+04  0.50400001928E-02 0. -1.
</event>
<event>
 5   0  0.3671997E-06  0.3231887E+04  0.7818609E-02  0.8180446E-01
        2   -1    0    0  501    0  0.00000000000E+00  0.00000000000E+00  0.20414101700E+04  0.20414101700E+04  0.25500000920E-02 0. -1.
       -2   -1    0    0    0  501  0.00000000000E+00  0.00000000000E+00 -0.12791517399E+04  0.12791517399E+04  0.25500000920E-02 0.  1.
    10030    2    1    2    0    0  0.00000000000E+00  0.00000000000E+00  0.76225843018E+03  0.33205619099E+04  0.32318869849E+04 0.  0.
        2    1    3    3  502    0  0.14746809971E+04 -0.62813458955E+03  0.17047629834E+03  0.16119240907E+04  0.25500000920E-02 0.  1.
       -2    1    3    3    0  502 -0.14746809971E+04  0.62813458955E+03  0.59178213184E+03  0.17086378192E+04  0.25500000920E-02 0. -1.
</event>
<event>
 5   0  0.1282578E-06  0.3294694E+04  0.7818609E-02  0.8164247E-01
       -1   -1    0    0    0  501  0.00000000000E+00  0.00000000000E+00  0.12871272192E+04  0.12871272192E+04  0.50400001928E-02 0. -1.
        1   -1    0    0  501    0  0.00000000000E+00  0.00000000000E+00 -0.21083793140E+04  0.21083793140E+04  0.50400001928E-02 0.  1.
    10030    2    1    2    0    0  0.00000000000E+00  0.00000000000E+00 -0.82125209481E+03  0.33955065332E+04  0.32946941609E+04 0.  0.
        4    1    3    3  502    0  0.11782130102E+04 -0.46988511997E+03  0.67261713403E+03  0.14357553222E+04  0.12699999809E+01 0. -1.
       -4    1    3    3    0  502 -0.11782130102E+04  0.46988511997E+03 -0.14938692288E+04  0.19597512110E+04  0.12699999809E+01 0.  1.
</event>
<event>
 5   0  0.1391878E-06  0.3291549E+04  0.7818609E-02  0.8165049E-01
       -1   -1    0    0    0  501  0.00000000000E+00  0.00000000000E+00  0.15731016703E+04  0.15731016703E+04  0.50400001928E-02 0. -1.
        1   -1    0    0  501    0  0.00000000000E+00  0.00000000000E+00 -0.17218043086E+04  0.17218043086E+04  0.50400001928E-02 0.  1.
    10030    2    1    2    0    0  0.00000000000E+00  0.00000000000E+00 -0.14870263826E+03  0.32949059789E+04  0.32915487138E+04 0.  0.
        2    1    3    3  502    0  0.12448069424E+03 -0.12737726821E+04 -0.11100954812E+04  0.16941972336E+04  0.25500000920E-02 0. -1.
       -2    1    3    3    0  502 -0.12448069424E+03  0.12737726821E+04  0.96139284291E+03  0.16007087453E+04  0.25500000920E-02 0.  1.
</event>
<event>
 5   0  0.3920487E-06  0.3292795E+04  0.7818609E-02  0.8164731E-01
        2   -1    0    0  501    0  0.00000000000E+00  0.00000000000E+00  0.23173841626E+04  0.23173841626E+04  0.25500000920E-02 0.  1.
       -2   -1    0    0    0  501  0.00000000000E+00  0.00000000000E+00 -0.11696918893E+04  0.11696918893E+04  0.25500000920E-02 0. -1.
    10030    2    1    2    0    0  0.00000000000E+00  0.00000000000E+00  0.11476922733E+04  0.34870760519E+04  0.32927954443E+04 0.  0.
        4    1    3    3  502    0  0.11854038086E+04  0.98952357008E+03 -0.31069850729E+02  0.15444436000E+04  0.12699999809E+01 0. -1.
       -4    1    3    3    0  502 -0.11854038086E+04 -0.98952357008E+03  0.11787621240E+04  0.19426324519E+04  0.12699999809E+01 0.  1.
</event>
<event>
 5   0  0.3920487E-06  0.3725217E+04  0.7818609E-02  0.8062396E-01
        2   -1    0    0  501    0  0.00000000000E+00  0.00000000000E+00  0.22472372205E+04  0.22472372205E+04  0.25500000920E-02 0. -1.
       -2   -1    0    0    0  501  0.00000000000E+00  0.00000000000E+00 -0.15438115093E+04  0.15438115093E+04  0.25500000920E-02 0.  1.
    10030    2    1    2    0    0  0.00000000000E+00  0.00000000000E+00  0.70342571113E+03  0.37910487298E+04  0.37252171401E+04 0.  0.
        4    1    3    3  502    0  0.88640511852E+03 -0.16297497756E+04  0.52050749522E+03  0.19268440598E+04  0.12699999809E+01 0. -1.
       -4    1    3    3    0  502 -0.88640511852E+03  0.16297497756E+04  0.18291821590E+03  0.18642046700E+04  0.12699999809E+01 0.  1.
</event>
<event>
 5   0  0.1282578E-06  0.3334759E+04  0.7818609E-02  0.8154107E-01
       -1   -1    0    0    0  501  0.00000000000E+00  0.00000000000E+00  0.16479897965E+04  0.16479897965E+04  0.50400001928E-02 0. -1.
        1   -1    0    0  501    0  0.00000000000E+00  0.00000000000E+00 -0.16869973259E+04  0.16869973259E+04  0.50400001928E-02 0.  1.
    10030    2    1    2    0    0  0.00000000000E+00  0.00000000000E+00 -0.39007529419E+02  0.33349871224E+04  0.33347589897E+04 0.  0.
        4    1    3    3  502    0 -0.11919545293E+03 -0.49717302336E+03 -0.16066738336E+04  0.16860578257E+04  0.12699999809E+01 0.  1.
       -4    1    3    3    0  502  0.11919545293E+03  0.49717302336E+03  0.15676663042E+04  0.16489292967E+04  0.12699999809E+01 0. -1.
</event>
<event>
 5   0  0.1391878E-06  0.3313792E+04  0.7818609E-02  0.8159395E-01
       -1   -1    0    0    0  501  0.00000000000E+00  0.00000000000E+00  0.12911085430E+04  0.12911085431E+04  0.50400001928E-02 0. -1.
        1   -1    0    0  501    0  0.00000000000E+00  0.00000000000E+00 -0.21263152387E+04  0.21263152387E+04  0.50400001928E-02 0.  1.
    10030    2    1    2    0    0  0.00000000000E+00  0.00000000000E+00 -0.83520669561E+03  0.34174237817E+04  0.33137916470E+04 0.  0.
        2    1    3    3  502    0  0.99392963832E+03  0.11200997790E+04 -0.11488508886E+04  0.18874262913E+04  0.25500000920E-02 0.  1.
       -2    1    3    3    0  502 -0.99392963832E+03 -0.11200997790E+04  0.31364419298E+03  0.15299974904E+04  0.25500000920E-02 0. -1.
</event>
<event>
 5   0  0.3812379E-06  0.3191401E+04  0.7818609E-02  0.8191092E-01
       -2   -1    0    0    0  501  0.00000000000E+00  0.00000000000E+00  0.13873874403E+04  0.13873874403E+04  0.25500000920E-02 0. -1.
        2   -1    0    0  501    0  0.00000000000E+00  0.00000000000E+00 -0.18352911930E+04  0.18352911930E+04  0.25500000920E-02 0.  1.
    10030    2    1    2    0    0  0.00000000000E+00  0.00000000000E+00 -0.44790375271E+03  0.32226786334E+04  0.31914009153E+04 0.  0.
        5    1    3    3  502    0 -0.14943108001E+04 -0.86389343362E+02 -0.78237251082E+03  0.16889513675E+04  0.46999998093E+01 0.  1.
       -5    1    3    3    0  502  0.14943108001E+04  0.86389343362E+02  0.33446875811E+03  0.15337272659E+04  0.46999998093E+01 0. -1.
</event>
<event>
 5   0  0.3812379E-06  0.3318852E+04  0.7818609E-02  0.8158115E-01
        2   -1    0    0  501    0  0.00000000000E+00  0.00000000000E+00  0.18984111483E+04  0.18984111483E+04  0.25500000920E-02 0.  1.
       -2   -1    0    0    0  501  0.00000000000E+00  0.00000000000E+00 -0.14505259262E+04  0.14505259262E+04  0.25500000920E-02 0. -1.
    10030    2    1    2    0    0  0.00000000000E+00  0.00000000000E+00  0.44788522215E+03  0.33489370745E+04  0.33188519636E+04 0.  0.
        5    1    3    3  502    0 -0.19163604397E+02 -0.98212654095E+03 -0.11256162494E+04  0.14939791889E+04  0.46999998093E+01 0. -1.
       -5    1    3    3    0  502  0.19163604397E+02  0.98212654095E+03  0.15735014715E+04  0.18549578855E+04  0.46999998093E+01 0.  1.
</event>
<event>
 5   0  0.1352708E-06  0.3172135E+04  0.7818609E-02  0.8196215E-01
        1   -1    0    0  501    0  0.00000000000E+00  0.00000000000E+00  0.16853321965E+04  0.16853321965E+04  0.50400001928E-02 0. -1.
       -1   -1    0    0    0  501  0.00000000000E+00  0.00000000000E+00 -0.14926490144E+04  0.14926490144E+04  0.50400001928E-02 0.  1.
    10030    2    1    2    0    0  0.00000000000E+00  0.00000000000E+00  0.19268318213E+03  0.31779812110E+04  0.31721345761E+04 0.  0.
        5    1    3    3  502    0 -0.40033942145E+03 -0.14413193983E+04 -0.43180563824E+03  0.15569686765E+04  0.46999998093E+01 0.  1.
       -5    1    3    3    0  502  0.40033942145E+03  0.14413193983E+04  0.62448882037E+03  0.16210125345E+04  0.46999998093E+01 0. -1.
</event>
<event>
 5   0  0.3671997E-06  0.3305767E+04  0.7818609E-02  0.8161429E-01
        2   -1    0    0  501    0  0.00000000000E+00  0.00000000000E+00  0.16749212073E+04  0.16749212073E+04  0.25500000920E-02 0.  1.
       -2   -1    0    0    0  501  0.00000000000E+00  0.00000000000E+00 -0.16311360213E+04  0.16311360213E+04  0.25500000920E-02 0. -1.
    10030    2    1    2    0    0  0.00000000000E+00  0.00000000000E+00  0.43785186047E+02  0.33060572286E+04  0.33057672720E+04 0.  0.
        2    1    3    3  502    0 -0.48234591320E+03 -0.75321342923E+03 -0.13682063984E+04  0.16346182425E+04  0.25500000920E-02 0. -1.
       -2    1    3    3    0  502  0.48234591320E+03  0.75321342923E+03  0.14119915844E+04  0.16714389862E+04  0.25500000920E-02 0.  1.
</event>
<event>
 5   0  0.1282578E-06  0.3290560E+04  0.7818609E-02  0.8165302E-01
        1   -1    0    0  501    0  0.00000000000E+00  0.00000000000E+00  0.25813435612E+04  0.25813435612E+04  0.50400001928E-02 0.  1.
       -1   -1    0    0    0  501  0.00000000000E+00  0.00000000000E+00 -0.10486577299E+04  0.10486577299E+04  0.50400001928E-02 0. -1.
    10030    2    1    2    0    0  0.00000000000E+00  0.00000000000E+00  0.15326858313E+04  0.36300012911E+04  0.32905597573E+04 0.  0.
        4    1    3    3  502    0  0.91108037432E+03 -0.13545256142E+04  0.53989427337E+03  0.17193878351E+04  0.12699999809E+01 0. -1.
       -4    1    3    3    0  502 -0.91108037432E+03  0.13545256142E+04  0.99279155788E+03  0.19106134560E+04  0.12699999809E+01 0.  1.
</event>
<event>
 5   0  0.3896210E-06  0.2070643E+04  0.7818609E-02  0.8574287E-01
        2   -1    0    0  501    0  0.00000000000E+00  0.00000000000E+00  0.10969882114E+04  0.10969882114E+04  0.25500000920E-02 0. -1.
       -2   -1    0    0    0  501  0.00000000000E+00  0.00000000000E+00 -0.97712109605E+03  0.97712109605E+03  0.25500000920E-02 0.  1.
    10030    2    1    2    0    0  0.00000000000E+00  0.00000000000E+00  0.11986711533E+03  0.20741093074E+04  0.20706427248E+04 0.  0.
        3    1    3    3  502    0 -0.79676171706E+03  0.60696044576E+03  0.32240295566E+03  0.10522233092E+04  0.10100000352E+00 0. -1.
       -3    1    3    3    0  502  0.79676171706E+03 -0.60696044576E+03 -0.20253584033E+03  0.10218859982E+04  0.10100000352E+00 0.  1.
</event>
<event>
 5   0  0.3812379E-06  0.3249189E+04  0.7818609E-02  0.8175946E-01
       -2   -1    0    0    0  501  0.00000000000E+00  0.00000000000E+00  0.23369816819E+04  0.23369816819E+04  0.25500000920E-02 0.  1.
        2   -1    0    0  501    0  0.00000000000E+00  0.00000000000E+00 -0.11293660962E+04  0.11293660962E+04  0.25500000920E-02 0. -1.
    10030    2    1    2    0    0  0.00000000000E+00  0.00000000000E+00  0.12076155857E+04  0.34663477781E+04  0.32491893628E+04 0.  0.
        5    1    3    3  502    0 -0.14780039653E+04 -0.65673729495E+03  0.44031318969E+03  0.16762151983E+04  0.46999998093E+01 0. -1.
       -5    1    3    3    0  502  0.14780039653E+04  0.65673729495E+03  0.76730239605E+03  0.17901325797E+04  0.46999998093E+01 0.  1.
</event>
<event>
 5   0  0.3671997E-06  0.3300220E+04  0.7818609E-02  0.8162840E-01
        2   -1    0    0  501    0  0.00000000000E+00  0.00000000000E+00  0.29521677123E+04  0.29521677123E+04  0.25500000920E-02 0.  1.
       -2   -1    0    0    0  501  0.00000000000E+00  0.00000000000E+00 -0.92232642201E+03  0.92232642202E+03  0.25500000920E-02 0. -1.
    10030    2    1    2    0    0  0.00000000000E+00  0.00000000000E+00  0.20298412902E+04  0.38744941343E+04  0.33002195583E+04 0.  0.
        2    1    3    3  502    0 -0.49616628580E+03  0.48599181919E+03 -0.74237160633E+03  0.10166044626E+04  0.25500000920E-02 0. -1.
       -2    1    3    3    0  502  0.49616628580E+03 -0.48599181919E+03  0.27722128966E+04  0.28578896717E+04  0.25500000920E-02 0.  1.
</event>
<event>
 5   0  0.1339825E-06  0.3274553E+04  0.7818609E-02  0.8169401E-01
        1   -1    0    0  501    0  0.00000000000E+00  0.00000000000E+00  0.16962046228E+04  0.16962046228E+04  0.50400001928E-02 0.  1.
       -1   -1    0    0    0  501  0.00000000000E+00  0.00000000000E+00 -0.15803954891E+04  0.15803954891E+04  0.50400001928E-02 0. -1.
    10030    2    1    2    0    0  0.00000000000E+00  0.00000000000E+00  0.11580913370E+03  0.32766001120E+04  0.32745528761E+04 0.  0.
        3    1    3    3  502    0 -0.10798739401E+04 -0.12278483942E+04 -0.25422455063E+02  0.16353549208E+04  0.10100000352E+00 0.  1.
       -3    1    3    3    0  502  0.10798739401E+04  0.12278483942E+04  0.14123158877E+03  0.16412451912E+04  0.10100000352E+00 0. -1.
</event>
<event>
 5   0  0.3671997E-06  0.2171744E+04  0.7818609E-02  0.8530282E-01
       -2   -1    0    0    0  501  0.00000000000E+00  0.00000000000E+00  0.81730973963E+03  0.81730973963E+03  0.25500000920E-02 0.  1.
        2   -1    0    0  501    0  0.00000000000E+00  0.00000000000E+00 -0.14426812797E+04  0.14426812797E+04  0.25500000920E-02 0. -1.
    10030    2    1    2    0    0  0.00000000000E+00  0.00000000000E+00 -0.62537154008E+03  0.22599910193E+04  0.21717435034E+04 0.  0.
        2    1    3    3  502    0  0.41843257499E+03  0.32764600654E+03  0.67272399104E+03  0.85731866511E+03  0.25500000920E-02 0.  1.
       -2    1    3    3    0  502 -0.41843257499E+03 -0.32764600654E+03 -0.12980955311E+04  0.14026723542E+04  0.25500000920E-02 0. -1.
</event>
<event>
 5   0  0.1352708E-06  0.3321553E+04  0.7818609E-02  0.8157433E-01
        1   -1    0    0  501    0  0.00000000000E+00  0.00000000000E+00  0.15683886934E+04  0.15683886934E+04  0.50400001928E-02 0.  1.
       -1   -1    0    0    0  501  0.00000000000E+00  0.00000000000E+00 -0.17586068756E+04  0.17586068756E+04  0.50400001928E-02 0. -1.
    10030    2    1    2    0    0  0.00000000000E+00  0.00000000000E+00 -0.19021818221E+03  0.33269955691E+04  0.33215533354E+04 0.  0.
        5    1    3    3  502    0 -0.15555463692E+04  0.25535057821E+03 -0.61867829130E+03  0.16934324146E+04  0.46999998093E+01 0. -1.
       -5    1    3    3    0  502  0.15555463692E+04 -0.25535057821E+03  0.42846010909E+03  0.16335631545E+04  0.46999998093E+01 0.  1.
</event>
<event>
 5   0  0.1282578E-06  0.3230348E+04  0.7818609E-02  0.8180848E-01
        1   -1    0    0  501    0  0.00000000000E+00  0.00000000000E+00  0.20328284023E+04  0.20328284023E+04  0.50400001928E-02 0. -1.
       -1   -1    0    0    0  501  0.00000000000E+00  0.00000000000E+00 -0.12833290486E+04  0.12833290486E+04  0.50400001928E-02 0.  1.
    10030    2    1    2    0    0  0.00000000000E+00  0.00000000000E+00  0.74949935365E+03  0.33161574509E+04  0.32303484267E+04 0.  0.
        4    1    3    3  502    0 -0.98504643733E+03  0.80655611754E+02  0.16861675661E+04  0.19544780596E+04  0.12699999809E+01 0. -1.
       -4    1    3    3    0  502  0.98504643733E+03 -0.80655611754E+02 -0.93666821250E+03  0.13616793913E+04  0.12699999809E+01 0.  1.
</event>
<event>
 5   0  0.3896210E-06  0.3385107E+04  0.7818609E-02  0.8141571E-01
        2   -1    0    0  501    0  0.00000000000E+00  0.00000000000E+00  0.24600634561E+04  0.24600634561E+04  0.25500000920E-02 0.  1.
       -2   -1    0    0    0  501  0.00000000000E+00  0.00000000000E+00 -0.11644973949E+04  0.11644973949E+04  0.25500000920E-02 0. -1.
    10030    2    1    2    0    0  0.00000000000E+00  0.00000000000E+00  0.12955660612E+04  0.36245608511E+04  0.33851070802E+04 0.  0.
        3    1    3    3  502    0 -0.11870493792E+03 -0.13949902075E+04  0.16661938913E+04  0.21763020551E+04  0.10100000352E+00 0.  1.
       -3    1    3    3    0  502  0.11870493792E+03  0.13949902075E+04 -0.37062783016E+03  0.14482587960E+04  0.10100000352E+00 0. -1.
</event>
<event>
 5   0  0.1339825E-06  0.3371802E+04  0.7818609E-02  0.8144862E-01
       -1   -1    0    0    0  501  0.00000000000E+00  0.00000000000E+00  0.16202784738E+04  0.16202784738E+04  0.50400001928E-02 0. -1.
        1   -1    0    0  501    0  0.00000000000E+00  0.00000000000E+00 -0.17541813527E+04  0.17541813527E+04  0.50400001928E-02 0.  1.
    10030    2    1    2    0    0  0.00000000000E+00  0.00000000000E+00 -0.13390287895E+03  0.33744598265E+04  0.33718020612E+04 0.  0.
        3    1    3    3  502    0  0.16801224019E+03  0.36541306232E+03  0.15715646116E+04  0.16222115021E+04  0.10100000352E+00 0. -1.
       -3    1    3    3    0  502 -0.16801224019E+03 -0.36541306232E+03 -0.17054674905E+04  0.17522483244E+04  0.10100000352E+00 0.  1.
</event>
<event>
 5   0  0.1391878E-06  0.3209190E+04  0.7818609E-02  0.8186394E-01
        1   -1    0    0  501    0  0.00000000000E+00  0.00000000000E+00  0.14722246255E+04  0.14722246255E+04  0.50400001928E-02 0.  1.
       -1   -1    0    0    0  501  0.00000000000E+00  0.00000000000E+00 -0.17488673986E+04  0.17488673986E+04  0.50400001928E-02 0. -1.
    10030    2    1    2    0    0  0.00000000000E+00  0.00000000000E+00 -0.27664277317E+03  0.32210920241E+04  0.32091903346E+04 0.  0.
        2    1    3    3  502    0  0.87576634096E+02 -0.38841101363E+03  0.14218541216E+04  0.14765506850E+04  0.25500000920E-02 0.  1.
       -2    1    3    3    0  502 -0.87576634096E+02  0.38841101363E+03 -0.16984968947E+04  0.17445413391E+04  0.25500000920E-02 0. -1.
</event>
<event>
 5   0  0.1391878E-06  0.3246351E+04  0.7818609E-02  0.8176682E-01
       -1   -1    0    0    0  501  0.00000000000E+00  0.00000000000E+00  0.11961889572E+04  0.11961889572E+04  0.50400001928E-02 0. -1.
        1   -1    0    0  501    0  0.00000000000E+00  0.00000000000E+00 -0.22025770181E+04  0.22025770181E+04  0.50400001928E-02 0.  1.
    10030    2    1    2    0    0  0.00000000000E+00  0.00000000000E+00 -0.10063880610E+04  0.33987659753E+04  0.32463507552E+04 0.  0.
        2    1    3    3  502    0 -0.91875279081E+03 -0.99874393016E+03  0.42918047824E+03  0.14233032044E+04  0.25500000920E-02 0. -1.
       -2    1    3    3    0  502  0.91875279081E+03  0.99874393016E+03 -0.14355685392E+04  0.19754627709E+04  0.25500000920E-02 0.  1.
</event>
<event>
 5   0  0.3920487E-06  0.3307720E+04  0.7818609E-02  0.8160934E-01
        2   -1    0    0  501    0  0.00000000000E+00  0.00000000000E+00  0.15624016859E+04  0.15624016859E+04  0.25500000920E-02 0. -1.
       -2   -1    0    0    0  501  0.00000000000E+00  0.00000000000E+00 -0.17506716054E+04  0.17506716054E+04  0.25500000920E-02 0.  1.
    10030    2    1    2    0    0  0.00000000000E+00  0.00000000000E+00 -0.18826991941E+03  0.33130732913E+04  0.33077196180E+04 0.  0.
        4    1    3    3  502    0  0.10974698544E+04  0.70807663524E+02 -0.13313657260E+04  0.17268439755E+04  0.12699999809E+01 0.  1.
       -4    1    3    3    0  502 -0.10974698544E+04 -0.70807663524E+02  0.11430958066E+04  0.15862293158E+04  0.12699999809E+01 0. -1.
</event>
<event>
 5   0  0.1405389E-06  0.3281708E+04  0.7818609E-02  0.8167565E-01
       -1   -1    0    0    0  501  0.00000000000E+00  0.00000000000E+00  0.12291554877E+04  0.12291554877E+04  0.50400001928E-02 0. -1.
        1   -1    0    0  501    0  0.00000000000E+00  0.00000000000E+00 -0.21904485799E+04  0.21904485799E+04  0.50400001928E-02 0.  1.
    10030    2    1    2    0    0  0.00000000000E+00  0.00000000000E+00 -0.96129309224E+03  0.34196040677E+04  0.32817080264E+04 0.  0.
        1    1    3    3  502    0  0.25083939445E+03 -0.13832970554E+04  0.40105890334E+03  0.14619437025E+04  0.50400001928E-02 0.  1.
       -1    1    3    3    0  502 -0.25083939445E+03  0.13832970554E+04 -0.13623519956E+04  0.19576603651E+04  0.50400001928E-02 0. -1.
</event>
<event>
 5   0  0.1405389E-06  0.3299718E+04  0.7818609E-02  0.8162967E-01
       -1   -1    0    0    0  501  0.00000000000E+00  0.00000000000E+00  0.10354812344E+04  0.10354812344E+04  0.50400001928E-02 0.  1.
        1   -1    0    0  501    0  0.00000000000E+00  0.00000000000E+00 -0.26287632164E+04  0.26287632164E+04  0.50400001928E-02 0. -1.
    10030    2    1    2    0    0  0.00000000000E+00  0.00000000000E+00 -0.15932819821E+04  0.36642444508E+04  0.32997181578E+04 0.  0.
        1    1    3    3  502    0 -0.67328177599E+03  0.14141126819E+04 -0.22067958764E+03  0.15816834409E+04  0.50400001928E-02 0.  1.
       -1    1    3    3    0  502  0.67328177599E+03 -0.14141126819E+04 -0.13726023944E+04  0.20825610099E+04  0.50400001928E-02 0. -1.
</event>
<event>
 5   0  0.3812379E-06  0.3287033E+04  0.7818609E-02  0.8166203E-01
        2   -1    0    0  501    0  0.00000000000E+00  0.00000000000E+00  0.22081098108E+04  0.22081098108E+04  0.25500000920E-02 0. -1.
       -2   -1    0    0    0  501  0.00000000000E+00  0.00000000000E+00 -0.12232845177E+04  0.12232845177E+04  0.25500000920E-02 0.  1.
    10030    2    1    2    0    0  0.00000000000E+00  0.00000000000E+00  0.98482529312E+03  0.34313943286E+04  0.32870330361E+04 0.  0.
        5    1    3    3  502    0 -0.64398113144E+03  0.32301274115E+03 -0.10496479833E+04  0.12731189683E+04  0.46999998093E+01 0.  1.
       -5    1    3    3    0  502  0.64398113144E+03 -0.32301274115E+03  0.20344732764E+04  0.21582753603E+04  0.46999998093E+01 0. -1.
</event>
<event>
 5   0  0.4017247E-06  0.3037157E+04  0.7818609E-02  0.8233199E-01
        2   -1    0    0  501    0  0.00000000000E+00  0.00000000000E+00  0.19911201341E+04  0.19911201341E+04  0.25500000920E-02 0.  1.
       -2   -1    0    0    0  501  0.00000000000E+00  0.00000000000E+00 -0.11581824573E+04  0.11581824573E+04  0.25500000920E-02 0. -1.
    10030    2    1    2    0    0  0.00000000000E+00  0.00000000000E+00  0.83293767686E+03  0.31493025914E+04  0.30371568347E+04 0.  0.
        1    1    3    3  502    0  0.13886295091E+04 -0.57168012544E+03  0.65057125454E+03  0.16365674555E+04  0.50400001928E-02 0.  1.
       -1    1    3    3    0  502 -0.13886295091E+04  0.57168012544E+03  0.18236642232E+03  0.15127351359E+04  0.50400001928E-02 0. -1.
</event>
<event>
 5   0  0.4017247E-06  0.3301767E+04  0.7818609E-02  0.8162446E-01
        2   -1    0    0  501    0  0.00000000000E+00  0.00000000000E+00  0.17885683973E+04  0.17885683973E+04  0.25500000920E-02 0. -1.
       -2   -1    0    0    0  501  0.00000000000E+00  0.00000000000E+00 -0.15237974087E+04  0.15237974087E+04  0.25500000920E-02 0.  1.
    10030    2    1    2    0    0  0.00000000000E+00  0.00000000000E+00  0.26477098862E+03  0.33123658060E+04  0.33017667326E+04 0.  0.
        1    1    3    3  502    0  0.56710494930E+03 -0.62751160696E+03 -0.12899234347E+04  0.15424919149E+04  0.50400001928E-02 0.  1.
       -1    1    3    3    0  502 -0.56710494930E+03  0.62751160696E+03  0.15546944233E+04  0.17698738910E+04  0.50400001928E-02 0. -1.
</event>
<event>
 5   0  0.1339825E-06  0.2220393E+04  0.7818609E-02  0.8509988E-01
        1   -1    0    0  501    0  0.00000000000E+00  0.00000000000E+00  0.62947420260E+03  0.62947420262E+03  0.50400001928E-02 0. -1.
       -1   -1    0    0    0  501  0.00000000000E+00  0.00000000000E+00 -0.19580415959E+04  0.19580415959E+04  0.50400001928E-02 0.  1.
    10030    2    1    2    0    0  0.00000000000E+00  0.00000000000E+00 -0.13285673933E+04  0.25875157985E+04  0.22203933636E+04 0.  0.
        3    1    3    3  502    0 -0.10390820681E+04 -0.12328275171E+03 -0.10966338782E+04  0.15157493375E+04  0.10100000352E+00 0.  1.
       -3    1    3    3    0  502  0.10390820681E+04  0.12328275171E+03 -0.23193351505E+03  0.10717664609E+04  0.10100000352E+00 0. -1.
</event>
<event>
 5   0  0.3812379E-06  0.3325653E+04  0.7818609E-02  0.8156399E-01
        2   -1    0    0  501    0  0.00000000000E+00  0.00000000000E+00  0.10150420661E+04  0.10150420661E+04  0.25500000920E-02 0.  1.
       -2   -1    0    0    0  501  0.00000000000E+00  0.00000000000E+00 -0.27240164839E+04  0.27240164839E+04  0.25500000920E-02 0. -1.
    10030    2    1    2    0    0  0.00000000000E+00  0.00000000000E+00 -0.17089744178E+04  0.37390585500E+04  0.33256526096E+04 0.  0.
        5    1    3    3  502    0 -0.11538896659E+04 -0.11473048551E+04 -0.12393874199E+04  0.20454517981E+04  0.46999998093E+01 0.  1.
       -5    1    3    3    0  502  0.11538896659E+04  0.11473048551E+04 -0.46958699789E+03  0.16936067519E+04  0.46999998093E+01 0. -1.
</event>
<event>
 5   0  0.3671997E-06  0.3324386E+04  0.7818609E-02  0.8156718E-01
       -2   -1    0    0    0  501  0.00000000000E+00  0.00000000000E+00  0.10583095977E+04  0.10583095977E+04  0.25500000920E-02 0. -1.
        2   -1    0    0  501    0  0.00000000000E+00  0.00000000000E+00 -0.26106590715E+04  0.26106590715E+04  0.25500000920E-02 0.  1.
    10030    2    1    2    0    0  0.00000000000E+00  0.00000000000E+00 -0.15523494738E+04  0.36689686692E+04  0.33243859894E+04 0.  0.
        2    1    3    3  502    0  0.57597107122E+03  0.10657265136E+04  0.47994042074E+03  0.13030189884E+04  0.25500000920E-02 0. -1.
       -2    1    3    3    0  502 -0.57597107122E+03 -0.10657265136E+04 -0.20322898945E+04  0.23659496808E+04  0.25500000920E-02 0.  1.
</event>
<event>
 5   0  0.1352708E-06  0.3350308E+04  0.7818609E-02  0.8150211E-01
       -1   -1    0    0    0  501  0.00000000000E+00  0.00000000000E+00  0.14792445264E+04  0.14792445264E+04  0.50400001928E-02 0. -1.
        1   -1    0    0  501    0  0.00000000000E+00  0.00000000000E+00 -0.18970094506E+04  0.18970094506E+04  0.50400001928E-02 0.  1.
    10030    2    1    2    0    0  0.00000000000E+00  0.00000000000E+00 -0.41776492416E+03  0.33762539770E+04  0.33503079539E+04 0.  0.
        5    1    3    3  502    0 -0.25939402745E+03 -0.99249059430E+03 -0.15434480046E+04  0.18532610917E+04  0.46999998093E+01 0.  1.
       -5    1    3    3    0  502  0.25939402745E+03  0.99249059430E+03  0.11256830804E+04  0.15229928853E+04  0.46999998093E+01 0. -1.
</event>
<event>
 5   0  0.4017247E-06  0.2046171E+04  0.7818609E-02  0.8585333E-01
       -2   -1    0    0    0  501  0.00000000000E+00  0.00000000000E+00  0.11806136959E+04  0.11806136959E+04  0.25500000920E-02 0. -1.
        2   -1    0    0  501    0  0.00000000000E+00  0.00000000000E+00 -0.88657615002E+03  0.88657615002E+03  0.25500000920E-02 0.  1.
    10030    2    1    2    0    0  0.00000000000E+00  0.00000000000E+00  0.29403754586E+03  0.20671898459E+04  0.20461710047E+04 0.  0.
        1    1    3    3  502    0 -0.46657953052E+03 -0.30292654402E+03 -0.72042985505E+03  0.91020883617E+03  0.50400001928E-02 0.  1.
       -1    1    3    3    0  502  0.46657953052E+03  0.30292654402E+03  0.10144674009E+04  0.11569810097E+04  0.50400001928E-02 0. -1.
</event>
<event>
 5   0  0.3920487E-06  0.2313863E+04  0.7818609E-02  0.8472475E-01
       -2   -1    0    0    0  501  0.00000000000E+00  0.00000000000E+00  0.89085146159E+03  0.89085146159E+03  0.25500000920E-02 0.  1.
        2   -1    0    0  501    0  0.00000000000E+00  0.00000000000E+00 -0.15024848954E+04  0.15024848955E+04  0.25500000920E-02 0. -1.
    10030    2    1    2    0    0  0.00000000000E+00  0.00000000000E+00 -0.61163343386E+03  0.23933363570E+04  0.23138633193E+04 0.  0.
        4    1    3    3  502    0  0.54541630932E+03  0.65404323503E+02  0.74735553781E+03  0.92752282387E+03  0.12699999809E+01 0.  1.
       -4    1    3    3    0  502 -0.54541630932E+03 -0.65404323503E+02 -0.13589889717E+04  0.14658135332E+04  0.12699999809E+01 0. -1.
</event>
<event>
 5   0  0.4017247E-06  0.3270790E+04  0.7818609E-02  0.8170368E-01
        2   -1    0    0  501    0  0.00000000000E+00  0.00000000000E+00  0.22712356743E+04  0.22712356743E+04  0.25500000920E-02 0. -1.
       -2   -1    0    0    0  501  0.00000000000E+00  0.00000000000E+00 -0.11775603115E+04  0.11775603115E+04  0.25500000920E-02 0.  1.
    10030    2    1    2    0    0  0.00000000000E+00  0.00000000000E+00  0.10936753628E+04  0.34487959858E+04  0.32707901114E+04 0.  0.
        1    1    3    3  502    0  0.68182262874E+03 -0.13127060423E+04 -0.18857050186E+03  0.14911868042E+04  0.50400001928E-02 0. -1.
       -1    1    3    3    0  502 -0.68182262874E+03  0.13127060423E+04  0.12822458647E+04  0.19576091817E+04  0.50400001928E-02 0.  1.
</event>
<event>
 5   0  0.3671997E-06  0.3330283E+04  0.7818609E-02  0.8155232E-01
       -2   -1    0    0    0  501  0.00000000000E+00  0.00000000000E+00  0.16890063824E+04  0.16890063824E+04  0.25500000920E-02 0. -1.
        2   -1    0    0  501    0  0.00000000000E+00  0.00000000000E+00 -0.16416139413E+04  0.16416139413E+04  0.25500000920E-02 0.  1.
    10030    2    1    2    0    0  0.00000000000E+00  0.00000000000E+00  0.47392441121E+02  0.33306203236E+04  0.33302831256E+04 0.  0.
        2    1    3    3  502    0  0.13188767214E+04 -0.98378962254E+03  0.27949271117E+03  0.16689499703E+04  0.25500000920E-02 0. -1.
       -2    1    3    3    0  502 -0.13188767214E+04  0.98378962254E+03 -0.23210027005E+03  0.16616703533E+04  0.25500000920E-02 0.  1.
</event>
<event>
 5   0  0.1391878E-06  0.2719408E+04  0.7818609E-02  0.8328735E-01
       -1   -1    0    0    0  501  0.00000000000E+00  0.00000000000E+00  0.60289397169E+03  0.60289397171E+03  0.50400001928E-02 0.  1.
        1   -1    0    0  501    0  0.00000000000E+00  0.00000000000E+00 -0.30665334913E+04  0.30665334914E+04  0.50400001928E-02 0. -1.
    10030    2    1    2    0    0  0.00000000000E+00  0.00000000000E+00 -0.24636395197E+04  0.36694274631E+04  0.27194076973E+04 0.  0.
        2    1    3    3  502    0  0.90583891208E+03 -0.78998674090E+03 -0.37397884119E+03  0.12587626302E+04  0.25500000920E-02 0.  1.
       -2    1    3    3    0  502 -0.90583891208E+03  0.78998674090E+03 -0.20896606785E+04  0.24106648329E+04  0.25500000920E-02 0. -1.
</event>
<event>
 5   0  0.1391878E-06  0.3311287E+04  0.7818609E-02  0.8160029E-01
       -1   -1    0    0    0  501  0.00000000000E+00  0.00000000000E+00  0.16963289782E+04  0.16963289782E+04  0.50400001928E-02 0. -1.
        1   -1    0    0  501    0  0.00000000000E+00  0.00000000000E+00 -0.16159334588E+04  0.16159334588E+04  0.50400001928E-02 0.  1.
    10030    2    1    2    0    0  0.00000000000E+00  0.00000000000E+00  0.80395519426E+02  0.33122624370E+04  0.33112866098E+04 0.  0.
        2    1    3    3  502    0  0.90525282918E+03 -0.90339121854E+03  0.10919620296E+04  0.16816597315E+04  0.25500000920E-02 0. -1.
       -2    1    3    3    0  502 -0.90525282918E+03  0.90339121854E+03 -0.10115665102E+04  0.16306027055E+04  0.25500000920E-02 0.  1.
</event>
<event>
 5   0  0.4017247E-06  0.3287512E+04  0.7818609E-02  0.8166080E-01
        2   -1    0    0  501    0  0.00000000000E+00  0.00000000000E+00  0.17819613145E+04  0.17819613145E+04  0.25500000920E-02 0.  1.
       -2   -1    0    0    0  501  0.00000000000E+00  0.00000000000E+00 -0.15162696721E+04  0.15162696721E+04  0.25500000920E-02 0. -1.
    10030    2    1    2    0    0  0.00000000000E+00  0.00000000000E+00  0.26569164240E+03  0.32982309866E+04  0.32875120672E+04 0.  0.
        1    1    3    3  502    0 -0.14459942538E+04  0.77467065729E+03  0.28006833297E+02  0.16406701046E+04  0.50400001928E-02 0.  1.
       -1    1    3    3    0  502  0.14459942538E+04 -0.77467065729E+03  0.23768480910E+03  0.16575608821E+04  0.50400001928E-02 0. -1.
</event>
<event>
 5   0  0.1405389E-06  0.3269664E+04  0.7818609E-02  0.8170658E-01
       -1   -1    0    0    0  501  0.00000000000E+00  0.00000000000E+00  0.27524961016E+04  0.27524961017E+04  0.50400001928E-02 0. -1.
        1   -1    0    0  501    0  0.00000000000E+00  0.00000000000E+00 -0.97100043218E+03  0.97100043219E+03  0.50400001928E-02 0.  1.
    10030    2    1    2    0    0  0.00000000000E+00  0.00000000000E+00  0.17814956695E+04  0.37234965338E+04  0.32696635327E+04 0.  0.
        1    1    3    3  502    0  0.14300510233E+04 -0.76155642254E+03  0.64213215821E+03  0.17427988475E+04  0.50400001928E-02 0.  1.
       -1    1    3    3    0  502 -0.14300510233E+04  0.76155642254E+03  0.11393635113E+04  0.19806976864E+04  0.50400001928E-02 0. -1.
</event>
<event>
 5   0  0.1352708E-06  0.3248135E+04  0.7818609E-02  0.8176219E-01
       -1   -1    0    0    0  501  0.00000000000E+00  0.00000000000E+00  0.19013543544E+04  0.19013543544E+04  0.50400001928E-02 0. -1.
        1   -1    0    0  501    0  0.00000000000E+00  0.00000000000E+00 -0.13872188019E+04  0.13872188019E+04  0.50400001928E-02 0.  1.
    10030    2    1    2    0    0  0.00000000000E+00  0.00000000000E+00  0.51413555245E+03  0.32885731563E+04  0.32481345474E+04 0.  0.
        5    1    3    3  502    0  0.46226828044E+03 -0.12928362377E+04  0.11353088401E+04  0.17815907928E+04  0.46999998093E+01 0. -1.
       -5    1    3    3    0  502 -0.46226828044E+03  0.12928362377E+04 -0.62117328770E+03  0.15069823635E+04  0.46999998093E+01 0.  1.
</event>
<event>
 5   0  0.4017247E-06  0.2208896E+04  0.7818609E-02  0.8514734E-01
        2   -1    0    0  501    0  0.00000000000E+00  0.00000000000E+00  0.11600594209E+04  0.11600594209E+04  0.25500000920E-02 0. -1.
       -2   -1    0    0    0  501  0.00000000000E+00  0.00000000000E+00 -0.10515027199E+04  0.10515027199E+04  0.25500000920E-02 0.  1.
    10030    2    1    2    0    0  0.00000000000E+00  0.00000000000E+00  0.10855670101E+03  0.22115621407E+04  0.22088962278E+04 0.  0.
        1    1    3    3  502    0  0.48922077436E+03  0.98483592487E+03  0.15719770198E+03  0.11108329679E+04  0.50400001928E-02 0. -1.
       -1    1    3    3    0  502 -0.48922077436E+03 -0.98483592487E+03 -0.48641000974E+02  0.11007291729E+04  0.50400001928E-02 0.  1.
</event>
<event>
 5   0  0.1282578E-06  0.2748237E+04  0.7818609E-02  0.8319521E-01
        1   -1    0    0  501    0  0.00000000000E+00  0.00000000000E+00  0.10992304068E+04  0.10992304068E+04  0.50400001928E-02 0.  1.
       -1   -1    0    0    0  501  0.00000000000E+00  0.00000000000E+00 -0.17177483491E+04  0.17177483491E+04  0.50400001928E-02 0. -1.
    10030    2    1    2    0    0  0.00000000000E+00  0.00000000000E+00 -0.61851794225E+03  0.28169787559E+04  0.27482366831E+04 0.  0.
        4    1    3    3  502    0 -0.11224074951E+04 -0.18021784492E+03 -0.11005283298E+04  0.15822266823E+04  0.12699999809E+01 0. -1.
       -4    1    3    3    0  502  0.11224074951E+04  0.18021784492E+03  0.48201038750E+03  0.12347520736E+04  0.12699999809E+01 0.  1.
</event>
<event>
 5   0  0.3671997E-06  0.3313557E+04  0.7818609E-02  0.8159454E-01
       -2   -1    0    0    0  501  0.00000000000E+00  0.00000000000E+00  0.13073351556E+04  0.13073351556E+04  0.25500000920E-02 0. -1.
        2   -1    0    0  501    0  0.00000000000E+00  0.00000000000E+00 -0.20996263623E+04  0.20996263623E+04  0.25500000920E-02 0.  1.
    10030    2    1    2    0    0  0.00000000000E+00  0.00000000000E+00 -0.79229120670E+03  0.34069615179E+04  0.33135572167E+04 0.  0.
        2    1    3    3  502    0 -0.80987142898E+03  0.95338816609E+03  0.72078834442E+03  0.14437370135E+04  0.25500000920E-02 0. -1.
       -2    1    3    3    0  502  0.80987142898E+03 -0.95338816609E+03 -0.15130795511E+04  0.19632245044E+04  0.25500000920E-02 0.  1.
</event>
<event>
 5   0  0.1282578E-06  0.3358748E+04  0.7818609E-02  0.8148106E-01
        1   -1    0    0  501    0  0.00000000000E+00  0.00000000000E+00  0.17826835614E+04  0.17826835614E+04  0.50400001928E-02 0.  1.
       -1   -1    0    0    0  501  0.00000000000E+00  0.00000000000E+00 -0.15820515488E+04  0.15820515488E+04  0.50400001928E-02 0. -1.
    10030    2    1    2    0    0  0.00000000000E+00  0.00000000000E+00  0.20063201261E+03  0.33647351102E+04  0.33587481534E+04 0.  0.
        4    1    3    3  502    0 -0.62365243645E+03  0.14159539900E+04  0.75449425389E+03  0.17213748155E+04  0.12699999809E+01 0.  1.
       -4    1    3    3    0  502  0.62365243645E+03 -0.14159539900E+04 -0.55386224128E+03  0.16433602948E+04  0.12699999809E+01 0. -1.
</event>
<event>
 5   0  0.1405389E-06  0.3217722E+04  0.7818609E-02  0.8184152E-01
       -1   -1    0    0    0  501  0.00000000000E+00  0.00000000000E+00  0.17784467939E+04  0.17784467939E+04  0.50400001928E-02 0.  1.
        1   -1    0    0  501    0  0.00000000000E+00  0.00000000000E+00 -0.14554461469E+04  0.14554461469E+04  0.50400001928E-02 0. -1.
    10030    2    1    2    0    0  0.00000000000E+00  0.00000000000E+00  0.32300064699E+03  0.32338929408E+04  0.32177218858E+04 0.  0.
        1    1    3    3  502    0 -0.15750852569E+04 -0.32777690362E+03  0.15133671052E+03  0.16159313305E+04  0.50400001928E-02 0. -1.
       -1    1    3    3    0  502  0.15750852569E+04  0.32777690362E+03  0.17166393647E+03  0.16179616102E+04  0.50400001928E-02 0.  1.
</event>
<event>
 5   0  0.3812379E-06  0.3314500E+04  0.7818609E-02  0.8159216E-01
        2   -1    0    0  501    0  0.00000000000E+00  0.00000000000E+00  0.16498268603E+04  0.16498268603E+04  0.25500000920E-02 0.  1.
       -2   -1    0    0    0  501  0.00000000000E+00  0.00000000000E+00 -0.16647063575E+04  0.16647063575E+04  0.25500000920E-02 0. -1.
    10030    2    1    2    0    0  0.00000000000E+00  0.00000000000E+00 -0.14879497205E+02  0.33145332177E+04  0.33144998193E+04 0.  0.
        5    1    3    3  502    0  0.78047614795E+03 -0.90512869669E+03 -0.11555167324E+04  0.16624205196E+04  0.46999998093E+01 0. -1.
       -5    1    3    3    0  502 -0.78047614795E+03  0.90512869669E+03  0.11406372352E+04  0.16521126981E+04  0.46999998093E+01 0.  1.
</event>
<event>
 5   0  0.1339825E-06  0.2198128E+04  0.7818609E-02  0.8519208E-01
        1   -1    0    0  501    0  0.00000000000E+00  0.00000000000E+00  0.12608553579E+04  0.12608553579E+04  0.50400001928E-02 0. -1.
       -1   -1    0    0    0  501  0.00000000000E+00  0.00000000000E+00 -0.95803313439E+03  0.95803313440E+03  0.50400001928E-02 0.  1.
    10030    2    1    2    0    0  0.00000000000E+00  0.00000000000E+00  0.30282222351E+03  0.22188884923E+04  0.21981275764E+04 0.  0.
        3    1    3    3  502    0 -0.72918435614E+03 -0.72672927036E+03  0.53987814015E+03  0.11624601817E+04  0.10100000352E+00 0.  1.
       -3    1    3    3    0  502  0.72918435614E+03  0.72672927036E+03 -0.23705591664E+03  0.10564283106E+04  0.10100000352E+00 0. -1.
</event>
<event>
 5   0  0.1339825E-06  0.3392948E+04  0.7818609E-02  0.8139639E-01
       -1   -1    0    0    0  501  0.00000000000E+00  0.00000000000E+00  0.13059803156E+04  0.13059803156E+04  0.50400001928E-02 0. -1.
        1   -1    0    0  501    0  0.00000000000E+00  0.00000000000E+00 -0.22037263891E+04  0.22037263891E+04  0.50400001928E-02 0.  1.
    10030    2    1    2    0    0  0.00000000000E+00  0.00000000000E+00 -0.89774607353E+03  0.35097067047E+04  0.33929475594E+04 0.  0.
        3    1    3    3  502    0  0.22490234945E+03 -0.15177667635E+04 -0.11975376587E+04  0.19463538911E+04  0.10100000352E+00 0.  1.
       -3    1    3    3    0  502 -0.22490234945E+03  0.15177667635E+04  0.29979158520E+03  0.15633528136E+04  0.10100000352E+00 0. -1.
</event>
<event>
 5   0  0.3671997E-06  0.2309930E+04  0.7818609E-02  0.8474016E-01
        2   -1    0    0  501    0  0.00000000000E+00  0.00000000000E+00  0.22366133635E+04  0.22366133635E+04  0.25500000920E-02 0.  1.
       -2   -1    0    0    0  501  0.00000000000E+00  0.00000000000E+00 -0.59641263140E+03  0.59641263141E+03  0.25500000920E-02 0. -1.
    10030    2    1    2    0    0  0.00000000000E+00  0.00000000000E+00  0.16402007321E+04  0.28330259949E+04  0.23099302687E+04 0.  0.
        2    1    3    3  502    0 -0.12139261311E+03  0.85928109181E+03 -0.11461967797E+03  0.87535011957E+03  0.25500000920E-02 0. -1.
       -2    1    3    3    0  502  0.12139261311E+03 -0.85928109181E+03  0.17548204100E+04  0.19576758753E+04  0.25500000920E-02 0.  1.
</event>
<event>
 5   0  0.3920487E-06  0.2870116E+04  0.7818609E-02  0.8281825E-01
       -2   -1    0    0    0  501  0.00000000000E+00  0.00000000000E+00  0.10666090989E+04  0.10666090989E+04  0.25500000920E-02 0. -1.
        2   -1    0    0  501    0  0.00000000000E+00  0.00000000000E+00 -0.19307834471E+04  0.19307834471E+04  0.25500000920E-02 0.  1.
    10030    2    1    2    0    0  0.00000000000E+00  0.00000000000E+00 -0.86417434824E+03  0.29973925460E+04  0.28701158114E+04 0.  0.
        4    1    3    3  502    0  0.11960259333E+04 -0.17741673417E+03 -0.12393026465E+04  0.17314235165E+04  0.12699999809E+01 0.  1.
       -4    1    3    3    0  502 -0.11960259333E+04  0.17741673417E+03  0.37512829827E+03  0.12659690296E+04  0.12699999809E+01 0. -1.
</event>
<event>
 5   0  0.1339825E-06  0.3304124E+04  0.7818609E-02  0.8161847E-01
       -1   -1    0    0    0  501  0.00000000000E+00  0.00000000000E+00  0.12869497145E+04  0.12869497145E+04  0.50400001928E-02 0. -1.
        1   -1    0    0  501    0  0.00000000000E+00  0.00000000000E+00 -0.21207585174E+04  0.21207585174E+04  0.50400001928E-02 0.  1.
    10030    2    1    2    0    0  0.00000000000E+00  0.00000000000E+00 -0.83380880285E+03  0.34077082319E+04  0.33041244338E+04 0.  0.
        3    1    3    3  502    0 -0.63544731926E+03 -0.14829472598E+04 -0.50254544425E+02  0.16141410720E+04  0.10100000352E+00 0. -1.
       -3    1    3    3    0  502  0.63544731926E+03  0.14829472598E+04 -0.78355425843E+03  0.17935671599E+04  0.10100000352E+00 0.  1.
</event>
<event>
 5   0  0.3671997E-06  0.3525512E+04  0.7818609E-02  0.8107770E-01
        2   -1    0    0  501    0  0.00000000000E+00  0.00000000000E+00  0.14599006408E+04  0.14599006408E+04  0.25500000920E-02 0. -1.
       -2   -1    0    0    0  501  0.00000000000E+00  0.00000000000E+00 -0.21284385501E+04  0.21284385501E+04  0.25500000920E-02 0.  1.
    10030    2    1    2    0    0  0.00000000000E+00  0.00000000000E+00 -0.66853790928E+03  0.35883391909E+04  0.35255120497E+04 0.  0.
        2    1    3    3  502    0  0.50933514562E+02  0.16186450870E+04  0.37434383674E+03  0.16621490453E+04  0.25500000920E-02 0.  1.
       -2    1    3    3    0  502 -0.50933514562E+02 -0.16186450870E+04 -0.10428817460E+04  0.19261901456E+04  0.25500000920E-02 0. -1.
</event>
<event>
 5   0  0.3920487E-06  0.3249730E+04  0.7818609E-02  0.8175806E-01
        2   -1    0    0  501    0  0.00000000000E+00  0.00000000000E+00  0.24800199067E+04  0.24800199067E+04  0.25500000920E-02 0. -1.
       -2   -1    0    0    0  501  0.00000000000E+00  0.00000000000E+00 -0.10645824198E+04  0.10645824198E+04  0.25500000920E-02 0.  1.
    10030    2    1    2    0    0  0.00000000000E+00  0.00000000000E+00  0.14154374869E+04  0.35446023265E+04  0.32497295847E+04 0.  0.
        4    1    3    3  502    0 -0.25177847143E+03  0.21705828071E+03  0.24425324890E+04  0.24650503582E+04  0.12699999809E+01 0. -1.
       -4    1    3    3    0  502  0.25177847143E+03 -0.21705828071E+03 -0.10270950021E+04  0.10795519682E+04  0.12699999809E+01 0.  1.
</event>
<event>
 5   0  0.3896210E-06  0.3294417E+04  0.7818609E-02  0.8164317E-01
       -2   -1    0    0    0  501  0.00000000000E+00  0.00000000000E+00  0.87545205623E+03  0.87545205624E+03  0.25500000920E-02 0. -1.
        2   -1    0    0  501    0  0.00000000000E+00  0.00000000000E+00 -0.30993079672E+04  0.30993079672E+04  0.25500000920E-02 0.  1.
    10030    2    1    2    0    0  0.00000000000E+00  0.00000000000E+00 -0.22238559110E+04  0.39747600235E+04  0.32944168120E+04 0.  0.
        3    1    3    3  502    0  0.49260862928E+02  0.13509043570E+04 -0.22475430774E+04  0.26227502948E+04  0.10100000352E+00 0.  1.
       -3    1    3    3    0  502 -0.49260862928E+02 -0.13509043570E+04  0.23687166372E+02  0.13520097286E+04  0.10100000352E+00 0. -1.
</event>
<event>
 5   0  0.1339825E-06  0.3292946E+04  0.7818609E-02  0.8164693E-01
       -1   -1    0    0    0  501  0.00000000000E+00  0.00000000000E+00  0.17355098519E+04  0.17355098519E+04  0.50400001928E-02 0. -1.
        1   -1    0    0  501    0  0.00000000000E+00  0.00000000000E+00 -0.15620038494E+04  0.15620038494E+04  0.50400001928E-02 0.  1.
    10030    2    1    2    0    0  0.00000000000E+00  0.00000000000E+00  0.17350600250E+03  0.32975137014E+04  0.32929458358E+04 0.  0.
        3    1    3    3  502    0 -0.11480079153E+04 -0.27927248150E+02  0.12682926664E+04  0.17109261827E+04  0.10100000352E+00 0. -1.
       -3    1    3    3    0  502  0.11480079153E+04  0.27927248150E+02 -0.10947866639E+04  0.15865875187E+04  0.10100000352E+00 0.  1.
</event>
<event>
 5   0  0.3671997E-06  0.3319045E+04  0.7818609E-02  0.8158066E-01
        2   -1    0    0  501    0  0.00000000000E+00  0.00000000000E+00  0.25462601566E+04  0.25462601566E+04  0.25500000920E-02 0.  1.
       -2   -1    0    0    0  501  0.00000000000E+00  0.00000000000E+00 -0.10815924300E+04  0.10815924300E+04  0.25500000920E-02 0. -1.
    10030    2    1    2    0    0  0.00000000000E+00  0.00000000000E+00  0.14646677266E+04  0.36278525866E+04  0.33190454713E+04 0.  0.
        2    1    3    3  502    0  0.15500313392E+04 -0.57631824379E+03  0.58057883818E+03  0.17526584544E+04  0.25500000920E-02 0. -1.
       -2    1    3    3    0  502 -0.15500313392E+04  0.57631824379E+03  0.88408888846E+03  0.18751941321E+04  0.25500000920E-02 0.  1.
</event>
<event>
 5   0  0.1259875E-06  0.3353733E+04  0.7818609E-02  0.8149356E-01
       -3   -1    0    0    0  501  0.00000000000E+00  0.00000000000E+00  0.19455156128E+04  0.19455156154E+04  0.10100000352E+00 0.  1.
        3   -1    0    0  501    0  0.00000000000E+00  0.00000000000E+00 -0.14453140836E+04  0.14453140871E+04  0.10100000352E+00 0. -1.
    10030    2    1    2    0    0  0.00000000000E+00  0.00000000000E+00  0.50020152920E+03  0.33908297025E+04  0.33537329204E+04 0.  0.
        4    1    3    3  502    0  0.14738923271E+04  0.56453451291E+03 -0.32257575315E+03  0.16109359198E+04  0.12699999809E+01 0. -1.
       -4    1    3    3    0  502 -0.14738923271E+04 -0.56453451291E+03  0.82277728235E+03  0.17798937827E+04  0.12699999809E+01 0.  1.
</event>
<event>
 5   0  0.1282578E-06  0.2355599E+04  0.7818609E-02  0.8456316E-01
       -1   -1    0    0    0  501  0.00000000000E+00  0.00000000000E+00  0.83054382782E+03  0.83054382784E+03  0.50400001928E-02 0. -1.
        1   -1    0    0  501    0  0.00000000000E+00  0.00000000000E+00 -0.16702452787E+04  0.16702452787E+04  0.50400001928E-02 0.  1.
    10030    2    1    2    0    0  0.00000000000E+00  0.00000000000E+00 -0.83970145086E+03  0.25007891065E+04  0.23555992080E+04 0.  0.
        4    1    3    3  502    0  0.97555731281E+01 -0.84589890971E+03 -0.12898549549E+04  0.15425198715E+04  0.12699999809E+01 0.  1.
       -4    1    3    3    0  502 -0.97555731281E+01  0.84589890971E+03  0.45015350399E+03  0.95826923498E+03  0.12699999809E+01 0. -1.
</event>
<event>
 5   0  0.3671997E-06  0.3296378E+04  0.7818609E-02  0.8163817E-01
        2   -1    0    0  501    0  0.00000000000E+00  0.00000000000E+00  0.28848889935E+04  0.28848889935E+04  0.25500000920E-02 0.  1.
       -2   -1    0    0    0  501  0.00000000000E+00  0.00000000000E+00 -0.94164030761E+03  0.94164030761E+03  0.25500000920E-02 0. -1.
    10030    2    1    2    0    0  0.00000000000E+00  0.00000000000E+00  0.19432486859E+04  0.38265293012E+04  0.32963784730E+04 0.  0.
        2    1    3    3  502    0 -0.72115170893E+03  0.82352579173E+01  0.26920016549E+04  0.27869338917E+04  0.25500000920E-02 0.  1.
       -2    1    3    3    0  502  0.72115170893E+03 -0.82352579173E+01 -0.74875296898E+03  0.10395954094E+04  0.25500000920E-02 0. -1.
</event>
<event>
 5   0  0.1352708E-06  0.3167623E+04  0.7818609E-02  0.8197421E-01
       -1   -1    0    0    0  501  0.00000000000E+00  0.00000000000E+00  0.14474124103E+04  0.14474124104E+04  0.50400001928E-02 0. -1.
        1   -1    0    0  501    0  0.00000000000E+00  0.00000000000E+00 -0.17330640456E+04  0.17330640457E+04  0.50400001928E-02 0.  1.
    10030    2    1    2    0    0  0.00000000000E+00  0.00000000000E+00 -0.28565163530E+03  0.31804764560E+04  0.31676227096E+04 0.  0.
        5    1    3    3  502    0  0.58012728861E+03 -0.77617849623E+03 -0.14006805422E+04  0.17032113199E+04  0.46999998093E+01 0.  1.
       -5    1    3    3    0  502 -0.58012728861E+03  0.77617849623E+03  0.11150289069E+04  0.14772651361E+04  0.46999998093E+01 0. -1.
</event>
<event>
 5   0  0.1352708E-06  0.3324362E+04  0.7818609E-02  0.8156724E-01
       -1   -1    0    0    0  501  0.00000000000E+00  0.00000000000E+00  0.99242872198E+03  0.99242872199E+03  0.50400001928E-02 0.  1.
        1   -1    0    0  501    0  0.00000000000E+00  0.00000000000E+00 -0.27839229610E+04  0.27839229610E+04  0.50400001928E-02 0. -1.
    10030    2    1    2    0    0  0.00000000000E+00  0.00000000000E+00 -0.17914942390E+04  0.37763516830E+04  0.33243616568E+04 0.  0.
        5    1    3    3  502    0 -0.40451982383E+03 -0.80939497295E+03  0.68812358766E+03  0.11367905137E+04  0.46999998093E+01 0.  1.
       -5    1    3    3    0  502  0.40451982383E+03  0.80939497295E+03 -0.24796178266E+04  0.26395611693E+04  0.46999998093E+01 0. -1.
</event>
<event>
 5   0  0.1339825E-06  0.3296358E+04  0.7818609E-02  0.8163823E-01
       -1   -1    0    0    0  501  0.00000000000E+00  0.00000000000E+00  0.23151618644E+04  0.23151618644E+04  0.50400001928E-02 0. -1.
        1   -1    0    0  501    0  0.00000000000E+00  0.00000000000E+00 -0.11733497877E+04  0.11733497877E+04  0.50400001928E-02 0.  1.
    10030    2    1    2    0    0  0.00000000000E+00  0.00000000000E+00  0.11418120768E+04  0.34885116521E+04  0.32963584041E+04 0.  0.
        3    1    3    3  502    0 -0.41334358994E+03  0.10693202985E+04  0.18240763310E+04  0.21544264424E+04  0.10100000352E+00 0. -1.
       -3    1    3    3    0  502  0.41334358994E+03 -0.10693202985E+04 -0.68226425422E+03  0.13340852098E+04  0.10100000352E+00 0.  1.
</event>
<event>
 5   0  0.1391878E-06  0.3340649E+04  0.7818609E-02  0.8152628E-01
        1   -1    0    0  501    0  0.00000000000E+00  0.00000000000E+00  0.17079755915E+04  0.17079755915E+04  0.50400001928E-02 0. -1.
       -1   -1    0    0    0  501  0.00000000000E+00  0.00000000000E+00 -0.16335038511E+04  0.16335038511E+04  0.50400001928E-02 0.  1.
    10030    2    1    2    0    0  0.00000000000E+00  0.00000000000E+00  0.74471740407E+02  0.33414794426E+04  0.33406494616E+04 0.  0.
        2    1    3    3  502    0  0.56212089054E+02  0.47613747427E+03  0.16376702764E+04  0.17064086930E+04  0.25500000920E-02 0. -1.
       -2    1    3    3    0  502 -0.56212089054E+02 -0.47613747427E+03 -0.15631985360E+04  0.16350707496E+04  0.25500000920E-02 0.  1.
</event>
<event>
 5   0  0.3812379E-06  0.3259957E+04  0.7818609E-02  0.8173160E-01
        2   -1    0    0  501    0  0.00000000000E+00  0.00000000000E+00  0.19911796556E+04  0.19911796556E+04  0.25500000920E-02 0. -1.
       -2   -1    0    0    0  501  0.00000000000E+00  0.00000000000E+00 -0.13342998180E+04  0.13342998180E+04  0.25500000920E-02 0.  1.
    10030    2    1    2    0    0  0.00000000000E+00  0.00000000000E+00  0.65687983758E+03  0.33254794735E+04  0.32599574549E+04 0.  0.
        5    1    3    3  502    0 -0.88167965339E+01  0.60566175660E+03  0.18720977482E+04  0.19676574824E+04  0.46999998093E+01 0. -1.
       -5    1    3    3    0  502  0.88167965339E+01 -0.60566175660E+03 -0.12152179106E+04  0.13578219911E+04  0.46999998093E+01 0.  1.
</event>
<event>
 5   0  0.1282578E-06  0.2806177E+04  0.7818609E-02  0.8301353E-01
       -1   -1    0    0    0  501  0.00000000000E+00  0.00000000000E+00  0.79261172466E+03  0.79261172467E+03  0.50400001928E-02 0. -1.
        1   -1    0    0  501    0  0.00000000000E+00  0.00000000000E+00 -0.24837593321E+04  0.24837593321E+04  0.50400001928E-02 0.  1.
    10030    2    1    2    0    0  0.00000000000E+00  0.00000000000E+00 -0.16911476074E+04  0.32763710568E+04  0.28061765931E+04 0.  0.
        4    1    3    3  502    0 -0.11786798751E+04  0.38778663436E+03 -0.80854793377E+02  0.12434644476E+04  0.12699999809E+01 0. -1.
       -4    1    3    3    0  502  0.11786798751E+04 -0.38778663436E+03 -0.16102928141E+04  0.20329066092E+04  0.12699999809E+01 0.  1.
</event>
<event>
 5   0  0.1352708E-06  0.2135504E+04  0.7818609E-02  0.8545763E-01
       -1   -1    0    0    0  501  0.00000000000E+00  0.00000000000E+00  0.91662047794E+03  0.91662047795E+03  0.50400001928E-02 0. -1.
        1   -1    0    0  501    0  0.00000000000E+00  0.00000000000E+00 -0.12438016321E+04  0.12438016321E+04  0.50400001928E-02 0.  1.
    10030    2    1    2    0    0  0.00000000000E+00  0.00000000000E+00 -0.32718115413E+03  0.21604221100E+04  0.21355037312E+04 0.  0.
        5    1    3    3  502    0 -0.72931605129E+03 -0.45252895237E+03  0.47894850908E+03  0.98290290454E+03  0.46999998093E+01 0. -1.
       -5    1    3    3    0  502  0.72931605129E+03  0.45252895237E+03 -0.80612966321E+03  0.11775192055E+04  0.46999998093E+01 0.  1.
</event>
<event>
 5   0  0.3671997E-06  0.2416905E+04  0.7818609E-02  0.8433201E-01
       -2   -1    0    0    0  501  0.00000000000E+00  0.00000000000E+00  0.81193713033E+03  0.81193713033E+03  0.25500000920E-02 0.  1.
        2   -1    0    0  501    0  0.00000000000E+00  0.00000000000E+00 -0.17986095722E+04  0.17986095722E+04  0.25500000920E-02 0. -1.
    10030    2    1    2    0    0  0.00000000000E+00  0.00000000000E+00 -0.98667244185E+03  0.26105467025E+04  0.24169053723E+04 0.  0.
        2    1    3    3  502    0  0.20337609226E+03  0.86936764132E+03 -0.13729514854E+04  0.16377294380E+04  0.25500000920E-02 0. -1.
       -2    1    3    3    0  502 -0.20337609226E+03 -0.86936764132E+03  0.38627904356E+03  0.97281726454E+03  0.25500000920E-02 0.  1.
</event>
<event>
 5   0  0.1391878E-06  0.3299919E+04  0.7818609E-02  0.8162916E-01
       -1   -1    0    0    0  501  0.00000000000E+00  0.00000000000E+00  0.14018074106E+04  0.14018074106E+04  0.50400001928E-02 0.  1.
        1   -1    0    0  501    0  0.00000000000E+00  0.00000000000E+00 -0.19420403425E+04  0.19420403425E+04  0.50400001928E-02 0. -1.
    10030    2    1    2    0    0  0.00000000000E+00  0.00000000000E+00 -0.54023293190E+03  0.33438477531E+04  0.32999191165E+04 0.  0.
        2    1    3    3  502    0  0.13176988016E+04  0.48167999768E+03  0.60978666133E+03  0.15297664934E+04  0.25500000920E-02 0.  1.
       -2    1    3    3    0  502 -0.13176988016E+04 -0.48167999768E+03 -0.11500195932E+04  0.18140812597E+04  0.25500000920E-02 0. -1.
</event>
<event>
 5   0  0.3812379E-06  0.2487419E+04  0.7818609E-02  0.8407481E-01
        2   -1    0    0  501    0  0.00000000000E+00  0.00000000000E+00  0.20882775806E+04  0.20882775806E+04  0.25500000920E-02 0.  1.
       -2   -1    0    0    0  501  0.00000000000E+00  0.00000000000E+00 -0.74071222763E+03  0.74071222763E+03  0.25500000920E-02 0. -1.
    10030    2    1    2    0    0  0.00000000000E+00  0.00000000000E+00  0.13475653529E+04  0.28289898082E+04  0.24874185322E+04 0.  0.
        5    1    3    3  502    0 -0.86815170336E+03  0.64530289706E+03  0.13718110669E+04  0.17469948204E+04  0.46999998093E+01 0.  1.
       -5    1    3    3    0  502  0.86815170336E+03 -0.64530289706E+03 -0.24245714021E+02  0.10819949878E+04  0.46999998093E+01 0. -1.
</event>
<event>
 5   0  0.1405389E-06  0.3232527E+04  0.7818609E-02  0.8180279E-01
        1   -1    0    0  501    0  0.00000000000E+00  0.00000000000E+00  0.18072747789E+04  0.18072747789E+04  0.50400001928E-02 0.  1.
       -1   -1    0    0    0  501  0.00000000000E+00  0.00000000000E+00 -0.14454399346E+04  0.14454399346E+04  0.50400001928E-02 0. -1.
    10030    2    1    2    0    0  0.00000000000E+00  0.00000000000E+00  0.36183484428E+03  0.32527147135E+04  0.32325266515E+04 0.  0.
        1    1    3    3  502    0  0.13394800563E+04 -0.75199920711E+03 -0.32481219962E+03  0.15700995490E+04  0.50400001928E-02 0. -1.
       -1    1    3    3    0  502 -0.13394800563E+04  0.75199920711E+03  0.68664704389E+03  0.16826151645E+04  0.50400001928E-02 0.  1.
</event>
<event>
 5   0  0.3896210E-06  0.3315146E+04  0.7818609E-02  0.8159052E-01
        2   -1    0    0  501    0  0.00000000000E+00  0.00000000000E+00  0.14634803991E+04  0.14634803991E+04  0.25500000920E-02 0. -1.
       -2   -1    0    0    0  501  0.00000000000E+00  0.00000000000E+00 -0.18774071276E+04  0.18774071276E+04  0.25500000920E-02 0.  1.
    10030    2    1    2    0    0  0.00000000000E+00  0.00000000000E+00 -0.41392672845E+03  0.33408875267E+04  0.33151461701E+04 0.  0.
        3    1    3    3  502    0  0.67972692890E+03  0.12990853421E+04  0.57227871398E+03  0.15738978241E+04  0.10100000352E+00 0. -1.
       -3    1    3    3    0  502 -0.67972692890E+03 -0.12990853421E+04 -0.98620544243E+03  0.17669897026E+04  0.10100000352E+00 0.  1.
</event>
<event>
 5   0  0.3812379E-06  0.2061014E+04  0.7818609E-02  0.8578614E-01
        2   -1    0    0  501    0  0.00000000000E+00  0.00000000000E+00  0.11797267168E+04  0.11797267168E+04  0.25500000920E-02 0.  1.
       -2   -1    0    0    0  501  0.00000000000E+00  0.00000000000E+00 -0.90016174406E+03  0.90016174406E+03  0.25500000920E-02 0. -1.
    10030    2    1    2    0    0  0.00000000000E+00  0.00000000000E+00  0.27956497275E+03  0.20798884609E+04  0.20610141765E+04 0.  0.
        5    1    3    3  502    0  0.82928912437E+03 -0.26410715573E+03 -0.41704012306E+03  0.96509978538E+03  0.46999998093E+01 0. -1.
       -5    1    3    3    0  502 -0.82928912437E+03  0.26410715573E+03  0.69660509580E+03  0.11147886755E+04  0.46999998093E+01 0.  1.
</event>
<event>
 5   0  0.1405389E-06  0.3045284E+04  0.7818609E-02  0.8230917E-01
       -1   -1    0    0    0  501  0.00000000000E+00  0.00000000000E+00  0.15172611048E+04  0.15172611048E+04  0.50400001928E-02 0.  1.
        1   -1    0    0  501    0  0.00000000000E+00  0.00000000000E+00 -0.15280417050E+04  0.15280417050E+04  0.50400001928E-02 0. -1.
    10030    2    1    2    0    0  0.00000000000E+00  0.00000000000E+00 -0.10780600242E+02  0.30453028098E+04  0.30452837277E+04 0.  0.
        1    1    3    3  502    0  0.60604172265E+03 -0.13465402159E+04  0.36607013152E+03  0.15213364071E+04  0.50400001928E-02 0.  1.
       -1    1    3    3    0  502 -0.60604172265E+03  0.13465402159E+04 -0.37685073176E+03  0.15239664027E+04  0.50400001928E-02 0. -1.
</event>
<event>
 5   0  0.3671997E-06  0.3297236E+04  0.7818609E-02  0.8163599E-01
       -2   -1    0    0    0  501  0.00000000000E+00  0.00000000000E+00  0.11000953620E+04  0.11000953620E+04  0.25500000920E-02 0.  1.
        2   -1    0    0  501    0  0.00000000000E+00  0.00000000000E+00 -0.24706417076E+04  0.24706417076E+04  0.25500000920E-02 0. -1.
    10030    2    1    2    0    0  0.00000000000E+00  0.00000000000E+00 -0.13705463456E+04  0.35707370696E+04  0.32972361054E+04 0.  0.
        2    1    3    3  502    0  0.30268800988E+03 -0.25755706743E+03  0.10474397098E+04  0.11203060385E+04  0.25500000920E-02 0.  1.
       -2    1    3    3    0  502 -0.30268800988E+03  0.25755706743E+03 -0.24179860553E+04  0.24504310311E+04  0.25500000920E-02 0. -1.
</event>
<event>
 5   0  0.3812379E-06  0.3149220E+04  0.7818609E-02  0.8202358E-01
       -2   -1    0    0    0  501  0.00000000000E+00  0.00000000000E+00  0.87064874151E+03  0.87064874151E+03  0.25500000920E-02 0. -1.
        2   -1    0    0  501    0  0.00000000000E+00  0.00000000000E+00 -0.28477569295E+04  0.28477569295E+04  0.25500000920E-02 0.  1.
    10030    2    1    2    0    0  0.00000000000E+00  0.00000000000E+00 -0.19771081880E+04  0.37184056710E+04  0.31492195775E+04 0.  0.
        5    1    3    3  502    0  0.94874504523E+03 -0.10000016948E+04 -0.18871989688E+04  0.23370200231E+04  0.46999998093E+01 0.  1.
       -5    1    3    3    0  502 -0.94874504523E+03  0.10000016948E+04 -0.89909219114E+02  0.13813856479E+04  0.46999998093E+01 0. -1.
</event>
<event>
 5   0  0.1391878E-06  0.3295842E+04  0.7818609E-02  0.8163954E-01
       -1   -1    0    0    0  501  0.00000000000E+00  0.00000000000E+00  0.18715917420E+04  0.18715917420E+04  0.50400001928E-02 0.  1.
        1   -1    0    0  501    0  0.00000000000E+00  0.00000000000E+00 -0.14509806594E+04  0.14509806594E+04  0.50400001928E-02 0. -1.
    10030    2    1    2    0    0  0.00000000000E+00  0.00000000000E+00  0.42061108261E+03  0.33225724015E+04  0.32958418773E+04 0.  0.
        2    1    3    3  502    0  0.11739093739E+04  0.32334094719E+02  0.13757677789E+04  0.18088243953E+04  0.25500000920E-02 0.  1.
       -2    1    3    3    0  502 -0.11739093739E+04 -0.32334094719E+02 -0.95515669627E+03  0.15137480062E+04  0.25500000920E-02 0. -1.
</event>
<event>
 5   0  0.3812379E-06  0.3297587E+04  0.7818609E-02  0.8163510E-01
        2   -1    0    0  501    0  0.00000000000E+00  0.00000000000E+00  0.15875991916E+04  0.15875991916E+04  0.25500000920E-02 0. -1.
       -2   -1    0    0    0  501  0.00000000000E+00  0.00000000000E+00 -0.17123464754E+04  0.17123464754E+04  0.25500000920E-02 0.  1.
    10030    2    1    2    0    0  0.00000000000E+00  0.00000000000E+00 -0.12474728378E+03  0.32999456670E+04  0.32975869238E+04 0.  0.
        5    1    3    3  502    0  0.43998569958E+03  0.26859135258E+03  0.15048784805E+04  0.15907262685E+04  0.46999998093E+01 0. -1.
       -5    1    3    3    0  502 -0.43998569958E+03 -0.26859135258E+03 -0.16296257642E+04  0.17092193984E+04  0.46999998093E+01 0.  1.
</event>
<event>
 5   0  0.1282578E-06  0.3369280E+04  0.7818609E-02  0.8145487E-01
        1   -1    0    0  501    0  0.00000000000E+00  0.00000000000E+00  0.20400699365E+04  0.20400699365E+04  0.50400001928E-02 0. -1.
       -1   -1    0    0    0  501  0.00000000000E+00  0.00000000000E+00 -0.13911349941E+04  0.13911349941E+04  0.50400001928E-02 0.  1.
    10030    2    1    2    0    0  0.00000000000E+00  0.00000000000E+00  0.64893494231E+03  0.34312049306E+04  0.33692804449E+04 0.  0.
        4    1    3    3  502    0  0.10433532691E+04  0.48925974908E+03  0.15758933977E+04  0.19522814244E+04  0.12699999809E+01 0.  1.
       -4    1    3    3    0  502 -0.10433532691E+04 -0.48925974908E+03 -0.92695845540E+03  0.14789235062E+04  0.12699999809E+01 0. -1.
</event>
<event>
 5   0  0.1352708E-06  0.3278123E+04  0.7818609E-02  0.8168484E-01
       -1   -1    0    0    0  501  0.00000000000E+00  0.00000000000E+00  0.19544886882E+04  0.19544886882E+04  0.50400001928E-02 0. -1.
        1   -1    0    0  501    0  0.00000000000E+00  0.00000000000E+00 -0.13745398372E+04  0.13745398372E+04  0.50400001928E-02 0.  1.
    10030    2    1    2    0    0  0.00000000000E+00  0.00000000000E+00  0.57994885105E+03  0.33290285255E+04  0.32781229772E+04 0.  0.
        5    1    3    3  502    0  0.11793647333E+04  0.59081845930E+03  0.12779816484E+04  0.18366346424E+04  0.46999998093E+01 0. -1.
       -5    1    3    3    0  502 -0.11793647333E+04 -0.59081845930E+03 -0.69803279735E+03  0.14923938831E+04  0.46999998093E+01 0.  1.
</event>
<event>
 5   0  0.1352708E-06  0.3247798E+04  0.7818609E-02  0.8176307E-01
        1   -1    0    0  501    0  0.00000000000E+00  0.00000000000E+00  0.14858066369E+04  0.14858066369E+04  0.50400001928E-02 0. -1.
       -1   -1    0    0    0  501  0.00000000000E+00  0.00000000000E+00 -0.17748262501E+04  0.17748262501E+04  0.50400001928E-02 0.  1.
    10030    2    1    2    0    0  0.00000000000E+00  0.00000000000E+00 -0.28901961313E+03  0.32606328870E+04  0.32477984062E+04 0.  0.
        5    1    3    3  502    0 -0.10258315177E+03  0.21381886151E+03  0.14683207013E+04  0.14873565748E+04  0.46999998093E+01 0. -1.
       -5    1    3    3    0  502  0.10258315177E+03 -0.21381886151E+03 -0.17573403145E+04  0.17732763122E+04  0.46999998093E+01 0.  1.
</event>
<event>
 5   0  0.1259875E-06  0.2981401E+04  0.7818609E-02  0.8249062E-01
        3   -1    0    0  501    0  0.00000000000E+00  0.00000000000E+00  0.14770570804E+04  0.14770570839E+04  0.10100000352E+00 0.  1.
       -3   -1    0    0    0  501  0.00000000000E+00  0.00000000000E+00 -0.15044702750E+04  0.15044702784E+04  0.10100000352E+00 0. -1.
    10030    2    1    2    0    0  0.00000000000E+00  0.00000000000E+00 -0.27413194553E+02  0.29815273622E+04  0.29814013364E+04 0.  0.
        3    1    3    3  502    0 -0.14707108162E+04  0.30913226762E+02 -0.25505171009E+03  0.14929826916E+04  0.10100000352E+00 0. -1.
       -3    1    3    3    0  502  0.14707108162E+04 -0.30913226762E+02  0.22763851554E+03  0.14885446706E+04  0.10100000352E+00 0.  1.
</event>
<event>
 5   0  0.3896210E-06  0.3304122E+04  0.7818609E-02  0.8161847E-01
       -2   -1    0    0    0  501  0.00000000000E+00  0.00000000000E+00  0.13961554655E+04  0.13961554655E+04  0.25500000920E-02 0.  1.
        2   -1    0    0  501    0  0.00000000000E+00  0.00000000000E+00 -0.19548719699E+04  0.19548719699E+04  0.25500000920E-02 0. -1.
    10030    2    1    2    0    0  0.00000000000E+00  0.00000000000E+00 -0.55871650445E+03  0.33510274354E+04  0.33041217805E+04 0.  0.
        3    1    3    3  502    0  0.98624191455E+02  0.20194200242E+03  0.13805799128E+04  0.13987523760E+04  0.10100000352E+00 0.  1.
       -3    1    3    3    0  502 -0.98624191455E+02 -0.20194200242E+03 -0.19392964172E+04  0.19522750594E+04  0.10100000352E+00 0. -1.
</event>
<event>
 5   0  0.1352708E-06  0.2807083E+04  0.7818609E-02  0.8301073E-01
       -1   -1    0    0    0  501  0.00000000000E+00  0.00000000000E+00  0.11049214169E+04  0.11049214169E+04  0.50400001928E-02 0.  1.
        1   -1    0    0  501    0  0.00000000000E+00  0.00000000000E+00 -0.17828683584E+04  0.17828683584E+04  0.50400001928E-02 0. -1.
    10030    2    1    2    0    0  0.00000000000E+00  0.00000000000E+00 -0.67794694148E+03  0.28877897754E+04  0.28070834920E+04 0.  0.
        5    1    3    3  502    0 -0.42490858058E+02  0.40282880639E+03 -0.17214213764E+04  0.17684428646E+04  0.46999998093E+01 0. -1.
       -5    1    3    3    0  502  0.42490858058E+02 -0.40282880639E+03  0.10434744349E+04  0.11193469108E+04  0.46999998093E+01 0.  1.
</event>
<event>
 5   0  0.1352708E-06  0.3227550E+04  0.7818609E-02  0.8181579E-01
       -1   -1    0    0    0  501  0.00000000000E+00  0.00000000000E+00  0.13630339671E+04  0.13630339671E+04  0.50400001928E-02 0.  1.
        1   -1    0    0  501    0  0.00000000000E+00  0.00000000000E+00 -0.19106423018E+04  0.19106423018E+04  0.50400001928E-02 0. -1.
    10030    2    1    2    0    0  0.00000000000E+00  0.00000000000E+00 -0.54760833473E+03  0.32736762689E+04  0.32275503754E+04 0.  0.
        5    1    3    3  502    0  0.14496493835E+03 -0.15479119523E+04 -0.71265605152E+03  0.17102476380E+04  0.46999998093E+01 0. -1.
       -5    1    3    3    0  502 -0.14496493835E+03  0.15479119523E+04  0.16504771679E+03  0.15634286310E+04  0.46999998093E+01 0.  1.
</event>
<event>
 5   0  0.3896210E-06  0.3681416E+04  0.7818609E-02  0.8072093E-01
       -2   -1    0    0    0  501  0.00000000000E+00  0.00000000000E+00  0.15353559681E+04  0.15353559681E+04  0.25500000920E-02 0.  1.
        2   -1    0    0  501    0  0.00000000000E+00  0.00000000000E+00 -0.22067889829E+04  0.22067889829E+04  0.25500000920E-02 0. -1.
    10030    2    1    2    0    0  0.00000000000E+00  0.00000000000E+00 -0.67143301478E+03  0.37421449510E+04  0.36814163770E+04 0.  0.
        3    1    3    3  502    0 -0.57131401640E+03 -0.11888890330E+04 -0.16407761323E+04  0.21052323303E+04  0.10100000352E+00 0. -1.
       -3    1    3    3    0  502  0.57131401640E+03  0.11888890330E+04  0.96934311750E+03  0.16369126207E+04  0.10100000352E+00 0.  1.
</event>
<event>
 5   0  0.4017247E-06  0.3068654E+04  0.7818609E-02  0.8224394E-01
        2   -1    0    0  501    0  0.00000000000E+00  0.00000000000E+00  0.21062710620E+04  0.21062710620E+04  0.25500000920E-02 0.  1.
       -2   -1    0    0    0  501  0.00000000000E+00  0.00000000000E+00 -0.11176902475E+04  0.11176902475E+04  0.25500000920E-02 0. -1.
    10030    2    1    2    0    0  0.00000000000E+00  0.00000000000E+00  0.98858081450E+03  0.32239613095E+04  0.30686535318E+04 0.  0.
        1    1    3    3  502    0  0.11335330128E+04  0.10340300530E+04  0.48737049445E+03  0.16098587642E+04  0.50400001928E-02 0. -1.
       -1    1    3    3    0  502 -0.11335330128E+04 -0.10340300530E+04  0.50121032005E+03  0.16141025453E+04  0.50400001928E-02 0.  1.
</event>
<event>
 5   0  0.3920487E-06  0.3244486E+04  0.7818609E-02  0.8177166E-01
       -2   -1    0    0    0  501  0.00000000000E+00  0.00000000000E+00  0.11288425587E+04  0.11288425587E+04  0.25500000920E-02 0.  1.
        2   -1    0    0  501    0  0.00000000000E+00  0.00000000000E+00 -0.23313010158E+04  0.23313010158E+04  0.25500000920E-02 0. -1.
    10030    2    1    2    0    0  0.00000000000E+00  0.00000000000E+00 -0.12024584572E+04  0.34601435745E+04  0.32444856626E+04 0.  0.
        4    1    3    3  502    0  0.71124781248E+03  0.10684359611E+04  0.45680339946E+03  0.13623875412E+04  0.12699999809E+01 0.  1.
       -4    1    3    3    0  502 -0.71124781248E+03 -0.10684359611E+04 -0.16592618566E+04  0.20977560333E+04  0.12699999809E+01 0. -1.
</event>
<event>
 5   0  0.1391878E-06  0.3371844E+04  0.7818609E-02  0.8144851E-01
        1   -1    0    0  501    0  0.00000000000E+00  0.00000000000E+00  0.21358220981E+04  0.21358220981E+04  0.50400001928E-02 0.  1.
       -1   -1    0    0    0  501  0.00000000000E+00  0.00000000000E+00 -0.13307911220E+04  0.13307911220E+04  0.50400001928E-02 0. -1.
    10030    2    1    2    0    0  0.00000000000E+00  0.00000000000E+00  0.80503097613E+03  0.34666132201E+04  0.33718440571E+04 0.  0.
        2    1    3    3  502    0 -0.13349348566E+04 -0.92731669092E+03  0.86271872863E+03  0.18401768723E+04  0.25500000920E-02 0.  1.
       -2    1    3    3    0  502  0.13349348566E+04  0.92731669092E+03 -0.57687752496E+02  0.16264363478E+04  0.25500000920E-02 0. -1.
</event>
<event>
 5   0  0.3812379E-06  0.3303569E+04  0.7818609E-02  0.8161988E-01
        2   -1    0    0  501    0  0.00000000000E+00  0.00000000000E+00  0.17309816643E+04  0.17309816643E+04  0.25500000920E-02 0.  1.
       -2   -1    0    0    0  501  0.00000000000E+00  0.00000000000E+00 -0.15762108563E+04  0.15762108563E+04  0.25500000920E-02 0. -1.
    10030    2    1    2    0    0  0.00000000000E+00  0.00000000000E+00  0.15477080798E+03  0.33071925206E+04  0.33035690345E+04 0.  0.
        5    1    3    3  502    0 -0.58355844818E+02 -0.52470961325E+03 -0.14894652911E+04  0.15802703966E+04  0.46999998093E+01 0. -1.
       -5    1    3    3    0  502  0.58355844818E+02  0.52470961325E+03  0.16442360991E+04  0.17269221240E+04  0.46999998093E+01 0.  1.
</event>
<event>
 5   0  0.1282578E-06  0.3328383E+04  0.7818609E-02  0.8155711E-01
       -1   -1    0    0    0  501  0.00000000000E+00  0.00000000000E+00  0.14622094173E+04  0.14622094173E+04  0.50400001928E-02 0. -1.
        1   -1    0    0  501    0  0.00000000000E+00  0.00000000000E+00 -0.18940740345E+04  0.18940740345E+04  0.50400001928E-02 0.  1.
    10030    2    1    2    0    0  0.00000000000E+00  0.00000000000E+00 -0.43186461722E+03  0.33562834518E+04  0.33283827246E+04 0.  0.
        4    1    3    3  502    0  0.16155921995E+04  0.27161975935E+03 -0.51098691890E+03  0.17161074246E+04  0.12699999809E+01 0.  1.
       -4    1    3    3    0  502 -0.16155921995E+04 -0.27161975935E+03  0.79122301679E+02  0.16401760272E+04  0.12699999809E+01 0. -1.
</event>
<event>
 5   0  0.4017247E-06  0.3293343E+04  0.7818609E-02  0.8164591E-01
       -2   -1    0    0    0  501  0.00000000000E+00  0.00000000000E+00  0.16213503345E+04  0.16213503345E+04  0.25500000920E-02 0.  1.
        2   -1    0    0  501    0  0.00000000000E+00  0.00000000000E+00 -0.16723885820E+04  0.16723885820E+04  0.25500000920E-02 0. -1.
    10030    2    1    2    0    0  0.00000000000E+00  0.00000000000E+00 -0.51038247508E+02  0.32937389165E+04  0.32933434603E+04 0.  0.
        1    1    3    3  502    0 -0.36898711331E+03  0.11853722931E+04 -0.11074386616E+04  0.16636343806E+04  0.50400001928E-02 0. -1.
       -1    1    3    3    0  502  0.36898711331E+03 -0.11853722931E+04  0.10564004141E+04  0.16301045359E+04  0.50400001928E-02 0.  1.
</event>
<event>
 5   0  0.3812379E-06  0.3307644E+04  0.7818609E-02  0.8160953E-01
        2   -1    0    0  501    0  0.00000000000E+00  0.00000000000E+00  0.20270997054E+04  0.20270997054E+04  0.25500000920E-02 0.  1.
       -2   -1    0    0    0  501  0.00000000000E+00  0.00000000000E+00 -0.13492809319E+04  0.13492809319E+04  0.25500000920E-02 0. -1.
    10030    2    1    2    0    0  0.00000000000E+00  0.00000000000E+00  0.67781877346E+03  0.33763806373E+04  0.33076438620E+04 0.  0.
        5    1    3    3  502    0  0.16154426568E+04 -0.34307639388E+03  0.24905454604E+03  0.16701516836E+04  0.46999998093E+01 0. -1.
       -5    1    3    3    0  502 -0.16154426568E+04  0.34307639388E+03  0.42876422741E+03  0.17062289536E+04  0.46999998093E+01 0.  1.
</event>
<event>
 5   0  0.3671997E-06  0.3022134E+04  0.7818609E-02  0.8237439E-01
        2   -1    0    0  501    0  0.00000000000E+00  0.00000000000E+00  0.16919549746E+04  0.16919549746E+04  0.25500000920E-02 0. -1.
       -2   -1    0    0    0  501  0.00000000000E+00  0.00000000000E+00 -0.13495176219E+04  0.13495176219E+04  0.25500000920E-02 0.  1.
    10030    2    1    2    0    0  0.00000000000E+00  0.00000000000E+00  0.34243735272E+03  0.30414725965E+04  0.30221337188E+04 0.  0.
        2    1    3    3  502    0  0.13880281718E+04  0.16820359386E+03  0.74795507230E+03  0.15856706609E+04  0.25500000920E-02 0. -1.
       -2    1    3    3    0  502 -0.13880281718E+04 -0.16820359386E+03 -0.40551771958E+03  0.14558019356E+04  0.25500000920E-02 0.  1.
</event>
<event>
 5   0  0.1405389E-06  0.2485478E+04  0.7818609E-02  0.8408177E-01
       -1   -1    0    0    0  501  0.00000000000E+00  0.00000000000E+00  0.13238097441E+04  0.13238097441E+04  0.50400001928E-02 0. -1.
        1   -1    0    0  501    0  0.00000000000E+00  0.00000000000E+00 -0.11666329689E+04  0.11666329689E+04  0.50400001928E-02 0.  1.
    10030    2    1    2    0    0  0.00000000000E+00  0.00000000000E+00  0.15717677520E+03  0.24904427129E+04  0.24854778952E+04 0.  0.
        1    1    3    3  502    0  0.11001677391E+04 -0.12854849970E+03  0.64319094241E+03  0.12808545426E+04  0.50400001928E-02 0. -1.
       -1    1    3    3    0  502 -0.11001677391E+04  0.12854849970E+03 -0.48601416721E+03  0.12095881703E+04  0.50400001928E-02 0.  1.
</event>
<event>
 5   0  0.1282578E-06  0.3333109E+04  0.7818609E-02  0.8154522E-01
        1   -1    0    0  501    0  0.00000000000E+00  0.00000000000E+00  0.21328278673E+04  0.21328278673E+04  0.50400001928E-02 0. -1.
       -1   -1    0    0    0  501  0.00000000000E+00  0.00000000000E+00 -0.13022162962E+04  0.13022162962E+04  0.50400001928E-02 0.  1.
    10030    2    1    2    0    0  0.00000000000E+00  0.00000000000E+00  0.83061157110E+03  0.34350441636E+04  0.33331085826E+04 0.  0.
        4    1    3    3  502    0  0.14609546893E+03 -0.13643468121E+04  0.13900733472E+04  0.19532259555E+04  0.12699999809E+01 0. -1.
       -4    1    3    3    0  502 -0.14609546893E+03  0.13643468121E+04 -0.55946177613E+03  0.14818182080E+04  0.12699999809E+01 0.  1.
</event>
<event>
 5   0  0.3671997E-06  0.3286003E+04  0.7818609E-02  0.8166466E-01
        2   -1    0    0  501    0  0.00000000000E+00  0.00000000000E+00  0.18463983341E+04  0.18463983341E+04  0.25500000920E-02 0.  1.
       -2   -1    0    0    0  501  0.00000000000E+00  0.00000000000E+00 -0.14620107909E+04  0.14620107909E+04  0.25500000920E-02 0. -1.
    10030    2    1    2    0    0  0.00000000000E+00  0.00000000000E+00  0.38438754317E+03  0.33084091249E+04  0.32860032189E+04 0.  0.
        2    1    3    3  502    0  0.94427125183E+03  0.72461423713E+03 -0.94811008963E+03  0.15217183484E+04  0.25500000920E-02 0. -1.
       -2    1    3    3    0  502 -0.94427125183E+03 -0.72461423713E+03  0.13324976328E+04  0.17866907766E+04  0.25500000920E-02 0.  1.
</event>
<event>
 5   0  0.3812379E-06  0.3252254E+04  0.7818609E-02  0.8175152E-01
        2   -1    0    0  501    0  0.00000000000E+00  0.00000000000E+00  0.13774453951E+04  0.13774453951E+04  0.25500000920E-02 0. -1.
       -2   -1    0    0    0  501  0.00000000000E+00  0.00000000000E+00 -0.19197046249E+04  0.19197046249E+04  0.25500000920E-02 0.  1.
    10030    2    1    2    0    0  0.00000000000E+00  0.00000000000E+00 -0.54225922980E+03  0.32971500201E+04  0.32522535545E+04 0.  0.
        5    1    3    3  502    0 -0.62626356962E+03  0.90589335401E+03  0.94180517733E+03  0.14490920984E+04  0.46999998093E+01 0. -1.
       -5    1    3    3    0  502  0.62626356962E+03 -0.90589335401E+03 -0.14840644071E+04  0.18480579217E+04  0.46999998093E+01 0.  1.
</event>
<event>
 5   0  0.1282578E-06  0.3328030E+04  0.7818609E-02  0.8155800E-01
       -1   -1    0    0    0  501  0.00000000000E+00  0.00000000000E+00  0.19198143874E+04  0.19198143874E+04  0.50400001928E-02 0. -1.
        1   -1    0    0  501    0  0.00000000000E+00  0.00000000000E+00 -0.14422987043E+04  0.14422987043E+04  0.50400001928E-02 0.  1.
    10030    2    1    2    0    0  0.00000000000E+00  0.00000000000E+00  0.47751568312E+03  0.33621130917E+04  0.33280299298E+04 0.  0.
        4    1    3    3  502    0  0.10768530413E+04 -0.12607361699E+04  0.38118404323E+03  0.17012851173E+04  0.12699999809E+01 0.  1.
       -4    1    3    3    0  502 -0.10768530413E+04  0.12607361699E+04  0.96331639891E+02  0.16608279744E+04  0.12699999809E+01 0. -1.
</event>
<event>
 5   0  0.1391878E-06  0.3323608E+04  0.7818609E-02  0.8156914E-01
        1   -1    0    0  501    0  0.00000000000E+00  0.00000000000E+00  0.14907865338E+04  0.14907865338E+04  0.50400001928E-02 0. -1.
       -1   -1    0    0    0  501  0.00000000000E+00  0.00000000000E+00 -0.18524399738E+04  0.18524399738E+04  0.50400001928E-02 0.  1.
    10030    2    1    2    0    0  0.00000000000E+00  0.00000000000E+00 -0.36165343999E+03  0.33432265076E+04  0.33236080200E+04 0.  0.
        2    1    3    3  502    0  0.75659432044E+03  0.14734009738E+04 -0.44947267415E+02  0.16569144976E+04  0.25500000920E-02 0. -1.
       -2    1    3    3    0  502 -0.75659432044E+03 -0.14734009738E+04 -0.31670617258E+03  0.16863120100E+04  0.25500000920E-02 0.  1.
</event>
<event>
 5   0  0.3920487E-06  0.3369285E+04  0.7818609E-02  0.8145486E-01
        2   -1    0    0  501    0  0.00000000000E+00  0.00000000000E+00  0.25718796380E+04  0.25718796380E+04  0.25500000920E-02 0. -1.
       -2   -1    0    0    0  501  0.00000000000E+00  0.00000000000E+00 -0.11034806978E+04  0.11034806978E+04  0.25500000920E-02 0.  1.
    10030    2    1    2    0    0  0.00000000000E+00  0.00000000000E+00  0.14683989402E+04  0.36753603358E+04  0.33692845161E+04 0.  0.
        4    1    3    3  502    0 -0.15211114136E+02 -0.16552585570E+04  0.10755229222E+04  0.19740474760E+04  0.12699999809E+01 0. -1.
       -4    1    3    3    0  502  0.15211114136E+02  0.16552585570E+04  0.39287601799E+03  0.17013128598E+04  0.12699999809E+01 0.  1.
</event>
<event>
 5   0  0.1259875E-06  0.3079517E+04  0.7818609E-02  0.8221382E-01
        3   -1    0    0  501    0  0.00000000000E+00  0.00000000000E+00  0.11675538390E+04  0.11675538433E+04  0.10100000352E+00 0.  1.
       -3   -1    0    0    0  501  0.00000000000E+00  0.00000000000E+00 -0.20306186607E+04  0.20306186632E+04  0.10100000352E+00 0. -1.
    10030    2    1    2    0    0  0.00000000000E+00  0.00000000000E+00 -0.86306482172E+03  0.31981725065E+04  0.30795172503E+04 0.  0.
        2    1    3    3  502    0 -0.89522230003E+03  0.10135927593E+04  0.33308516534E+03  0.13927451223E+04  0.25500000920E-02 0.  1.
       -2    1    3    3    0  502  0.89522230003E+03 -0.10135927593E+04 -0.11961499871E+04  0.18054273843E+04  0.25500000920E-02 0. -1.
</event>
<event>
 5   0  0.3920487E-06  0.3322400E+04  0.7818609E-02  0.8157219E-01
       -2   -1    0    0    0  501  0.00000000000E+00  0.00000000000E+00  0.19073102706E+04  0.19073102706E+04  0.25500000920E-02 0.  1.
        2   -1    0    0  501    0  0.00000000000E+00  0.00000000000E+00 -0.14468462394E+04  0.14468462394E+04  0.25500000920E-02 0. -1.
    10030    2    1    2    0    0  0.00000000000E+00  0.00000000000E+00  0.46046403114E+03  0.33541565100E+04  0.33223995500E+04 0.  0.
        4    1    3    3  502    0  0.16351518851E+04  0.28460252111E+03  0.15983171038E+03  0.16674135872E+04  0.12699999809E+01 0. -1.
       -4    1    3    3    0  502 -0.16351518851E+04 -0.28460252111E+03  0.30063232076E+03  0.16867429228E+04  0.12699999809E+01 0.  1.
</event>
<event>
 5   0  0.3920487E-06  0.3342793E+04  0.7818609E-02  0.8152091E-01
        2   -1    0    0  501    0  0.00000000000E+00  0.00000000000E+00  0.90813814751E+03  0.90813814751E+03  0.25500000920E-02 0.  1.
       -2   -1    0    0    0  501  0.00000000000E+00  0.00000000000E+00 -0.30761463652E+04  0.30761463652E+04  0.25500000920E-02 0. -1.
    10030    2    1    2    0    0  0.00000000000E+00  0.00000000000E+00 -0.21680082177E+04  0.39842845127E+04  0.33427927615E+04 0.  0.
        4    1    3    3  502    0 -0.62773712193E+03  0.14322377726E+04 -0.38067500404E+03  0.16094328203E+04  0.12699999809E+01 0.  1.
       -4    1    3    3    0  502  0.62773712193E+03 -0.14322377726E+04 -0.17873332137E+04  0.23748516924E+04  0.12699999809E+01 0. -1.
</event>
<event>
 5   0  0.3896210E-06  0.3257875E+04  0.7818609E-02  0.8173698E-01
       -2   -1    0    0    0  501  0.00000000000E+00  0.00000000000E+00  0.21922226327E+04  0.21922226327E+04  0.25500000920E-02 0. -1.
        2   -1    0    0  501    0  0.00000000000E+00  0.00000000000E+00 -0.12103865476E+04  0.12103865476E+04  0.25500000920E-02 0.  1.
    10030    2    1    2    0    0  0.00000000000E+00  0.00000000000E+00  0.98183608514E+03  0.34026091803E+04  0.32578746348E+04 0.  0.
        3    1    3    3  502    0  0.67246106415E+03  0.34876853265E+03  0.19970635005E+04  0.21359087077E+04  0.10100000352E+00 0. -1.
       -3    1    3    3    0  502 -0.67246106415E+03 -0.34876853265E+03 -0.10152274154E+04  0.12667004726E+04  0.10100000352E+00 0.  1.
</event>
<event>
 5   0  0.1391878E-06  0.3289533E+04  0.7818609E-02  0.8165564E-01
       -1   -1    0    0    0  501  0.00000000000E+00  0.00000000000E+00  0.10871912802E+04  0.10871912802E+04  0.50400001928E-02 0. -1.
        1   -1    0    0  501    0  0.00000000000E+00  0.00000000000E+00 -0.24882990249E+04  0.24882990250E+04  0.50400001928E-02 0.  1.
    10030    2    1    2    0    0  0.00000000000E+00  0.00000000000E+00 -0.14011077448E+04  0.35754903051E+04  0.32895330990E+04 0.  0.
        2    1    3    3  502    0  0.62214557509E+02  0.99887377495E+03 -0.21192518314E+04  0.23436825285E+04  0.25500000920E-02 0.  1.
       -2    1    3    3    0  502 -0.62214557509E+02 -0.99887377495E+03  0.71814408660E+03  0.12318077766E+04  0.25500000920E-02 0. -1.
</event>
<event>
 5   0  0.1405389E-06  0.3338533E+04  0.7818609E-02  0.8153159E-01
        1   -1    0    0  501    0  0.00000000000E+00  0.00000000000E+00  0.19539568735E+04  0.19539568735E+04  0.50400001928E-02 0.  1.
       -1   -1    0    0    0  501  0.00000000000E+00  0.00000000000E+00 -0.14260550009E+04  0.14260550009E+04  0.50400001928E-02 0. -1.
    10030    2    1    2    0    0  0.00000000000E+00  0.00000000000E+00  0.52790187262E+03  0.33800118744E+04  0.33385325944E+04 0.  0.
        1    1    3    3  502    0  0.73737781022E+02  0.13574653396E+04 -0.71674323397E+03  0.15368377507E+04  0.50400001928E-02 0. -1.
       -1    1    3    3    0  502 -0.73737781022E+02 -0.13574653396E+04  0.12446451066E+04  0.18431741236E+04  0.50400001928E-02 0.  1.
</event>
<event>
 5   0  0.1352708E-06  0.2993190E+04  0.7818609E-02  0.8245678E-01
        1   -1    0    0  501    0  0.00000000000E+00  0.00000000000E+00  0.27089217682E+04  0.27089217682E+04  0.50400001928E-02 0.  1.
       -1   -1    0    0    0  501  0.00000000000E+00  0.00000000000E+00 -0.82682195219E+03  0.82682195220E+03  0.50400001928E-02 0. -1.
    10030    2    1    2    0    0  0.00000000000E+00  0.00000000000E+00  0.18820998160E+04  0.35357437204E+04  0.29931895929E+04 0.  0.
        5    1    3    3  502    0 -0.10907605279E+04 -0.42224927963E+02 -0.26836507924E+03  0.11240922469E+04  0.46999998093E+01 0. -1.
       -5    1    3    3    0  502  0.10907605279E+04  0.42224927963E+02  0.21504648952E+04  0.24116514735E+04  0.46999998093E+01 0.  1.
</event>
<event>
 5   0  0.4017247E-06  0.3279828E+04  0.7818609E-02  0.8168047E-01
       -2   -1    0    0    0  501  0.00000000000E+00  0.00000000000E+00  0.21461349918E+04  0.21461349918E+04  0.25500000920E-02 0.  1.
        2   -1    0    0  501    0  0.00000000000E+00  0.00000000000E+00 -0.12530984181E+04  0.12530984181E+04  0.25500000920E-02 0. -1.
    10030    2    1    2    0    0  0.00000000000E+00  0.00000000000E+00  0.89303657370E+03  0.33992334098E+04  0.32798282657E+04 0.  0.
        1    1    3    3  502    0  0.50223680191E+03 -0.37793722775E+03  0.20163362955E+04  0.21120346612E+04  0.50400001928E-02 0.  1.
       -1    1    3    3    0  502 -0.50223680191E+03  0.37793722775E+03 -0.11232997219E+04  0.12871987486E+04  0.50400001928E-02 0. -1.
</event>
<event>
 5   0  0.3812379E-06  0.3275892E+04  0.7818609E-02  0.8169057E-01
       -2   -1    0    0    0  501  0.00000000000E+00  0.00000000000E+00  0.13768435098E+04  0.13768435098E+04  0.25500000920E-02 0. -1.
        2   -1    0    0  501    0  0.00000000000E+00  0.00000000000E+00 -0.19485641300E+04  0.19485641300E+04  0.25500000920E-02 0.  1.
    10030    2    1    2    0    0  0.00000000000E+00  0.00000000000E+00 -0.57172062025E+03  0.33254076398E+04  0.32758924743E+04 0.  0.
        5    1    3    3  502    0  0.17145665339E+03  0.15200276944E+04  0.30862298123E+03  0.15604972958E+04  0.46999998093E+01 0. -1.
       -5    1    3    3    0  502 -0.17145665339E+03 -0.15200276944E+04 -0.88034360148E+03  0.17649103440E+04  0.46999998093E+01 0.  1.
</event>
<event>
 5   0  0.3920487E-06  0.3154225E+04  0.7818609E-02  0.8201012E-01
        2   -1    0    0  501    0  0.00000000000E+00  0.00000000000E+00  0.17115380530E+04  0.17115380530E+04  0.25500000920E-02 0. -1.
       -2   -1    0    0    0  501  0.00000000000E+00  0.00000000000E+00 -0.14532449761E+04  0.14532449761E+04  0.25500000920E-02 0.  1.
    10030    2    1    2    0    0  0.00000000000E+00  0.00000000000E+00  0.25829307696E+03  0.31647830291E+04  0.31542251517E+04 0.  0.
        4    1    3    3  502    0  0.11057625550E+04 -0.58569248090E+03  0.10923263976E+04  0.16610012288E+04  0.12699999809E+01 0. -1.
       -4    1    3    3    0  502 -0.11057625550E+04  0.58569248090E+03 -0.83403332065E+03  0.15037818003E+04  0.12699999809E+01 0.  1.
</event>
<event>
 5   0  0.1352708E-06  0.3311238E+04  0.7818609E-02  0.8160042E-01
       -1   -1    0    0    0  501  0.00000000000E+00  0.00000000000E+00  0.13397704561E+04  0.13397704561E+04  0.50400001928E-02 0.  1.
        1   -1    0    0  501    0  0.00000000000E+00  0.00000000000E+00 -0.20459277561E+04  0.20459277562E+04  0.50400001928E-02 0. -1.
    10030    2    1    2    0    0  0.00000000000E+00  0.00000000000E+00 -0.70615730001E+03  0.33856982123E+04  0.33112375711E+04 0.  0.
        5    1    3    3  502    0  0.11498369877E+04 -0.11851623561E+04 -0.47542113825E+03  0.17183661593E+04  0.46999998093E+01 0. -1.
       -5    1    3    3    0  502 -0.11498369877E+04  0.11851623561E+04 -0.23073616176E+03  0.16673320530E+04  0.46999998093E+01 0.  1.
</event>
<event>
 5   0  0.1405389E-06  0.3265830E+04  0.7818609E-02  0.8171645E-01
       -1   -1    0    0    0  501  0.00000000000E+00  0.00000000000E+00  0.12883516412E+04  0.12883516412E+04  0.50400001928E-02 0. -1.
        1   -1    0    0  501    0  0.00000000000E+00  0.00000000000E+00 -0.20696307010E+04  0.20696307010E+04  0.50400001928E-02 0.  1.
    10030    2    1    2    0    0  0.00000000000E+00  0.00000000000E+00 -0.78127905985E+03  0.33579823422E+04  0.32658304367E+04 0.  0.
        1    1    3    3  502    0 -0.12713896285E+04  0.10154907292E+04 -0.53146810846E+03  0.17117568048E+04  0.50400001928E-02 0. -1.
       -1    1    3    3    0  502  0.12713896285E+04 -0.10154907292E+04 -0.24981095139E+03  0.16462255374E+04  0.50400001928E-02 0.  1.
</event>
<event>
 5   0  0.1391878E-06  0.3384247E+04  0.7818609E-02  0.8141783E-01
       -1   -1    0    0    0  501  0.00000000000E+00  0.00000000000E+00  0.10719673205E+04  0.10719673205E+04  0.50400001928E-02 0.  1.
        1   -1    0    0  501    0  0.00000000000E+00  0.00000000000E+00 -0.26710534866E+04  0.26710534866E+04  0.50400001928E-02 0. -1.
    10030    2    1    2    0    0  0.00000000000E+00  0.00000000000E+00 -0.15990861661E+04  0.37430208070E+04  0.33842470648E+04 0.  0.
        2    1    3    3  502    0  0.90680268247E+03 -0.28037827058E+03 -0.23489005191E+04  0.25334239141E+04  0.25500000920E-02 0. -1.
       -2    1    3    3    0  502 -0.90680268247E+03  0.28037827058E+03  0.74981435302E+03  0.12095968930E+04  0.25500000920E-02 0.  1.
</event>
<event>
 5   0  0.1391878E-06  0.2679557E+04  0.7818609E-02  0.8341668E-01
        1   -1    0    0  501    0  0.00000000000E+00  0.00000000000E+00  0.20314067991E+04  0.20314067992E+04  0.50400001928E-02 0. -1.
       -1   -1    0    0    0  501  0.00000000000E+00  0.00000000000E+00 -0.88362751613E+03  0.88362751615E+03  0.50400001928E-02 0.  1.
    10030    2    1    2    0    0  0.00000000000E+00  0.00000000000E+00  0.11477792830E+04  0.29150343153E+04  0.26795573845E+04 0.  0.
        2    1    3    3  502    0  0.17114872893E+03  0.23299376854E+03 -0.84929106573E+03  0.89714731117E+03  0.25500000920E-02 0.  1.
       -2    1    3    3    0  502 -0.17114872893E+03 -0.23299376854E+03  0.19970703487E+04  0.20178870041E+04  0.25500000920E-02 0. -1.
</event>
<event>
 5   0  0.1352708E-06  0.3346000E+04  0.7818609E-02  0.8151288E-01
        1   -1    0    0  501    0  0.00000000000E+00  0.00000000000E+00  0.14931428259E+04  0.14931428259E+04  0.50400001928E-02 0. -1.
       -1   -1    0    0    0  501  0.00000000000E+00  0.00000000000E+00 -0.18745221007E+04  0.18745221007E+04  0.50400001928E-02 0.  1.
    10030    2    1    2    0    0  0.00000000000E+00  0.00000000000E+00 -0.38137927483E+03  0.33676649266E+04  0.33460001355E+04 0.  0.
        5    1    3    3  502    0 -0.25051309317E+03 -0.13896833153E+04 -0.10936779748E+04  0.17860935388E+04  0.46999998093E+01 0.  1.
       -5    1    3    3    0  502  0.25051309317E+03  0.13896833153E+04  0.71229869996E+03  0.15815713878E+04  0.46999998093E+01 0. -1.
</event>
<event>
 5   0  0.4017247E-06  0.3286699E+04  0.7818609E-02  0.8166288E-01
        2   -1    0    0  501    0  0.00000000000E+00  0.00000000000E+00  0.24474151502E+04  0.24474151502E+04  0.25500000920E-02 0. -1.
       -2   -1    0    0    0  501  0.00000000000E+00  0.00000000000E+00 -0.11034492006E+04  0.11034492007E+04  0.25500000920E-02 0.  1.
    10030    2    1    2    0    0  0.00000000000E+00  0.00000000000E+00  0.13439659495E+04  0.35508643508E+04  0.32866994332E+04 0.  0.
        1    1    3    3  502    0  0.10236564284E+03 -0.14938241269E+04 -0.59653585773E+02  0.14985151976E+04  0.50400001928E-02 0.  1.
       -1    1    3    3    0  502 -0.10236564284E+03  0.14938241269E+04  0.14036195353E+04  0.20523491532E+04  0.50400001928E-02 0. -1.
</event>
<event>
 5   0  0.1282578E-06  0.3407817E+04  0.7818609E-02  0.8135991E-01
        1   -1    0    0  501    0  0.00000000000E+00  0.00000000000E+00  0.13556445870E+04  0.13556445870E+04  0.50400001928E-02 0. -1.
       -1   -1    0    0    0  501  0.00000000000E+00  0.00000000000E+00 -0.21416405749E+04  0.21416405749E+04  0.50400001928E-02 0.  1.
    10030    2    1    2    0    0  0.00000000000E+00  0.00000000000E+00 -0.78599598785E+03  0.34972851619E+04  0.34078165753E+04 0.  0.
        4    1    3    3  502    0  0.82924695673E+03 -0.13774440439E+04 -0.97199008148E+03  0.18787679315E+04  0.12699999809E+01 0.  1.
       -4    1    3    3    0  502 -0.82924695673E+03  0.13774440439E+04  0.18599409364E+03  0.16185172304E+04  0.12699999809E+01 0. -1.
</event>
<event>
 5   0  0.1405389E-06  0.3291071E+04  0.7818609E-02  0.8165171E-01
       -1   -1    0    0    0  501  0.00000000000E+00  0.00000000000E+00  0.23575808433E+04  0.23575808433E+04  0.50400001928E-02 0. -1.
        1   -1    0    0  501    0  0.00000000000E+00  0.00000000000E+00 -0.11485450015E+04  0.11485450015E+04  0.50400001928E-02 0.  1.
    10030    2    1    2    0    0  0.00000000000E+00  0.00000000000E+00  0.12090358417E+04  0.35061258448E+04  0.32910713716E+04 0.  0.
        1    1    3    3  502    0 -0.48408299141E+02  0.14558826715E+04 -0.21090592558E+03  0.14718760226E+04  0.50400001928E-02 0.  1.
       -1    1    3    3    0  502  0.48408299141E+02 -0.14558826715E+04  0.14199417673E+04  0.20342498222E+04  0.50400001928E-02 0. -1.
</event>
<event>
 5   0  0.3920487E-06  0.3124609E+04  0.7818609E-02  0.8209016E-01
        2   -1    0    0  501    0  0.00000000000E+00  0.00000000000E+00  0.28961789088E+04  0.28961789088E+04  0.25500000920E-02 0.  1.
       -2   -1    0    0    0  501  0.00000000000E+00  0.00000000000E+00 -0.84276399341E+03  0.84276399342E+03  0.25500000920E-02 0. -1.
    10030    2    1    2    0    0  0.00000000000E+00  0.00000000000E+00  0.20534149154E+04  0.37389429022E+04  0.31246089693E+04 0.  0.
        4    1    3    3  502    0  0.64350949181E+03 -0.12998493271E+04  0.33197072309E+03  0.14879243640E+04  0.12699999809E+01 0. -1.
       -4    1    3    3    0  502 -0.64350949181E+03  0.12998493271E+04  0.17214441923E+04  0.22510185382E+04  0.12699999809E+01 0.  1.
</event>
<event>
 5   0  0.1352708E-06  0.3154386E+04  0.7818609E-02  0.8200969E-01
        1   -1    0    0  501    0  0.00000000000E+00  0.00000000000E+00  0.17286572377E+04  0.17286572377E+04  0.50400001928E-02 0.  1.
       -1   -1    0    0    0  501  0.00000000000E+00  0.00000000000E+00 -0.14389996541E+04  0.14389996541E+04  0.50400001928E-02 0. -1.
    10030    2    1    2    0    0  0.00000000000E+00  0.00000000000E+00  0.28965758364E+03  0.31676568918E+04  0.31543856245E+04 0.  0.
        5    1    3    3  502    0 -0.13666581434E+04  0.65943093347E+02  0.93261135987E+03  0.16558650341E+04  0.46999998093E+01 0. -1.
       -5    1    3    3    0  502  0.13666581434E+04 -0.65943093347E+02 -0.64295377623E+03  0.15117918577E+04  0.46999998093E+01 0.  1.
</event>
<event>
 5   0  0.1352708E-06  0.3309338E+04  0.7818609E-02  0.8160523E-01
        1   -1    0    0  501    0  0.00000000000E+00  0.00000000000E+00  0.26752586688E+04  0.26752586688E+04  0.50400001928E-02 0. -1.
       -1   -1    0    0    0  501  0.00000000000E+00  0.00000000000E+00 -0.10234259407E+04  0.10234259407E+04  0.50400001928E-02 0.  1.
    10030    2    1    2    0    0  0.00000000000E+00  0.00000000000E+00  0.16518327281E+04  0.36986846095E+04  0.33093377704E+04 0.  0.
        5    1    3    3  502    0  0.52110667997E+03 -0.15610030360E+03  0.25724539134E+04  0.26293460600E+04  0.46999998093E+01 0. -1.
       -5    1    3    3    0  502 -0.52110667997E+03  0.15610030360E+03 -0.92062118528E+03  0.10693385495E+04  0.46999998093E+01 0.  1.
</event>
<event>
 5   0  0.1282578E-06  0.3232782E+04  0.7818609E-02  0.8180213E-01
        1   -1    0    0  501    0  0.00000000000E+00  0.00000000000E+00  0.12403794779E+04  0.12403794780E+04  0.50400001928E-02 0. -1.
       -1   -1    0    0    0  501  0.00000000000E+00  0.00000000000E+00 -0.21063873517E+04  0.21063873517E+04  0.50400001928E-02 0.  1.
    10030    2    1    2    0    0  0.00000000000E+00  0.00000000000E+00 -0.86600787375E+03  0.33467668297E+04  0.32327818632E+04 0.  0.
        4    1    3    3  502    0  0.93986459651E+03  0.13011840491E+04 -0.23578058142E+03  0.16223499884E+04  0.12699999809E+01 0. -1.
       -4    1    3    3    0  502 -0.93986459651E+03 -0.13011840491E+04 -0.63022729233E+03  0.17244168412E+04  0.12699999809E+01 0.  1.
</event>
<event>
 5   0  0.4017247E-06  0.3403000E+04  0.7818609E-02  0.8137170E-01
       -2   -1    0    0    0  501  0.00000000000E+00  0.00000000000E+00  0.13524198648E+04  0.13524198649E+04  0.25500000920E-02 0.  1.
        2   -1    0    0  501    0  0.00000000000E+00  0.00000000000E+00 -0.21406830476E+04  0.21406830476E+04  0.25500000920E-02 0. -1.
    10030    2    1    2    0    0  0.00000000000E+00  0.00000000000E+00 -0.78826318274E+03  0.34931029124E+04  0.34030000164E+04 0.  0.
        1    1    3    3  502    0 -0.16352162312E+04 -0.46188343626E+03 -0.30327907530E+03  0.17260494283E+04  0.50400001928E-02 0.  1.
       -1    1    3    3    0  502  0.16352162312E+04  0.46188343626E+03 -0.48498410744E+03  0.17670534842E+04  0.50400001928E-02 0. -1.
</event>
<event>
 5   0  0.1282578E-06  0.3269741E+04  0.7818609E-02  0.8170638E-01
        1   -1    0    0  501    0  0.00000000000E+00  0.00000000000E+00  0.20041860398E+04  0.20041860398E+04  0.50400001928E-02 0. -1.
       -1   -1    0    0    0  501  0.00000000000E+00  0.00000000000E+00 -0.13336098379E+04  0.13336098379E+04  0.50400001928E-02 0.  1.
    10030    2    1    2    0    0  0.00000000000E+00  0.00000000000E+00  0.67057620192E+03  0.33377958778E+04  0.32697414086E+04 0.  0.
        4    1    3    3  502    0 -0.46226230755E+03  0.58386677320E+03 -0.11504123624E+04  0.13704149248E+04  0.12699999809E+01 0.  1.
       -4    1    3    3    0  502  0.46226230755E+03 -0.58386677320E+03  0.18209885643E+04  0.19673809529E+04  0.12699999809E+01 0. -1.
</event>
<event>
 5   0  0.4017247E-06  0.3374017E+04  0.7818609E-02  0.8144313E-01
        2   -1    0    0  501    0  0.00000000000E+00  0.00000000000E+00  0.13318241636E+04  0.13318241636E+04  0.25500000920E-02 0. -1.
       -2   -1    0    0    0  501  0.00000000000E+00  0.00000000000E+00 -0.21369169800E+04  0.21369169800E+04  0.25500000920E-02 0.  1.
    10030    2    1    2    0    0  0.00000000000E+00  0.00000000000E+00 -0.80509281633E+03  0.34687411436E+04  0.33740169944E+04 0.  0.
        1    1    3    3  502    0 -0.80589198360E+03 -0.12289643390E+04 -0.12541636075E+04  0.19320304320E+04  0.50400001928E-02 0.  1.
       -1    1    3    3    0  502  0.80589198360E+03  0.12289643390E+04  0.44907079121E+03  0.15367107116E+04  0.50400001928E-02 0. -1.
</event>
<event>
 5   0  0.3896210E-06  0.3267204E+04  0.7818609E-02  0.8171291E-01
        2   -1    0    0  501    0  0.00000000000E+00  0.00000000000E+00  0.17086585338E+04  0.17086585338E+04  0.25500000920E-02 0. -1.
       -2   -1    0    0    0  501  0.00000000000E+00  0.00000000000E+00 -0.15618424412E+04  0.15618424412E+04  0.25500000920E-02 0.  1.
    10030    2    1    2    0    0  0.00000000000E+00  0.00000000000E+00  0.14681609259E+03  0.32705009749E+04  0.32672039517E+04 0.  0.
        3    1    3    3  502    0 -0.24933428186E+03 -0.85364962457E+03  0.14451084029E+04  0.16968275021E+04  0.10100000352E+00 0. -1.
       -3    1    3    3    0  502  0.24933428186E+03  0.85364962457E+03 -0.12982923103E+04  0.15736734728E+04  0.10100000352E+00 0.  1.
</event>
<event>
 5   0  0.3896210E-06  0.3297400E+04  0.7818609E-02  0.8163557E-01
       -2   -1    0    0    0  501  0.00000000000E+00  0.00000000000E+00  0.12343080285E+04  0.12343080285E+04  0.25500000920E-02 0.  1.
        2   -1    0    0  501    0  0.00000000000E+00  0.00000000000E+00 -0.22022154712E+04  0.22022154712E+04  0.25500000920E-02 0. -1.
    10030    2    1    2    0    0  0.00000000000E+00  0.00000000000E+00 -0.96790744265E+03  0.34365234997E+04  0.32974003316E+04 0.  0.
        3    1    3    3  502    0 -0.99904263107E+03 -0.66013188852E+02  0.88118555366E+03  0.13337660627E+04  0.10100000352E+00 0.  1.
       -3    1    3    3    0  502  0.99904263107E+03  0.66013188852E+02 -0.18490929963E+04  0.21027574370E+04  0.10100000352E+00 0. -1.
</event>
<event>
 5   0  0.1405389E-06  0.3281440E+04  0.7818609E-02  0.8167634E-01
        1   -1    0    0  501    0  0.00000000000E+00  0.00000000000E+00  0.33764155631E+04  0.33764155631E+04  0.50400001928E-02 0.  1.
       -1   -1    0    0    0  501  0.00000000000E+00  0.00000000000E+00 -0.79728385403E+03  0.79728385404E+03  0.50400001928E-02 0. -1.
    10030    2    1    2    0    0  0.00000000000E+00  0.00000000000E+00  0.25791317091E+04  0.41736994171E+04  0.32814396920E+04 0.  0.
        1    1    3    3  502    0  0.26305068989E+03  0.35000677463E+02 -0.76980736409E+03  0.81426291252E+03  0.50400001928E-02 0. -1.
       -1    1    3    3    0  502 -0.26305068989E+03 -0.35000677463E+02  0.33489390731E+04  0.33594365046E+04  0.50400001928E-02 0.  1.
</event>
<event>
 5   0  0.1352708E-06  0.2987021E+04  0.7818609E-02  0.8247447E-01
        1   -1    0    0  501    0  0.00000000000E+00  0.00000000000E+00  0.18590777073E+04  0.18590777074E+04  0.50400001928E-02 0. -1.
       -1   -1    0    0    0  501  0.00000000000E+00  0.00000000000E+00 -0.11998278016E+04  0.11998278016E+04  0.50400001928E-02 0.  1.
    10030    2    1    2    0    0  0.00000000000E+00  0.00000000000E+00  0.65924990576E+03  0.30589055090E+04  0.29870206686E+04 0.  0.
        5    1    3    3  502    0 -0.88151657631E+03 -0.12042080456E+04  0.38900785038E+03  0.15422508515E+04  0.46999998093E+01 0. -1.
       -5    1    3    3    0  502  0.88151657631E+03  0.12042080456E+04  0.27024205538E+03  0.15166546574E+04  0.46999998093E+01 0.  1.
</event>
<event>
 5   0  0.3896210E-06  0.3259875E+04  0.7818609E-02  0.8173181E-01
       -2   -1    0    0    0  501  0.00000000000E+00  0.00000000000E+00  0.15067589028E+04  0.15067589028E+04  0.25500000920E-02 0.  1.
        2   -1    0    0  501    0  0.00000000000E+00  0.00000000000E+00 -0.17631858071E+04  0.17631858071E+04  0.25500000920E-02 0. -1.
    10030    2    1    2    0    0  0.00000000000E+00  0.00000000000E+00 -0.25642690436E+03  0.32699447099E+04  0.32598747903E+04 0.  0.
        3    1    3    3  502    0 -0.60105945592E+03  0.91266306282E+03 -0.13412752015E+04  0.17300998561E+04  0.10100000352E+00 0. -1.
       -3    1    3    3    0  502  0.60105945592E+03 -0.91266306282E+03  0.10848482971E+04  0.15398448538E+04  0.10100000352E+00 0.  1.
</event>
<event>
 5   0  0.1352708E-06  0.3269094E+04  0.7818609E-02  0.8170804E-01
       -1   -1    0    0    0  501  0.00000000000E+00  0.00000000000E+00  0.18347609171E+04  0.18347609171E+04  0.50400001928E-02 0. -1.
        1   -1    0    0  501    0  0.00000000000E+00  0.00000000000E+00 -0.14561810549E+04  0.14561810549E+04  0.50400001928E-02 0.  1.
    10030    2    1    2    0    0  0.00000000000E+00  0.00000000000E+00  0.37857986222E+03  0.32909419721E+04  0.32690941179E+04 0.  0.
        5    1    3    3  502    0 -0.11660443769E+04 -0.13264473245E+03 -0.95606064976E+03  0.15137133711E+04  0.46999998093E+01 0.  1.
       -5    1    3    3    0  502  0.11660443769E+04  0.13264473245E+03  0.13346405120E+04  0.17772286010E+04  0.46999998093E+01 0. -1.
</event>
<event>
 5   0  0.3671997E-06  0.2983328E+04  0.7818609E-02  0.8248508E-01
        2   -1    0    0  501    0  0.00000000000E+00  0.00000000000E+00  0.20423722088E+04  0.20423722088E+04  0.25500000920E-02 0. -1.
       -2   -1    0    0    0  501  0.00000000000E+00  0.00000000000E+00 -0.10894497712E+04  0.10894497712E+04  0.25500000920E-02 0.  1.
    10030    2    1    2    0    0  0.00000000000E+00  0.00000000000E+00  0.95292243762E+03  0.31318219799E+04  0.29833282994E+04 0.  0.
        2    1    3    3  502    0 -0.65933644454E+03 -0.69567789115E+03  0.16763170397E+04  0.19309922561E+04  0.25500000920E-02 0. -1.
       -2    1    3    3    0  502  0.65933644454E+03  0.69567789115E+03 -0.72339460212E+03  0.12008297239E+04  0.25500000920E-02 0.  1.
</event>
<event>
 5   0  0.1339825E-06  0.3264126E+04  0.7818609E-02  0.8172084E-01
        1   -1    0    0  501    0  0.00000000000E+00  0.00000000000E+00  0.15758252675E+04  0.15758252675E+04  0.50400001928E-02 0.  1.
       -1   -1    0    0    0  501  0.00000000000E+00  0.00000000000E+00 -0.16903074914E+04  0.16903074914E+04  0.50400001928E-02 0. -1.
    10030    2    1    2    0    0  0.00000000000E+00  0.00000000000E+00 -0.11448222394E+03  0.32661327590E+04  0.32641257665E+04 0.  0.
        3    1    3    3  502    0  0.71524519448E+03  0.13659555458E+04 -0.59256445616E+03  0.16518301627E+04  0.10100000352E+00 0. -1.
       -3    1    3    3    0  502 -0.71524519448E+03 -0.13659555458E+04  0.47808223222E+03  0.16143025963E+04  0.10100000352E+00 0.  1.
</event>
<event>
 5   0  0.1405389E-06  0.3288183E+04  0.7818609E-02  0.8165909E-01
        1   -1    0    0  501    0  0.00000000000E+00  0.00000000000E+00  0.26659008046E+04  0.26659008046E+04  0.50400001928E-02 0. -1.
       -1   -1    0    0    0  501  0.00000000000E+00  0.00000000000E+00 -0.10139300237E+04  0.10139300237E+04  0.50400001928E-02 0.  1.
    10030    2    1    2    0    0  0.00000000000E+00  0.00000000000E+00  0.16519707809E+04  0.36798308284E+04  0.32881830035E+04 0.  0.
        1    1    3    3  502    0  0.42844050745E+03  0.15270289145E+04  0.13107777347E+04  0.20575511765E+04  0.50400001928E-02 0.  1.
       -1    1    3    3    0  502 -0.42844050745E+03 -0.15270289145E+04  0.34119304623E+03  0.16222796519E+04  0.50400001928E-02 0. -1.
</event>
<event>
 5   0  0.1282578E-06  0.2093857E+04  0.7818609E-02  0.8563954E-01
        1   -1    0    0  501    0  0.00000000000E+00  0.00000000000E+00  0.20380332404E+04  0.20380332405E+04  0.50400001928E-02 0. -1.
       -1   -1    0    0    0  501  0.00000000000E+00  0.00000000000E+00 -0.53780221825E+03  0.53780221827E+03  0.50400001928E-02 0.  1.
    10030    2    1    2    0    0  0.00000000000E+00  0.00000000000E+00  0.15002310222E+04  0.25758354587E+04  0.20938565353E+04 0.  0.
        4    1    3    3  502    0  0.14210062846E+03 -0.57000166327E+00 -0.52588232560E+03  0.54474466201E+03  0.12699999809E+01 0.  1.
       -4    1    3    3    0  502 -0.14210062846E+03  0.57000166327E+00  0.20261133478E+04  0.20310907967E+04  0.12699999809E+01 0. -1.
</event>
<event>
 5   0  0.3920487E-06  0.3252934E+04  0.7818609E-02  0.8174976E-01
       -2   -1    0    0    0  501  0.00000000000E+00  0.00000000000E+00  0.16104560553E+04  0.16104560553E+04  0.25500000920E-02 0.  1.
        2   -1    0    0  501    0  0.00000000000E+00  0.00000000000E+00 -0.16426369335E+04  0.16426369335E+04  0.25500000920E-02 0. -1.
    10030    2    1    2    0    0  0.00000000000E+00  0.00000000000E+00 -0.32180878235E+02  0.32530929888E+04  0.32529338120E+04 0.  0.
        4    1    3    3  502    0  0.12881039161E+04  0.16165441042E+03 -0.99595935663E+03  0.16362397440E+04  0.12699999809E+01 0. -1.
       -4    1    3    3    0  502 -0.12881039161E+04 -0.16165441042E+03  0.96377847840E+03  0.16168532448E+04  0.12699999809E+01 0.  1.
</event>
<event>
 5   0  0.1339825E-06  0.3280403E+04  0.7818609E-02  0.8167900E-01
        1   -1    0    0  501    0  0.00000000000E+00  0.00000000000E+00  0.17938510729E+04  0.17938510729E+04  0.50400001928E-02 0.  1.
       -1   -1    0    0    0  501  0.00000000000E+00  0.00000000000E+00 -0.14997125695E+04  0.14997125695E+04  0.50400001928E-02 0. -1.
    10030    2    1    2    0    0  0.00000000000E+00  0.00000000000E+00  0.29413850347E+03  0.32935636424E+04  0.32804030251E+04 0.  0.
        3    1    3    3  502    0  0.11820891339E+04 -0.62416067376E+03  0.11013294595E+04  0.17320039999E+04  0.10100000352E+00 0.  1.
       -3    1    3    3    0  502 -0.11820891339E+04  0.62416067376E+03 -0.80719095603E+03  0.15615596425E+04  0.10100000352E+00 0. -1.
</event>
<event>
 5   0  0.1352708E-06  0.2394276E+04  0.7818609E-02  0.8441650E-01
       -1   -1    0    0    0  501  0.00000000000E+00  0.00000000000E+00  0.74332964396E+03  0.74332964397E+03  0.50400001928E-02 0. -1.
        1   -1    0    0  501    0  0.00000000000E+00  0.00000000000E+00 -0.19279999525E+04  0.19279999525E+04  0.50400001928E-02 0.  1.
    10030    2    1    2    0    0  0.00000000000E+00  0.00000000000E+00 -0.11846703085E+04  0.26713295965E+04  0.23942761063E+04 0.  0.
        5    1    3    3  502    0 -0.15684255439E+03 -0.74055722139E+03  0.44239215471E+03  0.87678816916E+03  0.46999998093E+01 0. -1.
       -5    1    3    3    0  502  0.15684255439E+03  0.74055722139E+03 -0.16270624633E+04  0.17945414273E+04  0.46999998093E+01 0.  1.
</event>
<event>
 5   0  0.1282578E-06  0.3283939E+04  0.7818609E-02  0.8166994E-01
       -1   -1    0    0    0  501  0.00000000000E+00  0.00000000000E+00  0.33003757634E+04  0.33003757634E+04  0.50400001928E-02 0.  1.
        1   -1    0    0  501    0  0.00000000000E+00  0.00000000000E+00 -0.81689593693E+03  0.81689593695E+03  0.50400001928E-02 0. -1.
    10030    2    1    2    0    0  0.00000000000E+00  0.00000000000E+00  0.24834798265E+04  0.41172717004E+04  0.32839388250E+04 0.  0.
        4    1    3    3  502    0 -0.13726343404E+04  0.49909674637E+03  0.30113619111E+03  0.14912770411E+04  0.12699999809E+01 0. -1.
       -4    1    3    3    0  502  0.13726343404E+04 -0.49909674637E+03  0.21823436354E+04  0.26259946593E+04  0.12699999809E+01 0.  1.
</event>
<event>
 5   0  0.3671997E-06  0.3142003E+04  0.7818609E-02  0.8204304E-01
        2   -1    0    0  501    0  0.00000000000E+00  0.00000000000E+00  0.25083826902E+04  0.25083826902E+04  0.25500000920E-02 0.  1.
       -2   -1    0    0    0  501  0.00000000000E+00  0.00000000000E+00 -0.98391895521E+03  0.98391895521E+03  0.25500000920E-02 0. -1.
    10030    2    1    2    0    0  0.00000000000E+00  0.00000000000E+00  0.15244637350E+04  0.34923016454E+04  0.31420027217E+04 0.  0.
        2    1    3    3  502    0  0.15382031371E+04 -0.10172818727E+03  0.10986804695E+04  0.18930177731E+04  0.25500000920E-02 0. -1.
       -2    1    3    3    0  502 -0.15382031371E+04  0.10172818727E+03  0.42578326546E+03  0.15992838723E+04  0.25500000920E-02 0.  1.
</event>
<event>
 5   0  0.3920487E-06  0.3163411E+04  0.7818609E-02  0.8198548E-01
        2   -1    0    0  501    0  0.00000000000E+00  0.00000000000E+00  0.16308555444E+04  0.16308555444E+04  0.25500000920E-02 0. -1.
       -2   -1    0    0    0  501  0.00000000000E+00  0.00000000000E+00 -0.15340366137E+04  0.15340366137E+04  0.25500000920E-02 0.  1.
    10030    2    1    2    0    0  0.00000000000E+00  0.00000000000E+00  0.96818930664E+02  0.31648921582E+04  0.31634108913E+04 0.  0.
        4    1    3    3  502    0 -0.96306004149E+01 -0.49618041187E+03 -0.14541268992E+04  0.15364811751E+04  0.12699999809E+01 0.  1.
       -4    1    3    3    0  502  0.96306004149E+01  0.49618041187E+03  0.15509458299E+04  0.16284109830E+04  0.12699999809E+01 0. -1.
</event>
<event>
 5   0  0.3920487E-06  0.3341124E+04  0.7818609E-02  0.8152509E-01
        2   -1    0    0  501    0  0.00000000000E+00  0.00000000000E+00  0.18933067213E+04  0.18933067213E+04  0.25500000920E-02 0.  1.
       -2   -1    0    0    0  501  0.00000000000E+00  0.00000000000E+00 -0.14740231918E+04  0.14740231918E+04  0.25500000920E-02 0. -1.
    10030    2    1    2    0    0  0.00000000000E+00  0.00000000000E+00  0.41928352951E+03  0.33673299130E+04  0.33411243714E+04 0.  0.
        4    1    3    3  502    0 -0.10278212561E+04 -0.61969102085E+03  0.13807986066E+04  0.18294917056E+04  0.12699999809E+01 0.  1.
       -4    1    3    3    0  502  0.10278212561E+04  0.61969102085E+03 -0.96151507711E+03  0.15378382075E+04  0.12699999809E+01 0. -1.
</event>
<event>
 5   0  0.1282578E-06  0.3305149E+04  0.7818609E-02  0.8161586E-01
       -1   -1    0    0    0  501  0.00000000000E+00  0.00000000000E+00  0.16908776496E+04  0.16908776496E+04  0.50400001928E-02 0. -1.
        1   -1    0    0  501    0  0.00000000000E+00  0.00000000000E+00 -0.16151394201E+04  0.16151394201E+04  0.50400001928E-02 0.  1.
    10030    2    1    2    0    0  0.00000000000E+00  0.00000000000E+00  0.75738229449E+02  0.33060170697E+04  0.33051494045E+04 0.  0.
        4    1    3    3  502    0  0.10089919604E+04 -0.79457921867E+03  0.10781328162E+04  0.16768401513E+04  0.12699999809E+01 0. -1.
       -4    1    3    3    0  502 -0.10089919604E+04  0.79457921867E+03 -0.10023945867E+04  0.16291769184E+04  0.12699999809E+01 0.  1.
</event>
<event>
 5   0  0.3671997E-06  0.3431884E+04  0.7818609E-02  0.8130125E-01
        2   -1    0    0  501    0  0.00000000000E+00  0.00000000000E+00  0.11111388835E+04  0.11111388835E+04  0.25500000920E-02 0.  1.
       -2   -1    0    0    0  501  0.00000000000E+00  0.00000000000E+00 -0.26499446835E+04  0.26499446835E+04  0.25500000920E-02 0. -1.
    10030    2    1    2    0    0  0.00000000000E+00  0.00000000000E+00 -0.15388058000E+04  0.37610835670E+04  0.34318837842E+04 0.  0.
        2    1    3    3  502    0  0.15180422851E+04 -0.41628675358E+03 -0.15180958575E+04  0.21868612377E+04  0.25500000920E-02 0. -1.
       -2    1    3    3    0  502 -0.15180422851E+04  0.41628675358E+03 -0.20709942518E+02  0.15742223293E+04  0.25500000920E-02 0.  1.
</event>
<event>
 5   0  0.3920487E-06  0.3390768E+04  0.7818609E-02  0.8140176E-01
       -2   -1    0    0    0  501  0.00000000000E+00  0.00000000000E+00  0.11973805421E+04  0.11973805421E+04  0.25500000920E-02 0.  1.
        2   -1    0    0  501    0  0.00000000000E+00  0.00000000000E+00 -0.24005123730E+04  0.24005123730E+04  0.25500000920E-02 0. -1.
    10030    2    1    2    0    0  0.00000000000E+00  0.00000000000E+00 -0.12031318309E+04  0.35978929151E+04  0.33907679405E+04 0.  0.
        4    1    3    3  502    0  0.14478090860E+04 -0.63359122983E+03  0.49715731671E+02  0.15811585192E+04  0.12699999809E+01 0.  1.
       -4    1    3    3    0  502 -0.14478090860E+04  0.63359122983E+03 -0.12528475625E+04  0.20167343959E+04  0.12699999809E+01 0. -1.
</event>
<event>
 5   0  0.3812379E-06  0.3154381E+04  0.7818609E-02  0.8200970E-01
        2   -1    0    0  501    0  0.00000000000E+00  0.00000000000E+00  0.14984571101E+04  0.14984571101E+04  0.25500000920E-02 0.  1.
       -2   -1    0    0    0  501  0.00000000000E+00  0.00000000000E+00 -0.16600610898E+04  0.16600610898E+04  0.25500000920E-02 0. -1.
    10030    2    1    2    0    0  0.00000000000E+00  0.00000000000E+00 -0.16160397962E+03  0.31585181999E+04  0.31543812980E+04 0.  0.
        5    1    3    3  502    0  0.12450208178E+04 -0.70579226749E+01  0.88865245751E+03  0.15296574555E+04  0.46999998093E+01 0.  1.
       -5    1    3    3    0  502 -0.12450208178E+04  0.70579226749E+01 -0.10502564371E+04  0.16288607444E+04  0.46999998093E+01 0. -1.
</event>
<event>
 5   0  0.1391878E-06  0.3345978E+04  0.7818609E-02  0.8151294E-01
       -1   -1    0    0    0  501  0.00000000000E+00  0.00000000000E+00  0.18596186882E+04  0.18596186882E+04  0.50400001928E-02 0.  1.
        1   -1    0    0  501    0  0.00000000000E+00  0.00000000000E+00 -0.15050890983E+04  0.15050890983E+04  0.50400001928E-02 0. -1.
    10030    2    1    2    0    0  0.00000000000E+00  0.00000000000E+00  0.35452958989E+03  0.33647077866E+04  0.33459777732E+04 0.  0.
        2    1    3    3  502    0 -0.12268973090E+04 -0.61641706820E+03 -0.78393351003E+03  0.15810751902E+04  0.25500000920E-02 0. -1.
       -2    1    3    3    0  502  0.12268973090E+04  0.61641706820E+03  0.11384630999E+04  0.17836325964E+04  0.25500000920E-02 0.  1.
</event>
<event>
 5   0  0.3812379E-06  0.3300334E+04  0.7818609E-02  0.8162810E-01
       -2   -1    0    0    0  501  0.00000000000E+00  0.00000000000E+00  0.20938143815E+04  0.20938143815E+04  0.25500000920E-02 0. -1.
        2   -1    0    0  501    0  0.00000000000E+00  0.00000000000E+00 -0.13005218302E+04  0.13005218302E+04  0.25500000920E-02 0.  1.
    10030    2    1    2    0    0  0.00000000000E+00  0.00000000000E+00  0.79329255129E+03  0.33943362116E+04  0.33003341112E+04 0.  0.
        5    1    3    3  502    0  0.11864123476E+04 -0.45263912464E+03 -0.68720692056E+03  0.14438600616E+04  0.46999998093E+01 0.  1.
       -5    1    3    3    0  502 -0.11864123476E+04  0.45263912464E+03  0.14804994719E+04  0.19504761501E+04  0.46999998093E+01 0. -1.
</event>
<event>
 5   0  0.1352708E-06  0.2628118E+04  0.7818609E-02  0.8358712E-01
       -1   -1    0    0    0  501  0.00000000000E+00  0.00000000000E+00  0.77061225651E+03  0.77061225653E+03  0.50400001928E-02 0.  1.
        1   -1    0    0  501    0  0.00000000000E+00  0.00000000000E+00 -0.22407524573E+04  0.22407524573E+04  0.50400001928E-02 0. -1.
    10030    2    1    2    0    0  0.00000000000E+00  0.00000000000E+00 -0.14701402008E+04  0.30113647139E+04  0.26281181918E+04 0.  0.
        5    1    3    3  502    0  0.88957097870E+03 -0.87967129454E+03 -0.27449515193E+03  0.12808308987E+04  0.46999998093E+01 0.  1.
       -5    1    3    3    0  502 -0.88957097870E+03  0.87967129454E+03 -0.11956450489E+04  0.17305338152E+04  0.46999998093E+01 0. -1.
</event>
<event>
 5   0  0.1391878E-06  0.3317233E+04  0.7818609E-02  0.8158524E-01
       -1   -1    0    0    0  501  0.00000000000E+00  0.00000000000E+00  0.15831265685E+04  0.15831265685E+04  0.50400001928E-02 0. -1.
        1   -1    0    0  501    0  0.00000000000E+00  0.00000000000E+00 -0.17377061594E+04  0.17377061594E+04  0.50400001928E-02 0.  1.
    10030    2    1    2    0    0  0.00000000000E+00  0.00000000000E+00 -0.15457959090E+03  0.33208327279E+04  0.33172330574E+04 0.  0.
        2    1    3    3  502    0 -0.14259872292E+04  0.59586015383E+03  0.52545980994E+03  0.16323593087E+04  0.25500000920E-02 0. -1.
       -2    1    3    3    0  502  0.14259872292E+04 -0.59586015383E+03 -0.68003940083E+03  0.16884734192E+04  0.25500000920E-02 0.  1.
</event>
<event>
 5   0  0.4017247E-06  0.3174609E+04  0.7818609E-02  0.8195555E-01
       -2   -1    0    0    0  501  0.00000000000E+00  0.00000000000E+00  0.16604329002E+04  0.16604329002E+04  0.25500000920E-02 0.  1.
        2   -1    0    0  501    0  0.00000000000E+00  0.00000000000E+00 -0.15173964615E+04  0.15173964615E+04  0.25500000920E-02 0. -1.
    10030    2    1    2    0    0  0.00000000000E+00  0.00000000000E+00  0.14303643863E+03  0.31778293617E+04  0.31746086419E+04 0.  0.
        1    1    3    3  502    0  0.10590084778E+04  0.11796020541E+04 -0.96506984243E+01  0.15852612081E+04  0.50400001928E-02 0. -1.
       -1    1    3    3    0  502 -0.10590084778E+04 -0.11796020541E+04  0.15268713706E+03  0.15925681536E+04  0.50400001928E-02 0.  1.
</event>
<event>
 5   0  0.1282578E-06  0.3354725E+04  0.7818609E-02  0.8149109E-01
       -1   -1    0    0    0  501  0.00000000000E+00  0.00000000000E+00  0.26872731745E+04  0.26872731745E+04  0.50400001928E-02 0.  1.
        1   -1    0    0  501    0  0.00000000000E+00  0.00000000000E+00 -0.10469885831E+04  0.10469885831E+04  0.50400001928E-02 0. -1.
    10030    2    1    2    0    0  0.00000000000E+00  0.00000000000E+00  0.16402845914E+04  0.37342617577E+04  0.33547246286E+04 0.  0.
        4    1    3    3  502    0  0.53444965765E+03 -0.81922999166E+03 -0.69665225749E+03  0.12008747631E+04  0.12699999809E+01 0. -1.
       -4    1    3    3    0  502 -0.53444965765E+03  0.81922999166E+03  0.23369368489E+04  0.25333869946E+04  0.12699999809E+01 0.  1.
</event>
<event>
 5   0  0.3896210E-06  0.2985202E+04  0.7818609E-02  0.8247969E-01
       -2   -1    0    0    0  501  0.00000000000E+00  0.00000000000E+00  0.11662949521E+04  0.11662949521E+04  0.25500000920E-02 0. -1.
        2   -1    0    0  501    0  0.00000000000E+00  0.00000000000E+00 -0.19102015280E+04  0.19102015280E+04  0.25500000920E-02 0.  1.
    10030    2    1    2    0    0  0.00000000000E+00  0.00000000000E+00 -0.74390657583E+03  0.30764964801E+04  0.29852024385E+04 0.  0.
        3    1    3    3  502    0 -0.55968341387E+03  0.36736840862E+03  0.10028809506E+04  0.12058089744E+04  0.10100000352E+00 0. -1.
       -3    1    3    3    0  502  0.55968341387E+03 -0.36736840862E+03 -0.17467875264E+04  0.18706875057E+04  0.10100000352E+00 0.  1.
</event>
<event>
 5   0  0.1352708E-06  0.2612500E+04  0.7818609E-02  0.8363968E-01
        1   -1    0    0  501    0  0.00000000000E+00  0.00000000000E+00  0.17031940841E+04  0.17031940841E+04  0.50400001928E-02 0.  1.
       -1   -1    0    0    0  501  0.00000000000E+00  0.00000000000E+00 -0.10018171429E+04  0.10018171429E+04  0.50400001928E-02 0. -1.
    10030    2    1    2    0    0  0.00000000000E+00  0.00000000000E+00  0.70137694115E+03  0.27050112270E+04  0.26124999760E+04 0.  0.
        5    1    3    3  502    0  0.18010485126E+03  0.15579473662E+03  0.16805195070E+04  0.16973148384E+04  0.46999998093E+01 0.  1.
       -5    1    3    3    0  502 -0.18010485126E+03 -0.15579473662E+03 -0.97914256582E+03  0.10076963886E+04  0.46999998093E+01 0. -1.
</event>
<event>
 5   0  0.1339825E-06  0.3290738E+04  0.7818609E-02  0.8165256E-01
        1   -1    0    0  501    0  0.00000000000E+00  0.00000000000E+00  0.16110242199E+04  0.16110242199E+04  0.50400001928E-02 0.  1.
       -1   -1    0    0    0  501  0.00000000000E+00  0.00000000000E+00 -0.16804455422E+04  0.16804455423E+04  0.50400001928E-02 0. -1.
    10030    2    1    2    0    0  0.00000000000E+00  0.00000000000E+00 -0.69421322310E+02  0.32914697622E+04  0.32907375884E+04 0.  0.
        3    1    3    3  502    0  0.85814161061E+03 -0.63703289667E+03  0.12165754853E+04  0.16193436501E+04  0.10100000352E+00 0.  1.
       -3    1    3    3    0  502 -0.85814161061E+03  0.63703289667E+03 -0.12859968077E+04  0.16721261121E+04  0.10100000352E+00 0. -1.
</event>
<event>
 5   0  0.1259875E-06  0.3259968E+04  0.7818609E-02  0.8173157E-01
        3   -1    0    0  501    0  0.00000000000E+00  0.00000000000E+00  0.15728248175E+04  0.15728248207E+04  0.10100000352E+00 0.  1.
       -3   -1    0    0    0  501  0.00000000000E+00  0.00000000000E+00 -0.16892209251E+04  0.16892209281E+04  0.10100000352E+00 0. -1.
    10030    2    1    2    0    0  0.00000000000E+00  0.00000000000E+00 -0.11639610764E+03  0.32620457488E+04  0.32599684682E+04 0.  0.
        3    1    3    3  502    0 -0.14779746189E+04  0.64106533996E+03 -0.30629726472E+03  0.16398755346E+04  0.10100000352E+00 0. -1.
       -3    1    3    3    0  502  0.14779746189E+04 -0.64106533996E+03  0.18990115709E+03  0.16221702142E+04  0.10100000352E+00 0.  1.
</event>
<event>
 5   0  0.3671997E-06  0.3242164E+04  0.7818609E-02  0.8177770E-01
       -2   -1    0    0    0  501  0.00000000000E+00  0.00000000000E+00  0.15661980943E+04  0.15661980943E+04  0.25500000920E-02 0. -1.
        2   -1    0    0  501    0  0.00000000000E+00  0.00000000000E+00 -0.16778888798E+04  0.16778888798E+04  0.25500000920E-02 0.  1.
    10030    2    1    2    0    0  0.00000000000E+00  0.00000000000E+00 -0.11169078552E+03  0.32440869741E+04  0.32421637010E+04 0.  0.
        2    1    3    3  502    0  0.16196965100E+04 -0.57798872939E+02 -0.21930276059E+02  0.16208758223E+04  0.25500000920E-02 0. -1.
       -2    1    3    3    0  502 -0.16196965100E+04  0.57798872939E+02 -0.89760509461E+02  0.16232111518E+04  0.25500000920E-02 0.  1.
</event>
<event>
 5   0  0.3812379E-06  0.3293062E+04  0.7818609E-02  0.8164663E-01
       -2   -1    0    0    0  501  0.00000000000E+00  0.00000000000E+00  0.16132490597E+04  0.16132490598E+04  0.25500000920E-02 0. -1.
        2   -1    0    0  501    0  0.00000000000E+00  0.00000000000E+00 -0.16804990586E+04  0.16804990586E+04  0.25500000920E-02 0.  1.
    10030    2    1    2    0    0  0.00000000000E+00  0.00000000000E+00 -0.67249998822E+02  0.32937481183E+04  0.32930615094E+04 0.  0.
        5    1    3    3  502    0 -0.37889328901E+03 -0.52295814789E+03  0.14812851600E+04  0.16159434285E+04  0.46999998093E+01 0. -1.
       -5    1    3    3    0  502  0.37889328901E+03  0.52295814789E+03 -0.15485351589E+04  0.16778046898E+04  0.46999998093E+01 0.  1.
</event>
<event>
 5   0  0.1282578E-06  0.3270773E+04  0.7818609E-02  0.8170372E-01
       -1   -1    0    0    0  501  0.00000000000E+00  0.00000000000E+00  0.10859135665E+04  0.10859135665E+04  0.50400001928E-02 0.  1.
        1   -1    0    0  501    0  0.00000000000E+00  0.00000000000E+00 -0.24628929966E+04  0.24628929966E+04  0.50400001928E-02 0. -1.
    10030    2    1    2    0    0  0.00000000000E+00  0.00000000000E+00 -0.13769794301E+04  0.35488065631E+04  0.32707729471E+04 0.  0.
        4    1    3    3  502    0 -0.45127447695E+03 -0.84524757678E+03  0.74945784968E+03  0.12164624125E+04  0.12699999809E+01 0.  1.
       -4    1    3    3    0  502  0.45127447695E+03  0.84524757678E+03 -0.21264372797E+04  0.23323441507E+04  0.12699999809E+01 0. -1.
</event>
<event>
 5   0  0.3920487E-06  0.3884458E+04  0.7818609E-02  0.8028269E-01
       -2   -1    0    0    0  501  0.00000000000E+00  0.00000000000E+00  0.19835846295E+04  0.19835846295E+04  0.25500000920E-02 0.  1.
        2   -1    0    0  501    0  0.00000000000E+00  0.00000000000E+00 -0.19017359043E+04  0.19017359043E+04  0.25500000920E-02 0. -1.
    10030    2    1    2    0    0  0.00000000000E+00  0.00000000000E+00  0.81848725158E+02  0.38853205338E+04  0.38844583196E+04 0.  0.
        4    1    3    3  502    0  0.35159011644E+03  0.83991947829E+03 -0.16750240237E+04  0.19065118497E+04  0.12699999809E+01 0. -1.
       -4    1    3    3    0  502 -0.35159011644E+03 -0.83991947829E+03  0.17568727489E+04  0.19788086842E+04  0.12699999809E+01 0.  1.
</event>
<event>
 5   0  0.1352708E-06  0.3257126E+04  0.7818609E-02  0.8173891E-01
        1   -1    0    0  501    0  0.00000000000E+00  0.00000000000E+00  0.16635053388E+04  0.16635053388E+04  0.50400001928E-02 0.  1.
       -1   -1    0    0    0  501  0.00000000000E+00  0.00000000000E+00 -0.15943542435E+04  0.15943542435E+04  0.50400001928E-02 0. -1.
    10030    2    1    2    0    0  0.00000000000E+00  0.00000000000E+00  0.69151095300E+02  0.32578595824E+04  0.32571256016E+04 0.  0.
        5    1    3    3  502    0 -0.42618399283E+03 -0.13945841194E+04 -0.69063752360E+03  0.16135364702E+04  0.46999998093E+01 0. -1.
       -5    1    3    3    0  502  0.42618399283E+03  0.13945841194E+04  0.75978861890E+03  0.16443231121E+04  0.46999998093E+01 0.  1.
</event>
<event>
 5   0  0.3671997E-06  0.3219834E+04  0.7818609E-02  0.8183599E-01
        2   -1    0    0  501    0  0.00000000000E+00  0.00000000000E+00  0.18796043244E+04  0.18796043244E+04  0.25500000920E-02 0. -1.
       -2   -1    0    0    0  501  0.00000000000E+00  0.00000000000E+00 -0.13789250624E+04  0.13789250624E+04  0.25500000920E-02 0.  1.
    10030    2    1    2    0    0  0.00000000000E+00  0.00000000000E+00  0.50067926197E+03  0.32585293868E+04  0.32198344742E+04 0.  0.
        2    1    3    3  502    0 -0.13743898164E+04  0.78553194858E+03  0.54682056798E+03  0.16748195555E+04  0.25500000920E-02 0. -1.
       -2    1    3    3    0  502  0.13743898164E+04 -0.78553194858E+03 -0.46141306013E+02  0.15837098313E+04  0.25500000920E-02 0.  1.
</event>
<event>
 5   0  0.3896210E-06  0.3386396E+04  0.7818609E-02  0.8141253E-01
        2   -1    0    0  501    0  0.00000000000E+00  0.00000000000E+00  0.23266156509E+04  0.23266156509E+04  0.25500000920E-02 0. -1.
       -2   -1    0    0    0  501  0.00000000000E+00  0.00000000000E+00 -0.12322276843E+04  0.12322276844E+04  0.25500000920E-02 0.  1.
    10030    2    1    2    0    0  0.00000000000E+00  0.00000000000E+00  0.10943879665E+04  0.35588433352E+04  0.33863964422E+04 0.  0.
        3    1    3    3  502    0  0.82312920359E+03  0.14457965442E+04  0.21644370081E+03  0.16777118999E+04  0.10100000352E+00 0.  1.
       -3    1    3    3    0  502 -0.82312920359E+03 -0.14457965442E+04  0.87794426572E+03  0.18811314354E+04  0.10100000352E+00 0. -1.
</event>
<event>
 5   0  0.1391878E-06  0.3361046E+04  0.7818609E-02  0.8147534E-01
       -1   -1    0    0    0  501  0.00000000000E+00  0.00000000000E+00  0.15577025605E+04  0.15577025605E+04  0.50400001928E-02 0.  1.
        1   -1    0    0  501    0  0.00000000000E+00  0.00000000000E+00 -0.18130271067E+04  0.18130271067E+04  0.50400001928E-02 0. -1.
    10030    2    1    2    0    0  0.00000000000E+00  0.00000000000E+00 -0.25532454626E+03  0.33707296672E+04  0.33610456506E+04 0.  0.
        2    1    3    3  502    0 -0.13607695792E+03 -0.42845987229E+02  0.15516186604E+04  0.15581634011E+04  0.25500000920E-02 0.  1.
       -2    1    3    3    0  502  0.13607695792E+03  0.42845987229E+02 -0.18069432066E+04  0.18125662661E+04  0.25500000920E-02 0. -1.
</event>
<event>
 5   0  0.1352708E-06  0.3430318E+04  0.7818609E-02  0.8130505E-01
       -1   -1    0    0    0  501  0.00000000000E+00  0.00000000000E+00  0.15484970317E+04  0.15484970317E+04  0.50400001928E-02 0. -1.
        1   -1    0    0  501    0  0.00000000000E+00  0.00000000000E+00 -0.18997583714E+04  0.18997583714E+04  0.50400001928E-02 0.  1.
    10030    2    1    2    0    0  0.00000000000E+00  0.00000000000E+00 -0.35126133966E+03  0.34482554031E+04  0.34303178856E+04 0.  0.
        5    1    3    3  502    0 -0.29813932497E+03 -0.81960926121E+03  0.13089473179E+04  0.15728990970E+04  0.46999998093E+01 0. -1.
       -5    1    3    3    0  502  0.29813932497E+03  0.81960926121E+03 -0.16602086576E+04  0.18753563061E+04  0.46999998093E+01 0.  1.
</event>
<event>
 5   0  0.3896210E-06  0.2713096E+04  0.7818609E-02  0.8330768E-01
        2   -1    0    0  501    0  0.00000000000E+00  0.00000000000E+00  0.12302402544E+04  0.12302402544E+04  0.25500000920E-02 0. -1.
       -2   -1    0    0    0  501  0.00000000000E+00  0.00000000000E+00 -0.14958236217E+04  0.14958236217E+04  0.25500000920E-02 0.  1.
    10030    2    1    2    0    0  0.00000000000E+00  0.00000000000E+00 -0.26558336736E+03  0.27260638761E+04  0.27130959680E+04 0.  0.
        3    1    3    3  502    0 -0.99611566953E+03 -0.92053299241E+03 -0.15730100983E+03  0.13654197285E+04  0.10100000352E+00 0.  1.
       -3    1    3    3    0  502  0.99611566953E+03  0.92053299241E+03 -0.10828235753E+03  0.13606441476E+04  0.10100000352E+00 0. -1.
</event>
<event>
 5   0  0.3896210E-06  0.2724950E+04  0.7818609E-02  0.8326955E-01
       -2   -1    0    0    0  501  0.00000000000E+00  0.00000000000E+00  0.12860776630E+04  0.12860776630E+04  0.25500000920E-02 0. -1.
        2   -1    0    0  501    0  0.00000000000E+00  0.00000000000E+00 -0.14434103038E+04  0.14434103038E+04  0.25500000920E-02 0.  1.
    10030    2    1    2    0    0  0.00000000000E+00  0.00000000000E+00 -0.15733264084E+03  0.27294879667E+04  0.27249497244E+04 0.  0.
        3    1    3    3  502    0  0.67981238775E+03  0.29651561576E+03 -0.12234920737E+04  0.14307338178E+04  0.10100000352E+00 0.  1.
       -3    1    3    3    0  502 -0.67981238775E+03 -0.29651561576E+03  0.10661594328E+04  0.12987541489E+04  0.10100000352E+00 0. -1.
</event>
<event>
 5   0  0.3671997E-06  0.3280354E+04  0.7818609E-02  0.8167912E-01
        2   -1    0    0  501    0  0.00000000000E+00  0.00000000000E+00  0.22544889684E+04  0.22544889684E+04  0.25500000920E-02 0. -1.
       -2   -1    0    0    0  501  0.00000000000E+00  0.00000000000E+00 -0.11932553816E+04  0.11932553816E+04  0.25500000920E-02 0.  1.
    10030    2    1    2    0    0  0.00000000000E+00  0.00000000000E+00  0.10612335868E+04  0.34477443501E+04  0.32803543067E+04 0.  0.
        2    1    3    3  502    0  0.20882720426E+03 -0.56064624225E+03  0.21357152389E+04  0.22179297986E+04  0.25500000920E-02 0. -1.
       -2    1    3    3    0  502 -0.20882720426E+03  0.56064624225E+03 -0.10744816521E+04  0.12298145514E+04  0.25500000920E-02 0.  1.
</event>
<event>
 5   0  0.1405389E-06  0.3266006E+04  0.7818609E-02  0.8171599E-01
       -1   -1    0    0    0  501  0.00000000000E+00  0.00000000000E+00  0.13977167476E+04  0.13977167476E+04  0.50400001928E-02 0. -1.
        1   -1    0    0  501    0  0.00000000000E+00  0.00000000000E+00 -0.19078962638E+04  0.19078962638E+04  0.50400001928E-02 0.  1.
    10030    2    1    2    0    0  0.00000000000E+00  0.00000000000E+00 -0.51017951624E+03  0.33056130114E+04  0.32660058546E+04 0.  0.
        1    1    3    3  502    0  0.96816094210E+02 -0.57845778158E+03  0.12874370249E+04  0.14147370265E+04  0.50400001928E-02 0. -1.
       -1    1    3    3    0  502 -0.96816094210E+02  0.57845778158E+03 -0.17976165411E+04  0.18908759849E+04  0.50400001928E-02 0.  1.
</event>
<event>
 5   0  0.3920487E-06  0.2206241E+04  0.7818609E-02  0.8515835E-01
       -2   -1    0    0    0  501  0.00000000000E+00  0.00000000000E+00  0.10107682406E+04  0.10107682406E+04  0.25500000920E-02 0. -1.
        2   -1    0    0  501    0  0.00000000000E+00  0.00000000000E+00 -0.12039106077E+04  0.12039106077E+04  0.25500000920E-02 0.  1.
    10030    2    1    2    0    0  0.00000000000E+00  0.00000000000E+00 -0.19314236718E+03  0.22146788483E+04  0.22062407908E+04 0.  0.
        4    1    3    3  502    0  0.13984393057E+03 -0.95360549483E+03 -0.63523626613E+03  0.11543164607E+04  0.12699999809E+01 0.  1.
       -4    1    3    3    0  502 -0.13984393057E+03  0.95360549483E+03  0.44209389895E+03  0.10603623876E+04  0.12699999809E+01 0. -1.
</event>
<event>
 5   0  0.3896210E-06  0.2120155E+04  0.7818609E-02  0.8552417E-01
       -2   -1    0    0    0  501  0.00000000000E+00  0.00000000000E+00  0.44296423524E+03  0.44296423524E+03  0.25500000920E-02 0. -1.
        2   -1    0    0  501    0  0.00000000000E+00  0.00000000000E+00 -0.25369181480E+04  0.25369181480E+04  0.25500000920E-02 0.  1.
    10030    2    1    2    0    0  0.00000000000E+00  0.00000000000E+00 -0.20939539128E+04  0.29798823832E+04  0.21201547182E+04 0.  0.
        3    1    3    3  502    0  0.32560628939E+03 -0.43356248354E+02  0.36963048623E+03  0.49449562841E+03  0.10100000352E+00 0. -1.
       -3    1    3    3    0  502 -0.32560628939E+03  0.43356248354E+02 -0.24635843990E+04  0.24853867548E+04  0.10100000352E+00 0.  1.
</event>
<event>
 5   0  0.1391878E-06  0.3140490E+04  0.7818609E-02  0.8204713E-01
       -1   -1    0    0    0  501  0.00000000000E+00  0.00000000000E+00  0.25587198898E+04  0.25587198898E+04  0.50400001928E-02 0. -1.
        1   -1    0    0  501    0  0.00000000000E+00  0.00000000000E+00 -0.96363377541E+03  0.96363377542E+03  0.50400001928E-02 0.  1.
    10030    2    1    2    0    0  0.00000000000E+00  0.00000000000E+00  0.15950861144E+04  0.35223536652E+04  0.31404897119E+04 0.  0.
        2    1    3    3  502    0 -0.95408093390E+03  0.10968863678E+04  0.14632056707E+04  0.20626199279E+04  0.25500000920E-02 0. -1.
       -2    1    3    3    0  502  0.95408093390E+03 -0.10968863678E+04  0.13188044367E+03  0.14597337373E+04  0.25500000920E-02 0.  1.
</event>
<event>
 5   0  0.1405389E-06  0.3277078E+04  0.7818609E-02  0.8168752E-01
       -1   -1    0    0    0  501  0.00000000000E+00  0.00000000000E+00  0.12376760594E+04  0.12376760594E+04  0.50400001928E-02 0. -1.
        1   -1    0    0  501    0  0.00000000000E+00  0.00000000000E+00 -0.21692350486E+04  0.21692350487E+04  0.50400001928E-02 0.  1.
    10030    2    1    2    0    0  0.00000000000E+00  0.00000000000E+00 -0.93155898924E+03  0.34069111081E+04  0.32770781419E+04 0.  0.
        1    1    3    3  502    0  0.82189147300E+03 -0.12112453632E+04 -0.12312870860E+04  0.19127699316E+04  0.50400001928E-02 0.  1.
       -1    1    3    3    0  502 -0.82189147300E+03  0.12112453632E+04  0.29972809674E+03  0.14941411765E+04  0.50400001928E-02 0. -1.
</event>
<event>
 5   0  0.4017247E-06  0.3292109E+04  0.7818609E-02  0.8164906E-01
       -2   -1    0    0    0  501  0.00000000000E+00  0.00000000000E+00  0.21275369318E+04  0.21275369318E+04  0.25500000920E-02 0. -1.
        2   -1    0    0  501    0  0.00000000000E+00  0.00000000000E+00 -0.12735362294E+04  0.12735362294E+04  0.25500000920E-02 0.  1.
    10030    2    1    2    0    0  0.00000000000E+00  0.00000000000E+00  0.85400070249E+03  0.34010731612E+04  0.32921089666E+04 0.  0.
        1    1    3    3  502    0 -0.64139945400E+03  0.74792960079E+03 -0.93524246430E+03  0.13584809216E+04  0.50400001928E-02 0.  1.
       -1    1    3    3    0  502  0.64139945400E+03 -0.74792960079E+03  0.17892431668E+04  0.20425922396E+04  0.50400001928E-02 0. -1.
</event>
<event>
 5   0  0.1352708E-06  0.3324191E+04  0.7818609E-02  0.8156767E-01
       -1   -1    0    0    0  501  0.00000000000E+00  0.00000000000E+00  0.13929926307E+04  0.13929926307E+04  0.50400001928E-02 0.  1.
        1   -1    0    0  501    0  0.00000000000E+00  0.00000000000E+00 -0.19831843234E+04  0.19831843234E+04  0.50400001928E-02 0. -1.
    10030    2    1    2    0    0  0.00000000000E+00  0.00000000000E+00 -0.59019169271E+03  0.33761769540E+04  0.33241908174E+04 0.  0.
        5    1    3    3  502    0 -0.11159961954E+04 -0.38489348400E+03  0.89322254718E+03  0.14803577645E+04  0.46999998093E+01 0.  1.
       -5    1    3    3    0  502  0.11159961954E+04  0.38489348400E+03 -0.14834142399E+04  0.18958191895E+04  0.46999998093E+01 0. -1.
</event>
<event>
 5   0  0.1405389E-06  0.3340619E+04  0.7818609E-02  0.8152636E-01
       -1   -1    0    0    0  501  0.00000000000E+00  0.00000000000E+00  0.18826458536E+04  0.18826458536E+04  0.50400001928E-02 0. -1.
        1   -1    0    0  501    0  0.00000000000E+00  0.00000000000E+00 -0.14819218957E+04  0.14819218957E+04  0.50400001928E-02 0.  1.
    10030    2    1    2    0    0  0.00000000000E+00  0.00000000000E+00  0.40072395790E+03  0.33645677493E+04  0.33406191715E+04 0.  0.
        1    1    3    3  502    0 -0.27601540774E+03 -0.95124276732E+03 -0.11542284537E+04  0.15209505683E+04  0.50400001928E-02 0.  1.
       -1    1    3    3    0  502  0.27601540774E+03  0.95124276732E+03  0.15549524116E+04  0.18436171810E+04  0.50400001928E-02 0. -1.
</event>
<event>
 5   0  0.3896210E-06  0.2564582E+04  0.7818609E-02  0.8380332E-01
       -2   -1    0    0    0  501  0.00000000000E+00  0.00000000000E+00  0.76805202171E+03  0.76805202172E+03  0.25500000920E-02 0. -1.
        2   -1    0    0  501    0  0.00000000000E+00  0.00000000000E+00 -0.21408316717E+04  0.21408316717E+04  0.25500000920E-02 0.  1.
    10030    2    1    2    0    0  0.00000000000E+00  0.00000000000E+00 -0.13727796499E+04  0.29088836934E+04  0.25645819102E+04 0.  0.
        3    1    3    3  502    0 -0.47931568923E+03 -0.79137370345E+03 -0.16934210417E+04  0.19296866852E+04  0.10100000352E+00 0.  1.
       -3    1    3    3    0  502  0.47931568923E+03  0.79137370345E+03  0.32064139176E+03  0.97919700815E+03  0.10100000352E+00 0. -1.
</event>
<event>
 5   0  0.1405389E-06  0.2112369E+04  0.7818609E-02  0.8555814E-01
        1   -1    0    0  501    0  0.00000000000E+00  0.00000000000E+00  0.15582608511E+04  0.15582608512E+04  0.50400001928E-02 0. -1.
       -1   -1    0    0    0  501  0.00000000000E+00  0.00000000000E+00 -0.71587835273E+03  0.71587835274E+03  0.50400001928E-02 0.  1.
    10030    2    1    2    0    0  0.00000000000E+00  0.00000000000E+00  0.84238249842E+03  0.22741392039E+04  0.21123685391E+04 0.  0.
        1    1    3    3  502    0  0.45393942663E+03 -0.95043696291E+03  0.50550758506E+03  0.11683019054E+04  0.50400001928E-02 0.  1.
       -1    1    3    3    0  502 -0.45393942663E+03  0.95043696291E+03  0.33687491336E+03  0.11058372985E+04  0.50400001928E-02 0. -1.
</event>
<event>
 5   0  0.1405389E-06  0.2535276E+04  0.7818609E-02  0.8390525E-01
       -1   -1    0    0    0  501  0.00000000000E+00  0.00000000000E+00  0.20405651323E+04  0.20405651323E+04  0.50400001928E-02 0.  1.
        1   -1    0    0  501    0  0.00000000000E+00  0.00000000000E+00 -0.78748112949E+03  0.78748112950E+03  0.50400001928E-02 0. -1.
    10030    2    1    2    0    0  0.00000000000E+00  0.00000000000E+00  0.12530840028E+04  0.28280462618E+04  0.25352763441E+04 0.  0.
        1    1    3    3  502    0 -0.83889394581E+03 -0.94468389017E+03  0.74212102692E+03  0.14652352450E+04  0.50400001928E-02 0.  1.
       -1    1    3    3    0  502  0.83889394581E+03  0.94468389017E+03  0.51096297588E+03  0.13628110168E+04  0.50400001928E-02 0. -1.
</event>
<event>
 5   0  0.1391878E-06  0.2188851E+04  0.7818609E-02  0.8523083E-01
        1   -1    0    0  501    0  0.00000000000E+00  0.00000000000E+00  0.16249570673E+04  0.16249570674E+04  0.50400001928E-02 0. -1.
       -1   -1    0    0    0  501  0.00000000000E+00  0.00000000000E+00 -0.73710678596E+03  0.73710678598E+03  0.50400001928E-02 0.  1.
    10030    2    1    2    0    0  0.00000000000E+00  0.00000000000E+00  0.88785028138E+03  0.23620638533E+04  0.21888507316E+04 0.  0.
        2    1    3    3  502    0 -0.35920347842E+03 -0.38177328634E+03 -0.59282410218E+03  0.79133962191E+03  0.25500000920E-02 0.  1.
       -2    1    3    3    0  502  0.35920347842E+03  0.38177328634E+03  0.14806743836E+04  0.15707242314E+04  0.25500000920E-02 0. -1.
</event>
<event>
 5   0  0.4017247E-06  0.3301865E+04  0.7818609E-02  0.8162421E-01
        2   -1    0    0  501    0  0.00000000000E+00  0.00000000000E+00  0.19463861869E+04  0.19463861869E+04  0.25500000920E-02 0.  1.
       -2   -1    0    0    0  501  0.00000000000E+00  0.00000000000E+00 -0.14003272154E+04  0.14003272154E+04  0.25500000920E-02 0. -1.
    10030    2    1    2    0    0  0.00000000000E+00  0.00000000000E+00  0.54605897156E+03  0.33467134023E+04  0.33018646545E+04 0.  0.
        1    1    3    3  502    0  0.15596892452E+04 -0.20499673945E+03  0.78075593646E+03  0.17561987465E+04  0.50400001928E-02 0.  1.
       -1    1    3    3    0  502 -0.15596892452E+04  0.20499673945E+03 -0.23469696490E+03  0.15905146558E+04  0.50400001928E-02 0. -1.
</event>
<event>
 5   0  0.1259875E-06  0.3239364E+04  0.7818609E-02  0.8178498E-01
       -3   -1    0    0    0  501  0.00000000000E+00  0.00000000000E+00  0.24962676120E+04  0.24962676140E+04  0.10100000352E+00 0. -1.
        3   -1    0    0  501    0  0.00000000000E+00  0.00000000000E+00 -0.10509166537E+04  0.10509166586E+04  0.10100000352E+00 0.  1.
    10030    2    1    2    0    0  0.00000000000E+00  0.00000000000E+00  0.14453509583E+04  0.35471842726E+04  0.32393636522E+04 0.  0.
        3    1    3    3  502    0 -0.34904648611E+03 -0.14877079871E+04  0.13475746658E+03  0.15340365346E+04  0.10100000352E+00 0.  1.
       -3    1    3    3    0  502  0.34904648611E+03  0.14877079871E+04  0.13105934917E+04  0.20131477380E+04  0.10100000352E+00 0. -1.
</event>
<event>
 5   0  0.3896210E-06  0.3264374E+04  0.7818609E-02  0.8172020E-01
       -2   -1    0    0    0  501  0.00000000000E+00  0.00000000000E+00  0.12040542837E+04  0.12040542837E+04  0.25500000920E-02 0. -1.
        2   -1    0    0  501    0  0.00000000000E+00  0.00000000000E+00 -0.22125536034E+04  0.22125536034E+04  0.25500000920E-02 0.  1.
    10030    2    1    2    0    0  0.00000000000E+00  0.00000000000E+00 -0.10084993197E+04  0.34166078871E+04  0.32643741477E+04 0.  0.
        3    1    3    3  502    0 -0.43710014136E+03  0.21855124193E+02 -0.21499978998E+04  0.21940886854E+04  0.10100000352E+00 0.  1.
       -3    1    3    3    0  502  0.43710014136E+03 -0.21855124193E+02  0.11414985801E+04  0.12225192017E+04  0.10100000352E+00 0. -1.
</event>
<event>
 5   0  0.3671997E-06  0.2617479E+04  0.7818609E-02  0.8362288E-01
        2   -1    0    0  501    0  0.00000000000E+00  0.00000000000E+00  0.10402166321E+04  0.10402166321E+04  0.25500000920E-02 0. -1.
       -2   -1    0    0    0  501  0.00000000000E+00  0.00000000000E+00 -0.16465794988E+04  0.16465794988E+04  0.25500000920E-02 0.  1.
    10030    2    1    2    0    0  0.00000000000E+00  0.00000000000E+00 -0.60636286670E+03  0.26867961309E+04  0.26174792307E+04 0.  0.
        2    1    3    3  502    0 -0.59337526420E+03  0.51440346965E+03  0.77148929316E+03  0.11008636897E+04  0.25500000920E-02 0. -1.
       -2    1    3    3    0  502  0.59337526420E+03 -0.51440346965E+03 -0.13778521599E+04  0.15859324412E+04  0.25500000920E-02 0.  1.
</event>
<event>
 5   0  0.3920487E-06  0.3264212E+04  0.7818609E-02  0.8172062E-01
        2   -1    0    0  501    0  0.00000000000E+00  0.00000000000E+00  0.11874464973E+04  0.11874464973E+04  0.25500000920E-02 0.  1.
       -2   -1    0    0    0  501  0.00000000000E+00  0.00000000000E+00 -0.22432760426E+04  0.22432760426E+04  0.25500000920E-02 0. -1.
    10030    2    1    2    0    0  0.00000000000E+00  0.00000000000E+00 -0.10558295453E+04  0.34307225399E+04  0.32642121741E+04 0.  0.
        4    1    3    3  502    0  0.10743476501E+04 -0.82168045022E+03 -0.14879584421E+04  0.20108216166E+04  0.12699999809E+01 0. -1.
       -4    1    3    3    0  502 -0.10743476501E+04  0.82168045022E+03  0.43212889680E+03  0.14199009233E+04  0.12699999809E+01 0.  1.
</event>
<event>
 5   0  0.3896210E-06  0.3263089E+04  0.7818609E-02  0.8172351E-01
        2   -1    0    0  501    0  0.00000000000E+00  0.00000000000E+00  0.16612513693E+04  0.16612513693E+04  0.25500000920E-02 0.  1.
       -2   -1    0    0    0  501  0.00000000000E+00  0.00000000000E+00 -0.16023691478E+04  0.16023691478E+04  0.25500000920E-02 0. -1.
    10030    2    1    2    0    0  0.00000000000E+00  0.00000000000E+00  0.58882221544E+02  0.32636205171E+04  0.32630892975E+04 0.  0.
        3    1    3    3  502    0  0.66529038795E+03 -0.17560200963E+03 -0.14501545028E+04  0.16051154035E+04  0.10100000352E+00 0. -1.
       -3    1    3    3    0  502 -0.66529038795E+03  0.17560200963E+03  0.15090367244E+04  0.16585051136E+04  0.10100000352E+00 0.  1.
</event>
<event>
 5   0  0.1405389E-06  0.3084111E+04  0.7818609E-02  0.8220112E-01
        1   -1    0    0  501    0  0.00000000000E+00  0.00000000000E+00  0.14993032738E+04  0.14993032738E+04  0.50400001928E-02 0.  1.
       -1   -1    0    0    0  501  0.00000000000E+00  0.00000000000E+00 -0.15860266941E+04  0.15860266941E+04  0.50400001928E-02 0. -1.
    10030    2    1    2    0    0  0.00000000000E+00  0.00000000000E+00 -0.86723420303E+02  0.30853299679E+04  0.30841109026E+04 0.  0.
        1    1    3    3  502    0  0.59703861833E+03 -0.12037946066E+04 -0.80020450304E+03  0.15639385580E+04  0.50400001928E-02 0. -1.
       -1    1    3    3    0  502 -0.59703861833E+03  0.12037946066E+04  0.71348108273E+03  0.15213914099E+04  0.50400001928E-02 0.  1.
</event>
<event>
 5   0  0.1259875E-06  0.3113325E+04  0.7818609E-02  0.8212091E-01
        3   -1    0    0  501    0  0.00000000000E+00  0.00000000000E+00  0.12148580115E+04  0.12148580157E+04  0.10100000352E+00 0.  1.
       -3   -1    0    0    0  501  0.00000000000E+00  0.00000000000E+00 -0.19946343227E+04  0.19946343252E+04  0.10100000352E+00 0. -1.
    10030    2    1    2    0    0  0.00000000000E+00  0.00000000000E+00 -0.77977631117E+03  0.32094923410E+04  0.31133245882E+04 0.  0.
        1    1    3    3  502    0 -0.95389054401E+03 -0.36085538916E+03  0.82248023871E+03  0.13101898812E+04  0.50400001928E-02 0.  1.
       -1    1    3    3    0  502  0.95389054401E+03  0.36085538916E+03 -0.16022565499E+04  0.18993024597E+04  0.50400001928E-02 0. -1.
</event>
<event>
 5   0  0.3920487E-06  0.3292674E+04  0.7818609E-02  0.8164762E-01
       -2   -1    0    0    0  501  0.00000000000E+00  0.00000000000E+00  0.18981548221E+04  0.18981548221E+04  0.25500000920E-02 0. -1.
        2   -1    0    0  501    0  0.00000000000E+00  0.00000000000E+00 -0.14279262845E+04  0.14279262845E+04  0.25500000920E-02 0.  1.
    10030    2    1    2    0    0  0.00000000000E+00  0.00000000000E+00  0.47022853755E+03  0.33260811066E+04  0.32926737843E+04 0.  0.
        4    1    3    3  502    0  0.30421785139E+03 -0.15868113367E+04 -0.84169890793E+02  0.16179013884E+04  0.12699999809E+01 0.  1.
       -4    1    3    3    0  502 -0.30421785139E+03  0.15868113367E+04  0.55439842834E+03  0.17081797181E+04  0.12699999809E+01 0. -1.
</event>
<event>
 5   0  0.3671997E-06  0.3236615E+04  0.7818609E-02  0.8179214E-01
        2   -1    0    0  501    0  0.00000000000E+00  0.00000000000E+00  0.23922489834E+04  0.23922489834E+04  0.25500000920E-02 0.  1.
       -2   -1    0    0    0  501  0.00000000000E+00  0.00000000000E+00 -0.10947517695E+04  0.10947517695E+04  0.25500000920E-02 0. -1.
    10030    2    1    2    0    0  0.00000000000E+00  0.00000000000E+00  0.12974972139E+04  0.34870007529E+04  0.32366147795E+04 0.  0.
        2    1    3    3  502    0  0.82538123828E+01  0.73924178479E+03  0.21996883108E+04  0.23205980278E+04  0.25500000920E-02 0.  1.
       -2    1    3    3    0  502 -0.82538123828E+01 -0.73924178479E+03 -0.90219109692E+03  0.11664027251E+04  0.25500000920E-02 0. -1.
</event>
<event>
 5   0  0.1391878E-06  0.2780647E+04  0.7818609E-02  0.8309302E-01
       -1   -1    0    0    0  501  0.00000000000E+00  0.00000000000E+00  0.15046065739E+04  0.15046065739E+04  0.50400001928E-02 0.  1.
        1   -1    0    0  501    0  0.00000000000E+00  0.00000000000E+00 -0.12847204384E+04  0.12847204384E+04  0.50400001928E-02 0. -1.
    10030    2    1    2    0    0  0.00000000000E+00  0.00000000000E+00  0.21988613550E+03  0.27893270123E+04  0.27806465559E+04 0.  0.
        2    1    3    3  502    0 -0.45631749425E+02 -0.13869061324E+04  0.19628114829E+03  0.14014696450E+04  0.25500000920E-02 0. -1.
       -2    1    3    3    0  502  0.45631749425E+02  0.13869061324E+04  0.23604987211E+02  0.13878573673E+04  0.25500000920E-02 0.  1.
</event>
<event>
 5   0  0.1391878E-06  0.3462909E+04  0.7818609E-02  0.8122637E-01
       -1   -1    0    0    0  501  0.00000000000E+00  0.00000000000E+00  0.21242904741E+04  0.21242904741E+04  0.50400001928E-02 0. -1.
        1   -1    0    0  501    0  0.00000000000E+00  0.00000000000E+00 -0.14112641670E+04  0.14112641670E+04  0.50400001928E-02 0.  1.
    10030    2    1    2    0    0  0.00000000000E+00  0.00000000000E+00  0.71302630718E+03  0.35355546411E+04  0.34629091968E+04 0.  0.
        2    1    3    3  502    0 -0.44284147835E+03 -0.16320449955E+04  0.73614076338E+03  0.18443380020E+04  0.25500000920E-02 0. -1.
       -2    1    3    3    0  502  0.44284147835E+03  0.16320449955E+04 -0.23114456206E+02  0.16912166391E+04  0.25500000920E-02 0.  1.
</event>
<event>
 5   0  0.4017247E-06  0.3348633E+04  0.7818609E-02  0.8150630E-01
        2   -1    0    0  501    0  0.00000000000E+00  0.00000000000E+00  0.27057208542E+04  0.27057208542E+04  0.25500000920E-02 0. -1.
       -2   -1    0    0    0  501  0.00000000000E+00  0.00000000000E+00 -0.10360772154E+04  0.10360772154E+04  0.25500000920E-02 0.  1.
    10030    2    1    2    0    0  0.00000000000E+00  0.00000000000E+00  0.16696436389E+04  0.37417980696E+04  0.33486329916E+04 0.  0.
        1    1    3    3  502    0  0.73754642060E+03 -0.84991646771E+03  0.22201419750E+04  0.24890486363E+04  0.50400001928E-02 0. -1.
       -1    1    3    3    0  502 -0.73754642060E+03  0.84991646771E+03 -0.55049833611E+03  0.12527494333E+04  0.50400001928E-02 0.  1.
</event>
<event>
 5   0  0.1405389E-06  0.3293744E+04  0.7818609E-02  0.8164489E-01
       -1   -1    0    0    0  501  0.00000000000E+00  0.00000000000E+00  0.11843728792E+04  0.11843728792E+04  0.50400001928E-02 0. -1.
        1   -1    0    0  501    0  0.00000000000E+00  0.00000000000E+00 -0.22899777313E+04  0.22899777313E+04  0.50400001928E-02 0.  1.
    10030    2    1    2    0    0  0.00000000000E+00  0.00000000000E+00 -0.11056048521E+04  0.34743506104E+04  0.32937440816E+04 0.  0.
        1    1    3    3  502    0 -0.93073546954E+02  0.16378330452E+04 -0.39984161098E+03  0.16885002467E+04  0.50400001928E-02 0. -1.
       -1    1    3    3    0  502  0.93073546954E+02 -0.16378330452E+04 -0.70576324110E+03  0.17858503637E+04  0.50400001928E-02 0.  1.
</event>
<event>
 5   0  0.1352708E-06  0.2146281E+04  0.7818609E-02  0.8541126E-01
        1   -1    0    0  501    0  0.00000000000E+00  0.00000000000E+00  0.12761171722E+04  0.12761171722E+04  0.50400001928E-02 0. -1.
       -1   -1    0    0    0  501  0.00000000000E+00  0.00000000000E+00 -0.90244910887E+03  0.90244910889E+03  0.50400001928E-02 0.  1.
    10030    2    1    2    0    0  0.00000000000E+00  0.00000000000E+00  0.37366806332E+03  0.21785662811E+04  0.21462812536E+04 0.  0.
        5    1    3    3  502    0  0.30325077335E+03 -0.62559992220E+03  0.10166101177E+04  0.12316064776E+04  0.46999998093E+01 0. -1.
       -5    1    3    3    0  502 -0.30325077335E+03  0.62559992220E+03 -0.64294205438E+03  0.94695980352E+03  0.46999998093E+01 0.  1.
</event>
<event>
 5   0  0.1405389E-06  0.3289105E+04  0.7818609E-02  0.8165673E-01
       -1   -1    0    0    0  501  0.00000000000E+00  0.00000000000E+00  0.32488329651E+04  0.32488329652E+04  0.50400001928E-02 0.  1.
        1   -1    0    0  501    0  0.00000000000E+00  0.00000000000E+00 -0.83246885323E+03  0.83246885324E+03  0.50400001928E-02 0. -1.
    10030    2    1    2    0    0  0.00000000000E+00  0.00000000000E+00  0.24163641119E+04  0.40813018184E+04  0.32891045911E+04 0.  0.
        1    1    3    3  502    0  0.35314237238E+03  0.11165907655E+04  0.26408552813E+04  0.28888754022E+04  0.50400001928E-02 0.  1.
       -1    1    3    3    0  502 -0.35314237238E+03 -0.11165907655E+04 -0.22449116935E+03  0.11924264162E+04  0.50400001928E-02 0. -1.
</event>
<event>
 5   0  0.1339825E-06  0.3278232E+04  0.7818609E-02  0.8168456E-01
       -1   -1    0    0    0  501  0.00000000000E+00  0.00000000000E+00  0.13478176318E+04  0.13478176318E+04  0.50400001928E-02 0.  1.
        1   -1    0    0  501    0  0.00000000000E+00  0.00000000000E+00 -0.19933715521E+04  0.19933715522E+04  0.50400001928E-02 0. -1.
    10030    2    1    2    0    0  0.00000000000E+00  0.00000000000E+00 -0.64555392034E+03  0.33411891840E+04  0.32782320386E+04 0.  0.
        3    1    3    3  502    0  0.15464027283E+04 -0.54345178114E+03 -0.32306141833E+03  0.16706495524E+04  0.10100000352E+00 0. -1.
       -3    1    3    3    0  502 -0.15464027283E+04  0.54345178114E+03 -0.32249250202E+03  0.16705396316E+04  0.10100000352E+00 0.  1.
</event>
<event>
 5   0  0.3896210E-06  0.2581075E+04  0.7818609E-02  0.8374658E-01
        2   -1    0    0  501    0  0.00000000000E+00  0.00000000000E+00  0.17122655940E+04  0.17122655940E+04  0.25500000920E-02 0.  1.
       -2   -1    0    0    0  501  0.00000000000E+00  0.00000000000E+00 -0.97268004626E+03  0.97268004627E+03  0.25500000920E-02 0. -1.
    10030    2    1    2    0    0  0.00000000000E+00  0.00000000000E+00  0.73958554776E+03  0.26849456403E+04  0.25810746423E+04 0.  0.
        3    1    3    3  502    0  0.46084751089E+03 -0.40611223360E+03 -0.81086230437E+03  0.10172537842E+04  0.10100000352E+00 0. -1.
       -3    1    3    3    0  502 -0.46084751089E+03  0.40611223360E+03  0.15504478521E+04  0.16676918561E+04  0.10100000352E+00 0.  1.
</event>
<event>
 5   0  0.4017247E-06  0.3316097E+04  0.7818609E-02  0.8158812E-01
       -2   -1    0    0    0  501  0.00000000000E+00  0.00000000000E+00  0.84284857312E+03  0.84284857312E+03  0.25500000920E-02 0.  1.
        2   -1    0    0  501    0  0.00000000000E+00  0.00000000000E+00 -0.32617064921E+04  0.32617064921E+04  0.25500000920E-02 0. -1.
    10030    2    1    2    0    0  0.00000000000E+00  0.00000000000E+00 -0.24188579190E+04  0.41045550652E+04  0.33160969001E+04 0.  0.
        1    1    3    3  502    0 -0.75257570679E+03  0.13438158236E+04 -0.44952322735E+03  0.16044570092E+04  0.50400001928E-02 0.  1.
       -1    1    3    3    0  502  0.75257570679E+03 -0.13438158236E+04 -0.19693346916E+04  0.25000980561E+04  0.50400001928E-02 0. -1.
</event>
<event>
 5   0  0.1259875E-06  0.3201853E+04  0.7818609E-02  0.8188328E-01
        3   -1    0    0  501    0  0.00000000000E+00  0.00000000000E+00  0.14097732698E+04  0.14097732735E+04  0.10100000352E+00 0.  1.
       -3   -1    0    0    0  501  0.00000000000E+00  0.00000000000E+00 -0.18179984299E+04  0.18179984327E+04  0.10100000352E+00 0. -1.
    10030    2    1    2    0    0  0.00000000000E+00  0.00000000000E+00 -0.40822516007E+03  0.32277717062E+04  0.32018529644E+04 0.  0.
        5    1    3    3  502    0 -0.13932745897E+04 -0.73595246843E+03  0.81203916959E+02  0.15778010915E+04  0.46999998093E+01 0. -1.
       -5    1    3    3    0  502  0.13932745897E+04  0.73595246843E+03 -0.48942907703E+03  0.16499706147E+04  0.46999998093E+01 0.  1.
</event>
<event>
 5   0  0.3920487E-06  0.3164438E+04  0.7818609E-02  0.8198273E-01
       -2   -1    0    0    0  501  0.00000000000E+00  0.00000000000E+00  0.12790076579E+04  0.12790076579E+04  0.25500000920E-02 0.  1.
        2   -1    0    0  501    0  0.00000000000E+00  0.00000000000E+00 -0.19573120126E+04  0.19573120126E+04  0.25500000920E-02 0. -1.
    10030    2    1    2    0    0  0.00000000000E+00  0.00000000000E+00 -0.67830435467E+03  0.32363196705E+04  0.31644380562E+04 0.  0.
        4    1    3    3  502    0 -0.27731540891E+03 -0.14970243056E+04 -0.77954944626E+03  0.17104632588E+04  0.12699999809E+01 0. -1.
       -4    1    3    3    0  502  0.27731540891E+03  0.14970243056E+04  0.10124509159E+03  0.15258564117E+04  0.12699999809E+01 0.  1.
</event>
<event>
 5   0  0.1391878E-06  0.3263300E+04  0.7818609E-02  0.8172297E-01
        1   -1    0    0  501    0  0.00000000000E+00  0.00000000000E+00  0.18442944165E+04  0.18442944165E+04  0.50400001928E-02 0. -1.
       -1   -1    0    0    0  501  0.00000000000E+00  0.00000000000E+00 -0.14435229230E+04  0.14435229230E+04  0.50400001928E-02 0.  1.
    10030    2    1    2    0    0  0.00000000000E+00  0.00000000000E+00  0.40077149343E+03  0.32878173395E+04  0.32632997209E+04 0.  0.
        2    1    3    3  502    0 -0.70161528118E+03  0.11597378956E+04 -0.71474752468E+03  0.15323576649E+04  0.25500000920E-02 0.  1.
       -2    1    3    3    0  502  0.70161528118E+03 -0.11597378956E+04  0.11155190181E+04  0.17554596746E+04  0.25500000920E-02 0. -1.
</event>
<event>
 5   0  0.3812379E-06  0.2843262E+04  0.7818609E-02  0.8289962E-01
       -2   -1    0    0    0  501  0.00000000000E+00  0.00000000000E+00  0.14050462919E+04  0.14050462919E+04  0.25500000920E-02 0. -1.
        2   -1    0    0  501    0  0.00000000000E+00  0.00000000000E+00 -0.14384117696E+04  0.14384117696E+04  0.25500000920E-02 0.  1.
    10030    2    1    2    0    0  0.00000000000E+00  0.00000000000E+00 -0.33365477665E+02  0.28434580615E+04  0.28432622975E+04 0.  0.
        5    1    3    3  502    0 -0.15628023902E+03 -0.76747040965E+03  0.11698131634E+04  0.14078065457E+04  0.46999998093E+01 0. -1.
       -5    1    3    3    0  502  0.15628023902E+03  0.76747040965E+03 -0.12031786410E+04  0.14356515159E+04  0.46999998093E+01 0.  1.
</event>
<event>
 5   0  0.3812379E-06  0.3306542E+04  0.7818609E-02  0.8161233E-01
       -2   -1    0    0    0  501  0.00000000000E+00  0.00000000000E+00  0.13062476010E+04  0.13062476010E+04  0.25500000920E-02 0.  1.
        2   -1    0    0  501    0  0.00000000000E+00  0.00000000000E+00 -0.20924865655E+04  0.20924865655E+04  0.25500000920E-02 0. -1.
    10030    2    1    2    0    0  0.00000000000E+00  0.00000000000E+00 -0.78623896449E+03  0.33987341665E+04  0.33065423369E+04 0.  0.
        5    1    3    3  502    0 -0.10232308284E+04  0.77701620214E+03 -0.14625748651E+04  0.19467672774E+04  0.46999998093E+01 0.  1.
       -5    1    3    3    0  502  0.10232308284E+04 -0.77701620214E+03  0.67633590062E+03  0.14519668891E+04  0.46999998093E+01 0. -1.
</event>
<event>
 5   0  0.3896210E-06  0.3268665E+04  0.7818609E-02  0.8170915E-01
        2   -1    0    0  501    0  0.00000000000E+00  0.00000000000E+00  0.10835516638E+04  0.10835516638E+04  0.25500000920E-02 0.  1.
       -2   -1    0    0    0  501  0.00000000000E+00  0.00000000000E+00 -0.24650813978E+04  0.24650813978E+04  0.25500000920E-02 0. -1.
    10030    2    1    2    0    0  0.00000000000E+00  0.00000000000E+00 -0.13815297340E+04  0.35486330616E+04  0.32686652015E+04 0.  0.
        3    1    3    3  502    0  0.13320728793E+04  0.93242044300E+03 -0.51165859609E+03  0.17045880932E+04  0.10100000352E+00 0. -1.
       -3    1    3    3    0  502 -0.13320728793E+04 -0.93242044300E+03 -0.86987113795E+03  0.18440449683E+04  0.10100000352E+00 0.  1.
</event>
<event>
 5   0  0.3812379E-06  0.3232405E+04  0.7818609E-02  0.8180311E-01
       -2   -1    0    0    0  501  0.00000000000E+00  0.00000000000E+00  0.26008766396E+04  0.26008766396E+04  0.25500000920E-02 0.  1.
        2   -1    0    0  501    0  0.00000000000E+00  0.00000000000E+00 -0.10043191531E+04  0.10043191531E+04  0.25500000920E-02 0. -1.
    10030    2    1    2    0    0  0.00000000000E+00  0.00000000000E+00  0.15965574864E+04  0.36051957927E+04  0.32324048163E+04 0.  0.
        5    1    3    3  502    0 -0.12694207564E+04 -0.52078261624E+03 -0.15429641270E+03  0.13807509055E+04  0.46999998093E+01 0. -1.
       -5    1    3    3    0  502  0.12694207564E+04  0.52078261624E+03  0.17508538991E+04  0.22244448872E+04  0.46999998093E+01 0.  1.
</event>
<event>
 5   0  0.3671997E-06  0.2104964E+04  0.7818609E-02  0.8559060E-01
       -2   -1    0    0    0  501  0.00000000000E+00  0.00000000000E+00  0.13078715469E+04  0.13078715469E+04  0.25500000920E-02 0.  1.
        2   -1    0    0  501    0  0.00000000000E+00  0.00000000000E+00 -0.84696240144E+03  0.84696240145E+03  0.25500000920E-02 0. -1.
    10030    2    1    2    0    0  0.00000000000E+00  0.00000000000E+00  0.46090914549E+03  0.21548339484E+04  0.21049636825E+04 0.  0.
        2    1    3    3  502    0 -0.79104353777E+03  0.10858254116E+03  0.93239514331E+03  0.12275588581E+04  0.25500000920E-02 0.  1.
       -2    1    3    3    0  502  0.79104353777E+03 -0.10858254116E+03 -0.47148599781E+03  0.92727509027E+03  0.25500000920E-02 0. -1.
</event>
<event>
 5   0  0.3812379E-06  0.3337492E+04  0.7818609E-02  0.8153421E-01
        2   -1    0    0  501    0  0.00000000000E+00  0.00000000000E+00  0.10065488251E+04  0.10065488251E+04  0.25500000920E-02 0. -1.
       -2   -1    0    0    0  501  0.00000000000E+00  0.00000000000E+00 -0.27665952153E+04  0.27665952153E+04  0.25500000920E-02 0.  1.
    10030    2    1    2    0    0  0.00000000000E+00  0.00000000000E+00 -0.17600463902E+04  0.37731440405E+04  0.33374919707E+04 0.  0.
        5    1    3    3  502    0  0.11987727011E+04  0.11822613202E+03  0.42556236513E+03  0.12775597144E+04  0.46999998093E+01 0. -1.
       -5    1    3    3    0  502 -0.11987727011E+04 -0.11822613202E+03 -0.21856087553E+04  0.24955843261E+04  0.46999998093E+01 0.  1.
</event>
<event>
 5   0  0.3671997E-06  0.3342548E+04  0.7818609E-02  0.8152153E-01
        2   -1    0    0  501    0  0.00000000000E+00  0.00000000000E+00  0.20488966385E+04  0.20488966385E+04  0.25500000920E-02 0.  1.
       -2   -1    0    0    0  501  0.00000000000E+00  0.00000000000E+00 -0.13632493373E+04  0.13632493374E+04  0.25500000920E-02 0. -1.
    10030    2    1    2    0    0  0.00000000000E+00  0.00000000000E+00  0.68564730113E+03  0.34121459758E+04  0.33425481207E+04 0.  0.
        2    1    3    3  502    0  0.12374706411E+04  0.10525993065E+04 -0.57591141343E+02  0.16256123853E+04  0.25500000920E-02 0. -1.
       -2    1    3    3    0  502 -0.12374706411E+04 -0.10525993065E+04  0.74323844247E+03  0.17865335905E+04  0.25500000920E-02 0.  1.
</event>
<event>
 5   0  0.3920487E-06  0.3102417E+04  0.7818609E-02  0.8215075E-01
       -2   -1    0    0    0  501  0.00000000000E+00  0.00000000000E+00  0.14694059336E+04  0.14694059336E+04  0.25500000920E-02 0.  1.
        2   -1    0    0  501    0  0.00000000000E+00  0.00000000000E+00 -0.16375649765E+04  0.16375649765E+04  0.25500000920E-02 0. -1.
    10030    2    1    2    0    0  0.00000000000E+00  0.00000000000E+00 -0.16815904284E+03  0.31069709101E+04  0.31024169243E+04 0.  0.
        4    1    3    3  502    0  0.11920944926E+03 -0.71566098339E+03 -0.14571736325E+04  0.16278016293E+04  0.12699999809E+01 0. -1.
       -4    1    3    3    0  502 -0.11920944926E+03  0.71566098339E+03  0.12890145897E+04  0.14791692808E+04  0.12699999809E+01 0.  1.
</event>
<event>
 5   0  0.4017247E-06  0.3364213E+04  0.7818609E-02  0.8146746E-01
       -2   -1    0    0    0  501  0.00000000000E+00  0.00000000000E+00  0.11118130565E+04  0.11118130565E+04  0.25500000920E-02 0.  1.
        2   -1    0    0  501    0  0.00000000000E+00  0.00000000000E+00 -0.25449262992E+04  0.25449262992E+04  0.25500000920E-02 0. -1.
    10030    2    1    2    0    0  0.00000000000E+00  0.00000000000E+00 -0.14331132427E+04  0.36567393557E+04  0.33642130060E+04 0.  0.
        1    1    3    3  502    0  0.14658521033E+04 -0.21577959121E+03  0.14905548072E+03  0.14891275154E+04  0.50400001928E-02 0.  1.
       -1    1    3    3    0  502 -0.14658521033E+04  0.21577959121E+03 -0.15821687234E+04  0.21676118403E+04  0.50400001928E-02 0. -1.
</event>
<event>
 5   0  0.1405389E-06  0.3240180E+04  0.7818609E-02  0.8178286E-01
        1   -1    0    0  501    0  0.00000000000E+00  0.00000000000E+00  0.13820706423E+04  0.13820706423E+04  0.50400001928E-02 0. -1.
       -1   -1    0    0    0  501  0.00000000000E+00  0.00000000000E+00 -0.18991007982E+04  0.18991007982E+04  0.50400001928E-02 0.  1.
    10030    2    1    2    0    0  0.00000000000E+00  0.00000000000E+00 -0.51703015594E+03  0.32811714405E+04  0.32401799085E+04 0.  0.
        1    1    3    3  502    0 -0.12305636074E+04 -0.59877201349E+03  0.61956297840E+03  0.15022226866E+04  0.50400001928E-02 0. -1.
       -1    1    3    3    0  502  0.12305636074E+04  0.59877201349E+03 -0.11365931343E+04  0.17789487539E+04  0.50400001928E-02 0.  1.
</event>
<event>
 5   0  0.1352708E-06  0.3252822E+04  0.7818609E-02  0.8175005E-01
       -1   -1    0    0    0  501  0.00000000000E+00  0.00000000000E+00  0.14696669081E+04  0.14696669081E+04  0.50400001928E-02 0.  1.
        1   -1    0    0  501    0  0.00000000000E+00  0.00000000000E+00 -0.17998717550E+04  0.17998717550E+04  0.50400001928E-02 0. -1.
    10030    2    1    2    0    0  0.00000000000E+00  0.00000000000E+00 -0.33020484697E+03  0.32695386631E+04  0.32528215181E+04 0.  0.
        5    1    3    3  502    0 -0.96132392749E+03 -0.87365175396E+03 -0.11487937679E+04  0.17341165739E+04  0.46999998093E+01 0. -1.
       -5    1    3    3    0  502  0.96132392749E+03  0.87365175396E+03  0.81858892089E+03  0.15354220892E+04  0.46999998093E+01 0.  1.
</event>
<event>
 5   0  0.1391878E-06  0.3330722E+04  0.7818609E-02  0.8155122E-01
       -1   -1    0    0    0  501  0.00000000000E+00  0.00000000000E+00  0.14618904429E+04  0.14618904429E+04  0.50400001928E-02 0.  1.
        1   -1    0    0  501    0  0.00000000000E+00  0.00000000000E+00 -0.18971516800E+04  0.18971516800E+04  0.50400001928E-02 0. -1.
    10030    2    1    2    0    0  0.00000000000E+00  0.00000000000E+00 -0.43526123717E+03  0.33590421229E+04  0.33307223900E+04 0.  0.
        2    1    3    3  502    0  0.57716504425E+03  0.35018256005E+03  0.13177066990E+04  0.14805736247E+04  0.25500000920E-02 0.  1.
       -2    1    3    3    0  502 -0.57716504425E+03 -0.35018256005E+03 -0.17529679361E+04  0.18784684982E+04  0.25500000920E-02 0. -1.
</event>
<event>
 5   0  0.1352708E-06  0.3203685E+04  0.7818609E-02  0.8187845E-01
       -1   -1    0    0    0  501  0.00000000000E+00  0.00000000000E+00  0.15705678717E+04  0.15705678717E+04  0.50400001928E-02 0.  1.
        1   -1    0    0  501    0  0.00000000000E+00  0.00000000000E+00 -0.16337403114E+04  0.16337403114E+04  0.50400001928E-02 0. -1.
    10030    2    1    2    0    0  0.00000000000E+00  0.00000000000E+00 -0.63172439713E+02  0.32043081831E+04  0.32036854052E+04 0.  0.
        5    1    3    3  502    0 -0.14847688997E+04 -0.37717208644E+03  0.43656511219E+03  0.15929245605E+04  0.46999998093E+01 0.  1.
       -5    1    3    3    0  502  0.14847688997E+04  0.37717208644E+03 -0.49973755191E+03  0.16113836226E+04  0.46999998093E+01 0. -1.
</event>
<event>
 5   0  0.4017247E-06  0.3308148E+04  0.7818609E-02  0.8160825E-01
        2   -1    0    0  501    0  0.00000000000E+00  0.00000000000E+00  0.13362654425E+04  0.13362654425E+04  0.25500000920E-02 0.  1.
       -2   -1    0    0    0  501  0.00000000000E+00  0.00000000000E+00 -0.20474674912E+04  0.20474674912E+04  0.25500000920E-02 0. -1.
    10030    2    1    2    0    0  0.00000000000E+00  0.00000000000E+00 -0.71120204877E+03  0.33837329337E+04  0.33081475500E+04 0.  0.
        1    1    3    3  502    0  0.12213197519E+04 -0.71971921921E+03  0.51612877788E+03  0.15086439628E+04  0.50400001928E-02 0.  1.
       -1    1    3    3    0  502 -0.12213197519E+04  0.71971921921E+03 -0.12273308266E+04  0.18750889710E+04  0.50400001928E-02 0. -1.
</event>
<event>
 5   0  0.3920487E-06  0.3325384E+04  0.7818609E-02  0.8156466E-01
       -2   -1    0    0    0  501  0.00000000000E+00  0.00000000000E+00  0.18821259742E+04  0.18821259742E+04  0.25500000920E-02 0.  1.
        2   -1    0    0  501    0  0.00000000000E+00  0.00000000000E+00 -0.14688417904E+04  0.14688417904E+04  0.25500000920E-02 0. -1.
    10030    2    1    2    0    0  0.00000000000E+00  0.00000000000E+00  0.41328418379E+03  0.33509677647E+04  0.33253843603E+04 0.  0.
        4    1    3    3  502    0  0.21249694703E+03  0.38782988795E+02 -0.14546420009E+04  0.14705930900E+04  0.12699999809E+01 0. -1.
       -4    1    3    3    0  502 -0.21249694703E+03 -0.38782988795E+02  0.18679261847E+04  0.18803746747E+04  0.12699999809E+01 0.  1.
</event>
<event>
 5   0  0.1282578E-06  0.3282888E+04  0.7818609E-02  0.8167263E-01
       -1   -1    0    0    0  501  0.00000000000E+00  0.00000000000E+00  0.11835494692E+04  0.11835494692E+04  0.50400001928E-02 0.  1.
        1   -1    0    0  501    0  0.00000000000E+00  0.00000000000E+00 -0.22764904574E+04  0.22764904574E+04  0.50400001928E-02 0. -1.
    10030    2    1    2    0    0  0.00000000000E+00  0.00000000000E+00 -0.10929409882E+04  0.34600399267E+04  0.32828884066E+04 0.  0.
        4    1    3    3  502    0 -0.90281587970E+03  0.11394525492E+04 -0.13497727396E+04  0.19837632636E+04  0.12699999809E+01 0. -1.
       -4    1    3    3    0  502  0.90281587970E+03 -0.11394525492E+04  0.25683175137E+03  0.14762766631E+04  0.12699999809E+01 0.  1.
</event>
<event>
 5   0  0.1391878E-06  0.3056437E+04  0.7818609E-02  0.8227796E-01
        1   -1    0    0  501    0  0.00000000000E+00  0.00000000000E+00  0.15603631624E+04  0.15603631624E+04  0.50400001928E-02 0.  1.
       -1   -1    0    0    0  501  0.00000000000E+00  0.00000000000E+00 -0.14967360779E+04  0.14967360779E+04  0.50400001928E-02 0. -1.
    10030    2    1    2    0    0  0.00000000000E+00  0.00000000000E+00  0.63627084521E+02  0.30570992402E+04  0.30564370366E+04 0.  0.
        2    1    3    3  502    0 -0.15031755171E+04  0.43553658277E+02  0.30393550076E+03  0.15342132658E+04  0.25500000920E-02 0.  1.
       -2    1    3    3    0  502  0.15031755171E+04 -0.43553658277E+02 -0.24030841624E+03  0.15228859745E+04  0.25500000920E-02 0. -1.
</event>
<event>
 5   0  0.1391878E-06  0.3388112E+04  0.7818609E-02  0.8140830E-01
       -1   -1    0    0    0  501  0.00000000000E+00  0.00000000000E+00  0.10656210354E+04  0.10656210354E+04  0.50400001928E-02 0. -1.
        1   -1    0    0  501    0  0.00000000000E+00  0.00000000000E+00 -0.26931016526E+04  0.26931016526E+04  0.50400001928E-02 0.  1.
    10030    2    1    2    0    0  0.00000000000E+00  0.00000000000E+00 -0.16274806171E+04  0.37587226880E+04  0.33881120239E+04 0.  0.
        2    1    3    3  502    0  0.11032353485E+03 -0.50072713972E+03 -0.26049521193E+04  0.26549339907E+04  0.25500000920E-02 0.  1.
       -2    1    3    3    0  502 -0.11032353485E+03  0.50072713972E+03  0.97747150220E+03  0.11037886974E+04  0.25500000920E-02 0. -1.
</event>
<event>
 5   0  0.3671997E-06  0.2330282E+04  0.7818609E-02  0.8466076E-01
        2   -1    0    0  501    0  0.00000000000E+00  0.00000000000E+00  0.92098540487E+03  0.92098540487E+03  0.25500000920E-02 0.  1.
       -2   -1    0    0    0  501  0.00000000000E+00  0.00000000000E+00 -0.14740231363E+04  0.14740231363E+04  0.25500000920E-02 0. -1.
    10030    2    1    2    0    0  0.00000000000E+00  0.00000000000E+00 -0.55303773147E+03  0.23950085412E+04  0.23302822104E+04 0.  0.
        2    1    3    3  502    0  0.96028728322E+03 -0.62095048960E+03 -0.50592858832E+03  0.12504778740E+04  0.25500000920E-02 0. -1.
       -2    1    3    3    0  502 -0.96028728322E+03  0.62095048960E+03 -0.47109143144E+02  0.11445306672E+04  0.25500000920E-02 0.  1.
</event>
<event>
 5   0  0.1405389E-06  0.3279290E+04  0.7818609E-02  0.8168185E-01
       -1   -1    0    0    0  501  0.00000000000E+00  0.00000000000E+00  0.12627344456E+04  0.12627344456E+04  0.50400001928E-02 0.  1.
        1   -1    0    0  501    0  0.00000000000E+00  0.00000000000E+00 -0.21290584871E+04  0.21290584871E+04  0.50400001928E-02 0. -1.
    10030    2    1    2    0    0  0.00000000000E+00  0.00000000000E+00 -0.86632404147E+03  0.33917929327E+04  0.32792898550E+04 0.  0.
        1    1    3    3  502    0 -0.81459459518E+03 -0.65363999557E+03  0.87417352733E+03  0.13619797922E+04  0.50400001928E-02 0.  1.
       -1    1    3    3    0  502  0.81459459518E+03  0.65363999557E+03 -0.17404975688E+04  0.20298131405E+04  0.50400001928E-02 0. -1.
</event>
<event>
 5   0  0.1282578E-06  0.3360598E+04  0.7818609E-02  0.8147645E-01
       -1   -1    0    0    0  501  0.00000000000E+00  0.00000000000E+00  0.13859226105E+04  0.13859226106E+04  0.50400001928E-02 0. -1.
        1   -1    0    0  501    0  0.00000000000E+00  0.00000000000E+00 -0.20372021867E+04  0.20372021867E+04  0.50400001928E-02 0.  1.
    10030    2    1    2    0    0  0.00000000000E+00  0.00000000000E+00 -0.65127957614E+03  0.34231247973E+04  0.33605979068E+04 0.  0.
        4    1    3    3  502    0  0.26806095064E+03  0.13704866296E+04  0.62625963619E+03  0.15304551676E+04  0.12699999809E+01 0. -1.
       -4    1    3    3    0  502 -0.26806095064E+03 -0.13704866296E+04 -0.12775392123E+04  0.18926696297E+04  0.12699999809E+01 0.  1.
</event>
<event>
 5   0  0.1339825E-06  0.3307182E+04  0.7818609E-02  0.8161070E-01
        1   -1    0    0  501    0  0.00000000000E+00  0.00000000000E+00  0.16296884029E+04  0.16296884029E+04  0.50400001928E-02 0.  1.
       -1   -1    0    0    0  501  0.00000000000E+00  0.00000000000E+00 -0.16778444816E+04  0.16778444816E+04  0.50400001928E-02 0. -1.
    10030    2    1    2    0    0  0.00000000000E+00  0.00000000000E+00 -0.48156078695E+02  0.33075328845E+04  0.33071823014E+04 0.  0.
        3    1    3    3  502    0 -0.70741576287E+03 -0.11814237739E+04 -0.93968832751E+03  0.16670972851E+04  0.10100000352E+00 0.  1.
       -3    1    3    3    0  502  0.70741576287E+03  0.11814237739E+04  0.89153224881E+03  0.16404355994E+04  0.10100000352E+00 0. -1.
</event>
<event>
 5   0  0.1282578E-06  0.3250712E+04  0.7818609E-02  0.8175551E-01
        1   -1    0    0  501    0  0.00000000000E+00  0.00000000000E+00  0.16474880295E+04  0.16474880295E+04  0.50400001928E-02 0. -1.
       -1   -1    0    0    0  501  0.00000000000E+00  0.00000000000E+00 -0.16035210507E+04  0.16035210508E+04  0.50400001928E-02 0.  1.
    10030    2    1    2    0    0  0.00000000000E+00  0.00000000000E+00  0.43966978789E+02  0.32510090803E+04  0.32507117597E+04 0.  0.
        4    1    3    3  502    0  0.13392215571E+04 -0.68535563735E+03  0.63730669339E+03  0.16338262340E+04  0.12699999809E+01 0. -1.
       -4    1    3    3    0  502 -0.13392215571E+04  0.68535563735E+03 -0.59333971460E+03  0.16171828463E+04  0.12699999809E+01 0.  1.
</event>
<event>
 5   0  0.3920487E-06  0.3295850E+04  0.7818609E-02  0.8163952E-01
       -2   -1    0    0    0  501  0.00000000000E+00  0.00000000000E+00  0.16561000997E+04  0.16561000997E+04  0.25500000920E-02 0.  1.
        2   -1    0    0  501    0  0.00000000000E+00  0.00000000000E+00 -0.16397905507E+04  0.16397905507E+04  0.25500000920E-02 0. -1.
    10030    2    1    2    0    0  0.00000000000E+00  0.00000000000E+00  0.16309549053E+02  0.32958906504E+04  0.32958502966E+04 0.  0.
        4    1    3    3  502    0  0.52713048493E+03  0.12614239374E+03  0.15644119950E+04  0.16556463857E+04  0.12699999809E+01 0.  1.
       -4    1    3    3    0  502 -0.52713048493E+03 -0.12614239374E+03 -0.15481024459E+04  0.16402442646E+04  0.12699999809E+01 0. -1.
</event>
<event>
 5   0  0.3671997E-06  0.3351065E+04  0.7818609E-02  0.8150022E-01
        2   -1    0    0  501    0  0.00000000000E+00  0.00000000000E+00  0.22499171627E+04  0.22499171627E+04  0.25500000920E-02 0. -1.
       -2   -1    0    0    0  501  0.00000000000E+00  0.00000000000E+00 -0.12477831135E+04  0.12477831135E+04  0.25500000920E-02 0.  1.
    10030    2    1    2    0    0  0.00000000000E+00  0.00000000000E+00  0.10021340492E+04  0.34977002762E+04  0.33510646920E+04 0.  0.
        2    1    3    3  502    0 -0.65942532726E+03 -0.15017510305E+04  0.14357312562E+03  0.16464237493E+04  0.25500000920E-02 0.  1.
       -2    1    3    3    0  502  0.65942532726E+03  0.15017510305E+04  0.85856092358E+03  0.18512765269E+04  0.25500000920E-02 0. -1.
</event>
<event>
 5   0  0.3812379E-06  0.3197222E+04  0.7818609E-02  0.8189551E-01
       -2   -1    0    0    0  501  0.00000000000E+00  0.00000000000E+00  0.32498221463E+04  0.32498221463E+04  0.25500000920E-02 0.  1.
        2   -1    0    0  501    0  0.00000000000E+00  0.00000000000E+00 -0.78636821563E+03  0.78636821563E+03  0.25500000920E-02 0. -1.
    10030    2    1    2    0    0  0.00000000000E+00  0.00000000000E+00  0.24634539307E+04  0.40361903619E+04  0.31972218205E+04 0.  0.
        5    1    3    3  502    0 -0.13750017036E+04  0.30183152857E+02  0.20304538158E+03  0.13902482601E+04  0.46999998093E+01 0.  1.
       -5    1    3    3    0  502  0.13750017036E+04 -0.30183152857E+02  0.22604085491E+04  0.26459421019E+04  0.46999998093E+01 0. -1.
</event>
<event>
 5   0  0.3896210E-06  0.3342199E+04  0.7818609E-02  0.8152240E-01
        2   -1    0    0  501    0  0.00000000000E+00  0.00000000000E+00  0.11062000665E+04  0.11062000665E+04  0.25500000920E-02 0. -1.
       -2   -1    0    0    0  501  0.00000000000E+00  0.00000000000E+00 -0.25244734906E+04  0.25244734906E+04  0.25500000920E-02 0.  1.
    10030    2    1    2    0    0  0.00000000000E+00  0.00000000000E+00 -0.14182734241E+04  0.36306735571E+04  0.33421985239E+04 0.  0.
        3    1    3    3  502    0  0.30484896885E+03  0.12695819664E+04 -0.18421363726E+04  0.22579277421E+04  0.10100000352E+00 0.  1.
       -3    1    3    3    0  502 -0.30484896885E+03 -0.12695819664E+04  0.42386294850E+03  0.13727458150E+04  0.10100000352E+00 0. -1.
</event>
<event>
 5   0  0.4017247E-06  0.3247378E+04  0.7818609E-02  0.8176416E-01
       -2   -1    0    0    0  501  0.00000000000E+00  0.00000000000E+00  0.14080708097E+04  0.14080708097E+04  0.25500000920E-02 0. -1.
        2   -1    0    0  501    0  0.00000000000E+00  0.00000000000E+00 -0.18723252462E+04  0.18723252462E+04  0.25500000920E-02 0.  1.
    10030    2    1    2    0    0  0.00000000000E+00  0.00000000000E+00 -0.46425443650E+03  0.32803960559E+04  0.32473783429E+04 0.  0.
        1    1    3    3  502    0 -0.10523463241E+04  0.12320101245E+04 -0.33848203901E+03  0.16552497768E+04  0.50400001928E-02 0. -1.
       -1    1    3    3    0  502  0.10523463241E+04 -0.12320101245E+04 -0.12577239750E+03  0.16251462792E+04  0.50400001928E-02 0.  1.
</event>
<event>
 5   0  0.1339825E-06  0.3255113E+04  0.7818609E-02  0.8174412E-01
        1   -1    0    0  501    0  0.00000000000E+00  0.00000000000E+00  0.25838424465E+04  0.25838424465E+04  0.50400001928E-02 0.  1.
       -1   -1    0    0    0  501  0.00000000000E+00  0.00000000000E+00 -0.10251942183E+04  0.10251942183E+04  0.50400001928E-02 0. -1.
    10030    2    1    2    0    0  0.00000000000E+00  0.00000000000E+00  0.15586482282E+04  0.36090366648E+04  0.32551131084E+04 0.  0.
        3    1    3    3  502    0 -0.94854101542E+03  0.90751717241E+01 -0.68702031993E+03  0.11712426507E+04  0.10100000352E+00 0. -1.
       -3    1    3    3    0  502  0.94854101542E+03 -0.90751717241E+01  0.22456685482E+04  0.24377940141E+04  0.10100000352E+00 0.  1.
</event>
<event>
 5   0  0.1339825E-06  0.3283975E+04  0.7818609E-02  0.8166985E-01
        1   -1    0    0  501    0  0.00000000000E+00  0.00000000000E+00  0.24107539019E+04  0.24107539019E+04  0.50400001928E-02 0. -1.
       -1   -1    0    0    0  501  0.00000000000E+00  0.00000000000E+00 -0.11183731297E+04  0.11183731297E+04  0.50400001928E-02 0.  1.
    10030    2    1    2    0    0  0.00000000000E+00  0.00000000000E+00  0.12923807722E+04  0.35291270316E+04  0.32839746565E+04 0.  0.
        3    1    3    3  502    0 -0.12388952051E+04 -0.10340064534E+04  0.32007015476E+03  0.16451369515E+04  0.10100000352E+00 0.  1.
       -3    1    3    3    0  502  0.12388952051E+04  0.10340064534E+04  0.97231061740E+03  0.18839900801E+04  0.10100000352E+00 0. -1.
</event>
<event>
 5   0  0.3812379E-06  0.3310675E+04  0.7818609E-02  0.8160184E-01
       -2   -1    0    0    0  501  0.00000000000E+00  0.00000000000E+00  0.17066418704E+04  0.17066418704E+04  0.25500000920E-02 0.  1.
        2   -1    0    0  501    0  0.00000000000E+00  0.00000000000E+00 -0.16055756249E+04  0.16055756249E+04  0.25500000920E-02 0. -1.
    10030    2    1    2    0    0  0.00000000000E+00  0.00000000000E+00  0.10106624549E+03  0.33122174952E+04  0.33106752106E+04 0.  0.
        5    1    3    3  502    0  0.78563681385E+03  0.31420124300E+03 -0.13728639555E+04  0.16126763949E+04  0.46999998093E+01 0. -1.
       -5    1    3    3    0  502 -0.78563681385E+03 -0.31420124300E+03  0.14739302010E+04  0.16995411003E+04  0.46999998093E+01 0.  1.
</event>
<event>
 5   0  0.1282578E-06  0.3339226E+04  0.7818609E-02  0.8152986E-01
        1   -1    0    0  501    0  0.00000000000E+00  0.00000000000E+00  0.18658068746E+04  0.18658068746E+04  0.50400001928E-02 0.  1.
       -1   -1    0    0    0  501  0.00000000000E+00  0.00000000000E+00 -0.14940489295E+04  0.14940489295E+04  0.50400001928E-02 0. -1.
    10030    2    1    2    0    0  0.00000000000E+00  0.00000000000E+00  0.37175794508E+03  0.33598558042E+04  0.33392255172E+04 0.  0.
        4    1    3    3  502    0 -0.42593305039E+03 -0.10812726381E+04  0.13920493619E+04  0.18133870299E+04  0.12699999809E+01 0.  1.
       -4    1    3    3    0  502  0.42593305039E+03  0.10812726381E+04 -0.10202914169E+04  0.15464687742E+04  0.12699999809E+01 0. -1.
</event>
<event>
 5   0  0.4017247E-06  0.3197198E+04  0.7818609E-02  0.8189558E-01
       -2   -1    0    0    0  501  0.00000000000E+00  0.00000000000E+00  0.10324031026E+04  0.10324031026E+04  0.25500000920E-02 0.  1.
        2   -1    0    0  501    0  0.00000000000E+00  0.00000000000E+00 -0.24753102903E+04  0.24753102903E+04  0.25500000920E-02 0. -1.
    10030    2    1    2    0    0  0.00000000000E+00  0.00000000000E+00 -0.14429071877E+04  0.35077133929E+04  0.31971975376E+04 0.  0.
        1    1    3    3  502    0 -0.90919514143E+03 -0.23925386939E+02  0.72087902939E+03  0.11605493546E+04  0.50400001928E-02 0.  1.
       -1    1    3    3    0  502  0.90919514143E+03  0.23925386939E+02 -0.21637862171E+04  0.23471640383E+04  0.50400001928E-02 0. -1.
</event>
<event>
 5   0  0.3896210E-06  0.2076080E+04  0.7818609E-02  0.8571854E-01
       -2   -1    0    0    0  501  0.00000000000E+00  0.00000000000E+00  0.54743350210E+03  0.54743350210E+03  0.25500000920E-02 0.  1.
        2   -1    0    0  501    0  0.00000000000E+00  0.00000000000E+00 -0.19683252361E+04  0.19683252361E+04  0.25500000920E-02 0. -1.
    10030    2    1    2    0    0  0.00000000000E+00  0.00000000000E+00 -0.14208917340E+04  0.25157587382E+04  0.20760801307E+04 0.  0.
        3    1    3    3  502    0  0.70883779019E+03 -0.16713094759E+03  0.18589967014E+03  0.75162654557E+03  0.10100000352E+00 0.  1.
       -3    1    3    3    0  502 -0.70883779019E+03  0.16713094759E+03 -0.16067914041E+04  0.17641321926E+04  0.10100000352E+00 0. -1.
</event>
<event>
 5   0  0.1339825E-06  0.3304936E+04  0.7818609E-02  0.8161640E-01
        1   -1    0    0  501    0  0.00000000000E+00  0.00000000000E+00  0.36281391295E+04  0.36281391295E+04  0.50400001928E-02 0. -1.
       -1   -1    0    0    0  501  0.00000000000E+00  0.00000000000E+00 -0.75263125200E+03  0.75263125201E+03  0.50400001928E-02 0.  1.
    10030    2    1    2    0    0  0.00000000000E+00  0.00000000000E+00  0.28755078775E+04  0.43807703815E+04  0.33049362448E+04 0.  0.
        3    1    3    3  502    0 -0.65931651874E+03 -0.13705762602E+04  0.22942034610E+04  0.27525528310E+04  0.10100000352E+00 0. -1.
       -3    1    3    3    0  502  0.65931651874E+03  0.13705762602E+04  0.58130441649E+03  0.16282175505E+04  0.10100000352E+00 0.  1.
</event>
<event>
 5   0  0.3896210E-06  0.3258893E+04  0.7818609E-02  0.8173435E-01
        2   -1    0    0  501    0  0.00000000000E+00  0.00000000000E+00  0.23212000654E+04  0.23212000654E+04  0.25500000920E-02 0.  1.
       -2   -1    0    0    0  501  0.00000000000E+00  0.00000000000E+00 -0.11438460962E+04  0.11438460962E+04  0.25500000920E-02 0. -1.
    10030    2    1    2    0    0  0.00000000000E+00  0.00000000000E+00  0.11773539692E+04  0.34650461615E+04  0.32588928385E+04 0.  0.
        3    1    3    3  502    0 -0.12932807018E+04 -0.70048315985E+03  0.13343572168E+04  0.19858904358E+04  0.10100000352E+00 0.  1.
       -3    1    3    3    0  502  0.12932807018E+04  0.70048315985E+03 -0.15700324758E+03  0.14791557257E+04  0.10100000352E+00 0. -1.
</event>
<event>
 5   0  0.4017247E-06  0.3460568E+04  0.7818609E-02  0.8123199E-01
       -2   -1    0    0    0  501  0.00000000000E+00  0.00000000000E+00  0.13460071577E+04  0.13460071577E+04  0.25500000920E-02 0.  1.
        2   -1    0    0  501    0  0.00000000000E+00  0.00000000000E+00 -0.22242690253E+04  0.22242690253E+04  0.25500000920E-02 0. -1.
    10030    2    1    2    0    0  0.00000000000E+00  0.00000000000E+00 -0.87826186759E+03  0.35702761830E+04  0.34605676001E+04 0.  0.
        1    1    3    3  502    0  0.10189795829E+04  0.33775281679E+03 -0.18391651431E+04  0.21295362827E+04  0.50400001928E-02 0. -1.
       -1    1    3    3    0  502 -0.10189795829E+04 -0.33775281679E+03  0.96090327552E+03  0.14407399003E+04  0.50400001928E-02 0.  1.
</event>
<event>
 5   0  0.1391878E-06  0.3197469E+04  0.7818609E-02  0.8189486E-01
       -1   -1    0    0    0  501  0.00000000000E+00  0.00000000000E+00  0.15106708522E+04  0.15106708522E+04  0.50400001928E-02 0. -1.
        1   -1    0    0  501    0  0.00000000000E+00  0.00000000000E+00 -0.16919313980E+04  0.16919313980E+04  0.50400001928E-02 0.  1.
    10030    2    1    2    0    0  0.00000000000E+00  0.00000000000E+00 -0.18126054577E+03  0.32026022502E+04  0.31974686531E+04 0.  0.
        2    1    3    3  502    0  0.93664082080E+03 -0.90833258219E+03 -0.10160115141E+04  0.16536757554E+04  0.25500000920E-02 0.  1.
       -2    1    3    3    0  502 -0.93664082080E+03  0.90833258219E+03  0.83475096837E+03  0.15489264948E+04  0.25500000920E-02 0. -1.
</event>
<event>
 5   0  0.3920487E-06  0.3339038E+04  0.7818609E-02  0.8153033E-01
        2   -1    0    0  501    0  0.00000000000E+00  0.00000000000E+00  0.23540580994E+04  0.23540580994E+04  0.25500000920E-02 0. -1.
       -2   -1    0    0    0  501  0.00000000000E+00  0.00000000000E+00 -0.11840377280E+04  0.11840377280E+04  0.25500000920E-02 0.  1.
    10030    2    1    2    0    0  0.00000000000E+00  0.00000000000E+00  0.11700203714E+04  0.35380958274E+04  0.33390379474E+04 0.  0.
        4    1    3    3  502    0  0.81544279699E+03  0.58558195716E+03  0.19984905034E+04  0.22364747012E+04  0.12699999809E+01 0. -1.
       -4    1    3    3    0  502 -0.81544279699E+03 -0.58558195716E+03 -0.82847013202E+03  0.13016211262E+04  0.12699999809E+01 0.  1.
</event>
<event>
 5   0  0.3671997E-06  0.2019576E+04  0.7818609E-02  0.8597523E-01
       -2   -1    0    0    0  501  0.00000000000E+00  0.00000000000E+00  0.12317083708E+04  0.12317083708E+04  0.25500000920E-02 0.  1.
        2   -1    0    0  501    0  0.00000000000E+00  0.00000000000E+00 -0.82785172376E+03  0.82785172376E+03  0.25500000920E-02 0. -1.
    10030    2    1    2    0    0  0.00000000000E+00  0.00000000000E+00  0.40385664700E+03  0.20595600945E+04  0.20195760921E+04 0.  0.
        2    1    3    3  502    0  0.71407501957E+03  0.50765123228E+03 -0.31006623356E+03  0.92938365405E+03  0.25500000920E-02 0. -1.
       -2    1    3    3    0  502 -0.71407501957E+03 -0.50765123228E+03  0.71392288056E+03  0.11301764405E+04  0.25500000920E-02 0.  1.
</event>
<event>
 5   0  0.1339825E-06  0.3154184E+04  0.7818609E-02  0.8201023E-01
        1   -1    0    0  501    0  0.00000000000E+00  0.00000000000E+00  0.31556406671E+04  0.31556406671E+04  0.50400001928E-02 0. -1.
       -1   -1    0    0    0  501  0.00000000000E+00  0.00000000000E+00 -0.78818223394E+03  0.78818223395E+03  0.50400001928E-02 0.  1.
    10030    2    1    2    0    0  0.00000000000E+00  0.00000000000E+00  0.23674584332E+04  0.39438229011E+04  0.31541844655E+04 0.  0.
        3    1    3    3  502    0  0.12985803495E+04  0.61391749008E+03  0.19979094671E+04  0.24606600451E+04  0.10100000352E+00 0. -1.
       -3    1    3    3    0  502 -0.12985803495E+04 -0.61391749008E+03  0.36954896604E+03  0.14831628559E+04  0.10100000352E+00 0.  1.
</event>
<event>
 5   0  0.1282578E-06  0.3242851E+04  0.7818609E-02  0.8177591E-01
       -1   -1    0    0    0  501  0.00000000000E+00  0.00000000000E+00  0.21639395562E+04  0.21639395562E+04  0.50400001928E-02 0. -1.
        1   -1    0    0  501    0  0.00000000000E+00  0.00000000000E+00 -0.12149234543E+04  0.12149234543E+04  0.50400001928E-02 0.  1.
    10030    2    1    2    0    0  0.00000000000E+00  0.00000000000E+00  0.94901610191E+03  0.33788630105E+04  0.32428511656E+04 0.  0.
        4    1    3    3  502    0  0.76744850466E+03 -0.37406188520E+03 -0.96175523897E+03  0.12860304249E+04  0.12699999809E+01 0.  1.
       -4    1    3    3    0  502 -0.76744850466E+03  0.37406188520E+03  0.19107713409E+04  0.20928325856E+04  0.12699999809E+01 0. -1.
</event>
<event>
 5   0  0.1352708E-06  0.3734010E+04  0.7818609E-02  0.8060466E-01
        1   -1    0    0  501    0  0.00000000000E+00  0.00000000000E+00  0.19842722822E+04  0.19842722822E+04  0.50400001928E-02 0.  1.
       -1   -1    0    0    0  501  0.00000000000E+00  0.00000000000E+00 -0.17566684313E+04  0.17566684313E+04  0.50400001928E-02 0. -1.
    10030    2    1    2    0    0  0.00000000000E+00  0.00000000000E+00  0.22760385085E+03  0.37409407135E+04  0.37340104324E+04 0.  0.
        5    1    3    3  502    0  0.31022275475E+03 -0.42012407935E+03  0.19095974123E+04  0.19797289629E+04  0.46999998093E+01 0.  1.
       -5    1    3    3    0  502 -0.31022275475E+03  0.42012407935E+03 -0.16819935615E+04  0.17612117506E+04  0.46999998093E+01 0. -1.
</event>
<event>
 5   0  0.1282578E-06  0.3107667E+04  0.7818609E-02  0.8213637E-01
       -1   -1    0    0    0  501  0.00000000000E+00  0.00000000000E+00  0.10539058985E+04  0.10539058985E+04  0.50400001928E-02 0. -1.
        1   -1    0    0  501    0  0.00000000000E+00  0.00000000000E+00 -0.22909045504E+04  0.22909045504E+04  0.50400001928E-02 0.  1.
    10030    2    1    2    0    0  0.00000000000E+00  0.00000000000E+00 -0.12369986518E+04  0.33448104489E+04  0.31076665321E+04 0.  0.
        4    1    3    3  502    0  0.10113622088E+04 -0.11780080045E+04 -0.68519429583E+03  0.16970707740E+04  0.12699999809E+01 0. -1.
       -4    1    3    3    0  502 -0.10113622088E+04  0.11780080045E+04 -0.55180435602E+03  0.16477396749E+04  0.12699999809E+01 0.  1.
</event>
<event>
 5   0  0.1405389E-06  0.3284384E+04  0.7818609E-02  0.8166880E-01
        1   -1    0    0  501    0  0.00000000000E+00  0.00000000000E+00  0.24879262317E+04  0.24879262317E+04  0.50400001928E-02 0.  1.
       -1   -1    0    0    0  501  0.00000000000E+00  0.00000000000E+00 -0.10839528488E+04  0.10839528488E+04  0.50400001928E-02 0. -1.
    10030    2    1    2    0    0  0.00000000000E+00  0.00000000000E+00  0.14039733830E+04  0.35718790805E+04  0.32843840984E+04 0.  0.
        1    1    3    3  502    0 -0.10231494624E+04  0.97798905062E+03  0.16076467216E+04  0.21419209572E+04  0.50400001928E-02 0.  1.
       -1    1    3    3    0  502  0.10231494624E+04 -0.97798905062E+03 -0.20367333860E+03  0.14299581233E+04  0.50400001928E-02 0. -1.
</event>
<event>
 5   0  0.3812379E-06  0.3290324E+04  0.7818609E-02  0.8165362E-01
       -2   -1    0    0    0  501  0.00000000000E+00  0.00000000000E+00  0.14311469997E+04  0.14311469997E+04  0.25500000920E-02 0.  1.
        2   -1    0    0  501    0  0.00000000000E+00  0.00000000000E+00 -0.18911815607E+04  0.18911815607E+04  0.25500000920E-02 0. -1.
    10030    2    1    2    0    0  0.00000000000E+00  0.00000000000E+00 -0.46003456099E+03  0.33223285604E+04  0.32903244925E+04 0.  0.
        5    1    3    3  502    0 -0.68289402833E+03  0.85648663828E+03  0.10093675089E+04  0.14895497553E+04  0.46999998093E+01 0.  1.
       -5    1    3    3    0  502  0.68289402833E+03 -0.85648663828E+03 -0.14694020699E+04  0.18327788051E+04  0.46999998093E+01 0. -1.
</event>
<event>
 5   0  0.1282578E-06  0.2576871E+04  0.7818609E-02  0.8376100E-01
        1   -1    0    0  501    0  0.00000000000E+00  0.00000000000E+00  0.11777121668E+04  0.11777121668E+04  0.50400001928E-02 0. -1.
       -1   -1    0    0    0  501  0.00000000000E+00  0.00000000000E+00 -0.14095688906E+04  0.14095688906E+04  0.50400001928E-02 0.  1.
    10030    2    1    2    0    0  0.00000000000E+00  0.00000000000E+00 -0.23185672376E+03  0.25872810575E+04  0.25768713064E+04 0.  0.
        4    1    3    3  502    0  0.10858672766E+04  0.29637383628E+03  0.51359701596E+03  0.12372262125E+04  0.12699999809E+01 0. -1.
       -4    1    3    3    0  502 -0.10858672766E+04 -0.29637383628E+03 -0.74545373972E+03  0.13500548449E+04  0.12699999809E+01 0.  1.
</event>
<event>
 5   0  0.3812379E-06  0.3331541E+04  0.7818609E-02  0.8154916E-01
        2   -1    0    0  501    0  0.00000000000E+00  0.00000000000E+00  0.20477665210E+04  0.20477665210E+04  0.25500000920E-02 0.  1.
       -2   -1    0    0    0  501  0.00000000000E+00  0.00000000000E+00 -0.13550333516E+04  0.13550333516E+04  0.25500000920E-02 0. -1.
    10030    2    1    2    0    0  0.00000000000E+00  0.00000000000E+00  0.69273316943E+03  0.34027998726E+04  0.33315413443E+04 0.  0.
        5    1    3    3  502    0 -0.11281346913E+04  0.34794982385E+03 -0.85393413157E+03  0.14570458307E+04  0.46999998093E+01 0. -1.
       -5    1    3    3    0  502  0.11281346913E+04 -0.34794982385E+03  0.15466673010E+04  0.19457540419E+04  0.46999998093E+01 0.  1.
</event>
<event>
 5   0  0.3896210E-06  0.3324836E+04  0.7818609E-02  0.8156605E-01
       -2   -1    0    0    0  501  0.00000000000E+00  0.00000000000E+00  0.15320530327E+04  0.15320530327E+04  0.25500000920E-02 0.  1.
        2   -1    0    0  501    0  0.00000000000E+00  0.00000000000E+00 -0.18038754333E+04  0.18038754333E+04  0.25500000920E-02 0. -1.
    10030    2    1    2    0    0  0.00000000000E+00  0.00000000000E+00 -0.27182240057E+03  0.33359284661E+04  0.33248355317E+04 0.  0.
        3    1    3    3  502    0  0.14623391670E+04  0.77290647267E+03  0.31416202441E+02  0.16543298471E+04  0.10100000352E+00 0.  1.
       -3    1    3    3    0  502 -0.14623391670E+04 -0.77290647267E+03 -0.30323860302E+03  0.16815986190E+04  0.10100000352E+00 0. -1.
</event>
<event>
 5   0  0.3896210E-06  0.3371234E+04  0.7818609E-02  0.8145003E-01
        2   -1    0    0  501    0  0.00000000000E+00  0.00000000000E+00  0.19468085713E+04  0.19468085713E+04  0.25500000920E-02 0. -1.
       -2   -1    0    0    0  501  0.00000000000E+00  0.00000000000E+00 -0.14594683393E+04  0.14594683393E+04  0.25500000920E-02 0.  1.
    10030    2    1    2    0    0  0.00000000000E+00  0.00000000000E+00  0.48734023202E+03  0.34062769106E+04  0.33712344757E+04 0.  0.
        3    1    3    3  502    0 -0.19739110618E+03 -0.45790199998E+03  0.18705835395E+04  0.19359029622E+04  0.10100000352E+00 0. -1.
       -3    1    3    3    0  502  0.19739110618E+03  0.45790199998E+03 -0.13832433075E+04  0.14703739485E+04  0.10100000352E+00 0.  1.
</event>
<event>
 5   0  0.1352708E-06  0.3153422E+04  0.7818609E-02  0.8201228E-01
       -1   -1    0    0    0  501  0.00000000000E+00  0.00000000000E+00  0.18173656406E+04  0.18173656406E+04  0.50400001928E-02 0. -1.
        1   -1    0    0  501    0  0.00000000000E+00  0.00000000000E+00 -0.13679237023E+04  0.13679237024E+04  0.50400001928E-02 0.  1.
    10030    2    1    2    0    0  0.00000000000E+00  0.00000000000E+00  0.44944193827E+03  0.31852893430E+04  0.31534219734E+04 0.  0.
        5    1    3    3  502    0  0.67945428517E+03 -0.74596500455E+03  0.14485228571E+04  0.17653222004E+04  0.46999998093E+01 0. -1.
       -5    1    3    3    0  502 -0.67945428517E+03  0.74596500455E+03 -0.99908091884E+03  0.14199671426E+04  0.46999998093E+01 0.  1.
</event>
<event>
 5   0  0.3812379E-06  0.3392726E+04  0.7818609E-02  0.8139694E-01
       -2   -1    0    0    0  501  0.00000000000E+00  0.00000000000E+00  0.22656033325E+04  0.22656033325E+04  0.25500000920E-02 0. -1.
        2   -1    0    0  501    0  0.00000000000E+00  0.00000000000E+00 -0.12701462069E+04  0.12701462069E+04  0.25500000920E-02 0.  1.
    10030    2    1    2    0    0  0.00000000000E+00  0.00000000000E+00  0.99545712566E+03  0.35357495394E+04  0.33927260302E+04 0.  0.
        5    1    3    3  502    0  0.59844383343E+03 -0.92304378551E+02  0.21491331547E+04  0.22328122462E+04  0.46999998093E+01 0. -1.
       -5    1    3    3    0  502 -0.59844383343E+03  0.92304378551E+02 -0.11536760290E+04  0.13029372932E+04  0.46999998093E+01 0.  1.
</event>
<event>
 5   0  0.3896210E-06  0.3256658E+04  0.7818609E-02  0.8174012E-01
        2   -1    0    0  501    0  0.00000000000E+00  0.00000000000E+00  0.16871547266E+04  0.16871547266E+04  0.25500000920E-02 0. -1.
       -2   -1    0    0    0  501  0.00000000000E+00  0.00000000000E+00 -0.15715546052E+04  0.15715546052E+04  0.25500000920E-02 0.  1.
    10030    2    1    2    0    0  0.00000000000E+00  0.00000000000E+00  0.11560012150E+03  0.32587093318E+04  0.32566582751E+04 0.  0.
        3    1    3    3  502    0  0.62429039158E+03  0.91667660243E+03  0.12507846714E+04  0.16716748460E+04  0.10100000352E+00 0. -1.
       -3    1    3    3    0  502 -0.62429039158E+03 -0.91667660243E+03 -0.11351845499E+04  0.15870344858E+04  0.10100000352E+00 0.  1.
</event>
<event>
 5   0  0.1339825E-06  0.3138949E+04  0.7818609E-02  0.8205129E-01
        1   -1    0    0  501    0  0.00000000000E+00  0.00000000000E+00  0.11022650162E+04  0.11022650162E+04  0.50400001928E-02 0.  1.
       -1   -1    0    0    0  501  0.00000000000E+00  0.00000000000E+00 -0.22347164579E+04  0.22347164579E+04  0.50400001928E-02 0. -1.
    10030    2    1    2    0    0  0.00000000000E+00  0.00000000000E+00 -0.11324514417E+04  0.33369814742E+04  0.31389487239E+04 0.  0.
        3    1    3    3  502    0  0.44069062730E+03 -0.13094212969E+04  0.22537041695E+03  0.13998514910E+04  0.10100000352E+00 0.  1.
       -3    1    3    3    0  502 -0.44069062730E+03  0.13094212969E+04 -0.13578218587E+04  0.19371299832E+04  0.10100000352E+00 0. -1.
</event>
<event>
 5   0  0.1339825E-06  0.3269521E+04  0.7818609E-02  0.8170694E-01
        1   -1    0    0  501    0  0.00000000000E+00  0.00000000000E+00  0.19150691399E+04  0.19150691399E+04  0.50400001928E-02 0.  1.
       -1   -1    0    0    0  501  0.00000000000E+00  0.00000000000E+00 -0.13954807245E+04  0.13954807245E+04  0.50400001928E-02 0. -1.
    10030    2    1    2    0    0  0.00000000000E+00  0.00000000000E+00  0.51958841539E+03  0.33105498645E+04  0.32695211093E+04 0.  0.
        3    1    3    3  502    0  0.47659827892E+03 -0.47176598124E+03  0.17693863854E+04  0.18922043366E+04  0.10100000352E+00 0.  1.
       -3    1    3    3    0  502 -0.47659827892E+03  0.47176598124E+03 -0.12497979700E+04  0.14183455279E+04  0.10100000352E+00 0. -1.
</event>
<event>
 5   0  0.1282578E-06  0.2107291E+04  0.7818609E-02  0.8558038E-01
       -1   -1    0    0    0  501  0.00000000000E+00  0.00000000000E+00  0.99267441036E+03  0.99267441037E+03  0.50400001928E-02 0.  1.
        1   -1    0    0  501    0  0.00000000000E+00  0.00000000000E+00 -0.11183613499E+04  0.11183613499E+04  0.50400001928E-02 0. -1.
    10030    2    1    2    0    0  0.00000000000E+00  0.00000000000E+00 -0.12568693953E+03  0.21110357603E+04  0.21072908614E+04 0.  0.
        4    1    3    3  502    0  0.12409939957E+03  0.57143045608E+03 -0.94089048410E+03  0.11077950817E+04  0.12699999809E+01 0. -1.
       -4    1    3    3    0  502 -0.12409939957E+03 -0.57143045608E+03  0.81520354457E+03  0.10032406785E+04  0.12699999809E+01 0.  1.
</event>
<event>
 5   0  0.4017247E-06  0.3277457E+04  0.7818609E-02  0.8168655E-01
        2   -1    0    0  501    0  0.00000000000E+00  0.00000000000E+00  0.20528757406E+04  0.20528757406E+04  0.25500000920E-02 0. -1.
       -2   -1    0    0    0  501  0.00000000000E+00  0.00000000000E+00 -0.13081313467E+04  0.13081313467E+04  0.25500000920E-02 0.  1.
    10030    2    1    2    0    0  0.00000000000E+00  0.00000000000E+00  0.74474439391E+03  0.33610070873E+04  0.32774570064E+04 0.  0.
        1    1    3    3  502    0  0.77550285941E+03 -0.86337531625E+03  0.15588493341E+04  0.19434075404E+04  0.50400001928E-02 0. -1.
       -1    1    3    3    0  502 -0.77550285941E+03  0.86337531625E+03 -0.81410494020E+03  0.14175995469E+04  0.50400001928E-02 0.  1.
</event>
<event>
 5   0  0.3812379E-06  0.3340206E+04  0.7818609E-02  0.8152740E-01
       -2   -1    0    0    0  501  0.00000000000E+00  0.00000000000E+00  0.10037457541E+04  0.10037457541E+04  0.25500000920E-02 0. -1.
        2   -1    0    0  501    0  0.00000000000E+00  0.00000000000E+00 -0.27788344135E+04  0.27788344135E+04  0.25500000920E-02 0.  1.
    10030    2    1    2    0    0  0.00000000000E+00  0.00000000000E+00 -0.17750886594E+04  0.37825801675E+04  0.33402055289E+04 0.  0.
        5    1    3    3  502    0  0.10214291480E+04  0.13162235621E+04 -0.75616582519E+03  0.18296367987E+04  0.46999998093E+01 0.  1.
       -5    1    3    3    0  502 -0.10214291480E+04 -0.13162235621E+04 -0.10189228342E+04  0.19529433689E+04  0.46999998093E+01 0. -1.
</event>
<event>
 5   0  0.3671997E-06  0.3350873E+04  0.7818609E-02  0.8150070E-01
       -2   -1    0    0    0  501  0.00000000000E+00  0.00000000000E+00  0.86417203983E+03  0.86417203983E+03  0.25500000920E-02 0. -1.
        2   -1    0    0  501    0  0.00000000000E+00  0.00000000000E+00 -0.32482962092E+04  0.32482962092E+04  0.25500000920E-02 0.  1.
    10030    2    1    2    0    0  0.00000000000E+00  0.00000000000E+00 -0.23841241694E+04  0.41124682491E+04  0.33508725796E+04 0.  0.
        2    1    3    3  502    0  0.90274556029E+02 -0.10899130071E+04 -0.27498059180E+04  0.29593060750E+04  0.25500000920E-02 0. -1.
       -2    1    3    3    0  502 -0.90274556029E+02  0.10899130071E+04  0.36568174862E+03  0.11531621741E+04  0.25500000920E-02 0.  1.
</event>
<event>
 5   0  0.3896210E-06  0.3247586E+04  0.7818609E-02  0.8176362E-01
        2   -1    0    0  501    0  0.00000000000E+00  0.00000000000E+00  0.20043054466E+04  0.20043054466E+04  0.25500000920E-02 0. -1.
       -2   -1    0    0    0  501  0.00000000000E+00  0.00000000000E+00 -0.13155199379E+04  0.13155199379E+04  0.25500000920E-02 0.  1.
    10030    2    1    2    0    0  0.00000000000E+00  0.00000000000E+00  0.68878550873E+03  0.33198253844E+04  0.32475860429E+04 0.  0.
        3    1    3    3  502    0  0.16207093737E+04 -0.28019244099E+02  0.44254848470E+03  0.16802776924E+04  0.10100000352E+00 0. -1.
       -3    1    3    3    0  502 -0.16207093737E+04  0.28019244099E+02  0.24623702402E+03  0.16395476920E+04  0.10100000352E+00 0.  1.
</event>
<event>
 5   0  0.1282578E-06  0.3347374E+04  0.7818609E-02  0.8150945E-01
       -1   -1    0    0    0  501  0.00000000000E+00  0.00000000000E+00  0.13450060897E+04  0.13450060898E+04  0.50400001928E-02 0. -1.
        1   -1    0    0  501    0  0.00000000000E+00  0.00000000000E+00 -0.20826876634E+04  0.20826876634E+04  0.50400001928E-02 0.  1.
    10030    2    1    2    0    0  0.00000000000E+00  0.00000000000E+00 -0.73768157361E+03  0.34276937531E+04  0.33473736513E+04 0.  0.
        4    1    3    3  502    0  0.25568743356E+03 -0.14715112910E+04 -0.11422820391E+04  0.18803008836E+04  0.12699999809E+01 0.  1.
       -4    1    3    3    0  502 -0.25568743356E+03  0.14715112910E+04  0.40460046545E+03  0.15473928695E+04  0.12699999809E+01 0. -1.
</event>
<event>
 5   0  0.1405389E-06  0.3381233E+04  0.7818609E-02  0.8142528E-01
        1   -1    0    0  501    0  0.00000000000E+00  0.00000000000E+00  0.16799295435E+04  0.16799295435E+04  0.50400001928E-02 0. -1.
       -1   -1    0    0    0  501  0.00000000000E+00  0.00000000000E+00 -0.17013717178E+04  0.17013717178E+04  0.50400001928E-02 0.  1.
    10030    2    1    2    0    0  0.00000000000E+00  0.00000000000E+00 -0.21442174335E+02  0.33813012613E+04  0.33812332739E+04 0.  0.
        1    1    3    3  502    0 -0.24421600565E+03 -0.16020896578E+04 -0.49224077324E+03  0.16937041382E+04  0.50400001928E-02 0.  1.
       -1    1    3    3    0  502  0.24421600565E+03  0.16020896578E+04  0.47079859891E+03  0.16875971231E+04  0.50400001928E-02 0. -1.
</event>
<event>
 5   0  0.3896210E-06  0.2019050E+04  0.7818609E-02  0.8597765E-01
       -2   -1    0    0    0  501  0.00000000000E+00  0.00000000000E+00  0.69264160533E+03  0.69264160534E+03  0.25500000920E-02 0. -1.
        2   -1    0    0  501    0  0.00000000000E+00  0.00000000000E+00 -0.14713830831E+04  0.14713830831E+04  0.25500000920E-02 0.  1.
    10030    2    1    2    0    0  0.00000000000E+00  0.00000000000E+00 -0.77874147781E+03  0.21640246885E+04  0.20190504112E+04 0.  0.
        3    1    3    3  502    0 -0.90564122218E+03  0.10436118779E+03 -0.85417244095E+03  0.12492749297E+04  0.10100000352E+00 0.  1.
       -3    1    3    3    0  502  0.90564122218E+03 -0.10436118779E+03  0.75430963145E+02  0.91474975880E+03  0.10100000352E+00 0. -1.
</event>
<event>
 5   0  0.3812379E-06  0.2178069E+04  0.7818609E-02  0.8527612E-01
       -2   -1    0    0    0  501  0.00000000000E+00  0.00000000000E+00  0.87365523007E+03  0.87365523007E+03  0.25500000920E-02 0.  1.
        2   -1    0    0  501    0  0.00000000000E+00  0.00000000000E+00 -0.13575104082E+04  0.13575104082E+04  0.25500000920E-02 0. -1.
    10030    2    1    2    0    0  0.00000000000E+00  0.00000000000E+00 -0.48385517817E+03  0.22311656383E+04  0.21780689319E+04 0.  0.
        5    1    3    3  502    0 -0.85211693669E+03  0.52010459538E+03 -0.68769314736E+03  0.12122524567E+04  0.46999998093E+01 0. -1.
       -5    1    3    3    0  502  0.85211693669E+03 -0.52010459538E+03  0.20383796918E+03  0.10189131816E+04  0.46999998093E+01 0.  1.
</event>
<event>
 5   0  0.1339825E-06  0.3313789E+04  0.7818609E-02  0.8159396E-01
       -1   -1    0    0    0  501  0.00000000000E+00  0.00000000000E+00  0.14005291342E+04  0.14005291342E+04  0.50400001928E-02 0.  1.
        1   -1    0    0  501    0  0.00000000000E+00  0.00000000000E+00 -0.19601876766E+04  0.19601876766E+04  0.50400001928E-02 0. -1.
    10030    2    1    2    0    0  0.00000000000E+00  0.00000000000E+00 -0.55965854243E+03  0.33607168107E+04  0.33137893412E+04 0.  0.
        3    1    3    3  502    0 -0.13149966801E+04  0.66449278258E+03  0.48888424237E+03  0.15523449164E+04  0.10100000352E+00 0.  1.
       -3    1    3    3    0  502  0.13149966801E+04 -0.66449278258E+03 -0.10485427848E+04  0.18083718944E+04  0.10100000352E+00 0. -1.
</event>
<event>
 5   0  0.1282578E-06  0.3328182E+04  0.7818609E-02  0.8155761E-01
       -1   -1    0    0    0  501  0.00000000000E+00  0.00000000000E+00  0.16157088800E+04  0.16157088800E+04  0.50400001928E-02 0. -1.
        1   -1    0    0  501    0  0.00000000000E+00  0.00000000000E+00 -0.17139217104E+04  0.17139217105E+04  0.50400001928E-02 0.  1.
    10030    2    1    2    0    0  0.00000000000E+00  0.00000000000E+00 -0.98212830475E+02  0.33296305904E+04  0.33281818022E+04 0.  0.
        4    1    3    3  502    0  0.15132163180E+04  0.67359150876E+03  0.11111250606E+03  0.16600893794E+04  0.12699999809E+01 0. -1.
       -4    1    3    3    0  502 -0.15132163180E+04 -0.67359150876E+03 -0.20932533654E+03  0.16695412110E+04  0.12699999809E+01 0.  1.
</event>
<event>
 5   0  0.1391878E-06  0.3061742E+04  0.7818609E-02  0.8226317E-01
       -1   -1    0    0    0  501  0.00000000000E+00  0.00000000000E+00  0.10759891078E+04  0.10759891078E+04  0.50400001928E-02 0. -1.
        1   -1    0    0  501    0  0.00000000000E+00  0.00000000000E+00 -0.21780567975E+04  0.21780567975E+04  0.50400001928E-02 0.  1.
    10030    2    1    2    0    0  0.00000000000E+00  0.00000000000E+00 -0.11020676897E+04  0.32540459053E+04  0.30617415895E+04 0.  0.
        2    1    3    3  502    0 -0.84667374378E+03 -0.11484482407E+04  0.38586194241E+02  0.14273327168E+04  0.25500000920E-02 0. -1.
       -2    1    3    3    0  502  0.84667374378E+03  0.11484482407E+04 -0.11406538839E+04  0.18267131885E+04  0.25500000920E-02 0.  1.
</event>
<event>
 5   0  0.3920487E-06  0.3484760E+04  0.7818609E-02  0.8117411E-01
        2   -1    0    0  501    0  0.00000000000E+00  0.00000000000E+00  0.29023315975E+04  0.29023315975E+04  0.25500000920E-02 0. -1.
       -2   -1    0    0    0  501  0.00000000000E+00  0.00000000000E+00 -0.10460169012E+04  0.10460169012E+04  0.25500000920E-02 0.  1.
    10030    2    1    2    0    0  0.00000000000E+00  0.00000000000E+00  0.18563146963E+04  0.39483484987E+04  0.34847599079E+04 0.  0.
        4    1    3    3  502    0 -0.78093903801E+03 -0.12015690924E+04 -0.19477638356E+03  0.14462273394E+04  0.12699999809E+01 0.  1.
       -4    1    3    3    0  502  0.78093903801E+03  0.12015690924E+04  0.20510910798E+04  0.25021211592E+04  0.12699999809E+01 0. -1.
</event>
<event>
 5   0  0.1352708E-06  0.2460817E+04  0.7818609E-02  0.8417079E-01
        1   -1    0    0  501    0  0.00000000000E+00  0.00000000000E+00  0.17161800934E+04  0.17161800934E+04  0.50400001928E-02 0. -1.
       -1   -1    0    0    0  501  0.00000000000E+00  0.00000000000E+00 -0.88213629478E+03  0.88213629479E+03  0.50400001928E-02 0.  1.
    10030    2    1    2    0    0  0.00000000000E+00  0.00000000000E+00  0.83404379865E+03  0.25983163882E+04  0.24608167334E+04 0.  0.
        5    1    3    3  502    0 -0.45159207543E+03  0.10956581237E+04  0.76638836089E+03  0.14113027089E+04  0.46999998093E+01 0. -1.
       -5    1    3    3    0  502  0.45159207543E+03 -0.10956581237E+04  0.67655437758E+02  0.11870136793E+04  0.46999998093E+01 0.  1.
</event>
<event>
 5   0  0.3812379E-06  0.2137495E+04  0.7818609E-02  0.8544904E-01
       -2   -1    0    0    0  501  0.00000000000E+00  0.00000000000E+00  0.50365082658E+03  0.50365082658E+03  0.25500000920E-02 0.  1.
        2   -1    0    0  501    0  0.00000000000E+00  0.00000000000E+00 -0.22678827258E+04  0.22678827258E+04  0.25500000920E-02 0. -1.
    10030    2    1    2    0    0  0.00000000000E+00  0.00000000000E+00 -0.17642318992E+04  0.27715335523E+04  0.21374948041E+04 0.  0.
        5    1    3    3  502    0  0.69135243484E+03 -0.29580890227E+03  0.10257631176E+03  0.75895657686E+03  0.46999998093E+01 0.  1.
       -5    1    3    3    0  502 -0.69135243484E+03  0.29580890227E+03 -0.18668082109E+04  0.20125769755E+04  0.46999998093E+01 0. -1.
</event>
<event>
 5   0  0.1391878E-06  0.3332698E+04  0.7818609E-02  0.8154625E-01
       -1   -1    0    0    0  501  0.00000000000E+00  0.00000000000E+00  0.22167086860E+04  0.22167086860E+04  0.50400001928E-02 0. -1.
        1   -1    0    0  501    0  0.00000000000E+00  0.00000000000E+00 -0.12526312601E+04  0.12526312601E+04  0.50400001928E-02 0.  1.
    10030    2    1    2    0    0  0.00000000000E+00  0.00000000000E+00  0.96407742587E+03  0.34693399460E+04  0.33326977628E+04 0.  0.
        2    1    3    3  502    0  0.13542869630E+04  0.38484016259E+03  0.14099453707E+04  0.19925212865E+04  0.25500000920E-02 0. -1.
       -2    1    3    3    0  502 -0.13542869630E+04 -0.38484016259E+03 -0.44586794481E+03  0.14768186595E+04  0.25500000920E-02 0.  1.
</event>
<event>
 5   0  0.4017247E-06  0.3349812E+04  0.7818609E-02  0.8150335E-01
       -2   -1    0    0    0  501  0.00000000000E+00  0.00000000000E+00  0.96613484405E+03  0.96613484406E+03  0.25500000920E-02 0. -1.
        2   -1    0    0  501    0  0.00000000000E+00  0.00000000000E+00 -0.29036420272E+04  0.29036420272E+04  0.25500000920E-02 0.  1.
    10030    2    1    2    0    0  0.00000000000E+00  0.00000000000E+00 -0.19375071832E+04  0.38697768713E+04  0.33498117781E+04 0.  0.
        1    1    3    3  502    0  0.79012317537E+03 -0.83641491351E+03  0.43731136033E+03  0.12309044503E+04  0.50400001928E-02 0. -1.
       -1    1    3    3    0  502 -0.79012317537E+03  0.83641491351E+03 -0.23748185435E+04  0.26388724210E+04  0.50400001928E-02 0.  1.
</event>
<event>
 5   0  0.1352708E-06  0.3320816E+04  0.7818609E-02  0.8157619E-01
       -1   -1    0    0    0  501  0.00000000000E+00  0.00000000000E+00  0.12930060786E+04  0.12930060786E+04  0.50400001928E-02 0. -1.
        1   -1    0    0  501    0  0.00000000000E+00  0.00000000000E+00 -0.21322049601E+04  0.21322049601E+04  0.50400001928E-02 0.  1.
    10030    2    1    2    0    0  0.00000000000E+00  0.00000000000E+00 -0.83919888147E+03  0.34252110388E+04  0.33208155470E+04 0.  0.
        5    1    3    3  502    0 -0.49873514694E+03  0.10711427079E+04 -0.16228261415E+04  0.20074038515E+04  0.46999998093E+01 0.  1.
       -5    1    3    3    0  502  0.49873514694E+03 -0.10711427079E+04  0.78362726003E+03  0.14178071872E+04  0.46999998093E+01 0. -1.
</event>
<event>
 5   0  0.1391878E-06  0.3295031E+04  0.7818609E-02  0.8164161E-01
        1   -1    0    0  501    0  0.00000000000E+00  0.00000000000E+00  0.18441204987E+04  0.18441204987E+04  0.50400001928E-02 0. -1.
       -1   -1    0    0    0  501  0.00000000000E+00  0.00000000000E+00 -0.14718713378E+04  0.14718713379E+04  0.50400001928E-02 0.  1.
    10030    2    1    2    0    0  0.00000000000E+00  0.00000000000E+00  0.37224916086E+03  0.33159918366E+04  0.32950314752E+04 0.  0.
        2    1    3    3  502    0  0.25193329671E+03 -0.13542838629E+04 -0.72336816234E+03  0.15558973828E+04  0.25500000920E-02 0.  1.
       -2    1    3    3    0  502 -0.25193329671E+03  0.13542838629E+04  0.10956173232E+04  0.17600944538E+04  0.25500000920E-02 0. -1.
</event>
<event>
 5   0  0.3671997E-06  0.2082622E+04  0.7818609E-02  0.8568937E-01
        2   -1    0    0  501    0  0.00000000000E+00  0.00000000000E+00  0.87739553337E+03  0.87739553337E+03  0.25500000920E-02 0.  1.
       -2   -1    0    0    0  501  0.00000000000E+00  0.00000000000E+00 -0.12358492835E+04  0.12358492835E+04  0.25500000920E-02 0. -1.
    10030    2    1    2    0    0  0.00000000000E+00  0.00000000000E+00 -0.35845375016E+03  0.21132448169E+04  0.20826220409E+04 0.  0.
        2    1    3    3  502    0  0.54202775027E+03 -0.81185127879E+03 -0.54709318011E+03  0.11190207901E+04  0.25500000920E-02 0.  1.
       -2    1    3    3    0  502 -0.54202775027E+03  0.81185127879E+03  0.18863942995E+03  0.99422402681E+03  0.25500000920E-02 0. -1.
</event>
<event>
 5   0  0.3671997E-06  0.2987275E+04  0.7818609E-02  0.8247374E-01
        2   -1    0    0  501    0  0.00000000000E+00  0.00000000000E+00  0.12655813299E+04  0.12655813299E+04  0.25500000920E-02 0. -1.
       -2   -1    0    0    0  501  0.00000000000E+00  0.00000000000E+00 -0.17627892182E+04  0.17627892182E+04  0.25500000920E-02 0.  1.
    10030    2    1    2    0    0  0.00000000000E+00  0.00000000000E+00 -0.49720788834E+03  0.30283705481E+04  0.29872750948E+04 0.  0.
        2    1    3    3  502    0  0.11590837340E+04 -0.94131907871E+03 -0.28648662265E+03  0.15204049774E+04  0.25500000920E-02 0.  1.
       -2    1    3    3    0  502 -0.11590837340E+04  0.94131907871E+03 -0.21072126569E+03  0.15079655707E+04  0.25500000920E-02 0. -1.
</event>
<event>
 5   0  0.3920487E-06  0.3354591E+04  0.7818609E-02  0.8149142E-01
       -2   -1    0    0    0  501  0.00000000000E+00  0.00000000000E+00  0.13168815799E+04  0.13168815799E+04  0.25500000920E-02 0. -1.
        2   -1    0    0  501    0  0.00000000000E+00  0.00000000000E+00 -0.21363506870E+04  0.21363506870E+04  0.25500000920E-02 0.  1.
    10030    2    1    2    0    0  0.00000000000E+00  0.00000000000E+00 -0.81946910707E+03  0.34532322669E+04  0.33545914016E+04 0.  0.
        4    1    3    3  502    0 -0.72287132700E+02 -0.33301464303E+03 -0.21003402954E+04  0.21278052429E+04  0.12699999809E+01 0.  1.
       -4    1    3    3    0  502  0.72287132700E+02  0.33301464303E+03  0.12808711884E+04  0.13254270241E+04  0.12699999809E+01 0. -1.
</event>
<event>
 5   0  0.3671997E-06  0.3082001E+04  0.7818609E-02  0.8220695E-01
        2   -1    0    0  501    0  0.00000000000E+00  0.00000000000E+00  0.30032116867E+04  0.30032116867E+04  0.25500000920E-02 0. -1.
       -2   -1    0    0    0  501  0.00000000000E+00  0.00000000000E+00 -0.79071409552E+03  0.79071409553E+03  0.25500000920E-02 0.  1.
    10030    2    1    2    0    0  0.00000000000E+00  0.00000000000E+00  0.22124975912E+04  0.37939257822E+04  0.30820005273E+04 0.  0.
        2    1    3    3  502    0  0.11572852457E+04  0.62726695741E+02  0.23564436098E+04  0.26260369884E+04  0.25500000920E-02 0. -1.
       -2    1    3    3    0  502 -0.11572852457E+04 -0.62726695741E+02 -0.14394601866E+03  0.11678887938E+04  0.25500000920E-02 0.  1.
</event>
<event>
 5   0  0.3671997E-06  0.3127163E+04  0.7818609E-02  0.8208322E-01
       -2   -1    0    0    0  501  0.00000000000E+00  0.00000000000E+00  0.11680677501E+04  0.11680677501E+04  0.25500000920E-02 0. -1.
        2   -1    0    0  501    0  0.00000000000E+00  0.00000000000E+00 -0.20930188729E+04  0.20930188729E+04  0.25500000920E-02 0.  1.
    10030    2    1    2    0    0  0.00000000000E+00  0.00000000000E+00 -0.92495112279E+03  0.32610866230E+04  0.31271634724E+04 0.  0.
        2    1    3    3  502    0  0.10809040462E+04 -0.10838465471E+04 -0.12989596055E+03  0.15362128288E+04  0.25500000920E-02 0.  1.
       -2    1    3    3    0  502 -0.10809040462E+04  0.10838465471E+04 -0.79505516224E+03  0.17248737942E+04  0.25500000920E-02 0. -1.
</event>
<event>
 5   0  0.3896210E-06  0.3336105E+04  0.7818609E-02  0.8153769E-01
        2   -1    0    0  501    0  0.00000000000E+00  0.00000000000E+00  0.19808345902E+04  0.19808345902E+04  0.25500000920E-02 0. -1.
       -2   -1    0    0    0  501  0.00000000000E+00  0.00000000000E+00 -0.14046596562E+04  0.14046596562E+04  0.25500000920E-02 0.  1.
    10030    2    1    2    0    0  0.00000000000E+00  0.00000000000E+00  0.57617493400E+03  0.33854942465E+04  0.33361045755E+04 0.  0.
        3    1    3    3  502    0 -0.23600007989E+03  0.44497011673E+02  0.19631983319E+04  0.19778330876E+04  0.10100000352E+00 0. -1.
       -3    1    3    3    0  502  0.23600007989E+03 -0.44497011673E+02 -0.13870233979E+04  0.14076611589E+04  0.10100000352E+00 0.  1.
</event>
<event>
 5   0  0.1282578E-06  0.3319546E+04  0.7818609E-02  0.8157940E-01
       -1   -1    0    0    0  501  0.00000000000E+00  0.00000000000E+00  0.10604496746E+04  0.10604496747E+04  0.50400001928E-02 0. -1.
        1   -1    0    0  501    0  0.00000000000E+00  0.00000000000E+00 -0.25978095591E+04  0.25978095591E+04  0.50400001928E-02 0.  1.
    10030    2    1    2    0    0  0.00000000000E+00  0.00000000000E+00 -0.15373598845E+04  0.36582592338E+04  0.33195459339E+04 0.  0.
        4    1    3    3  502    0 -0.62755720418E+03 -0.24046877917E+03  0.90379958797E+03  0.11262808648E+04  0.12699999809E+01 0. -1.
       -4    1    3    3    0  502  0.62755720418E+03  0.24046877917E+03 -0.24411594724E+04  0.25319783690E+04  0.12699999809E+01 0.  1.
</event>
<event>
 5   0  0.1405389E-06  0.3290771E+04  0.7818609E-02  0.8165248E-01
       -1   -1    0    0    0  501  0.00000000000E+00  0.00000000000E+00  0.16321311051E+04  0.16321311051E+04  0.50400001928E-02 0.  1.
        1   -1    0    0  501    0  0.00000000000E+00  0.00000000000E+00 -0.16587471035E+04  0.16587471035E+04  0.50400001928E-02 0. -1.
    10030    2    1    2    0    0  0.00000000000E+00  0.00000000000E+00 -0.26615998427E+02  0.32908782087E+04  0.32907705743E+04 0.  0.
        1    1    3    3  502    0 -0.62178487305E+03 -0.69376963619E+03 -0.13695824302E+04  0.16564083945E+04  0.50400001928E-02 0. -1.
       -1    1    3    3    0  502  0.62178487305E+03  0.69376963619E+03  0.13429664317E+04  0.16344698141E+04  0.50400001928E-02 0.  1.
</event>
<event>
 5   0  0.1339825E-06  0.3332005E+04  0.7818609E-02  0.8154799E-01
       -1   -1    0    0    0  501  0.00000000000E+00  0.00000000000E+00  0.21315798565E+04  0.21315798565E+04  0.50400001928E-02 0. -1.
        1   -1    0    0  501    0  0.00000000000E+00  0.00000000000E+00 -0.13021163981E+04  0.13021163981E+04  0.50400001928E-02 0.  1.
    10030    2    1    2    0    0  0.00000000000E+00  0.00000000000E+00  0.82946345839E+03  0.34336962545E+04  0.33320054531E+04 0.  0.
        3    1    3    3  502    0 -0.68508766174E+02  0.16643597988E+04  0.38598626338E+03  0.17099042069E+04  0.10100000352E+00 0.  1.
       -3    1    3    3    0  502  0.68508766174E+02 -0.16643597988E+04  0.44347719500E+03  0.17237920477E+04  0.10100000352E+00 0. -1.
</event>
<event>
 5   0  0.1391878E-06  0.3163962E+04  0.7818609E-02  0.8198400E-01
        1   -1    0    0  501    0  0.00000000000E+00  0.00000000000E+00  0.21389679792E+04  0.21389679792E+04  0.50400001928E-02 0. -1.
       -1   -1    0    0    0  501  0.00000000000E+00  0.00000000000E+00 -0.11700330093E+04  0.11700330093E+04  0.50400001928E-02 0.  1.
    10030    2    1    2    0    0  0.00000000000E+00  0.00000000000E+00  0.96893496996E+03  0.33090009885E+04  0.31639615304E+04 0.  0.
        2    1    3    3  502    0  0.11272665700E+04 -0.91143506874E+03 -0.17798789348E+03  0.14605216516E+04  0.25500000920E-02 0.  1.
       -2    1    3    3    0  502 -0.11272665700E+04  0.91143506874E+03  0.11469228634E+04  0.18484793369E+04  0.25500000920E-02 0. -1.
</event>
<event>
 5   0  0.1339825E-06  0.3309913E+04  0.7818609E-02  0.8160378E-01
       -1   -1    0    0    0  501  0.00000000000E+00  0.00000000000E+00  0.13824266934E+04  0.13824266934E+04  0.50400001928E-02 0.  1.
        1   -1    0    0  501    0  0.00000000000E+00  0.00000000000E+00 -0.19812127207E+04  0.19812127207E+04  0.50400001928E-02 0. -1.
    10030    2    1    2    0    0  0.00000000000E+00  0.00000000000E+00 -0.59878602729E+03  0.33636394141E+04  0.33099132015E+04 0.  0.
        3    1    3    3  502    0 -0.96669738523E+03  0.12065871717E+04 -0.89933566072E+03  0.17886198809E+04  0.10100000352E+00 0. -1.
       -3    1    3    3    0  502  0.96669738523E+03 -0.12065871717E+04  0.30054963344E+03  0.15750195332E+04  0.10100000352E+00 0.  1.
</event>
<event>
 5   0  0.3920487E-06  0.2116268E+04  0.7818609E-02  0.8554111E-01
       -2   -1    0    0    0  501  0.00000000000E+00  0.00000000000E+00  0.23258034160E+04  0.23258034160E+04  0.25500000920E-02 0.  1.
        2   -1    0    0  501    0  0.00000000000E+00  0.00000000000E+00 -0.48140239931E+03  0.48140239931E+03  0.25500000920E-02 0. -1.
    10030    2    1    2    0    0  0.00000000000E+00  0.00000000000E+00  0.18444010167E+04  0.28072058153E+04  0.21162677947E+04 0.  0.
        4    1    3    3  502    0  0.66958015619E+03 -0.65787967663E+03  0.27438688149E+03  0.97797394041E+03  0.12699999809E+01 0. -1.
       -4    1    3    3    0  502 -0.66958015619E+03  0.65787967663E+03  0.15700141352E+04  0.18292318749E+04  0.12699999809E+01 0.  1.
</event>
<event>
 5   0  0.3920487E-06  0.2114082E+04  0.7818609E-02  0.8555065E-01
        2   -1    0    0  501    0  0.00000000000E+00  0.00000000000E+00  0.98536509120E+03  0.98536509121E+03  0.25500000920E-02 0. -1.
       -2   -1    0    0    0  501  0.00000000000E+00  0.00000000000E+00 -0.11339307507E+04  0.11339307507E+04  0.25500000920E-02 0.  1.
    10030    2    1    2    0    0  0.00000000000E+00  0.00000000000E+00 -0.14856565946E+03  0.21192958419E+04  0.21140820964E+04 0.  0.
        4    1    3    3  502    0  0.94354521362E+03  0.33639704913E+03 -0.41259641364E+03  0.10833641854E+04  0.12699999809E+01 0.  1.
       -4    1    3    3    0  502 -0.94354521362E+03 -0.33639704913E+03  0.26403075417E+03  0.10359316565E+04  0.12699999809E+01 0. -1.
</event>
<event>
 5   0  0.3671997E-06  0.3467585E+04  0.7818609E-02  0.8121515E-01
        2   -1    0    0  501    0  0.00000000000E+00  0.00000000000E+00  0.17498298510E+04  0.17498298510E+04  0.25500000920E-02 0.  1.
       -2   -1    0    0    0  501  0.00000000000E+00  0.00000000000E+00 -0.17179021832E+04  0.17179021832E+04  0.25500000920E-02 0. -1.
    10030    2    1    2    0    0  0.00000000000E+00  0.00000000000E+00  0.31927667769E+02  0.34677320342E+04  0.34675850509E+04 0.  0.
        2    1    3    3  502    0  0.48065853860E+03  0.16214384789E+04  0.39800247383E+03  0.17373834754E+04  0.25500000920E-02 0.  1.
       -2    1    3    3    0  502 -0.48065853860E+03 -0.16214384789E+04 -0.36607480606E+03  0.17303485588E+04  0.25500000920E-02 0. -1.
</event>
<event>
 5   0  0.1259875E-06  0.3122737E+04  0.7818609E-02  0.8209525E-01
       -3   -1    0    0    0  501  0.00000000000E+00  0.00000000000E+00  0.16130055191E+04  0.16130055222E+04  0.10100000352E+00 0.  1.
        3   -1    0    0  501    0  0.00000000000E+00  0.00000000000E+00 -0.15113848239E+04  0.15113848273E+04  0.10100000352E+00 0. -1.
    10030    2    1    2    0    0  0.00000000000E+00  0.00000000000E+00  0.10162069515E+03  0.31243903495E+04  0.31227373073E+04 0.  0.
        1    1    3    3  502    0 -0.11905838019E+04 -0.21556556947E+03  0.10382034492E+04  0.15943101035E+04  0.50400001928E-02 0.  1.
       -1    1    3    3    0  502  0.11905838019E+04  0.21556556947E+03 -0.93658275405E+03  0.15300802461E+04  0.50400001928E-02 0. -1.
</event>
<event>
 5   0  0.1282578E-06  0.2787487E+04  0.7818609E-02  0.8307164E-01
        1   -1    0    0  501    0  0.00000000000E+00  0.00000000000E+00  0.18268641839E+04  0.18268641839E+04  0.50400001928E-02 0. -1.
       -1   -1    0    0    0  501  0.00000000000E+00  0.00000000000E+00 -0.10633085317E+04  0.10633085317E+04  0.50400001928E-02 0.  1.
    10030    2    1    2    0    0  0.00000000000E+00  0.00000000000E+00  0.76355565216E+03  0.28901727156E+04  0.27874865187E+04 0.  0.
        4    1    3    3  502    0 -0.10951468318E+04  0.68838757732E+03 -0.15627492963E+03  0.13029380286E+04  0.12699999809E+01 0.  1.
       -4    1    3    3    0  502  0.10951468318E+04 -0.68838757732E+03  0.91983058179E+03  0.15872346871E+04  0.12699999809E+01 0. -1.
</event>
<event>
 5   0  0.1339825E-06  0.3409948E+04  0.7818609E-02  0.8135469E-01
        1   -1    0    0  501    0  0.00000000000E+00  0.00000000000E+00  0.21866414526E+04  0.21866414526E+04  0.50400001928E-02 0. -1.
       -1   -1    0    0    0  501  0.00000000000E+00  0.00000000000E+00 -0.13294068136E+04  0.13294068136E+04  0.50400001928E-02 0.  1.
    10030    2    1    2    0    0  0.00000000000E+00  0.00000000000E+00  0.85723463896E+03  0.35160482662E+04  0.34099478272E+04 0.  0.
        3    1    3    3  502    0  0.14065614146E+04  0.25364167810E+03  0.13871588600E+04  0.19917225778E+04  0.10100000352E+00 0. -1.
       -3    1    3    3    0  502 -0.14065614146E+04 -0.25364167810E+03 -0.52992422108E+03  0.15243256884E+04  0.10100000352E+00 0.  1.
</event>
<event>
 5   0  0.1282578E-06  0.2847207E+04  0.7818609E-02  0.8288761E-01
        1   -1    0    0  501    0  0.00000000000E+00  0.00000000000E+00  0.18476420294E+04  0.18476420294E+04  0.50400001928E-02 0.  1.
       -1   -1    0    0    0  501  0.00000000000E+00  0.00000000000E+00 -0.10968827546E+04  0.10968827546E+04  0.50400001928E-02 0. -1.
    10030    2    1    2    0    0  0.00000000000E+00  0.00000000000E+00  0.75075927477E+03  0.29445247840E+04  0.28472068269E+04 0.  0.
        4    1    3    3  502    0 -0.11772258070E+04  0.71265031179E+03  0.75241454348E+03  0.15683941869E+04  0.12699999809E+01 0.  1.
       -4    1    3    3    0  502  0.11772258070E+04 -0.71265031179E+03 -0.16552687054E+01  0.13761305971E+04  0.12699999809E+01 0. -1.
</event>
<event>
 5   0  0.1282578E-06  0.3310937E+04  0.7818609E-02  0.8160118E-01
        1   -1    0    0  501    0  0.00000000000E+00  0.00000000000E+00  0.22422114130E+04  0.22422114130E+04  0.50400001928E-02 0.  1.
       -1   -1    0    0    0  501  0.00000000000E+00  0.00000000000E+00 -0.12222650465E+04  0.12222650466E+04  0.50400001928E-02 0. -1.
    10030    2    1    2    0    0  0.00000000000E+00  0.00000000000E+00  0.10199463664E+04  0.34644764595E+04  0.33109374123E+04 0.  0.
        4    1    3    3  502    0  0.14027599212E+04  0.45576657706E+03  0.12965762224E+04  0.19638151855E+04  0.12699999809E+01 0.  1.
       -4    1    3    3    0  502 -0.14027599212E+04 -0.45576657706E+03 -0.27662985599E+03  0.15006612740E+04  0.12699999809E+01 0. -1.
</event>
<event>
 5   0  0.4017247E-06  0.3178145E+04  0.7818609E-02  0.8194613E-01
       -2   -1    0    0    0  501  0.00000000000E+00  0.00000000000E+00  0.14134658769E+04  0.14134658769E+04  0.25500000920E-02 0. -1.
        2   -1    0    0  501    0  0.00000000000E+00  0.00000000000E+00 -0.17864962734E+04  0.17864962734E+04  0.25500000920E-02 0.  1.
    10030    2    1    2    0    0  0.00000000000E+00  0.00000000000E+00 -0.37303039653E+03  0.31999621503E+04  0.31781450701E+04 0.  0.
        1    1    3    3  502    0 -0.19482590096E+03 -0.10742143717E+04 -0.13491095342E+04  0.17355086239E+04  0.50400001928E-02 0.  1.
       -1    1    3    3    0  502  0.19482590096E+03  0.10742143717E+04  0.97607913770E+03  0.14644535265E+04  0.50400001928E-02 0. -1.
</event>
<event>
 5   0  0.3671997E-06  0.3311995E+04  0.7818609E-02  0.8159850E-01
        2   -1    0    0  501    0  0.00000000000E+00  0.00000000000E+00  0.98903458126E+03  0.98903458126E+03  0.25500000920E-02 0.  1.
       -2   -1    0    0    0  501  0.00000000000E+00  0.00000000000E+00 -0.27727325862E+04  0.27727325862E+04  0.25500000920E-02 0. -1.
    10030    2    1    2    0    0  0.00000000000E+00  0.00000000000E+00 -0.17836980049E+04  0.37617671674E+04  0.33119954181E+04 0.  0.
        2    1    3    3  502    0  0.34491970544E+03  0.15666259834E+04 -0.13588300839E+04  0.21023096280E+04  0.25500000920E-02 0. -1.
       -2    1    3    3    0  502 -0.34491970544E+03 -0.15666259834E+04 -0.42486792105E+03  0.16594575395E+04  0.25500000920E-02 0.  1.
</event>
<event>
 5   0  0.3896210E-06  0.3078340E+04  0.7818609E-02  0.8221708E-01
       -2   -1    0    0    0  501  0.00000000000E+00  0.00000000000E+00  0.24457380824E+04  0.24457380824E+04  0.25500000920E-02 0. -1.
        2   -1    0    0  501    0  0.00000000000E+00  0.00000000000E+00 -0.96864190947E+03  0.96864190947E+03  0.25500000920E-02 0.  1.
    10030    2    1    2    0    0  0.00000000000E+00  0.00000000000E+00  0.14770961730E+04  0.34143799919E+04  0.30783400762E+04 0.  0.
        3    1    3    3  502    0  0.99136142360E+03  0.11766691644E+04  0.69286187165E+03  0.16874256659E+04  0.10100000352E+00 0. -1.
       -3    1    3    3    0  502 -0.99136142360E+03 -0.11766691644E+04  0.78423430131E+03  0.17269543260E+04  0.10100000352E+00 0.  1.
</event>
<event>
 5   0  0.3812379E-06  0.2406679E+04  0.7818609E-02  0.8437007E-01
        2   -1    0    0  501    0  0.00000000000E+00  0.00000000000E+00  0.97673250736E+03  0.97673250737E+03  0.25500000920E-02 0. -1.
       -2   -1    0    0    0  501  0.00000000000E+00  0.00000000000E+00 -0.14825199298E+04  0.14825199298E+04  0.25500000920E-02 0.  1.
    10030    2    1    2    0    0  0.00000000000E+00  0.00000000000E+00 -0.50578742245E+03  0.24592524372E+04  0.24066785479E+04 0.  0.
        5    1    3    3  502    0 -0.45136331457E+03 -0.76675534215E+03  0.57496517633E+03  0.10593628465E+04  0.46999998093E+01 0. -1.
       -5    1    3    3    0  502  0.45136331457E+03  0.76675534215E+03 -0.10807525988E+04  0.13998895907E+04  0.46999998093E+01 0.  1.
</event>
<event>
 5   0  0.1352708E-06  0.3327917E+04  0.7818609E-02  0.8155828E-01
        1   -1    0    0  501    0  0.00000000000E+00  0.00000000000E+00  0.14836597673E+04  0.14836597673E+04  0.50400001928E-02 0.  1.
       -1   -1    0    0    0  501  0.00000000000E+00  0.00000000000E+00 -0.18661673926E+04  0.18661673926E+04  0.50400001928E-02 0. -1.
    10030    2    1    2    0    0  0.00000000000E+00  0.00000000000E+00 -0.38250762526E+03  0.33498271599E+04  0.33279167535E+04 0.  0.
        5    1    3    3  502    0 -0.10248739339E+04 -0.33035081095E+03  0.10856552534E+04  0.15291068170E+04  0.46999998093E+01 0.  1.
       -5    1    3    3    0  502  0.10248739339E+04  0.33035081095E+03 -0.14681628786E+04  0.18207203429E+04  0.46999998093E+01 0. -1.
</event>
<event>
 5   0  0.1391878E-06  0.3233230E+04  0.7818609E-02  0.8180096E-01
        1   -1    0    0  501    0  0.00000000000E+00  0.00000000000E+00  0.25437603698E+04  0.25437603698E+04  0.50400001928E-02 0.  1.
       -1   -1    0    0    0  501  0.00000000000E+00  0.00000000000E+00 -0.10273937432E+04  0.10273937432E+04  0.50400001928E-02 0. -1.
    10030    2    1    2    0    0  0.00000000000E+00  0.00000000000E+00  0.15163666266E+04  0.35711541130E+04  0.32332296473E+04 0.  0.
        2    1    3    3  502    0  0.94105569573E+03  0.38437257163E+03 -0.63022255904E+03  0.11960386993E+04  0.25500000920E-02 0. -1.
       -2    1    3    3    0  502 -0.94105569573E+03 -0.38437257163E+03  0.21465891857E+04  0.23751154137E+04  0.25500000920E-02 0.  1.
</event>
<event>
 5   0  0.1352708E-06  0.3320752E+04  0.7818609E-02  0.8157635E-01
       -1   -1    0    0    0  501  0.00000000000E+00  0.00000000000E+00  0.32954424050E+04  0.32954424050E+04  0.50400001928E-02 0. -1.
        1   -1    0    0  501    0  0.00000000000E+00  0.00000000000E+00 -0.83656397421E+03  0.83656397422E+03  0.50400001928E-02 0.  1.
    10030    2    1    2    0    0  0.00000000000E+00  0.00000000000E+00  0.24588784308E+04  0.41320063793E+04  0.33207519601E+04 0.  0.
        5    1    3    3  502    0 -0.14074798527E+03  0.66836143800E+03  0.31125315425E+04  0.31865956286E+04  0.46999998093E+01 0. -1.
       -5    1    3    3    0  502  0.14074798527E+03 -0.66836143800E+03 -0.65365311165E+03  0.94541075069E+03  0.46999998093E+01 0.  1.
</event>
<event>
 5   0  0.3671997E-06  0.2814722E+04  0.7818609E-02  0.8298712E-01
        2   -1    0    0  501    0  0.00000000000E+00  0.00000000000E+00  0.14450910128E+04  0.14450910128E+04  0.25500000920E-02 0.  1.
       -2   -1    0    0    0  501  0.00000000000E+00  0.00000000000E+00 -0.13706162805E+04  0.13706162805E+04  0.25500000920E-02 0. -1.
    10030    2    1    2    0    0  0.00000000000E+00  0.00000000000E+00  0.74474732383E+02  0.28157072933E+04  0.28147222023E+04 0.  0.
        2    1    3    3  502    0 -0.41998643179E+03 -0.34107005584E+03 -0.12624278135E+04  0.13734778375E+04  0.25500000920E-02 0. -1.
       -2    1    3    3    0  502  0.41998643179E+03  0.34107005584E+03  0.13369025459E+04  0.14422294558E+04  0.25500000920E-02 0.  1.
</event>
<event>
 5   0  0.4017247E-06  0.2314106E+04  0.7818609E-02  0.8472380E-01
       -2   -1    0    0    0  501  0.00000000000E+00  0.00000000000E+00  0.78167573361E+03  0.78167573362E+03  0.25500000920E-02 0.  1.
        2   -1    0    0  501    0  0.00000000000E+00  0.00000000000E+00 -0.17126941620E+04  0.17126941620E+04  0.25500000920E-02 0. -1.
    10030    2    1    2    0    0  0.00000000000E+00  0.00000000000E+00 -0.93101842842E+03  0.24943698957E+04  0.23141058451E+04 0.  0.
        1    1    3    3  502    0 -0.69967179593E+03  0.15412601547E+03  0.51382260785E+03  0.88165136138E+03  0.50400001928E-02 0.  1.
       -1    1    3    3    0  502  0.69967179593E+03 -0.15412601547E+03 -0.14448410363E+04  0.16127185343E+04  0.50400001928E-02 0. -1.
</event>
<event>
 5   0  0.4017247E-06  0.2171644E+04  0.7818609E-02  0.8530324E-01
        2   -1    0    0  501    0  0.00000000000E+00  0.00000000000E+00  0.11342950246E+04  0.11342950246E+04  0.25500000920E-02 0.  1.
       -2   -1    0    0    0  501  0.00000000000E+00  0.00000000000E+00 -0.10394208314E+04  0.10394208314E+04  0.25500000920E-02 0. -1.
    10030    2    1    2    0    0  0.00000000000E+00  0.00000000000E+00  0.94874193194E+02  0.21737158561E+04  0.21716444254E+04 0.  0.
        1    1    3    3  502    0 -0.73142213995E+02 -0.49312436595E+03  0.10129754955E+04  0.11289999018E+04  0.50400001928E-02 0.  1.
       -1    1    3    3    0  502  0.73142213995E+02  0.49312436595E+03 -0.91810130232E+03  0.10447159543E+04  0.50400001928E-02 0. -1.
</event>
<event>
 5   0  0.3896210E-06  0.3324034E+04  0.7818609E-02  0.8156807E-01
       -2   -1    0    0    0  501  0.00000000000E+00  0.00000000000E+00  0.12347498718E+04  0.12347498718E+04  0.25500000920E-02 0.  1.
        2   -1    0    0  501    0  0.00000000000E+00  0.00000000000E+00 -0.22371338023E+04  0.22371338023E+04  0.25500000920E-02 0. -1.
    10030    2    1    2    0    0  0.00000000000E+00  0.00000000000E+00 -0.10023839305E+04  0.34718836741E+04  0.33240341007E+04 0.  0.
        3    1    3    3  502    0  0.18006807544E+03  0.86752368525E+03 -0.19698938465E+04  0.21599776927E+04  0.10100000352E+00 0. -1.
       -3    1    3    3    0  502 -0.18006807544E+03 -0.86752368525E+03  0.96750991603E+03  0.13119059814E+04  0.10100000352E+00 0.  1.
</event>
<event>
 5   0  0.1282578E-06  0.3257069E+04  0.7818609E-02  0.8173906E-01
        1   -1    0    0  501    0  0.00000000000E+00  0.00000000000E+00  0.25672422846E+04  0.25672422846E+04  0.50400001928E-02 0. -1.
       -1   -1    0    0    0  501  0.00000000000E+00  0.00000000000E+00 -0.10330636931E+04  0.10330636932E+04  0.50400001928E-02 0.  1.
    10030    2    1    2    0    0  0.00000000000E+00  0.00000000000E+00  0.15341785915E+04  0.36003059778E+04  0.32570691094E+04 0.  0.
        4    1    3    3  502    0 -0.25561638166E+03 -0.13675918216E+04  0.17027389879E+04  0.21988562479E+04  0.12699999809E+01 0. -1.
       -4    1    3    3    0  502  0.25561638166E+03  0.13675918216E+04 -0.16856039642E+03  0.14014497299E+04  0.12699999809E+01 0.  1.
</event>
<event>
 5   0  0.3896210E-06  0.3293699E+04  0.7818609E-02  0.8164501E-01
        2   -1    0    0  501    0  0.00000000000E+00  0.00000000000E+00  0.19178340493E+04  0.19178340493E+04  0.25500000920E-02 0.  1.
       -2   -1    0    0    0  501  0.00000000000E+00  0.00000000000E+00 -0.14141538960E+04  0.14141538960E+04  0.25500000920E-02 0. -1.
    10030    2    1    2    0    0  0.00000000000E+00  0.00000000000E+00  0.50368015326E+03  0.33319879453E+04  0.32936985246E+04 0.  0.
        3    1    3    3  502    0  0.14980200340E+04 -0.41693898658E+03 -0.29687708522E+03  0.15830471107E+04  0.10100000352E+00 0.  1.
       -3    1    3    3    0  502 -0.14980200340E+04  0.41693898658E+03  0.80055723849E+03  0.17489408346E+04  0.10100000352E+00 0. -1.
</event>
<event>
 5   0  0.1391878E-06  0.3398869E+04  0.7818609E-02  0.8138184E-01
        1   -1    0    0  501    0  0.00000000000E+00  0.00000000000E+00  0.22295712602E+04  0.22295712602E+04  0.50400001928E-02 0. -1.
       -1   -1    0    0    0  501  0.00000000000E+00  0.00000000000E+00 -0.12953514675E+04  0.12953514675E+04  0.50400001928E-02 0.  1.
    10030    2    1    2    0    0  0.00000000000E+00  0.00000000000E+00  0.93421979272E+03  0.35249227277E+04  0.33988694613E+04 0.  0.
        2    1    3    3  502    0  0.68162662727E+03 -0.15143104653E+02 -0.11472962913E+04  0.13345909308E+04  0.25500000920E-02 0.  1.
       -2    1    3    3    0  502 -0.68162662727E+03  0.15143104653E+02  0.20815160840E+04  0.21903317969E+04  0.25500000920E-02 0. -1.
</event>
<event>
 5   0  0.3812379E-06  0.3280005E+04  0.7818609E-02  0.8168002E-01
        2   -1    0    0  501    0  0.00000000000E+00  0.00000000000E+00  0.15688958076E+04  0.15688958076E+04  0.25500000920E-02 0.  1.
       -2   -1    0    0    0  501  0.00000000000E+00  0.00000000000E+00 -0.17143314342E+04  0.17143314342E+04  0.25500000920E-02 0. -1.
    10030    2    1    2    0    0  0.00000000000E+00  0.00000000000E+00 -0.14543562661E+03  0.32832272418E+04  0.32800045121E+04 0.  0.
        5    1    3    3  502    0 -0.10552563749E+04 -0.57503655428E+03  0.10443321716E+04  0.15921321648E+04  0.46999998093E+01 0.  1.
       -5    1    3    3    0  502  0.10552563749E+04  0.57503655428E+03 -0.11897677982E+04  0.16910950769E+04  0.46999998093E+01 0. -1.
</event>
<event>
 5   0  0.3896210E-06  0.2686276E+04  0.7818609E-02  0.8339472E-01
        2   -1    0    0  501    0  0.00000000000E+00  0.00000000000E+00  0.16408152861E+04  0.16408152861E+04  0.25500000920E-02 0.  1.
       -2   -1    0    0    0  501  0.00000000000E+00  0.00000000000E+00 -0.10994651729E+04  0.10994651729E+04  0.25500000920E-02 0. -1.
    10030    2    1    2    0    0  0.00000000000E+00  0.00000000000E+00  0.54135011325E+03  0.27402804590E+04  0.26862756837E+04 0.  0.
        3    1    3    3  502    0 -0.21431876471E+03 -0.12932041092E+04  0.56932318893E+03  0.14291390081E+04  0.10100000352E+00 0.  1.
       -3    1    3    3    0  502  0.21431876471E+03  0.12932041092E+04 -0.27973075674E+02  0.13111414508E+04  0.10100000352E+00 0. -1.
</event>
<event>
 5   0  0.1391878E-06  0.3321415E+04  0.7818609E-02  0.8157468E-01
       -1   -1    0    0    0  501  0.00000000000E+00  0.00000000000E+00  0.13856411066E+04  0.13856411066E+04  0.50400001928E-02 0. -1.
        1   -1    0    0  501    0  0.00000000000E+00  0.00000000000E+00 -0.19903782079E+04  0.19903782079E+04  0.50400001928E-02 0.  1.
    10030    2    1    2    0    0  0.00000000000E+00  0.00000000000E+00 -0.60473710130E+03  0.33760193145E+04  0.33214152782E+04 0.  0.
        2    1    3    3  502    0 -0.12242066714E+03  0.37419305999E+03  0.13375188866E+04  0.13942611082E+04  0.25500000920E-02 0. -1.
       -2    1    3    3    0  502  0.12242066714E+03 -0.37419305999E+03 -0.19422559879E+04  0.19817582063E+04  0.25500000920E-02 0.  1.
</event>
<event>
 5   0  0.1391878E-06  0.3253829E+04  0.7818609E-02  0.8174744E-01
       -1   -1    0    0    0  501  0.00000000000E+00  0.00000000000E+00  0.18229265435E+04  0.18229265435E+04  0.50400001928E-02 0. -1.
        1   -1    0    0  501    0  0.00000000000E+00  0.00000000000E+00 -0.14519791342E+04  0.14519791342E+04  0.50400001928E-02 0.  1.
    10030    2    1    2    0    0  0.00000000000E+00  0.00000000000E+00  0.37094740927E+03  0.32749056777E+04  0.32538293159E+04 0.  0.
        2    1    3    3  502    0  0.34387846482E+03 -0.41541318110E+03 -0.13594054379E+04  0.14624649241E+04  0.25500000920E-02 0.  1.
       -2    1    3    3    0  502 -0.34387846482E+03  0.41541318110E+03  0.17303528472E+04  0.18124407536E+04  0.25500000920E-02 0. -1.
</event>
<event>
 5   0  0.1352708E-06  0.3326160E+04  0.7818609E-02  0.8156271E-01
        1   -1    0    0  501    0  0.00000000000E+00  0.00000000000E+00  0.28049138956E+04  0.28049138956E+04  0.50400001928E-02 0.  1.
       -1   -1    0    0    0  501  0.00000000000E+00  0.00000000000E+00 -0.98606763118E+03  0.98606763119E+03  0.50400001928E-02 0. -1.
    10030    2    1    2    0    0  0.00000000000E+00  0.00000000000E+00  0.18188462644E+04  0.37909815268E+04  0.33261598282E+04 0.  0.
        5    1    3    3  502    0 -0.15289992809E+04  0.43051266971E+03  0.14708371668E+04  0.21648473436E+04  0.46999998093E+01 0.  1.
       -5    1    3    3    0  502  0.15289992809E+04 -0.43051266971E+03  0.34800909760E+03  0.16261341832E+04  0.46999998093E+01 0. -1.
</event>
<event>
 5   0  0.3671997E-06  0.3296070E+04  0.7818609E-02  0.8163896E-01
        2   -1    0    0  501    0  0.00000000000E+00  0.00000000000E+00  0.20870860525E+04  0.20870860525E+04  0.25500000920E-02 0. -1.
       -2   -1    0    0    0  501  0.00000000000E+00  0.00000000000E+00 -0.13013450137E+04  0.13013450137E+04  0.25500000920E-02 0.  1.
    10030    2    1    2    0    0  0.00000000000E+00  0.00000000000E+00  0.78574103883E+03  0.33884310662E+04  0.32960697975E+04 0.  0.
        2    1    3    3  502    0  0.36851238370E+03 -0.55665688658E+03  0.19418609500E+04  0.20534098995E+04  0.25500000920E-02 0. -1.
       -2    1    3    3    0  502 -0.36851238370E+03  0.55665688658E+03 -0.11561199112E+04  0.13350211666E+04  0.25500000920E-02 0.  1.
</event>
<event>
 5   0  0.3671997E-06  0.3115899E+04  0.7818609E-02  0.8211388E-01
        2   -1    0    0  501    0  0.00000000000E+00  0.00000000000E+00  0.13638690249E+04  0.13638690249E+04  0.25500000920E-02 0. -1.
       -2   -1    0    0    0  501  0.00000000000E+00  0.00000000000E+00 -0.17796481398E+04  0.17796481398E+04  0.25500000920E-02 0.  1.
    10030    2    1    2    0    0  0.00000000000E+00  0.00000000000E+00 -0.41577911493E+03  0.31435171648E+04  0.31158992109E+04 0.  0.
        2    1    3    3  502    0 -0.12190587330E+04  0.64500461075E+03  0.52315154346E+03  0.14750670086E+04  0.25500000920E-02 0. -1.
       -2    1    3    3    0  502  0.12190587330E+04 -0.64500461075E+03 -0.93893065838E+03  0.16684501562E+04  0.25500000920E-02 0.  1.
</event>
<event>
 5   0  0.1339825E-06  0.3296107E+04  0.7818609E-02  0.8163887E-01
        1   -1    0    0  501    0  0.00000000000E+00  0.00000000000E+00  0.17862124870E+04  0.17862124870E+04  0.50400001928E-02 0. -1.
       -1   -1    0    0    0  501  0.00000000000E+00  0.00000000000E+00 -0.15205804677E+04  0.15205804677E+04  0.50400001928E-02 0.  1.
    10030    2    1    2    0    0  0.00000000000E+00  0.00000000000E+00  0.26563201933E+03  0.33067929548E+04  0.32961066846E+04 0.  0.
        3    1    3    3  502    0  0.26871728164E+03  0.16927429368E+03  0.17552222673E+04  0.17837230676E+04  0.10100000352E+00 0. -1.
       -3    1    3    3    0  502 -0.26871728164E+03 -0.16927429368E+03 -0.14895902480E+04  0.15230698872E+04  0.10100000352E+00 0.  1.
</event>
<event>
 5   0  0.3920487E-06  0.3308105E+04  0.7818609E-02  0.8160836E-01
       -2   -1    0    0    0  501  0.00000000000E+00  0.00000000000E+00  0.97985678984E+03  0.97985678984E+03  0.25500000920E-02 0.  1.
        2   -1    0    0  501    0  0.00000000000E+00  0.00000000000E+00 -0.27921325820E+04  0.27921325820E+04  0.25500000920E-02 0. -1.
    10030    2    1    2    0    0  0.00000000000E+00  0.00000000000E+00 -0.18122757921E+04  0.37719893718E+04  0.33081052393E+04 0.  0.
        4    1    3    3  502    0 -0.94255876135E+03 -0.85464194808E+02  0.64061094304E+03  0.11428495703E+04  0.12699999809E+01 0.  1.
       -4    1    3    3    0  502  0.94255876135E+03  0.85464194808E+02 -0.24528867352E+04  0.26291398015E+04  0.12699999809E+01 0. -1.
</event>
<event>
 5   0  0.1405389E-06  0.3077978E+04  0.7818609E-02  0.8221808E-01
       -1   -1    0    0    0  501  0.00000000000E+00  0.00000000000E+00  0.20564151833E+04  0.20564151833E+04  0.50400001928E-02 0.  1.
        1   -1    0    0  501    0  0.00000000000E+00  0.00000000000E+00 -0.11517556161E+04  0.11517556161E+04  0.50400001928E-02 0. -1.
    10030    2    1    2    0    0  0.00000000000E+00  0.00000000000E+00  0.90465956722E+03  0.32081707994E+04  0.30779783862E+04 0.  0.
        1    1    3    3  502    0  0.11492290080E+04 -0.67159077349E+03 -0.35282520776E+03  0.13770428850E+04  0.50400001928E-02 0. -1.
       -1    1    3    3    0  502 -0.11492290080E+04  0.67159077349E+03  0.12574847750E+04  0.18311279145E+04  0.50400001928E-02 0.  1.
</event>
<event>
 5   0  0.3671997E-06  0.3325607E+04  0.7818609E-02  0.8156410E-01
        2   -1    0    0  501    0  0.00000000000E+00  0.00000000000E+00  0.20478462953E+04  0.20478462953E+04  0.25500000920E-02 0.  1.
       -2   -1    0    0    0  501  0.00000000000E+00  0.00000000000E+00 -0.13501575940E+04  0.13501575940E+04  0.25500000920E-02 0. -1.
    10030    2    1    2    0    0  0.00000000000E+00  0.00000000000E+00  0.69768870122E+03  0.33980038893E+04  0.33256068480E+04 0.  0.
        2    1    3    3  502    0  0.10837597270E+03  0.98150864218E+03  0.17158065687E+04  0.19796708684E+04  0.25500000920E-02 0.  1.
       -2    1    3    3    0  502 -0.10837597270E+03 -0.98150864218E+03 -0.10181178674E+04  0.14183330209E+04  0.25500000920E-02 0. -1.
</event>
<event>
 5   0  0.1352708E-06  0.3157597E+04  0.7818609E-02  0.8200106E-01
       -1   -1    0    0    0  501  0.00000000000E+00  0.00000000000E+00  0.14458529233E+04  0.14458529233E+04  0.50400001928E-02 0.  1.
        1   -1    0    0  501    0  0.00000000000E+00  0.00000000000E+00 -0.17239685653E+04  0.17239685653E+04  0.50400001928E-02 0. -1.
    10030    2    1    2    0    0  0.00000000000E+00  0.00000000000E+00 -0.27811564203E+03  0.31698214886E+04  0.31575971813E+04 0.  0.
        5    1    3    3  502    0  0.37773517209E+03  0.15130474773E+04  0.10803808486E+03  0.15632308999E+04  0.46999998093E+01 0.  1.
       -5    1    3    3    0  502 -0.37773517209E+03 -0.15130474773E+04 -0.38615372688E+03  0.16065905886E+04  0.46999998093E+01 0. -1.
</event>
<event>
 5   0  0.4017247E-06  0.2912105E+04  0.7818609E-02  0.8269285E-01
        2   -1    0    0  501    0  0.00000000000E+00  0.00000000000E+00  0.10214768180E+04  0.10214768180E+04  0.25500000920E-02 0.  1.
       -2   -1    0    0    0  501  0.00000000000E+00  0.00000000000E+00 -0.20755135823E+04  0.20755135823E+04  0.25500000920E-02 0. -1.
    10030    2    1    2    0    0  0.00000000000E+00  0.00000000000E+00 -0.10540367643E+04  0.30969904003E+04  0.29121050872E+04 0.  0.
        1    1    3    3  502    0  0.11236625397E+04  0.92398798489E+03 -0.46217426466E+03  0.15264260055E+04  0.50400001928E-02 0.  1.
       -1    1    3    3    0  502 -0.11236625397E+04 -0.92398798489E+03 -0.59186249965E+03  0.15705643947E+04  0.50400001928E-02 0. -1.
</event>
<event>
 5   0  0.3812379E-06  0.3215308E+04  0.7818609E-02  0.8184786E-01
       -2   -1    0    0    0  501  0.00000000000E+00  0.00000000000E+00  0.26070639845E+04  0.26070639845E+04  0.25500000920E-02 0.  1.
        2   -1    0    0  501    0  0.00000000000E+00  0.00000000000E+00 -0.99136495334E+03  0.99136495334E+03  0.25500000920E-02 0. -1.
    10030    2    1    2    0    0  0.00000000000E+00  0.00000000000E+00  0.16156990312E+04  0.35984289379E+04  0.32153082996E+04 0.  0.
        5    1    3    3  502    0 -0.33998847076E+03 -0.15699870985E+04  0.87931899395E+03  0.18313043529E+04  0.46999998093E+01 0. -1.
       -5    1    3    3    0  502  0.33998847076E+03  0.15699870985E+04  0.73638003721E+03  0.17671245850E+04  0.46999998093E+01 0.  1.
</event>
<event>
 5   0  0.1405389E-06  0.3201056E+04  0.7818609E-02  0.8188538E-01
       -1   -1    0    0    0  501  0.00000000000E+00  0.00000000000E+00  0.12779894833E+04  0.12779894833E+04  0.50400001928E-02 0.  1.
        1   -1    0    0  501    0  0.00000000000E+00  0.00000000000E+00 -0.20044682309E+04  0.20044682309E+04  0.50400001928E-02 0. -1.
    10030    2    1    2    0    0  0.00000000000E+00  0.00000000000E+00 -0.72647874765E+03  0.32824577142E+04  0.32010556500E+04 0.  0.
        1    1    3    3  502    0  0.33006856392E+03 -0.61397047857E+03  0.11141569992E+04  0.13142491485E+04  0.50400001928E-02 0.  1.
       -1    1    3    3    0  502 -0.33006856392E+03  0.61397047857E+03 -0.18406357469E+04  0.19682085657E+04  0.50400001928E-02 0. -1.
</event>
<event>
 5   0  0.1282578E-06  0.3239205E+04  0.7818609E-02  0.8178539E-01
        1   -1    0    0  501    0  0.00000000000E+00  0.00000000000E+00  0.15744868711E+04  0.15744868711E+04  0.50400001928E-02 0. -1.
       -1   -1    0    0    0  501  0.00000000000E+00  0.00000000000E+00 -0.16660108647E+04  0.16660108647E+04  0.50400001928E-02 0.  1.
    10030    2    1    2    0    0  0.00000000000E+00  0.00000000000E+00 -0.91523993594E+02  0.32404977358E+04  0.32392049850E+04 0.  0.
        4    1    3    3  502    0  0.11593435730E+04 -0.24591071748E+03 -0.11500870653E+04  0.16514392123E+04  0.12699999809E+01 0.  1.
       -4    1    3    3    0  502 -0.11593435730E+04  0.24591071748E+03  0.10585630718E+04  0.15890585235E+04  0.12699999809E+01 0. -1.
</event>
<event>
 5   0  0.1282578E-06  0.3329969E+04  0.7818609E-02  0.8155311E-01
       -1   -1    0    0    0  501  0.00000000000E+00  0.00000000000E+00  0.15227838322E+04  0.15227838322E+04  0.50400001928E-02 0.  1.
        1   -1    0    0  501    0  0.00000000000E+00  0.00000000000E+00 -0.18204643713E+04  0.18204643713E+04  0.50400001928E-02 0. -1.
    10030    2    1    2    0    0  0.00000000000E+00  0.00000000000E+00 -0.29768053917E+03  0.33432482035E+04  0.33299691961E+04 0.  0.
        4    1    3    3  502    0  0.11119639820E+04 -0.98321290526E+03 -0.90616957078E+03  0.17390561861E+04  0.12699999809E+01 0. -1.
       -4    1    3    3    0  502 -0.11119639820E+04  0.98321290526E+03  0.60848903161E+03  0.16041920175E+04  0.12699999809E+01 0.  1.
</event>
<event>
 5   0  0.3671997E-06  0.2182372E+04  0.7818609E-02  0.8525801E-01
        2   -1    0    0  501    0  0.00000000000E+00  0.00000000000E+00  0.15374637857E+04  0.15374637857E+04  0.25500000920E-02 0.  1.
       -2   -1    0    0    0  501  0.00000000000E+00  0.00000000000E+00 -0.77444897883E+03  0.77444897883E+03  0.25500000920E-02 0. -1.
    10030    2    1    2    0    0  0.00000000000E+00  0.00000000000E+00  0.76301480688E+03  0.23119127646E+04  0.21823723411E+04 0.  0.
        2    1    3    3  502    0 -0.24866412557E+03 -0.89983310258E+03 -0.21696289706E+03  0.95843954350E+03  0.25500000920E-02 0. -1.
       -2    1    3    3    0  502  0.24866412557E+03  0.89983310258E+03  0.97997770395E+03  0.13534732210E+04  0.25500000920E-02 0.  1.
</event>
<event>
 5   0  0.3671997E-06  0.3262471E+04  0.7818609E-02  0.8172511E-01
       -2   -1    0    0    0  501  0.00000000000E+00  0.00000000000E+00  0.14034687213E+04  0.14034687213E+04  0.25500000920E-02 0. -1.
        2   -1    0    0  501    0  0.00000000000E+00  0.00000000000E+00 -0.18959657140E+04  0.18959657140E+04  0.25500000920E-02 0.  1.
    10030    2    1    2    0    0  0.00000000000E+00  0.00000000000E+00 -0.49249699275E+03  0.32994344353E+04  0.32624705831E+04 0.  0.
        2    1    3    3  502    0  0.13653123664E+04  0.39644840855E+03 -0.10551098266E+04  0.17704535986E+04  0.25500000920E-02 0.  1.
       -2    1    3    3    0  502 -0.13653123664E+04 -0.39644840855E+03  0.56261283387E+03  0.15289808368E+04  0.25500000920E-02 0. -1.
</event>
<event>
 5   0  0.3920487E-06  0.3265266E+04  0.7818609E-02  0.8171790E-01
        2   -1    0    0  501    0  0.00000000000E+00  0.00000000000E+00  0.16942918641E+04  0.16942918641E+04  0.25500000920E-02 0. -1.
       -2   -1    0    0    0  501  0.00000000000E+00  0.00000000000E+00 -0.15732184335E+04  0.15732184335E+04  0.25500000920E-02 0.  1.
    10030    2    1    2    0    0  0.00000000000E+00  0.00000000000E+00  0.12107343059E+03  0.32675102977E+04  0.32652664164E+04 0.  0.
        4    1    3    3  502    0  0.20359694085E+03 -0.10625342093E+04 -0.11630295581E+04  0.15884174597E+04  0.12699999809E+01 0.  1.
       -4    1    3    3    0  502 -0.20359694085E+03  0.10625342093E+04  0.12841029887E+04  0.16790928380E+04  0.12699999809E+01 0. -1.
</event>
<event>
 5   0  0.3812379E-06  0.3280624E+04  0.7818609E-02  0.8167843E-01
       -2   -1    0    0    0  501  0.00000000000E+00  0.00000000000E+00  0.18348093954E+04  0.18348093954E+04  0.25500000920E-02 0.  1.
        2   -1    0    0  501    0  0.00000000000E+00  0.00000000000E+00 -0.14664323727E+04  0.14664323727E+04  0.25500000920E-02 0. -1.
    10030    2    1    2    0    0  0.00000000000E+00  0.00000000000E+00  0.36837702263E+03  0.33012417681E+04  0.32806242669E+04 0.  0.
        5    1    3    3  502    0 -0.19648726319E+02  0.11787697284E+04 -0.96346914044E+03  0.15225567378E+04  0.46999998093E+01 0. -1.
       -5    1    3    3    0  502  0.19648726319E+02 -0.11787697284E+04  0.13318461631E+04  0.17786850304E+04  0.46999998093E+01 0.  1.
</event>
<event>
 5   0  0.3671997E-06  0.3267585E+04  0.7818609E-02  0.8171193E-01
       -2   -1    0    0    0  501  0.00000000000E+00  0.00000000000E+00  0.19858093390E+04  0.19858093390E+04  0.25500000920E-02 0.  1.
        2   -1    0    0  501    0  0.00000000000E+00  0.00000000000E+00 -0.13441764976E+04  0.13441764976E+04  0.25500000920E-02 0. -1.
    10030    2    1    2    0    0  0.00000000000E+00  0.00000000000E+00  0.64163284140E+03  0.33299858367E+04  0.32675851893E+04 0.  0.
        2    1    3    3  502    0  0.58562216487E+03 -0.98935469783E+03 -0.86217122607E+03  0.14370508903E+04  0.25500000920E-02 0. -1.
       -2    1    3    3    0  502 -0.58562216487E+03  0.98935469783E+03  0.15038040675E+04  0.18929349464E+04  0.25500000920E-02 0.  1.
</event>
<event>
 5   0  0.4017247E-06  0.3018013E+04  0.7818609E-02  0.8238606E-01
       -2   -1    0    0    0  501  0.00000000000E+00  0.00000000000E+00  0.11764594706E+04  0.11764594706E+04  0.25500000920E-02 0.  1.
        2   -1    0    0  501    0  0.00000000000E+00  0.00000000000E+00 -0.19355542450E+04  0.19355542450E+04  0.25500000920E-02 0. -1.
    10030    2    1    2    0    0  0.00000000000E+00  0.00000000000E+00 -0.75909477438E+03  0.31120137157E+04  0.30180133349E+04 0.  0.
        1    1    3    3  502    0 -0.10108222005E+04  0.82845590654E+03 -0.11573629682E+04  0.17457347308E+04  0.50400001928E-02 0. -1.
       -1    1    3    3    0  502  0.10108222005E+04 -0.82845590654E+03  0.39826819381E+03  0.13662789848E+04  0.50400001928E-02 0.  1.
</event>
<event>
 5   0  0.3920487E-06  0.2680765E+04  0.7818609E-02  0.8341273E-01
        2   -1    0    0  501    0  0.00000000000E+00  0.00000000000E+00  0.14487365229E+04  0.14487365229E+04  0.25500000920E-02 0.  1.
       -2   -1    0    0    0  501  0.00000000000E+00  0.00000000000E+00 -0.12401322916E+04  0.12401322916E+04  0.25500000920E-02 0. -1.
    10030    2    1    2    0    0  0.00000000000E+00  0.00000000000E+00  0.20860423135E+03  0.26888688145E+04  0.26807647745E+04 0.  0.
        4    1    3    3  502    0 -0.26002945116E+03 -0.12783159579E+04  0.41331840197E+03  0.13684080963E+04  0.12699999809E+01 0.  1.
       -4    1    3    3    0  502  0.26002945116E+03  0.12783159579E+04 -0.20471417062E+03  0.13204607182E+04  0.12699999809E+01 0. -1.
</event>
<event>
 5   0  0.3920487E-06  0.3250869E+04  0.7818609E-02  0.8175511E-01
        2   -1    0    0  501    0  0.00000000000E+00  0.00000000000E+00  0.20681952589E+04  0.20681952589E+04  0.25500000920E-02 0.  1.
       -2   -1    0    0    0  501  0.00000000000E+00  0.00000000000E+00 -0.12774599166E+04  0.12774599166E+04  0.25500000920E-02 0. -1.
    10030    2    1    2    0    0  0.00000000000E+00  0.00000000000E+00  0.79073534233E+03  0.33456551755E+04  0.32508685258E+04 0.  0.
        4    1    3    3  502    0 -0.24950662256E+03  0.14021379699E+04  0.12016587400E+04  0.18633920096E+04  0.12699999809E+01 0.  1.
       -4    1    3    3    0  502  0.24950662256E+03 -0.14021379699E+04 -0.41092339766E+03  0.14822631659E+04  0.12699999809E+01 0. -1.
</event>
<event>
 5   0  0.3812379E-06  0.3246696E+04  0.7818609E-02  0.8176593E-01
       -2   -1    0    0    0  501  0.00000000000E+00  0.00000000000E+00  0.15597279673E+04  0.15597279673E+04  0.25500000920E-02 0. -1.
        2   -1    0    0  501    0  0.00000000000E+00  0.00000000000E+00 -0.16895629235E+04  0.16895629235E+04  0.25500000920E-02 0.  1.
    10030    2    1    2    0    0  0.00000000000E+00  0.00000000000E+00 -0.12983495627E+03  0.32492908908E+04  0.32466958862E+04 0.  0.
        5    1    3    3  502    0  0.95771929601E+03  0.20757865288E+03  0.12303044428E+04  0.15728910513E+04  0.46999998093E+01 0. -1.
       -5    1    3    3    0  502 -0.95771929601E+03 -0.20757865288E+03 -0.13601393991E+04  0.16763998396E+04  0.46999998093E+01 0.  1.
</event>
<event>
 5   0  0.1282578E-06  0.3352280E+04  0.7818609E-02  0.8149719E-01
        1   -1    0    0  501    0  0.00000000000E+00  0.00000000000E+00  0.16132273580E+04  0.16132273580E+04  0.50400001928E-02 0. -1.
       -1   -1    0    0    0  501  0.00000000000E+00  0.00000000000E+00 -0.17415064113E+04  0.17415064113E+04  0.50400001928E-02 0.  1.
    10030    2    1    2    0    0  0.00000000000E+00  0.00000000000E+00 -0.12827905328E+03  0.33547337693E+04  0.33522802907E+04 0.  0.
        4    1    3    3  502    0  0.99795899913E+03  0.20783219363E+03 -0.13956499791E+04  0.17282814764E+04  0.12699999809E+01 0.  1.
       -4    1    3    3    0  502 -0.99795899913E+03 -0.20783219363E+03  0.12673709258E+04  0.16264522929E+04  0.12699999809E+01 0. -1.
</event>
<event>
 5   0  0.3812379E-06  0.3367833E+04  0.7818609E-02  0.8145847E-01
       -2   -1    0    0    0  501  0.00000000000E+00  0.00000000000E+00  0.17629298217E+04  0.17629298217E+04  0.25500000920E-02 0. -1.
        2   -1    0    0  501    0  0.00000000000E+00  0.00000000000E+00 -0.16084446234E+04  0.16084446234E+04  0.25500000920E-02 0.  1.
    10030    2    1    2    0    0  0.00000000000E+00  0.00000000000E+00  0.15448519838E+03  0.33713744451E+04  0.33678331272E+04 0.  0.
        5    1    3    3  502    0  0.12346053514E+04 -0.33062303529E+03  0.11747489015E+04  0.17359778330E+04  0.46999998093E+01 0. -1.
       -5    1    3    3    0  502 -0.12346053514E+04  0.33062303529E+03 -0.10202637031E+04  0.16353966121E+04  0.46999998093E+01 0.  1.
</event>
<event>
 5   0  0.3896210E-06  0.3342743E+04  0.7818609E-02  0.8152104E-01
        2   -1    0    0  501    0  0.00000000000E+00  0.00000000000E+00  0.17337724830E+04  0.17337724830E+04  0.25500000920E-02 0. -1.
       -2   -1    0    0    0  501  0.00000000000E+00  0.00000000000E+00 -0.16112159787E+04  0.16112159787E+04  0.25500000920E-02 0.  1.
    10030    2    1    2    0    0  0.00000000000E+00  0.00000000000E+00  0.12255650426E+03  0.33449884617E+04  0.33427425435E+04 0.  0.
        3    1    3    3  502    0 -0.14291445164E+04 -0.23988175400E+02 -0.80559036628E+03  0.16407331684E+04  0.10100000352E+00 0.  1.
       -3    1    3    3    0  502  0.14291445164E+04  0.23988175400E+02  0.92814687055E+03  0.17042552933E+04  0.10100000352E+00 0. -1.
</event>
<event>
 5   0  0.1259875E-06  0.3308768E+04  0.7818609E-02  0.8160668E-01
        4   -1    0    0  501    0  0.00000000000E+00  0.00000000000E+00  0.18175268712E+04  0.18175273150E+04  0.12699999809E+01 0. -1.
       -4   -1    0    0    0  501  0.00000000000E+00  0.00000000000E+00 -0.15058841758E+04  0.15058847114E+04  0.12699999809E+01 0.  1.
    10030    2    1    2    0    0  0.00000000000E+00  0.00000000000E+00  0.31164269542E+03  0.33234120263E+04  0.33087680981E+04 0.  0.
        2    1    3    3  502    0 -0.14681394346E+04 -0.48019757620E+03  0.75086498407E+03  0.17175043918E+04  0.25500000920E-02 0. -1.
       -2    1    3    3    0  502  0.14681394346E+04  0.48019757620E+03 -0.43922228865E+03  0.16059076345E+04  0.25500000920E-02 0.  1.
</event>
<event>
 5   0  0.1405389E-06  0.3217678E+04  0.7818609E-02  0.8184164E-01
       -1   -1    0    0    0  501  0.00000000000E+00  0.00000000000E+00  0.12510439292E+04  0.12510439292E+04  0.50400001928E-02 0.  1.
        1   -1    0    0  501    0  0.00000000000E+00  0.00000000000E+00 -0.20689620283E+04  0.20689620283E+04  0.50400001928E-02 0. -1.
    10030    2    1    2    0    0  0.00000000000E+00  0.00000000000E+00 -0.81791809910E+03  0.33200059575E+04  0.32176776627E+04 0.  0.
        1    1    3    3  502    0 -0.11871508132E+04  0.38776407465E+03 -0.14554495340E+04  0.19178168257E+04  0.50400001928E-02 0. -1.
       -1    1    3    3    0  502  0.11871508132E+04 -0.38776407465E+03  0.63753143494E+03  0.14021891318E+04  0.50400001928E-02 0.  1.
</event>
<event>
 5   0  0.1352708E-06  0.3317709E+04  0.7818609E-02  0.8158404E-01
        1   -1    0    0  501    0  0.00000000000E+00  0.00000000000E+00  0.15523546920E+04  0.15523546920E+04  0.50400001928E-02 0.  1.
       -1   -1    0    0    0  501  0.00000000000E+00  0.00000000000E+00 -0.17726609355E+04  0.17726609355E+04  0.50400001928E-02 0. -1.
    10030    2    1    2    0    0  0.00000000000E+00  0.00000000000E+00 -0.22030624356E+03  0.33250156275E+04  0.33177091618E+04 0.  0.
        5    1    3    3  502    0 -0.13816743320E+04  0.12138837908E+03 -0.10221116574E+04  0.17229316378E+04  0.46999998093E+01 0. -1.
       -5    1    3    3    0  502  0.13816743320E+04 -0.12138837908E+03  0.80180541388E+03  0.16020839897E+04  0.46999998093E+01 0.  1.
</event>
<event>
 5   0  0.1352708E-06  0.3296203E+04  0.7818609E-02  0.8163862E-01
        1   -1    0    0  501    0  0.00000000000E+00  0.00000000000E+00  0.18219802361E+04  0.18219802361E+04  0.50400001928E-02 0. -1.
       -1   -1    0    0    0  501  0.00000000000E+00  0.00000000000E+00 -0.14908169547E+04  0.14908169547E+04  0.50400001928E-02 0.  1.
    10030    2    1    2    0    0  0.00000000000E+00  0.00000000000E+00  0.33116328142E+03  0.33127971909E+04  0.32962032869E+04 0.  0.
        5    1    3    3  502    0 -0.14444681768E+04 -0.23250686085E+03 -0.59696664976E+03  0.15801705683E+04  0.46999998093E+01 0. -1.
       -5    1    3    3    0  502  0.14444681768E+04  0.23250686085E+03  0.92812993119E+03  0.17326266226E+04  0.46999998093E+01 0.  1.
</event>
<event>
 5   0  0.4017247E-06  0.3274907E+04  0.7818609E-02  0.8169310E-01
        2   -1    0    0  501    0  0.00000000000E+00  0.00000000000E+00  0.17992715223E+04  0.17992715223E+04  0.25500000920E-02 0.  1.
       -2   -1    0    0    0  501  0.00000000000E+00  0.00000000000E+00 -0.14901883109E+04  0.14901883109E+04  0.25500000920E-02 0. -1.
    10030    2    1    2    0    0  0.00000000000E+00  0.00000000000E+00  0.30908321131E+03  0.32894598332E+04  0.32749066495E+04 0.  0.
        1    1    3    3  502    0  0.78690361511E+03 -0.10952755684E+02  0.15968600607E+04  0.17802525989E+04  0.50400001928E-02 0.  1.
       -1    1    3    3    0  502 -0.78690361511E+03  0.10952755684E+02 -0.12877768494E+04  0.15092072343E+04  0.50400001928E-02 0. -1.
</event>
<event>
 5   0  0.4017247E-06  0.2538413E+04  0.7818609E-02  0.8389427E-01
       -2   -1    0    0    0  501  0.00000000000E+00  0.00000000000E+00  0.15180712064E+04  0.15180712064E+04  0.25500000920E-02 0. -1.
        2   -1    0    0  501    0  0.00000000000E+00  0.00000000000E+00 -0.10611395186E+04  0.10611395186E+04  0.25500000920E-02 0.  1.
    10030    2    1    2    0    0  0.00000000000E+00  0.00000000000E+00  0.45693168778E+03  0.25792107250E+04  0.25384131651E+04 0.  0.
        1    1    3    3  502    0 -0.10189151929E+04 -0.66779671338E+03 -0.13326826971E+03  0.12255207271E+04  0.50400001928E-02 0.  1.
       -1    1    3    3    0  502  0.10189151929E+04  0.66779671338E+03  0.59019995749E+03  0.13536899980E+04  0.50400001928E-02 0. -1.
</event>
<event>
 5   0  0.1282578E-06  0.3408126E+04  0.7818609E-02  0.8135915E-01
       -1   -1    0    0    0  501  0.00000000000E+00  0.00000000000E+00  0.11105603382E+04  0.11105603383E+04  0.50400001928E-02 0.  1.
        1   -1    0    0  501    0  0.00000000000E+00  0.00000000000E+00 -0.26147438449E+04  0.26147438449E+04  0.50400001928E-02 0. -1.
    10030    2    1    2    0    0  0.00000000000E+00  0.00000000000E+00 -0.15041835067E+04  0.37253041832E+04  0.34081260592E+04 0.  0.
        4    1    3    3  502    0 -0.15026618414E+04 -0.74125339783E+03 -0.10914352424E+04  0.19996704005E+04  0.12699999809E+01 0. -1.
       -4    1    3    3    0  502  0.15026618414E+04  0.74125339783E+03 -0.41274826425E+03  0.17256337827E+04  0.12699999809E+01 0.  1.
</event>
<event>
 5   0  0.3671997E-06  0.3413027E+04  0.7818609E-02  0.8134716E-01
       -2   -1    0    0    0  501  0.00000000000E+00  0.00000000000E+00  0.14330956585E+04  0.14330956585E+04  0.25500000920E-02 0. -1.
        2   -1    0    0  501    0  0.00000000000E+00  0.00000000000E+00 -0.20320967760E+04  0.20320967760E+04  0.25500000920E-02 0.  1.
    10030    2    1    2    0    0  0.00000000000E+00  0.00000000000E+00 -0.59900111754E+03  0.34651924345E+04  0.34130274346E+04 0.  0.
        2    1    3    3  502    0  0.10151868048E+04  0.11892867106E+04 -0.99345442637E+03  0.18525546756E+04  0.25500000920E-02 0.  1.
       -2    1    3    3    0  502 -0.10151868048E+04 -0.11892867106E+04  0.39445330883E+03  0.16126377589E+04  0.25500000920E-02 0. -1.
</event>
<event>
 5   0  0.3812379E-06  0.3313826E+04  0.7818609E-02  0.8159386E-01
        2   -1    0    0  501    0  0.00000000000E+00  0.00000000000E+00  0.17612002587E+04  0.17612002587E+04  0.25500000920E-02 0. -1.
       -2   -1    0    0    0  501  0.00000000000E+00  0.00000000000E+00 -0.15588008310E+04  0.15588008310E+04  0.25500000920E-02 0.  1.
    10030    2    1    2    0    0  0.00000000000E+00  0.00000000000E+00  0.20239942768E+03  0.33200010897E+04  0.33138258414E+04 0.  0.
        5    1    3    3  502    0 -0.79540767361E+03  0.14118124094E+03 -0.13481241373E+04  0.15716444540E+04  0.46999998093E+01 0.  1.
       -5    1    3    3    0  502  0.79540767361E+03 -0.14118124094E+03  0.15505235650E+04  0.17483566357E+04  0.46999998093E+01 0. -1.
</event>
<event>
 5   0  0.3812379E-06  0.3294805E+04  0.7818609E-02  0.8164218E-01
       -2   -1    0    0    0  501  0.00000000000E+00  0.00000000000E+00  0.11322879929E+04  0.11322879929E+04  0.25500000920E-02 0. -1.
        2   -1    0    0  501    0  0.00000000000E+00  0.00000000000E+00 -0.23968595161E+04  0.23968595161E+04  0.25500000920E-02 0.  1.
    10030    2    1    2    0    0  0.00000000000E+00  0.00000000000E+00 -0.12645715232E+04  0.35291475090E+04  0.32948051540E+04 0.  0.
        5    1    3    3  502    0 -0.10101726041E+04  0.83059619283E+03  0.44075166296E+03  0.13800807382E+04  0.46999998093E+01 0. -1.
       -5    1    3    3    0  502  0.10101726041E+04 -0.83059619283E+03 -0.17053231862E+04  0.21490667707E+04  0.46999998093E+01 0.  1.
</event>
<event>
 5   0  0.1405389E-06  0.3289002E+04  0.7818609E-02  0.8165699E-01
       -1   -1    0    0    0  501  0.00000000000E+00  0.00000000000E+00  0.12144368567E+04  0.12144368567E+04  0.50400001928E-02 0.  1.
        1   -1    0    0  501    0  0.00000000000E+00  0.00000000000E+00 -0.22268623199E+04  0.22268623199E+04  0.50400001928E-02 0. -1.
    10030    2    1    2    0    0  0.00000000000E+00  0.00000000000E+00 -0.10124254632E+04  0.34412991766E+04  0.32890020834E+04 0.  0.
        1    1    3    3  502    0  0.77418882453E+02  0.29648680357E+03  0.11843018856E+04  0.12233025236E+04  0.50400001928E-02 0.  1.
       -1    1    3    3    0  502 -0.77418882453E+02 -0.29648680357E+03 -0.21967273487E+04  0.22179966530E+04  0.50400001928E-02 0. -1.
</event>
<event>
 5   0  0.1282578E-06  0.3210866E+04  0.7818609E-02  0.8185953E-01
        1   -1    0    0  501    0  0.00000000000E+00  0.00000000000E+00  0.21684264734E+04  0.21684264734E+04  0.50400001928E-02 0. -1.
       -1   -1    0    0    0  501  0.00000000000E+00  0.00000000000E+00 -0.11886110268E+04  0.11886110268E+04  0.50400001928E-02 0.  1.
    10030    2    1    2    0    0  0.00000000000E+00  0.00000000000E+00  0.97981544664E+03  0.33570375002E+04  0.32108663112E+04 0.  0.
        4    1    3    3  502    0  0.88858879506E+03 -0.13369900067E+04  0.50745507149E+03  0.16836402785E+04  0.12699999809E+01 0. -1.
       -4    1    3    3    0  502 -0.88858879506E+03  0.13369900067E+04  0.47236037515E+03  0.16733972217E+04  0.12699999809E+01 0.  1.
</event>
<event>
 5   0  0.3896210E-06  0.3319650E+04  0.7818609E-02  0.8157913E-01
       -2   -1    0    0    0  501  0.00000000000E+00  0.00000000000E+00  0.15878014517E+04  0.15878014517E+04  0.25500000920E-02 0.  1.
        2   -1    0    0  501    0  0.00000000000E+00  0.00000000000E+00 -0.17351156923E+04  0.17351156923E+04  0.25500000920E-02 0. -1.
    10030    2    1    2    0    0  0.00000000000E+00  0.00000000000E+00 -0.14731424063E+03  0.33229171440E+04  0.33196501111E+04 0.  0.
        3    1    3    3  502    0 -0.35066594869E+03 -0.13085954897E+04  0.88626029302E+03  0.16189027397E+04  0.10100000352E+00 0.  1.
       -3    1    3    3    0  502  0.35066594869E+03  0.13085954897E+04 -0.10335745337E+04  0.17040144043E+04  0.10100000352E+00 0. -1.
</event>
<event>
 5   0  0.4017247E-06  0.3352654E+04  0.7818609E-02  0.8149625E-01
       -2   -1    0    0    0  501  0.00000000000E+00  0.00000000000E+00  0.16312375254E+04  0.16312375254E+04  0.25500000920E-02 0. -1.
        2   -1    0    0  501    0  0.00000000000E+00  0.00000000000E+00 -0.17226632647E+04  0.17226632647E+04  0.25500000920E-02 0.  1.
    10030    2    1    2    0    0  0.00000000000E+00  0.00000000000E+00 -0.91425739283E+02  0.33539007901E+04  0.33526544474E+04 0.  0.
        1    1    3    3  502    0 -0.52881869281E+03  0.25246425970E+03  0.15254395292E+04  0.16341215284E+04  0.50400001928E-02 0. -1.
       -1    1    3    3    0  502  0.52881869281E+03 -0.25246425970E+03 -0.16168652685E+04  0.17197792616E+04  0.50400001928E-02 0.  1.
</event>
<event>
 5   0  0.3812379E-06  0.3306085E+04  0.7818609E-02  0.8161349E-01
        2   -1    0    0  501    0  0.00000000000E+00  0.00000000000E+00  0.30023920820E+04  0.30023920820E+04  0.25500000920E-02 0.  1.
       -2   -1    0    0    0  501  0.00000000000E+00  0.00000000000E+00 -0.91012439288E+03  0.91012439289E+03  0.25500000920E-02 0. -1.
    10030    2    1    2    0    0  0.00000000000E+00  0.00000000000E+00  0.20922676891E+04  0.39125164749E+04  0.33060854622E+04 0.  0.
        5    1    3    3  502    0 -0.95208772822E+03 -0.74575413903E+03  0.23797419191E+04  0.26694220291E+04  0.46999998093E+01 0.  1.
       -5    1    3    3    0  502  0.95208772822E+03  0.74575413903E+03 -0.28747423000E+03  0.12430944457E+04  0.46999998093E+01 0. -1.
</event>
<event>
 5   0  0.1259875E-06  0.2727516E+04  0.7818609E-02  0.8326132E-01
       -4   -1    0    0    0  501  0.00000000000E+00  0.00000000000E+00  0.18943952665E+04  0.18943956922E+04  0.12699999809E+01 0.  1.
        4   -1    0    0  501    0  0.00000000000E+00  0.00000000000E+00 -0.98175592233E+03  0.98175674377E+03  0.12699999809E+01 0. -1.
    10030    2    1    2    0    0  0.00000000000E+00  0.00000000000E+00  0.91263934415E+03  0.28761524360E+04  0.27275157676E+04 0.  0.
        5    1    3    3  502    0  0.81282813632E+03 -0.76411362544E+03  0.12834461927E+04  0.17005338666E+04  0.46999998093E+01 0.  1.
       -5    1    3    3    0  502 -0.81282813632E+03  0.76411362544E+03 -0.37080684854E+03  0.11756185694E+04  0.46999998093E+01 0. -1.
</event>
<event>
 5   0  0.3896210E-06  0.2115390E+04  0.7818609E-02  0.8554494E-01
        2   -1    0    0  501    0  0.00000000000E+00  0.00000000000E+00  0.23393105262E+04  0.23393105262E+04  0.25500000920E-02 0. -1.
       -2   -1    0    0    0  501  0.00000000000E+00  0.00000000000E+00 -0.47822566240E+03  0.47822566241E+03  0.25500000920E-02 0.  1.
    10030    2    1    2    0    0  0.00000000000E+00  0.00000000000E+00  0.18610848638E+04  0.28175361886E+04  0.21153896341E+04 0.  0.
        3    1    3    3  502    0  0.31019476045E+02  0.99125692386E+03  0.44086220160E+03  0.10853165382E+04  0.10100000352E+00 0.  1.
       -3    1    3    3    0  502 -0.31019476045E+02 -0.99125692386E+03  0.14202226622E+04  0.17322196505E+04  0.10100000352E+00 0. -1.
</event>
<event>
 5   0  0.3920487E-06  0.3293030E+04  0.7818609E-02  0.8164671E-01
       -2   -1    0    0    0  501  0.00000000000E+00  0.00000000000E+00  0.15857186946E+04  0.15857186946E+04  0.25500000920E-02 0. -1.
        2   -1    0    0  501    0  0.00000000000E+00  0.00000000000E+00 -0.17096424289E+04  0.17096424289E+04  0.25500000920E-02 0.  1.
    10030    2    1    2    0    0  0.00000000000E+00  0.00000000000E+00 -0.12392373436E+03  0.32953611235E+04  0.32930301915E+04 0.  0.
        4    1    3    3  502    0 -0.44280078303E+03 -0.13831155871E+04  0.71442819277E+03  0.16184840179E+04  0.12699999809E+01 0.  1.
       -4    1    3    3    0  502  0.44280078303E+03  0.13831155871E+04 -0.83835192712E+03  0.16768771056E+04  0.12699999809E+01 0. -1.
</event>
<event>
 5   0  0.1259875E-06  0.3215799E+04  0.7818609E-02  0.8184657E-01
        3   -1    0    0  501    0  0.00000000000E+00  0.00000000000E+00  0.22097971982E+04  0.22097972005E+04  0.10100000352E+00 0.  1.
       -3   -1    0    0    0  501  0.00000000000E+00  0.00000000000E+00 -0.11699449504E+04  0.11699449548E+04  0.10100000352E+00 0. -1.
    10030    2    1    2    0    0  0.00000000000E+00  0.00000000000E+00  0.10398522478E+04  0.33797421553E+04  0.32157991758E+04 0.  0.
        4    1    3    3  502    0  0.52645745288E+03  0.11166527345E+04 -0.56277185357E+03  0.13567551552E+04  0.12699999809E+01 0.  1.
       -4    1    3    3    0  502 -0.52645745288E+03 -0.11166527345E+04  0.16026241013E+04  0.20229870000E+04  0.12699999809E+01 0. -1.
</event>
<event>
 5   0  0.3896210E-06  0.3254373E+04  0.7818609E-02  0.8174603E-01
       -2   -1    0    0    0  501  0.00000000000E+00  0.00000000000E+00  0.12692310853E+04  0.12692310853E+04  0.25500000920E-02 0.  1.
        2   -1    0    0  501    0  0.00000000000E+00  0.00000000000E+00 -0.20860944422E+04  0.20860944422E+04  0.25500000920E-02 0. -1.
    10030    2    1    2    0    0  0.00000000000E+00  0.00000000000E+00 -0.81686335691E+03  0.33553255275E+04  0.32543730044E+04 0.  0.
        3    1    3    3  502    0  0.11715239398E+03 -0.74936051959E+03  0.10758333737E+04  0.13163142975E+04  0.10100000352E+00 0.  1.
       -3    1    3    3    0  502 -0.11715239398E+03  0.74936051959E+03 -0.18926967306E+04  0.20390112300E+04  0.10100000352E+00 0. -1.
</event>
<event>
 5   0  0.3920487E-06  0.2452550E+04  0.7818609E-02  0.8420087E-01
       -2   -1    0    0    0  501  0.00000000000E+00  0.00000000000E+00  0.18695775640E+04  0.18695775640E+04  0.25500000920E-02 0.  1.
        2   -1    0    0  501    0  0.00000000000E+00  0.00000000000E+00 -0.80432644827E+03  0.80432644828E+03  0.25500000920E-02 0. -1.
    10030    2    1    2    0    0  0.00000000000E+00  0.00000000000E+00  0.10652511157E+04  0.26739040123E+04  0.24525502497E+04 0.  0.
        4    1    3    3  502    0 -0.26657324620E+03  0.69068710331E+03  0.15984234418E+04  0.17615530314E+04  0.12699999809E+01 0.  1.
       -4    1    3    3    0  502  0.26657324620E+03 -0.69068710331E+03 -0.53317232601E+03  0.91235098093E+03  0.12699999809E+01 0. -1.
</event>
<event>
 5   0  0.4017247E-06  0.3277792E+04  0.7818609E-02  0.8168569E-01
        2   -1    0    0  501    0  0.00000000000E+00  0.00000000000E+00  0.17024948465E+04  0.17024948465E+04  0.25500000920E-02 0.  1.
       -2   -1    0    0    0  501  0.00000000000E+00  0.00000000000E+00 -0.15776730908E+04  0.15776730908E+04  0.25500000920E-02 0. -1.
    10030    2    1    2    0    0  0.00000000000E+00  0.00000000000E+00  0.12482175562E+03  0.32801679373E+04  0.32777921268E+04 0.  0.
        1    1    3    3  502    0 -0.93872871138E+03 -0.10411845992E+04  0.91196869389E+03  0.16724125872E+04  0.50400001928E-02 0.  1.
       -1    1    3    3    0  502  0.93872871138E+03  0.10411845992E+04 -0.78714693827E+03  0.16077553501E+04  0.50400001928E-02 0. -1.
</event>
<event>
 5   0  0.1282578E-06  0.2085859E+04  0.7818609E-02  0.8567498E-01
       -1   -1    0    0    0  501  0.00000000000E+00  0.00000000000E+00  0.89705228836E+03  0.89705228837E+03  0.50400001928E-02 0.  1.
        1   -1    0    0  501    0  0.00000000000E+00  0.00000000000E+00 -0.12125287455E+04  0.12125287455E+04  0.50400001928E-02 0. -1.
    10030    2    1    2    0    0  0.00000000000E+00  0.00000000000E+00 -0.31547645710E+03  0.21095810338E+04  0.20858587544E+04 0.  0.
        4    1    3    3  502    0  0.84498288519E+02  0.41760474817E+03 -0.11204921361E+04  0.11987651673E+04  0.12699999809E+01 0. -1.
       -4    1    3    3    0  502 -0.84498288519E+02 -0.41760474817E+03  0.80501567896E+03  0.91081586654E+03  0.12699999809E+01 0.  1.
</event>
<event>
 5   0  0.3896210E-06  0.3293177E+04  0.7818609E-02  0.8164634E-01
       -2   -1    0    0    0  501  0.00000000000E+00  0.00000000000E+00  0.12553458077E+04  0.12553458077E+04  0.25500000920E-02 0.  1.
        2   -1    0    0  501    0  0.00000000000E+00  0.00000000000E+00 -0.21597661474E+04  0.21597661474E+04  0.25500000920E-02 0. -1.
    10030    2    1    2    0    0  0.00000000000E+00  0.00000000000E+00 -0.90442033974E+03  0.34151119551E+04  0.32931768120E+04 0.  0.
        3    1    3    3  502    0 -0.50153833454E+03 -0.10097811286E+04 -0.16966657434E+04  0.20371237772E+04  0.10100000352E+00 0. -1.
       -3    1    3    3    0  502  0.50153833454E+03  0.10097811286E+04  0.79224540369E+03  0.13779881779E+04  0.10100000352E+00 0.  1.
</event>
<event>
 5   0  0.3812379E-06  0.3185531E+04  0.7818609E-02  0.8192649E-01
        2   -1    0    0  501    0  0.00000000000E+00  0.00000000000E+00  0.22168976618E+04  0.22168976618E+04  0.25500000920E-02 0.  1.
       -2   -1    0    0    0  501  0.00000000000E+00  0.00000000000E+00 -0.11443479161E+04  0.11443479161E+04  0.25500000920E-02 0. -1.
    10030    2    1    2    0    0  0.00000000000E+00  0.00000000000E+00  0.10725497457E+04  0.33612455779E+04  0.31855311767E+04 0.  0.
        5    1    3    3  502    0 -0.10515188217E+04 -0.11263507533E+03  0.17929797619E+04  0.20816284512E+04  0.46999998093E+01 0.  1.
       -5    1    3    3    0  502  0.10515188217E+04  0.11263507533E+03 -0.72043001620E+03  0.12796171266E+04  0.46999998093E+01 0. -1.
</event>
<event>
 5   0  0.1339825E-06  0.2823784E+04  0.7818609E-02  0.8295922E-01
       -1   -1    0    0    0  501  0.00000000000E+00  0.00000000000E+00  0.17953008989E+04  0.17953008989E+04  0.50400001928E-02 0. -1.
        1   -1    0    0  501    0  0.00000000000E+00  0.00000000000E+00 -0.11103652293E+04  0.11103652293E+04  0.50400001928E-02 0.  1.
    10030    2    1    2    0    0  0.00000000000E+00  0.00000000000E+00  0.68493566958E+03  0.29056661282E+04  0.28237844778E+04 0.  0.
        3    1    3    3  502    0 -0.74306503997E+03  0.56235134455E+03 -0.74897511632E+03  0.11955536054E+04  0.10100000352E+00 0.  1.
       -3    1    3    3    0  502  0.74306503997E+03 -0.56235134455E+03  0.14339107859E+04  0.17101125227E+04  0.10100000352E+00 0. -1.
</event>
<event>
 5   0  0.1282578E-06  0.2147186E+04  0.7818609E-02  0.8540738E-01
       -1   -1    0    0    0  501  0.00000000000E+00  0.00000000000E+00  0.12351753830E+04  0.12351753830E+04  0.50400001928E-02 0. -1.
        1   -1    0    0  501    0  0.00000000000E+00  0.00000000000E+00 -0.93314824105E+03  0.93314824106E+03  0.50400001928E-02 0.  1.
    10030    2    1    2    0    0  0.00000000000E+00  0.00000000000E+00  0.30202714195E+03  0.21683236241E+04  0.21471858197E+04 0.  0.
        4    1    3    3  502    0 -0.80422200842E+03 -0.70182466687E+03  0.34687465112E+02  0.10679586766E+04  0.12699999809E+01 0. -1.
       -4    1    3    3    0  502  0.80422200842E+03  0.70182466687E+03  0.26733967684E+03  0.11003649474E+04  0.12699999809E+01 0.  1.
</event>
<event>
 5   0  0.3920487E-06  0.3283431E+04  0.7818609E-02  0.8167124E-01
        2   -1    0    0  501    0  0.00000000000E+00  0.00000000000E+00  0.20539747161E+04  0.20539747161E+04  0.25500000920E-02 0. -1.
       -2   -1    0    0    0  501  0.00000000000E+00  0.00000000000E+00 -0.13122022604E+04  0.13122022604E+04  0.25500000920E-02 0.  1.
    10030    2    1    2    0    0  0.00000000000E+00  0.00000000000E+00  0.74177245568E+03  0.33661769764E+04  0.32834312937E+04 0.  0.
        4    1    3    3  502    0 -0.69186726800E+03 -0.12013856610E+04 -0.53060350427E+03  0.14844357563E+04  0.12699999809E+01 0.  1.
       -4    1    3    3    0  502  0.69186726800E+03  0.12013856610E+04  0.12723759600E+04  0.18817412201E+04  0.12699999809E+01 0. -1.
</event>
<event>
 5   0  0.1339825E-06  0.3268398E+04  0.7818609E-02  0.8170983E-01
       -1   -1    0    0    0  501  0.00000000000E+00  0.00000000000E+00  0.15352341657E+04  0.15352341657E+04  0.50400001928E-02 0. -1.
        1   -1    0    0  501    0  0.00000000000E+00  0.00000000000E+00 -0.17395437249E+04  0.17395437249E+04  0.50400001928E-02 0.  1.
    10030    2    1    2    0    0  0.00000000000E+00  0.00000000000E+00 -0.20430955919E+03  0.32747778906E+04  0.32683983596E+04 0.  0.
        3    1    3    3  502    0  0.45554023457E+03 -0.87443550281E+00 -0.16746413414E+04  0.17354945412E+04  0.10100000352E+00 0.  1.
       -3    1    3    3    0  502 -0.45554023457E+03  0.87443550281E+00  0.14703317822E+04  0.15392833494E+04  0.10100000352E+00 0. -1.
</event>
<event>
 5   0  0.3812379E-06  0.2577242E+04  0.7818609E-02  0.8375973E-01
       -2   -1    0    0    0  501  0.00000000000E+00  0.00000000000E+00  0.96333704460E+03  0.96333704461E+03  0.25500000920E-02 0.  1.
        2   -1    0    0  501    0  0.00000000000E+00  0.00000000000E+00 -0.17237414702E+04  0.17237414702E+04  0.25500000920E-02 0. -1.
    10030    2    1    2    0    0  0.00000000000E+00  0.00000000000E+00 -0.76040442564E+03  0.26870785148E+04  0.25772419472E+04 0.  0.
        5    1    3    3  502    0 -0.79053857077E+02 -0.12938849573E+03 -0.17143991338E+04  0.17210977239E+04  0.46999998093E+01 0. -1.
       -5    1    3    3    0  502  0.79053857077E+02  0.12938849573E+03  0.95399470821E+03  0.96598079093E+03  0.46999998093E+01 0.  1.
</event>
<event>
 5   0  0.3671997E-06  0.3211121E+04  0.7818609E-02  0.8185886E-01
       -2   -1    0    0    0  501  0.00000000000E+00  0.00000000000E+00  0.11480849654E+04  0.11480849654E+04  0.25500000920E-02 0. -1.
        2   -1    0    0  501    0  0.00000000000E+00  0.00000000000E+00 -0.22453256752E+04  0.22453256752E+04  0.25500000920E-02 0.  1.
    10030    2    1    2    0    0  0.00000000000E+00  0.00000000000E+00 -0.10972407098E+04  0.33934106405E+04  0.32111210815E+04 0.  0.
        2    1    3    3  502    0  0.43889314143E+03  0.41371444778E+03  0.10238130185E+04  0.11882676175E+04  0.25500000920E-02 0. -1.
       -2    1    3    3    0  502 -0.43889314143E+03 -0.41371444778E+03 -0.21210537283E+04  0.22051430231E+04  0.25500000920E-02 0.  1.
</event>
<event>
 5   0  0.3812379E-06  0.3435553E+04  0.7818609E-02  0.8129235E-01
       -2   -1    0    0    0  501  0.00000000000E+00  0.00000000000E+00  0.12681229452E+04  0.12681229452E+04  0.25500000920E-02 0. -1.
        2   -1    0    0  501    0  0.00000000000E+00  0.00000000000E+00 -0.23268687433E+04  0.23268687433E+04  0.25500000920E-02 0.  1.
    10030    2    1    2    0    0  0.00000000000E+00  0.00000000000E+00 -0.10587457981E+04  0.35949916885E+04  0.34355527321E+04 0.  0.
        5    1    3    3  502    0 -0.13107749405E+04 -0.94697038246E+03  0.77047436888E+02  0.16189015558E+04  0.46999998093E+01 0. -1.
       -5    1    3    3    0  502  0.13107749405E+04  0.94697038246E+03 -0.11357932349E+04  0.19760901327E+04  0.46999998093E+01 0.  1.
</event>
<event>
 5   0  0.1352708E-06  0.3339108E+04  0.7818609E-02  0.8153015E-01
       -1   -1    0    0    0  501  0.00000000000E+00  0.00000000000E+00  0.14432250640E+04  0.14432250641E+04  0.50400001928E-02 0.  1.
        1   -1    0    0  501    0  0.00000000000E+00  0.00000000000E+00 -0.19313764706E+04  0.19313764707E+04  0.50400001928E-02 0. -1.
    10030    2    1    2    0    0  0.00000000000E+00  0.00000000000E+00 -0.48815140660E+03  0.33746015347E+04  0.33391082226E+04 0.  0.
        5    1    3    3  502    0 -0.15248481591E+04  0.67038974142E+03 -0.12971580197E+03  0.16707580893E+04  0.46999998093E+01 0.  1.
       -5    1    3    3    0  502  0.15248481591E+04 -0.67038974142E+03 -0.35843560463E+03  0.17038434454E+04  0.46999998093E+01 0. -1.
</event>
<event>
 5   0  0.1282578E-06  0.3253123E+04  0.7818609E-02  0.8174927E-01
       -1   -1    0    0    0  501  0.00000000000E+00  0.00000000000E+00  0.16234779524E+04  0.16234779524E+04  0.50400001928E-02 0. -1.
        1   -1    0    0  501    0  0.00000000000E+00  0.00000000000E+00 -0.16296507862E+04  0.16296507862E+04  0.50400001928E-02 0.  1.
    10030    2    1    2    0    0  0.00000000000E+00  0.00000000000E+00 -0.61728338243E+01  0.32531287386E+04  0.32531228821E+04 0.  0.
        4    1    3    3  502    0  0.11083775291E+04 -0.40900061998E+03  0.11149130262E+04  0.16244429578E+04  0.12699999809E+01 0. -1.
       -4    1    3    3    0  502 -0.11083775291E+04  0.40900061998E+03 -0.11210858601E+04  0.16286857808E+04  0.12699999809E+01 0.  1.
</event>
<event>
 5   0  0.3896210E-06  0.3077040E+04  0.7818609E-02  0.8222067E-01
       -2   -1    0    0    0  501  0.00000000000E+00  0.00000000000E+00  0.25292214194E+04  0.25292214194E+04  0.25500000920E-02 0. -1.
        2   -1    0    0  501    0  0.00000000000E+00  0.00000000000E+00 -0.93587869901E+03  0.93587869901E+03  0.25500000920E-02 0.  1.
    10030    2    1    2    0    0  0.00000000000E+00  0.00000000000E+00  0.15933427204E+04  0.34651001185E+04  0.30770404297E+04 0.  0.
        3    1    3    3  502    0  0.58110325928E+03  0.86588247339E+03 -0.47718824107E+03  0.11467964437E+04  0.10100000352E+00 0.  1.
       -3    1    3    3    0  502 -0.58110325928E+03 -0.86588247339E+03  0.20705309615E+04  0.23183036748E+04  0.10100000352E+00 0. -1.
</event>
<event>
 5   0  0.1391878E-06  0.3287998E+04  0.7818609E-02  0.8165956E-01
       -1   -1    0    0    0  501  0.00000000000E+00  0.00000000000E+00  0.95190875131E+03  0.95190875132E+03  0.50400001928E-02 0. -1.
        1   -1    0    0  501    0  0.00000000000E+00  0.00000000000E+00 -0.28392776146E+04  0.28392776146E+04  0.50400001928E-02 0.  1.
    10030    2    1    2    0    0  0.00000000000E+00  0.00000000000E+00 -0.18873688633E+04  0.37911863659E+04  0.32879983022E+04 0.  0.
        2    1    3    3  502    0 -0.66395400327E+03 -0.11505244330E+04  0.17315147987E+03  0.13395980085E+04  0.25500000920E-02 0.  1.
       -2    1    3    3    0  502  0.66395400327E+03  0.11505244330E+04 -0.20605203432E+04  0.24515883574E+04  0.25500000920E-02 0. -1.
</event>
<event>
 5   0  0.3920487E-06  0.3194252E+04  0.7818609E-02  0.8190337E-01
        2   -1    0    0  501    0  0.00000000000E+00  0.00000000000E+00  0.12455452216E+04  0.12455452216E+04  0.25500000920E-02 0. -1.
       -2   -1    0    0    0  501  0.00000000000E+00  0.00000000000E+00 -0.20479472214E+04  0.20479472214E+04  0.25500000920E-02 0.  1.
    10030    2    1    2    0    0  0.00000000000E+00  0.00000000000E+00 -0.80240199982E+03  0.32934924430E+04  0.31942516342E+04 0.  0.
        4    1    3    3  502    0 -0.53833383110E+02  0.12614828267E+04 -0.14096326032E+04  0.18924329960E+04  0.12699999809E+01 0.  1.
       -4    1    3    3    0  502  0.53833383110E+02 -0.12614828267E+04  0.60723060341E+03  0.14010594470E+04  0.12699999809E+01 0. -1.
</event>
<event>
 5   0  0.1282578E-06  0.3115210E+04  0.7818609E-02  0.8211576E-01
       -1   -1    0    0    0  501  0.00000000000E+00  0.00000000000E+00  0.17990422147E+04  0.17990422147E+04  0.50400001928E-02 0.  1.
        1   -1    0    0  501    0  0.00000000000E+00  0.00000000000E+00 -0.13485691827E+04  0.13485691827E+04  0.50400001928E-02 0. -1.
    10030    2    1    2    0    0  0.00000000000E+00  0.00000000000E+00  0.45047303196E+03  0.31476113974E+04  0.31152097131E+04 0.  0.
        4    1    3    3  502    0 -0.14505944475E+04 -0.23285499712E+03 -0.29752824614E+03  0.14989897835E+04  0.12699999809E+01 0. -1.
       -4    1    3    3    0  502  0.14505944475E+04  0.23285499712E+03  0.74800127810E+03  0.16486216139E+04  0.12699999809E+01 0.  1.
</event>
<event>
 5   0  0.1405389E-06  0.3303139E+04  0.7818609E-02  0.8162097E-01
       -1   -1    0    0    0  501  0.00000000000E+00  0.00000000000E+00  0.21046797395E+04  0.21046797395E+04  0.50400001928E-02 0. -1.
        1   -1    0    0  501    0  0.00000000000E+00  0.00000000000E+00 -0.12960078414E+04  0.12960078414E+04  0.50400001928E-02 0.  1.
    10030    2    1    2    0    0  0.00000000000E+00  0.00000000000E+00  0.80867189816E+03  0.34006875809E+04  0.33031387776E+04 0.  0.
        1    1    3    3  502    0 -0.42742944845E+03 -0.94936768677E+03  0.17242614214E+04  0.20142175621E+04  0.50400001928E-02 0. -1.
       -1    1    3    3    0  502  0.42742944845E+03  0.94936768677E+03 -0.91558952319E+03  0.13864700188E+04  0.50400001928E-02 0.  1.
</event>
<event>
 5   0  0.1352708E-06  0.3242503E+04  0.7818609E-02  0.8177681E-01
        1   -1    0    0  501    0  0.00000000000E+00  0.00000000000E+00  0.18645698236E+04  0.18645698236E+04  0.50400001928E-02 0. -1.
       -1   -1    0    0    0  501  0.00000000000E+00  0.00000000000E+00 -0.14096854876E+04  0.14096854876E+04  0.50400001928E-02 0.  1.
    10030    2    1    2    0    0  0.00000000000E+00  0.00000000000E+00  0.45488433604E+03  0.32742553112E+04  0.32425033668E+04 0.  0.
        5    1    3    3  502    0 -0.13286437303E+04  0.89738719713E+03 -0.15406058490E+02  0.16033893415E+04  0.46999998093E+01 0. -1.
       -5    1    3    3    0  502  0.13286437303E+04 -0.89738719713E+03  0.47029039453E+03  0.16708659697E+04  0.46999998093E+01 0.  1.
</event>
<event>
 5   0  0.1339825E-06  0.3234687E+04  0.7818609E-02  0.8179716E-01
       -1   -1    0    0    0  501  0.00000000000E+00  0.00000000000E+00  0.92127809933E+03  0.92127809934E+03  0.50400001928E-02 0. -1.
        1   -1    0    0  501    0  0.00000000000E+00  0.00000000000E+00 -0.28393157630E+04  0.28393157630E+04  0.50400001928E-02 0.  1.
    10030    2    1    2    0    0  0.00000000000E+00  0.00000000000E+00 -0.19180376637E+04  0.37605938624E+04  0.32346866492E+04 0.  0.
        3    1    3    3  502    0 -0.11699673665E+04 -0.37580671901E+03 -0.21815268797E+04  0.25038198549E+04  0.10100000352E+00 0.  1.
       -3    1    3    3    0  502  0.11699673665E+04  0.37580671901E+03  0.26348921605E+03  0.12567740075E+04  0.10100000352E+00 0. -1.
</event>
<event>
 5   0  0.3671997E-06  0.3203529E+04  0.7818609E-02  0.8187886E-01
        2   -1    0    0  501    0  0.00000000000E+00  0.00000000000E+00  0.14037207370E+04  0.14037207370E+04  0.25500000920E-02 0. -1.
       -2   -1    0    0    0  501  0.00000000000E+00  0.00000000000E+00 -0.18277489116E+04  0.18277489116E+04  0.25500000920E-02 0.  1.
    10030    2    1    2    0    0  0.00000000000E+00  0.00000000000E+00 -0.42402817460E+03  0.32314696487E+04  0.32035287103E+04 0.  0.
        2    1    3    3  502    0 -0.96478736439E+03  0.14259079037E+03 -0.14937270865E+04  0.17839191128E+04  0.25500000920E-02 0.  1.
       -2    1    3    3    0  502  0.96478736439E+03 -0.14259079037E+03  0.10696989119E+04  0.14475505359E+04  0.25500000920E-02 0. -1.
</event>
<event>
 5   0  0.1282578E-06  0.3360989E+04  0.7818609E-02  0.8147548E-01
        1   -1    0    0  501    0  0.00000000000E+00  0.00000000000E+00  0.23782183128E+04  0.23782183128E+04  0.50400001928E-02 0. -1.
       -1   -1    0    0    0  501  0.00000000000E+00  0.00000000000E+00 -0.11874692256E+04  0.11874692256E+04  0.50400001928E-02 0.  1.
    10030    2    1    2    0    0  0.00000000000E+00  0.00000000000E+00  0.11907490872E+04  0.35656875385E+04  0.33609885798E+04 0.  0.
        4    1    3    3  502    0  0.10336226126E+04  0.13249714962E+04  0.60766796167E+03  0.17869491139E+04  0.12699999809E+01 0.  1.
       -4    1    3    3    0  502 -0.10336226126E+04 -0.13249714962E+04  0.58308112552E+03  0.17787384245E+04  0.12699999809E+01 0. -1.
</event>
<event>
 5   0  0.3896210E-06  0.2260430E+04  0.7818609E-02  0.8493688E-01
        2   -1    0    0  501    0  0.00000000000E+00  0.00000000000E+00  0.10749301270E+04  0.10749301270E+04  0.25500000920E-02 0.  1.
       -2   -1    0    0    0  501  0.00000000000E+00  0.00000000000E+00 -0.11883433498E+04  0.11883433498E+04  0.25500000920E-02 0. -1.
    10030    2    1    2    0    0  0.00000000000E+00  0.00000000000E+00 -0.11341322274E+03  0.22632734768E+04  0.22604301077E+04 0.  0.
        3    1    3    3  502    0  0.59102631278E+03 -0.15407197069E+03  0.89545530831E+03  0.10839236569E+04  0.10100000352E+00 0.  1.
       -3    1    3    3    0  502 -0.59102631278E+03  0.15407197069E+03 -0.10088685311E+04  0.11793498199E+04  0.10100000352E+00 0. -1.
</event>
<event>
 5   0  0.3671997E-06  0.3073871E+04  0.7818609E-02  0.8222946E-01
       -2   -1    0    0    0  501  0.00000000000E+00  0.00000000000E+00  0.11064852190E+04  0.11064852190E+04  0.25500000920E-02 0.  1.
        2   -1    0    0  501    0  0.00000000000E+00  0.00000000000E+00 -0.21348418613E+04  0.21348418613E+04  0.25500000920E-02 0. -1.
    10030    2    1    2    0    0  0.00000000000E+00  0.00000000000E+00 -0.10283566423E+04  0.32413270802E+04  0.30738711517E+04 0.  0.
        2    1    3    3  502    0  0.12671162857E+04  0.52158519779E+03 -0.12481854822E+04  0.18535376441E+04  0.25500000920E-02 0. -1.
       -2    1    3    3    0  502 -0.12671162857E+04 -0.52158519779E+03  0.21982883992E+03  0.13877894361E+04  0.25500000920E-02 0.  1.
</event>
<event>
 5   0  0.1405389E-06  0.2885925E+04  0.7818609E-02  0.8277077E-01
        1   -1    0    0  501    0  0.00000000000E+00  0.00000000000E+00  0.13465306760E+04  0.13465306760E+04  0.50400001928E-02 0. -1.
       -1   -1    0    0    0  501  0.00000000000E+00  0.00000000000E+00 -0.15463007410E+04  0.15463007410E+04  0.50400001928E-02 0.  1.
    10030    2    1    2    0    0  0.00000000000E+00  0.00000000000E+00 -0.19977006498E+03  0.28928314170E+04  0.28859254198E+04 0.  0.
        1    1    3    3  502    0 -0.77484472147E+03 -0.40212155344E+03  0.10518009574E+04  0.13668838064E+04  0.50400001928E-02 0. -1.
       -1    1    3    3    0  502  0.77484472147E+03  0.40212155344E+03 -0.12515710224E+04  0.15259476106E+04  0.50400001928E-02 0.  1.
</event>
<event>
 5   0  0.3812379E-06  0.2682967E+04  0.7818609E-02  0.8340553E-01
        2   -1    0    0  501    0  0.00000000000E+00  0.00000000000E+00  0.20771137649E+04  0.20771137649E+04  0.25500000920E-02 0.  1.
       -2   -1    0    0    0  501  0.00000000000E+00  0.00000000000E+00 -0.86638410794E+03  0.86638410794E+03  0.25500000920E-02 0. -1.
    10030    2    1    2    0    0  0.00000000000E+00  0.00000000000E+00  0.12107296569E+04  0.29434978728E+04  0.26829672799E+04 0.  0.
        5    1    3    3  502    0  0.80105178508E+03  0.64355276763E+03  0.15514947670E+04  0.18609143530E+04  0.46999998093E+01 0. -1.
       -5    1    3    3    0  502 -0.80105178508E+03 -0.64355276763E+03 -0.34076511009E+03  0.10825835198E+04  0.46999998093E+01 0.  1.
</event>
<event>
 5   0  0.4017247E-06  0.3475549E+04  0.7818609E-02  0.8119609E-01
        2   -1    0    0  501    0  0.00000000000E+00  0.00000000000E+00  0.16084999120E+04  0.16084999120E+04  0.25500000920E-02 0. -1.
       -2   -1    0    0    0  501  0.00000000000E+00  0.00000000000E+00 -0.18774383415E+04  0.18774383415E+04  0.25500000920E-02 0.  1.
    10030    2    1    2    0    0  0.00000000000E+00  0.00000000000E+00 -0.26893842944E+03  0.34859382535E+04  0.34755485363E+04 0.  0.
        1    1    3    3  502    0  0.58902282009E+03 -0.81642214624E+03 -0.15551661900E+04  0.18525752028E+04  0.50400001928E-02 0.  1.
       -1    1    3    3    0  502 -0.58902282009E+03  0.81642214624E+03  0.12862277605E+04  0.16333630507E+04  0.50400001928E-02 0. -1.
</event>
<event>
 5   0  0.3896210E-06  0.3350513E+04  0.7818609E-02  0.8150160E-01
       -2   -1    0    0    0  501  0.00000000000E+00  0.00000000000E+00  0.17204272643E+04  0.17204272643E+04  0.25500000920E-02 0.  1.
        2   -1    0    0  501    0  0.00000000000E+00  0.00000000000E+00 -0.16312713195E+04  0.16312713195E+04  0.25500000920E-02 0. -1.
    10030    2    1    2    0    0  0.00000000000E+00  0.00000000000E+00  0.89155944844E+02  0.33516985838E+04  0.33505125897E+04 0.  0.
        3    1    3    3  502    0  0.30195869740E+03  0.16105970317E+04  0.39295659743E+03  0.16851162426E+04  0.10100000352E+00 0. -1.
       -3    1    3    3    0  502 -0.30195869740E+03 -0.16105970317E+04 -0.30380065259E+03  0.16665823412E+04  0.10100000352E+00 0.  1.
</event>
<event>
 5   0  0.1405389E-06  0.3183434E+04  0.7818609E-02  0.8193206E-01
       -1   -1    0    0    0  501  0.00000000000E+00  0.00000000000E+00  0.11507587220E+04  0.11507587220E+04  0.50400001928E-02 0. -1.
        1   -1    0    0  501    0  0.00000000000E+00  0.00000000000E+00 -0.22016452087E+04  0.22016452087E+04  0.50400001928E-02 0.  1.
    10030    2    1    2    0    0  0.00000000000E+00  0.00000000000E+00 -0.10508864867E+04  0.33524039307E+04  0.31834336347E+04 0.  0.
        1    1    3    3  502    0  0.52906733315E+03  0.11155152529E+04  0.53250760975E+03  0.13445634522E+04  0.50400001928E-02 0. -1.
       -1    1    3    3    0  502 -0.52906733315E+03 -0.11155152529E+04 -0.15833940965E+04  0.20078404785E+04  0.50400001928E-02 0.  1.
</event>
<event>
 5   0  0.1391878E-06  0.3301260E+04  0.7818609E-02  0.8162575E-01
        1   -1    0    0  501    0  0.00000000000E+00  0.00000000000E+00  0.18886258545E+04  0.18886258545E+04  0.50400001928E-02 0.  1.
       -1   -1    0    0    0  501  0.00000000000E+00  0.00000000000E+00 -0.14426251598E+04  0.14426251598E+04  0.50400001928E-02 0. -1.
    10030    2    1    2    0    0  0.00000000000E+00  0.00000000000E+00  0.44600069467E+03  0.33312510142E+04  0.33012598656E+04 0.  0.
        2    1    3    3  502    0 -0.14732467698E+04 -0.68550129566E+03 -0.69827467854E+02  0.16264205933E+04  0.25500000920E-02 0. -1.
       -2    1    3    3    0  502  0.14732467698E+04  0.68550129566E+03  0.51582816253E+03  0.17048304210E+04  0.25500000920E-02 0.  1.
</event>
<event>
 5   0  0.4017247E-06  0.3418560E+04  0.7818609E-02  0.8133366E-01
        2   -1    0    0  501    0  0.00000000000E+00  0.00000000000E+00  0.99245044051E+03  0.99245044051E+03  0.25500000920E-02 0. -1.
       -2   -1    0    0    0  501  0.00000000000E+00  0.00000000000E+00 -0.29438623565E+04  0.29438623565E+04  0.25500000920E-02 0.  1.
    10030    2    1    2    0    0  0.00000000000E+00  0.00000000000E+00 -0.19514119160E+04  0.39363127970E+04  0.34185596338E+04 0.  0.
        1    1    3    3  502    0  0.57229515433E+03  0.23671238202E+03  0.85871647106E+03  0.10587485410E+04  0.50400001928E-02 0. -1.
       -1    1    3    3    0  502 -0.57229515433E+03 -0.23671238202E+03 -0.28101283870E+04  0.28775642560E+04  0.50400001928E-02 0.  1.
</event>
<event>
 5   0  0.3896210E-06  0.3171272E+04  0.7818609E-02  0.8196446E-01
       -2   -1    0    0    0  501  0.00000000000E+00  0.00000000000E+00  0.76076877435E+03  0.76076877436E+03  0.25500000920E-02 0.  1.
        2   -1    0    0  501    0  0.00000000000E+00  0.00000000000E+00 -0.33048688084E+04  0.33048688084E+04  0.25500000920E-02 0. -1.
    10030    2    1    2    0    0  0.00000000000E+00  0.00000000000E+00 -0.25441000341E+04  0.40656375828E+04  0.31712716647E+04 0.  0.
        3    1    3    3  502    0 -0.45147138428E+03 -0.15157080513E+04 -0.11256317715E+04  0.19411965905E+04  0.10100000352E+00 0.  1.
       -3    1    3    3    0  502  0.45147138428E+03  0.15157080513E+04 -0.14184682626E+04  0.21244409923E+04  0.10100000352E+00 0. -1.
</event>
<event>
 5   0  0.1352708E-06  0.3395155E+04  0.7818609E-02  0.8139096E-01
        1   -1    0    0  501    0  0.00000000000E+00  0.00000000000E+00  0.11300780740E+04  0.11300780740E+04  0.50400001928E-02 0.  1.
       -1   -1    0    0    0  501  0.00000000000E+00  0.00000000000E+00 -0.25500619933E+04  0.25500619933E+04  0.50400001928E-02 0. -1.
    10030    2    1    2    0    0  0.00000000000E+00  0.00000000000E+00 -0.14199839193E+04  0.36801400673E+04  0.33951548689E+04 0.  0.
        5    1    3    3  502    0 -0.13058319692E+04 -0.64187162014E+02 -0.18836679162E+04  0.22929334992E+04  0.46999998093E+01 0. -1.
       -5    1    3    3    0  502  0.13058319692E+04  0.64187162014E+02  0.46368399689E+03  0.13872065681E+04  0.46999998093E+01 0.  1.
</event>
<event>
 5   0  0.3896210E-06  0.3155031E+04  0.7818609E-02  0.8200795E-01
        2   -1    0    0  501    0  0.00000000000E+00  0.00000000000E+00  0.19789930376E+04  0.19789930376E+04  0.25500000920E-02 0.  1.
       -2   -1    0    0    0  501  0.00000000000E+00  0.00000000000E+00 -0.12574853107E+04  0.12574853107E+04  0.25500000920E-02 0. -1.
    10030    2    1    2    0    0  0.00000000000E+00  0.00000000000E+00  0.72150772684E+03  0.32364783483E+04  0.31550306970E+04 0.  0.
        3    1    3    3  502    0  0.15038022327E+04 -0.16745994672E+03 -0.96960538145E+02  0.15162009579E+04  0.10100000352E+00 0. -1.
       -3    1    3    3    0  502 -0.15038022327E+04  0.16745994672E+03  0.81846826499E+03  0.17202773903E+04  0.10100000352E+00 0.  1.
</event>
<event>
 5   0  0.1282578E-06  0.3283292E+04  0.7818609E-02  0.8167160E-01
        1   -1    0    0  501    0  0.00000000000E+00  0.00000000000E+00  0.18867684971E+04  0.18867684972E+04  0.50400001928E-02 0. -1.
       -1   -1    0    0    0  501  0.00000000000E+00  0.00000000000E+00 -0.14283693173E+04  0.14283693173E+04  0.50400001928E-02 0.  1.
    10030    2    1    2    0    0  0.00000000000E+00  0.00000000000E+00  0.45839917985E+03  0.33151378145E+04  0.32832923904E+04 0.  0.
        4    1    3    3  502    0 -0.11966587457E+04  0.88473799875E+03  0.92891980261E+03  0.17543224027E+04  0.12699999809E+01 0. -1.
       -4    1    3    3    0  502  0.11966587457E+04 -0.88473799875E+03 -0.47052062275E+03  0.15608154117E+04  0.12699999809E+01 0.  1.
</event>
<event>
 5   0  0.1282578E-06  0.3282218E+04  0.7818609E-02  0.8167435E-01
       -1   -1    0    0    0  501  0.00000000000E+00  0.00000000000E+00  0.11646271251E+04  0.11646271251E+04  0.50400001928E-02 0. -1.
        1   -1    0    0  501    0  0.00000000000E+00  0.00000000000E+00 -0.23125324825E+04  0.23125324825E+04  0.50400001928E-02 0.  1.
    10030    2    1    2    0    0  0.00000000000E+00  0.00000000000E+00 -0.11479053573E+04  0.34771596076E+04  0.32822175777E+04 0.  0.
        4    1    3    3  502    0 -0.13980493311E+04  0.46353389031E+03  0.19279556961E+03  0.14854552650E+04  0.12699999809E+01 0. -1.
       -4    1    3    3    0  502  0.13980493311E+04 -0.46353389031E+03 -0.13407009270E+04  0.19917043426E+04  0.12699999809E+01 0.  1.
</event>
<event>
 5   0  0.3896210E-06  0.3328272E+04  0.7818609E-02  0.8155739E-01
       -2   -1    0    0    0  501  0.00000000000E+00  0.00000000000E+00  0.28345093804E+04  0.28345093804E+04  0.25500000920E-02 0.  1.
        2   -1    0    0  501    0  0.00000000000E+00  0.00000000000E+00 -0.97701142661E+03  0.97701142662E+03  0.25500000920E-02 0. -1.
    10030    2    1    2    0    0  0.00000000000E+00  0.00000000000E+00  0.18574979537E+04  0.38115208070E+04  0.33282716557E+04 0.  0.
        3    1    3    3  502    0 -0.15139591278E+04  0.60659809733E+03  0.55011593035E+03  0.17212382285E+04  0.10100000352E+00 0. -1.
       -3    1    3    3    0  502  0.15139591278E+04 -0.60659809733E+03  0.13073820234E+04  0.20902825784E+04  0.10100000352E+00 0.  1.
</event>
<event>
 5   0  0.1339825E-06  0.3269413E+04  0.7818609E-02  0.8170722E-01
       -1   -1    0    0    0  501  0.00000000000E+00  0.00000000000E+00  0.14727308981E+04  0.14727308981E+04  0.50400001928E-02 0. -1.
        1   -1    0    0  501    0  0.00000000000E+00  0.00000000000E+00 -0.18144968666E+04  0.18144968666E+04  0.50400001928E-02 0.  1.
    10030    2    1    2    0    0  0.00000000000E+00  0.00000000000E+00 -0.34176596850E+03  0.32872277646E+04  0.32694131582E+04 0.  0.
        3    1    3    3  502    0  0.73183399712E+03 -0.14270641584E+04 -0.48910791378E+03  0.16766990407E+04  0.10100000352E+00 0.  1.
       -3    1    3    3    0  502 -0.73183399712E+03  0.14270641584E+04  0.14734194528E+03  0.16105287239E+04  0.10100000352E+00 0. -1.
</event>
<event>
 5   0  0.1405389E-06  0.3274263E+04  0.7818609E-02  0.8169475E-01
        1   -1    0    0  501    0  0.00000000000E+00  0.00000000000E+00  0.23521389770E+04  0.23521389770E+04  0.50400001928E-02 0. -1.
       -1   -1    0    0    0  501  0.00000000000E+00  0.00000000000E+00 -0.11394730422E+04  0.11394730423E+04  0.50400001928E-02 0.  1.
    10030    2    1    2    0    0  0.00000000000E+00  0.00000000000E+00  0.12126659348E+04  0.34916120193E+04  0.32742626382E+04 0.  0.
        1    1    3    3  502    0 -0.66369554409E+03 -0.11107293014E+04  0.16759019034E+04  0.21172762092E+04  0.50400001928E-02 0. -1.
       -1    1    3    3    0  502  0.66369554409E+03  0.11107293014E+04 -0.46323596863E+03  0.13743358101E+04  0.50400001928E-02 0.  1.
</event>
<event>
 5   0  0.1282578E-06  0.2561927E+04  0.7818609E-02  0.8381250E-01
       -1   -1    0    0    0  501  0.00000000000E+00  0.00000000000E+00  0.11446421227E+04  0.11446421227E+04  0.50400001928E-02 0. -1.
        1   -1    0    0  501    0  0.00000000000E+00  0.00000000000E+00 -0.14335198930E+04  0.14335198930E+04  0.50400001928E-02 0.  1.
    10030    2    1    2    0    0  0.00000000000E+00  0.00000000000E+00 -0.28887777033E+03  0.25781620157E+04  0.25619268165E+04 0.  0.
        4    1    3    3  502    0  0.77525561076E+03 -0.43826038446E+03 -0.10710192122E+04  0.13929024346E+04  0.12699999809E+01 0.  1.
       -4    1    3    3    0  502 -0.77525561076E+03  0.43826038446E+03  0.78214144183E+03  0.11852595811E+04  0.12699999809E+01 0. -1.
</event>
<event>
 5   0  0.3671997E-06  0.3187153E+04  0.7818609E-02  0.8192218E-01
        2   -1    0    0  501    0  0.00000000000E+00  0.00000000000E+00  0.24802847856E+04  0.24802847856E+04  0.25500000920E-02 0.  1.
       -2   -1    0    0    0  501  0.00000000000E+00  0.00000000000E+00 -0.10238687817E+04  0.10238687817E+04  0.25500000920E-02 0. -1.
    10030    2    1    2    0    0  0.00000000000E+00  0.00000000000E+00  0.14564160038E+04  0.35041535673E+04  0.31871530630E+04 0.  0.
        2    1    3    3  502    0 -0.20114134361E+03  0.94978812359E+03  0.21175951072E+04  0.23295416626E+04  0.25500000920E-02 0.  1.
       -2    1    3    3    0  502  0.20114134361E+03 -0.94978812359E+03 -0.66117910336E+03  0.11746119047E+04  0.25500000920E-02 0. -1.
</event>
<event>
 5   0  0.3671997E-06  0.3326617E+04  0.7818609E-02  0.8156155E-01
       -2   -1    0    0    0  501  0.00000000000E+00  0.00000000000E+00  0.10587850970E+04  0.10587850970E+04  0.25500000920E-02 0.  1.
        2   -1    0    0  501    0  0.00000000000E+00  0.00000000000E+00 -0.26129905363E+04  0.26129905363E+04  0.25500000920E-02 0. -1.
    10030    2    1    2    0    0  0.00000000000E+00  0.00000000000E+00 -0.15542054393E+04  0.36717756334E+04  0.33266171638E+04 0.  0.
        2    1    3    3  502    0  0.19169080542E+03 -0.52564753689E+03 -0.25060044239E+04  0.25677049812E+04  0.25500000920E-02 0. -1.
       -2    1    3    3    0  502 -0.19169080542E+03  0.52564753689E+03  0.95179898459E+03  0.11040706522E+04  0.25500000920E-02 0.  1.
</event>
<event>
 5   0  0.3671997E-06  0.3278674E+04  0.7818609E-02  0.8168343E-01
       -2   -1    0    0    0  501  0.00000000000E+00  0.00000000000E+00  0.19154038499E+04  0.19154038499E+04  0.25500000920E-02 0. -1.
        2   -1    0    0  501    0  0.00000000000E+00  0.00000000000E+00 -0.14030592756E+04  0.14030592756E+04  0.25500000920E-02 0.  1.
    10030    2    1    2    0    0  0.00000000000E+00  0.00000000000E+00  0.51234457424E+03  0.33184631255E+04  0.32786735965E+04 0.  0.
        2    1    3    3  502    0 -0.12739357963E+03  0.61251201986E+03  0.17898253379E+04  0.18960155165E+04  0.25500000920E-02 0. -1.
       -2    1    3    3    0  502  0.12739357963E+03 -0.61251201986E+03 -0.12774807637E+04  0.14224476090E+04  0.25500000920E-02 0.  1.
</event>
<event>
 5   0  0.1391878E-06  0.3086747E+04  0.7818609E-02  0.8219384E-01
       -1   -1    0    0    0  501  0.00000000000E+00  0.00000000000E+00  0.13209558005E+04  0.13209558005E+04  0.50400001928E-02 0.  1.
        1   -1    0    0  501    0  0.00000000000E+00  0.00000000000E+00 -0.18032414608E+04  0.18032414608E+04  0.50400001928E-02 0. -1.
    10030    2    1    2    0    0  0.00000000000E+00  0.00000000000E+00 -0.48228566030E+03  0.31241972613E+04  0.30867473284E+04 0.  0.
        2    1    3    3  502    0  0.50322183030E+03 -0.10160164897E+04  0.81869113258E+03  0.13984909325E+04  0.25500000920E-02 0.  1.
       -2    1    3    3    0  502 -0.50322183030E+03  0.10160164897E+04 -0.13009767929E+04  0.17257063288E+04  0.25500000920E-02 0. -1.
</event>
<event>
 5   0  0.1282578E-06  0.3294654E+04  0.7818609E-02  0.8164257E-01
        1   -1    0    0  501    0  0.00000000000E+00  0.00000000000E+00  0.16832374675E+04  0.16832374675E+04  0.50400001928E-02 0.  1.
       -1   -1    0    0    0  501  0.00000000000E+00  0.00000000000E+00 -0.16121824546E+04  0.16121824546E+04  0.50400001928E-02 0. -1.
    10030    2    1    2    0    0  0.00000000000E+00  0.00000000000E+00  0.71055012871E+02  0.32954199221E+04  0.32946537979E+04 0.  0.
        4    1    3    3  502    0 -0.54419986519E+02 -0.10365968508E+03 -0.16080153927E+04  0.16122723037E+04  0.12699999809E+01 0. -1.
       -4    1    3    3    0  502  0.54419986519E+02  0.10365968508E+03  0.16790704056E+04  0.16831476183E+04  0.12699999809E+01 0.  1.
</event>
<event>
 5   0  0.1339825E-06  0.3309478E+04  0.7818609E-02  0.8160488E-01
       -1   -1    0    0    0  501  0.00000000000E+00  0.00000000000E+00  0.84091627017E+03  0.84091627019E+03  0.50400001928E-02 0. -1.
        1   -1    0    0  501    0  0.00000000000E+00  0.00000000000E+00 -0.32561638331E+04  0.32561638331E+04  0.50400001928E-02 0.  1.
    10030    2    1    2    0    0  0.00000000000E+00  0.00000000000E+00 -0.24152475629E+04  0.40970801033E+04  0.33094779924E+04 0.  0.
        3    1    3    3  502    0 -0.33564856189E+03  0.81600212314E+03  0.52539510349E+03  0.10269174490E+04  0.10100000352E+00 0. -1.
       -3    1    3    3    0  502  0.33564856189E+03 -0.81600212314E+03 -0.29406426664E+04  0.30701626543E+04  0.10100000352E+00 0.  1.
</event>
<event>
 5   0  0.3812379E-06  0.3326225E+04  0.7818609E-02  0.8156254E-01
        2   -1    0    0  501    0  0.00000000000E+00  0.00000000000E+00  0.20257474972E+04  0.20257474972E+04  0.25500000920E-02 0. -1.
       -2   -1    0    0    0  501  0.00000000000E+00  0.00000000000E+00 -0.13653935732E+04  0.13653935732E+04  0.25500000920E-02 0.  1.
    10030    2    1    2    0    0  0.00000000000E+00  0.00000000000E+00  0.66035392406E+03  0.33911410704E+04  0.33262246548E+04 0.  0.
        5    1    3    3  502    0 -0.14667040985E+04  0.53776542287E+03 -0.25149092223E+03  0.15823028587E+04  0.46999998093E+01 0.  1.
       -5    1    3    3    0  502  0.14667040985E+04 -0.53776542287E+03  0.91184484629E+03  0.18088382118E+04  0.46999998093E+01 0. -1.
</event>
<event>
 5   0  0.1282578E-06  0.3062495E+04  0.7818609E-02  0.8226107E-01
        1   -1    0    0  501    0  0.00000000000E+00  0.00000000000E+00  0.10950613833E+04  0.10950613833E+04  0.50400001928E-02 0.  1.
       -1   -1    0    0    0  501  0.00000000000E+00  0.00000000000E+00 -0.21411760011E+04  0.21411760012E+04  0.50400001928E-02 0. -1.
    10030    2    1    2    0    0  0.00000000000E+00  0.00000000000E+00 -0.10461146179E+04  0.32362373844E+04  0.30624951616E+04 0.  0.
        4    1    3    3  502    0 -0.42851627208E+03  0.10105180208E+04  0.60519659867E+03  0.12534103086E+04  0.12699999809E+01 0.  1.
       -4    1    3    3    0  502  0.42851627208E+03 -0.10105180208E+04 -0.16513112165E+04  0.19828270758E+04  0.12699999809E+01 0. -1.
</event>
<event>
 5   0  0.3812379E-06  0.3212580E+04  0.7818609E-02  0.8185503E-01
       -2   -1    0    0    0  501  0.00000000000E+00  0.00000000000E+00  0.12235825259E+04  0.12235825259E+04  0.25500000920E-02 0.  1.
        2   -1    0    0  501    0  0.00000000000E+00  0.00000000000E+00 -0.21086987006E+04  0.21086987007E+04  0.25500000920E-02 0. -1.
    10030    2    1    2    0    0  0.00000000000E+00  0.00000000000E+00 -0.88511617477E+03  0.33322812265E+04  0.32125795756E+04 0.  0.
        5    1    3    3  502    0 -0.13275668389E+04 -0.87148158801E+03 -0.69286024155E+03  0.17326255436E+04  0.46999998093E+01 0. -1.
       -5    1    3    3    0  502  0.13275668389E+04  0.87148158801E+03 -0.19225593322E+03  0.15996556829E+04  0.46999998093E+01 0.  1.
</event>
<event>
 5   0  0.1282578E-06  0.2559558E+04  0.7818609E-02  0.8382070E-01
       -1   -1    0    0    0  501  0.00000000000E+00  0.00000000000E+00  0.13606650899E+04  0.13606650899E+04  0.50400001928E-02 0. -1.
        1   -1    0    0  501    0  0.00000000000E+00  0.00000000000E+00 -0.12037009700E+04  0.12037009700E+04  0.50400001928E-02 0.  1.
    10030    2    1    2    0    0  0.00000000000E+00  0.00000000000E+00  0.15696411991E+03  0.25643660599E+04  0.25595576873E+04 0.  0.
        4    1    3    3  502    0 -0.10703143588E+04  0.59529762972E+03  0.45050183078E+03  0.13049542547E+04  0.12699999809E+01 0. -1.
       -4    1    3    3    0  502  0.10703143588E+04 -0.59529762972E+03 -0.29353771087E+03  0.12594118052E+04  0.12699999809E+01 0.  1.
</event>
<event>
 5   0  0.1352708E-06  0.3051617E+04  0.7818609E-02  0.8229143E-01
        1   -1    0    0  501    0  0.00000000000E+00  0.00000000000E+00  0.16575634249E+04  0.16575634249E+04  0.50400001928E-02 0.  1.
       -1   -1    0    0    0  501  0.00000000000E+00  0.00000000000E+00 -0.14045259411E+04  0.14045259411E+04  0.50400001928E-02 0. -1.
    10030    2    1    2    0    0  0.00000000000E+00  0.00000000000E+00  0.25303748381E+03  0.30620893659E+04  0.30516165088E+04 0.  0.
        5    1    3    3  502    0  0.33147380287E+03  0.64239413038E+03 -0.12217904489E+04  0.14196263916E+04  0.46999998093E+01 0. -1.
       -5    1    3    3    0  502 -0.33147380287E+03 -0.64239413038E+03  0.14748279327E+04  0.16424629743E+04  0.46999998093E+01 0.  1.
</event>
<event>
 5   0  0.1339825E-06  0.3306281E+04  0.7818609E-02  0.8161299E-01
        1   -1    0    0  501    0  0.00000000000E+00  0.00000000000E+00  0.20054192645E+04  0.20054192645E+04  0.50400001928E-02 0.  1.
       -1   -1    0    0    0  501  0.00000000000E+00  0.00000000000E+00 -0.13627439180E+04  0.13627439180E+04  0.50400001928E-02 0. -1.
    10030    2    1    2    0    0  0.00000000000E+00  0.00000000000E+00  0.64267534653E+03  0.33681631825E+04  0.33062806328E+04 0.  0.
        3    1    3    3  502    0  0.14515755259E+04  0.45088056831E+03  0.98350985424E+03  0.18104299042E+04  0.10100000352E+00 0.  1.
       -3    1    3    3    0  502 -0.14515755259E+04 -0.45088056831E+03 -0.34083450771E+03  0.15577332783E+04  0.10100000352E+00 0. -1.
</event>
<event>
 5   0  0.1339825E-06  0.3168130E+04  0.7818609E-02  0.8197285E-01
        1   -1    0    0  501    0  0.00000000000E+00  0.00000000000E+00  0.19743854481E+04  0.19743854481E+04  0.50400001928E-02 0. -1.
       -1   -1    0    0    0  501  0.00000000000E+00  0.00000000000E+00 -0.12709080305E+04  0.12709080305E+04  0.50400001928E-02 0.  1.
    10030    2    1    2    0    0  0.00000000000E+00  0.00000000000E+00  0.70347741758E+03  0.32452934786E+04  0.31681302506E+04 0.  0.
        3    1    3    3  502    0 -0.32929539569E+03  0.66722498009E+03  0.17842404115E+04  0.19331679926E+04  0.10100000352E+00 0. -1.
       -3    1    3    3    0  502  0.32929539569E+03 -0.66722498009E+03 -0.10807629939E+04  0.13121254859E+04  0.10100000352E+00 0.  1.
</event>
<event>
 5   0  0.3920487E-06  0.2884797E+04  0.7818609E-02  0.8277415E-01
       -2   -1    0    0    0  501  0.00000000000E+00  0.00000000000E+00  0.88902668150E+03  0.88902668150E+03  0.25500000920E-02 0.  1.
        2   -1    0    0  501    0  0.00000000000E+00  0.00000000000E+00 -0.23402154705E+04  0.23402154705E+04  0.25500000920E-02 0. -1.
    10030    2    1    2    0    0  0.00000000000E+00  0.00000000000E+00 -0.14511887890E+04  0.32292421520E+04  0.28847973889E+04 0.  0.
        4    1    3    3  502    0 -0.56150585110E+03 -0.24726120150E+03 -0.21868661220E+04  0.22713018230E+04  0.12699999809E+01 0. -1.
       -4    1    3    3    0  502  0.56150585110E+03  0.24726120150E+03  0.73567733306E+03  0.95794032897E+03  0.12699999809E+01 0.  1.
</event>
<event>
 5   0  0.3671997E-06  0.3303577E+04  0.7818609E-02  0.8161986E-01
       -2   -1    0    0    0  501  0.00000000000E+00  0.00000000000E+00  0.13096443066E+04  0.13096443066E+04  0.25500000920E-02 0. -1.
        2   -1    0    0  501    0  0.00000000000E+00  0.00000000000E+00 -0.20833176620E+04  0.20833176620E+04  0.25500000920E-02 0.  1.
    10030    2    1    2    0    0  0.00000000000E+00  0.00000000000E+00 -0.77367335541E+03  0.33929619686E+04  0.33035769189E+04 0.  0.
        2    1    3    3  502    0 -0.84496861557E+03 -0.14162858624E+04 -0.48190194317E+03  0.17181580510E+04  0.25500000920E-02 0.  1.
       -2    1    3    3    0  502  0.84496861557E+03  0.14162858624E+04 -0.29177141225E+03  0.16748039176E+04  0.25500000920E-02 0. -1.
</event>
<event>
 5   0  0.1339825E-06  0.3293359E+04  0.7818609E-02  0.8164587E-01
       -1   -1    0    0    0  501  0.00000000000E+00  0.00000000000E+00  0.30107090369E+04  0.30107090369E+04  0.50400001928E-02 0.  1.
        1   -1    0    0  501    0  0.00000000000E+00  0.00000000000E+00 -0.90063630893E+03  0.90063630895E+03  0.50400001928E-02 0. -1.
    10030    2    1    2    0    0  0.00000000000E+00  0.00000000000E+00  0.21100727279E+04  0.39113453458E+04  0.32933593028E+04 0.  0.
        3    1    3    3  502    0  0.13904105231E+04  0.65282026474E+03  0.35027257232E+03  0.15754702809E+04  0.10100000352E+00 0. -1.
       -3    1    3    3    0  502 -0.13904105231E+04 -0.65282026474E+03  0.17598001556E+04  0.23358750649E+04  0.10100000352E+00 0.  1.
</event>
<event>
 5   0  0.3896210E-06  0.3203970E+04  0.7818609E-02  0.8187769E-01
       -2   -1    0    0    0  501  0.00000000000E+00  0.00000000000E+00  0.16895669985E+04  0.16895669985E+04  0.25500000920E-02 0. -1.
        2   -1    0    0  501    0  0.00000000000E+00  0.00000000000E+00 -0.15189430058E+04  0.15189430058E+04  0.25500000920E-02 0.  1.
    10030    2    1    2    0    0  0.00000000000E+00  0.00000000000E+00  0.17062399269E+03  0.32085100043E+04  0.32039700218E+04 0.  0.
        3    1    3    3  502    0  0.14583490249E+04 -0.11719066831E+03  0.73880117682E+03  0.16390066261E+04  0.10100000352E+00 0. -1.
       -3    1    3    3    0  502 -0.14583490249E+04  0.11719066831E+03 -0.56817718413E+03  0.15695033782E+04  0.10100000352E+00 0.  1.
</event>
<event>
 5   0  0.1405389E-06  0.3101063E+04  0.7818609E-02  0.8215446E-01
       -1   -1    0    0    0  501  0.00000000000E+00  0.00000000000E+00  0.10997723642E+04  0.10997723642E+04  0.50400001928E-02 0.  1.
        1   -1    0    0  501    0  0.00000000000E+00  0.00000000000E+00 -0.21860414084E+04  0.21860414084E+04  0.50400001928E-02 0. -1.
    10030    2    1    2    0    0  0.00000000000E+00  0.00000000000E+00 -0.10862690442E+04  0.32858137726E+04  0.31010629971E+04 0.  0.
        1    1    3    3  502    0  0.11628247361E+04 -0.10256638232E+04 -0.54257092628E+03  0.16427205651E+04  0.50400001928E-02 0. -1.
       -1    1    3    3    0  502 -0.11628247361E+04  0.10256638232E+04 -0.54369811794E+03  0.16430932075E+04  0.50400001928E-02 0.  1.
</event>
<event>
 5   0  0.1282578E-06  0.3071739E+04  0.7818609E-02  0.8223537E-01
        1   -1    0    0  501    0  0.00000000000E+00  0.00000000000E+00  0.22139850340E+04  0.22139850340E+04  0.50400001928E-02 0. -1.
       -1   -1    0    0    0  501  0.00000000000E+00  0.00000000000E+00 -0.10654518416E+04  0.10654518416E+04  0.50400001928E-02 0.  1.
    10030    2    1    2    0    0  0.00000000000E+00  0.00000000000E+00  0.11485331924E+04  0.32794368756E+04  0.30717385512E+04 0.  0.
        4    1    3    3  502    0 -0.58165406241E+03 -0.29236549659E+03  0.20594019505E+04  0.21598465312E+04  0.12699999809E+01 0. -1.
       -4    1    3    3    0  502  0.58165406241E+03  0.29236549659E+03 -0.91086875805E+03  0.11195903444E+04  0.12699999809E+01 0.  1.
</event>
<event>
 5   0  0.1352708E-06  0.2583782E+04  0.7818609E-02  0.8373731E-01
        1   -1    0    0  501    0  0.00000000000E+00  0.00000000000E+00  0.77478122139E+03  0.77478122141E+03  0.50400001928E-02 0.  1.
       -1   -1    0    0    0  501  0.00000000000E+00  0.00000000000E+00 -0.21541330544E+04  0.21541330544E+04  0.50400001928E-02 0. -1.
    10030    2    1    2    0    0  0.00000000000E+00  0.00000000000E+00 -0.13793518330E+04  0.29289142758E+04  0.25837815998E+04 0.  0.
        5    1    3    3  502    0  0.11032106323E+04  0.14506042932E+03  0.54388684225E+02  0.11140450827E+04  0.46999998093E+01 0.  1.
       -5    1    3    3    0  502 -0.11032106323E+04 -0.14506042932E+03 -0.14337405172E+04  0.18148691931E+04  0.46999998093E+01 0. -1.
</event>
<event>
 5   0  0.3896210E-06  0.3386470E+04  0.7818609E-02  0.8141235E-01
        2   -1    0    0  501    0  0.00000000000E+00  0.00000000000E+00  0.22120660645E+04  0.22120660645E+04  0.25500000920E-02 0. -1.
       -2   -1    0    0    0  501  0.00000000000E+00  0.00000000000E+00 -0.12960936341E+04  0.12960936341E+04  0.25500000920E-02 0.  1.
    10030    2    1    2    0    0  0.00000000000E+00  0.00000000000E+00  0.91597243042E+03  0.35081596985E+04  0.33864699876E+04 0.  0.
        3    1    3    3  502    0 -0.70413345123E+03  0.15135940208E+04  0.75149388883E+03  0.18307140279E+04  0.10100000352E+00 0. -1.
       -3    1    3    3    0  502  0.70413345123E+03 -0.15135940208E+04  0.16447854158E+03  0.16774456706E+04  0.10100000352E+00 0.  1.
</event>
<event>
 5   0  0.1405389E-06  0.2793851E+04  0.7818609E-02  0.8305180E-01
        1   -1    0    0  501    0  0.00000000000E+00  0.00000000000E+00  0.13393872600E+04  0.13393872600E+04  0.50400001928E-02 0.  1.
       -1   -1    0    0    0  501  0.00000000000E+00  0.00000000000E+00 -0.14569351996E+04  0.14569351997E+04  0.50400001928E-02 0. -1.
    10030    2    1    2    0    0  0.00000000000E+00  0.00000000000E+00 -0.11754793964E+03  0.27963224597E+04  0.27938507083E+04 0.  0.
        1    1    3    3  502    0  0.10693122366E+03 -0.74459763075E+03  0.11193572699E+04  0.13486365767E+04  0.50400001928E-02 0.  1.
       -1    1    3    3    0  502 -0.10693122366E+03  0.74459763075E+03 -0.12369052095E+04  0.14476858830E+04  0.50400001928E-02 0. -1.
</event>
<event>
 5   0  0.4017247E-06  0.3299243E+04  0.7818609E-02  0.8163088E-01
        2   -1    0    0  501    0  0.00000000000E+00  0.00000000000E+00  0.33157264924E+04  0.33157264924E+04  0.25500000920E-02 0. -1.
       -2   -1    0    0    0  501  0.00000000000E+00  0.00000000000E+00 -0.82071038012E+03  0.82071038013E+03  0.25500000920E-02 0.  1.
    10030    2    1    2    0    0  0.00000000000E+00  0.00000000000E+00  0.24950161123E+04  0.41364368725E+04  0.32992430344E+04 0.  0.
        1    1    3    3  502    0 -0.12682187263E+03 -0.14042173159E+04  0.17385218609E+03  0.14206106576E+04  0.50400001928E-02 0.  1.
       -1    1    3    3    0  502  0.12682187263E+03  0.14042173159E+04  0.23211639262E+04  0.27158262150E+04  0.50400001928E-02 0. -1.
</event>
<event>
 5   0  0.1282578E-06  0.3218601E+04  0.7818609E-02  0.8183922E-01
        1   -1    0    0  501    0  0.00000000000E+00  0.00000000000E+00  0.15503003273E+04  0.15503003273E+04  0.50400001928E-02 0. -1.
       -1   -1    0    0    0  501  0.00000000000E+00  0.00000000000E+00 -0.16705462814E+04  0.16705462814E+04  0.50400001928E-02 0.  1.
    10030    2    1    2    0    0  0.00000000000E+00  0.00000000000E+00 -0.12024595411E+03  0.32208466086E+04  0.32186012159E+04 0.  0.
        4    1    3    3  502    0  0.13596903340E+04 -0.70019709460E+03  0.44103880286E+03  0.15917131068E+04  0.12699999809E+01 0. -1.
       -4    1    3    3    0  502 -0.13596903340E+04  0.70019709460E+03 -0.56128475697E+03  0.16291335019E+04  0.12699999809E+01 0.  1.
</event>
<event>
 5   0  0.1352708E-06  0.3293330E+04  0.7818609E-02  0.8164595E-01
       -1   -1    0    0    0  501  0.00000000000E+00  0.00000000000E+00  0.96550701079E+03  0.96550701080E+03  0.50400001928E-02 0.  1.
        1   -1    0    0  501    0  0.00000000000E+00  0.00000000000E+00 -0.28083740265E+04  0.28083740265E+04  0.50400001928E-02 0. -1.
    10030    2    1    2    0    0  0.00000000000E+00  0.00000000000E+00 -0.18428670157E+04  0.37738810373E+04  0.32933295077E+04 0.  0.
        5    1    3    3  502    0 -0.12201164966E+04 -0.97351962553E+03 -0.15224206173E+04  0.21804154082E+04  0.46999998093E+01 0.  1.
       -5    1    3    3    0  502  0.12201164966E+04  0.97351962553E+03 -0.32044639841E+03  0.15934656290E+04  0.46999998093E+01 0. -1.
</event>
<event>
 5   0  0.1391878E-06  0.3060933E+04  0.7818609E-02  0.8226542E-01
        1   -1    0    0  501    0  0.00000000000E+00  0.00000000000E+00  0.26078686305E+04  0.26078686305E+04  0.50400001928E-02 0. -1.
       -1   -1    0    0    0  501  0.00000000000E+00  0.00000000000E+00 -0.89817690635E+03  0.89817690637E+03  0.50400001928E-02 0.  1.
    10030    2    1    2    0    0  0.00000000000E+00  0.00000000000E+00  0.17096917241E+04  0.35060455368E+04  0.30609327851E+04 0.  0.
        2    1    3    3  502    0  0.10150267748E+04 -0.11094402887E+04  0.11812200132E+04  0.19121762019E+04  0.25500000920E-02 0. -1.
       -2    1    3    3    0  502 -0.10150267748E+04  0.11094402887E+04  0.52847171086E+03  0.15938693349E+04  0.25500000920E-02 0.  1.
</event>
<event>
 5   0  0.1282578E-06  0.3227412E+04  0.7818609E-02  0.8181615E-01
        1   -1    0    0  501    0  0.00000000000E+00  0.00000000000E+00  0.18583257977E+04  0.18583257978E+04  0.50400001928E-02 0.  1.
       -1   -1    0    0    0  501  0.00000000000E+00  0.00000000000E+00 -0.14012867462E+04  0.14012867462E+04  0.50400001928E-02 0. -1.
    10030    2    1    2    0    0  0.00000000000E+00  0.00000000000E+00  0.45703905159E+03  0.32596125439E+04  0.32274121587E+04 0.  0.
        4    1    3    3  502    0  0.88103470375E+03 -0.13268930412E+04 -0.33254405628E+02  0.15931022442E+04  0.12699999809E+01 0. -1.
       -4    1    3    3    0  502 -0.88103470375E+03  0.13268930412E+04  0.49029345722E+03  0.16665102997E+04  0.12699999809E+01 0.  1.
</event>
<event>
 5   0  0.1352708E-06  0.3288152E+04  0.7818609E-02  0.8165917E-01
       -1   -1    0    0    0  501  0.00000000000E+00  0.00000000000E+00  0.19300265333E+04  0.19300265333E+04  0.50400001928E-02 0.  1.
        1   -1    0    0  501    0  0.00000000000E+00  0.00000000000E+00 -0.14004915525E+04  0.14004915525E+04  0.50400001928E-02 0. -1.
    10030    2    1    2    0    0  0.00000000000E+00  0.00000000000E+00  0.52953498076E+03  0.33305180858E+04  0.32881519770E+04 0.  0.
        5    1    3    3  502    0  0.12167384275E+04  0.45659024211E+03 -0.75520099691E+03  0.15030893806E+04  0.46999998093E+01 0. -1.
       -5    1    3    3    0  502 -0.12167384275E+04 -0.45659024211E+03  0.12847359777E+04  0.18274287052E+04  0.46999998093E+01 0.  1.
</event>
<event>
 5   0  0.3671997E-06  0.3284202E+04  0.7818609E-02  0.8166927E-01
        2   -1    0    0  501    0  0.00000000000E+00  0.00000000000E+00  0.13131995187E+04  0.13131995187E+04  0.25500000920E-02 0. -1.
       -2   -1    0    0    0  501  0.00000000000E+00  0.00000000000E+00 -0.20533787346E+04  0.20533787346E+04  0.25500000920E-02 0.  1.
    10030    2    1    2    0    0  0.00000000000E+00  0.00000000000E+00 -0.74017921587E+03  0.33665782533E+04  0.32842021656E+04 0.  0.
        2    1    3    3  502    0 -0.49735601288E+03  0.52122975456E+03  0.11425420172E+04  0.13507204454E+04  0.25500000920E-02 0. -1.
       -2    1    3    3    0  502  0.49735601288E+03 -0.52122975456E+03 -0.18827212330E+04  0.20158578080E+04  0.25500000920E-02 0.  1.
</event>
<event>
 5   0  0.1405389E-06  0.2626103E+04  0.7818609E-02  0.8359388E-01
        1   -1    0    0  501    0  0.00000000000E+00  0.00000000000E+00  0.12584363712E+04  0.12584363712E+04  0.50400001928E-02 0. -1.
       -1   -1    0    0    0  501  0.00000000000E+00  0.00000000000E+00 -0.13700369081E+04  0.13700369081E+04  0.50400001928E-02 0.  1.
    10030    2    1    2    0    0  0.00000000000E+00  0.00000000000E+00 -0.11160053693E+03  0.26284732793E+04  0.26261030254E+04 0.  0.
        1    1    3    3  502    0  0.60873894211E+03  0.54929292174E+03  0.97070740688E+03  0.12706528571E+04  0.50400001928E-02 0. -1.
       -1    1    3    3    0  502 -0.60873894211E+03 -0.54929292174E+03 -0.10823079438E+04  0.13578204221E+04  0.50400001928E-02 0.  1.
</event>
<event>
 5   0  0.1405389E-06  0.3226010E+04  0.7818609E-02  0.8181981E-01
       -1   -1    0    0    0  501  0.00000000000E+00  0.00000000000E+00  0.15738228930E+04  0.15738228930E+04  0.50400001928E-02 0.  1.
        1   -1    0    0  501    0  0.00000000000E+00  0.00000000000E+00 -0.16531630813E+04  0.16531630813E+04  0.50400001928E-02 0. -1.
    10030    2    1    2    0    0  0.00000000000E+00  0.00000000000E+00 -0.79340188308E+02  0.32269859743E+04  0.32260104793E+04 0.  0.
        1    1    3    3  502    0 -0.14442340901E+04  0.71823935981E+03 -0.29370474027E+02  0.16132397559E+04  0.50400001928E-02 0.  1.
       -1    1    3    3    0  502  0.14442340901E+04 -0.71823935981E+03 -0.49969714281E+02  0.16137462184E+04  0.50400001928E-02 0. -1.
</event>
<event>
 5   0  0.1405389E-06  0.2374913E+04  0.7818609E-02  0.8448956E-01
       -1   -1    0    0    0  501  0.00000000000E+00  0.00000000000E+00  0.10710941543E+04  0.10710941543E+04  0.50400001928E-02 0.  1.
        1   -1    0    0  501    0  0.00000000000E+00  0.00000000000E+00 -0.13164605398E+04  0.13164605398E+04  0.50400001928E-02 0. -1.
    10030    2    1    2    0    0  0.00000000000E+00  0.00000000000E+00 -0.24536638545E+03  0.23875546941E+04  0.23749132098E+04 0.  0.
        1    1    3    3  502    0  0.75529695810E+03  0.85065261209E+03  0.21967292350E+03  0.11585937833E+04  0.50400001928E-02 0.  1.
       -1    1    3    3    0  502 -0.75529695810E+03 -0.85065261209E+03 -0.46503930895E+03  0.12289609108E+04  0.50400001928E-02 0. -1.
</event>
<event>
 5   0  0.3920487E-06  0.3469021E+04  0.7818609E-02  0.8121171E-01
       -2   -1    0    0    0  501  0.00000000000E+00  0.00000000000E+00  0.17450691538E+04  0.17450691538E+04  0.25500000920E-02 0. -1.
        2   -1    0    0  501    0  0.00000000000E+00  0.00000000000E+00 -0.17240159003E+04  0.17240159003E+04  0.25500000920E-02 0.  1.
    10030    2    1    2    0    0  0.00000000000E+00  0.00000000000E+00  0.21053253447E+02  0.34690850541E+04  0.34690211693E+04 0.  0.
        4    1    3    3  502    0  0.12516462425E+04  0.53236448241E+03 -0.10658272957E+04  0.17280103286E+04  0.12699999809E+01 0.  1.
       -4    1    3    3    0  502 -0.12516462425E+04 -0.53236448241E+03  0.10868805492E+04  0.17410747255E+04  0.12699999809E+01 0. -1.
</event>
<event>
 5   0  0.1339825E-06  0.3347198E+04  0.7818609E-02  0.8150989E-01
        1   -1    0    0  501    0  0.00000000000E+00  0.00000000000E+00  0.13437855928E+04  0.13437855928E+04  0.50400001928E-02 0. -1.
       -1   -1    0    0    0  501  0.00000000000E+00  0.00000000000E+00 -0.20843607350E+04  0.20843607350E+04  0.50400001928E-02 0.  1.
    10030    2    1    2    0    0  0.00000000000E+00  0.00000000000E+00 -0.74057514222E+03  0.34281463278E+04  0.33471981871E+04 0.  0.
        3    1    3    3  502    0  0.15718055736E+04 -0.27675729270E+02 -0.95827544323E+03  0.18410949303E+04  0.10100000352E+00 0.  1.
       -3    1    3    3    0  502 -0.15718055736E+04  0.27675729270E+02  0.21770030101E+03  0.15870513975E+04  0.10100000352E+00 0. -1.
</event>
<event>
 5   0  0.3920487E-06  0.3280679E+04  0.7818609E-02  0.8167829E-01
       -2   -1    0    0    0  501  0.00000000000E+00  0.00000000000E+00  0.13937706720E+04  0.13937706720E+04  0.25500000920E-02 0. -1.
        2   -1    0    0  501    0  0.00000000000E+00  0.00000000000E+00 -0.19305285271E+04  0.19305285271E+04  0.25500000920E-02 0.  1.
    10030    2    1    2    0    0  0.00000000000E+00  0.00000000000E+00 -0.53675785507E+03  0.33242991992E+04  0.32806792240E+04 0.  0.
        4    1    3    3  502    0 -0.46342242564E+03  0.88120720171E+03  0.10525743592E+04  0.14488619229E+04  0.12699999809E+01 0. -1.
       -4    1    3    3    0  502  0.46342242564E+03 -0.88120720171E+03 -0.15893322143E+04  0.18754372763E+04  0.12699999809E+01 0.  1.
</event>
<event>
 5   0  0.3896210E-06  0.2691071E+04  0.7818609E-02  0.8337908E-01
       -2   -1    0    0    0  501  0.00000000000E+00  0.00000000000E+00  0.14445346432E+04  0.14445346432E+04  0.25500000920E-02 0. -1.
        2   -1    0    0  501    0  0.00000000000E+00  0.00000000000E+00 -0.12533211778E+04  0.12533211778E+04  0.25500000920E-02 0.  1.
    10030    2    1    2    0    0  0.00000000000E+00  0.00000000000E+00  0.19121346541E+03  0.26978558210E+04  0.26910710584E+04 0.  0.
        3    1    3    3  502    0 -0.83410112921E+03 -0.99341440134E+03 -0.26288255060E+03  0.13235195927E+04  0.10100000352E+00 0.  1.
       -3    1    3    3    0  502  0.83410112921E+03  0.99341440134E+03  0.45409601601E+03  0.13743362283E+04  0.10100000352E+00 0. -1.
</event>
<event>
 5   0  0.4017247E-06  0.3286204E+04  0.7818609E-02  0.8166415E-01
        2   -1    0    0  501    0  0.00000000000E+00  0.00000000000E+00  0.20741649864E+04  0.20741649865E+04  0.25500000920E-02 0.  1.
       -2   -1    0    0    0  501  0.00000000000E+00  0.00000000000E+00 -0.13016243429E+04  0.13016243430E+04  0.25500000920E-02 0. -1.
    10030    2    1    2    0    0  0.00000000000E+00  0.00000000000E+00  0.77254064350E+03  0.33757893294E+04  0.32862036685E+04 0.  0.
        1    1    3    3  502    0 -0.74079946555E+03 -0.83062782253E+03  0.16279640022E+04  0.19720530470E+04  0.50400001928E-02 0.  1.
       -1    1    3    3    0  502  0.74079946555E+03  0.83062782253E+03 -0.85542335874E+03  0.14037362824E+04  0.50400001928E-02 0. -1.
</event>
<event>
 5   0  0.3920487E-06  0.3334971E+04  0.7818609E-02  0.8154054E-01
        2   -1    0    0  501    0  0.00000000000E+00  0.00000000000E+00  0.28892931160E+04  0.28892931160E+04  0.25500000920E-02 0.  1.
       -2   -1    0    0    0  501  0.00000000000E+00  0.00000000000E+00 -0.96234889899E+03  0.96234889899E+03  0.25500000920E-02 0. -1.
    10030    2    1    2    0    0  0.00000000000E+00  0.00000000000E+00  0.19269442170E+04  0.38516420150E+04  0.33349710937E+04 0.  0.
        4    1    3    3  502    0  0.14207817300E+04  0.35437058446E+03  0.18847428114E+04  0.23867250184E+04  0.12699999809E+01 0. -1.
       -4    1    3    3    0  502 -0.14207817300E+04 -0.35437058446E+03  0.42201405576E+02  0.14649169966E+04  0.12699999809E+01 0.  1.
</event>
<event>
 5   0  0.1339825E-06  0.3224207E+04  0.7818609E-02  0.8182453E-01
       -1   -1    0    0    0  501  0.00000000000E+00  0.00000000000E+00  0.17602080635E+04  0.17602080635E+04  0.50400001928E-02 0. -1.
        1   -1    0    0  501    0  0.00000000000E+00  0.00000000000E+00 -0.14764603934E+04  0.14764603934E+04  0.50400001928E-02 0.  1.
    10030    2    1    2    0    0  0.00000000000E+00  0.00000000000E+00  0.28374767017E+03  0.32366684569E+04  0.32242068730E+04 0.  0.
        3    1    3    3  502    0  0.95860336255E+03  0.78105261363E+03 -0.89649041747E+03  0.15273043805E+04  0.10100000352E+00 0.  1.
       -3    1    3    3    0  502 -0.95860336255E+03 -0.78105261363E+03  0.11802380876E+04  0.17093640764E+04  0.10100000352E+00 0. -1.
</event>
<event>
 5   0  0.3896210E-06  0.3296459E+04  0.7818609E-02  0.8163797E-01
       -2   -1    0    0    0  501  0.00000000000E+00  0.00000000000E+00  0.12021482439E+04  0.12021482439E+04  0.25500000920E-02 0.  1.
        2   -1    0    0  501    0  0.00000000000E+00  0.00000000000E+00 -0.22598378277E+04  0.22598378277E+04  0.25500000920E-02 0. -1.
    10030    2    1    2    0    0  0.00000000000E+00  0.00000000000E+00 -0.10576895839E+04  0.34619860716E+04  0.32964587521E+04 0.  0.
        3    1    3    3  502    0 -0.45798716957E+03 -0.61107300281E+03  0.10051495230E+04  0.12623343598E+04  0.10100000352E+00 0.  1.
       -3    1    3    3    0  502  0.45798716957E+03  0.61107300281E+03 -0.20628391068E+04  0.21996517118E+04  0.10100000352E+00 0. -1.
</event>
<event>
 5   0  0.1339825E-06  0.2777714E+04  0.7818609E-02  0.8310221E-01
       -1   -1    0    0    0  501  0.00000000000E+00  0.00000000000E+00  0.68790144789E+03  0.68790144791E+03  0.50400001928E-02 0. -1.
        1   -1    0    0  501    0  0.00000000000E+00  0.00000000000E+00 -0.28040704948E+04  0.28040704948E+04  0.50400001928E-02 0.  1.
    10030    2    1    2    0    0  0.00000000000E+00  0.00000000000E+00 -0.21161690469E+04  0.34919719427E+04  0.27777142786E+04 0.  0.
        3    1    3    3  502    0  0.90732772759E+03  0.10245018157E+04 -0.76038791593E+03  0.15655789244E+04  0.10100000352E+00 0. -1.
       -3    1    3    3    0  502 -0.90732772759E+03 -0.10245018157E+04 -0.13557811310E+04  0.19263930183E+04  0.10100000352E+00 0.  1.
</event>
<event>
 5   0  0.3920487E-06  0.3244448E+04  0.7818609E-02  0.8177176E-01
        2   -1    0    0  501    0  0.00000000000E+00  0.00000000000E+00  0.11739793303E+04  0.11739793303E+04  0.25500000920E-02 0. -1.
       -2   -1    0    0    0  501  0.00000000000E+00  0.00000000000E+00 -0.22416159548E+04  0.22416159548E+04  0.25500000920E-02 0.  1.
    10030    2    1    2    0    0  0.00000000000E+00  0.00000000000E+00 -0.10676366245E+04  0.34155952852E+04  0.32444480563E+04 0.  0.
        4    1    3    3  502    0 -0.25685616534E+03  0.13959075366E+04  0.29316166335E+03  0.14493026993E+04  0.12699999809E+01 0.  1.
       -4    1    3    3    0  502  0.25685616534E+03 -0.13959075366E+04 -0.13607982879E+04  0.19662925859E+04  0.12699999809E+01 0. -1.
</event>
<event>
 5   0  0.3671997E-06  0.3275315E+04  0.7818609E-02  0.8169205E-01
        2   -1    0    0  501    0  0.00000000000E+00  0.00000000000E+00  0.18551209411E+04  0.18551209411E+04  0.25500000920E-02 0.  1.
       -2   -1    0    0    0  501  0.00000000000E+00  0.00000000000E+00 -0.14456862134E+04  0.14456862134E+04  0.25500000920E-02 0. -1.
    10030    2    1    2    0    0  0.00000000000E+00  0.00000000000E+00  0.40943472772E+03  0.33008071545E+04  0.32753154161E+04 0.  0.
        2    1    3    3  502    0  0.81474891165E+03 -0.93648851696E+03 -0.87181764914E+03  0.15168693236E+04  0.25500000920E-02 0. -1.
       -2    1    3    3    0  502 -0.81474891165E+03  0.93648851696E+03  0.12812523769E+04  0.17839378309E+04  0.25500000920E-02 0.  1.
</event>
<event>
 5   0  0.4017247E-06  0.2305343E+04  0.7818609E-02  0.8475817E-01
        2   -1    0    0  501    0  0.00000000000E+00  0.00000000000E+00  0.14395273993E+04  0.14395273993E+04  0.25500000920E-02 0.  1.
       -2   -1    0    0    0  501  0.00000000000E+00  0.00000000000E+00 -0.92297781472E+03  0.92297781472E+03  0.25500000920E-02 0. -1.
    10030    2    1    2    0    0  0.00000000000E+00  0.00000000000E+00  0.51654958459E+03  0.23625052140E+04  0.23053432311E+04 0.  0.
        1    1    3    3  502    0  0.24121534036E+03 -0.34675670384E+03  0.13573538243E+04  0.14215605708E+04  0.50400001928E-02 0.  1.
       -1    1    3    3    0  502 -0.24121534036E+03  0.34675670384E+03 -0.84080423971E+03  0.94094464323E+03  0.50400001928E-02 0. -1.
</event>
<event>
 5   0  0.3896210E-06  0.3263936E+04  0.7818609E-02  0.8172133E-01
       -2   -1    0    0    0  501  0.00000000000E+00  0.00000000000E+00  0.12575732536E+04  0.12575732536E+04  0.25500000920E-02 0. -1.
        2   -1    0    0  501    0  0.00000000000E+00  0.00000000000E+00 -0.21178250759E+04  0.21178250759E+04  0.25500000920E-02 0.  1.
    10030    2    1    2    0    0  0.00000000000E+00  0.00000000000E+00 -0.86025182229E+03  0.33753983294E+04  0.32639363788E+04 0.  0.
        3    1    3    3  502    0 -0.43260391798E+02  0.10353707078E+04 -0.17339158587E+04  0.20199822225E+04  0.10100000352E+00 0.  1.
       -3    1    3    3    0  502  0.43260391798E+02 -0.10353707078E+04  0.87366403643E+03  0.13554161069E+04  0.10100000352E+00 0. -1.
</event>
<event>
 5   0  0.3671997E-06  0.3250294E+04  0.7818609E-02  0.8175660E-01
       -2   -1    0    0    0  501  0.00000000000E+00  0.00000000000E+00  0.19082727924E+04  0.19082727924E+04  0.25500000920E-02 0. -1.
        2   -1    0    0  501    0  0.00000000000E+00  0.00000000000E+00 -0.13840278534E+04  0.13840278534E+04  0.25500000920E-02 0.  1.
    10030    2    1    2    0    0  0.00000000000E+00  0.00000000000E+00  0.52424493893E+03  0.32923006458E+04  0.32502939539E+04 0.  0.
        2    1    3    3  502    0  0.15465378100E+04  0.46033322768E+03  0.66188257254E+02  0.16149510097E+04  0.25500000920E-02 0.  1.
       -2    1    3    3    0  502 -0.15465378100E+04 -0.46033322768E+03  0.45805668168E+03  0.16773496361E+04  0.25500000920E-02 0. -1.
</event>
<event>
 5   0  0.1391878E-06  0.2338022E+04  0.7818609E-02  0.8463079E-01
        1   -1    0    0  501    0  0.00000000000E+00  0.00000000000E+00  0.11877369201E+04  0.11877369201E+04  0.50400001928E-02 0.  1.
       -1   -1    0    0    0  501  0.00000000000E+00  0.00000000000E+00 -0.11505802080E+04  0.11505802080E+04  0.50400001928E-02 0. -1.
    10030    2    1    2    0    0  0.00000000000E+00  0.00000000000E+00  0.37156712106E+02  0.23383171281E+04  0.23380218926E+04 0.  0.
        2    1    3    3  502    0  0.36343702588E+03  0.11027698082E+04 -0.11708120965E+03  0.11670028841E+04  0.25500000920E-02 0. -1.
       -2    1    3    3    0  502 -0.36343702588E+03 -0.11027698082E+04  0.15423792176E+03  0.11713142440E+04  0.25500000920E-02 0.  1.
</event>
<event>
 5   0  0.1391878E-06  0.3371687E+04  0.7818609E-02  0.8144890E-01
       -1   -1    0    0    0  501  0.00000000000E+00  0.00000000000E+00  0.22155646651E+04  0.22155646651E+04  0.50400001928E-02 0. -1.
        1   -1    0    0  501    0  0.00000000000E+00  0.00000000000E+00 -0.12827740558E+04  0.12827740558E+04  0.50400001928E-02 0.  1.
    10030    2    1    2    0    0  0.00000000000E+00  0.00000000000E+00  0.93279060925E+03  0.34983387209E+04  0.33716873351E+04 0.  0.
        2    1    3    3  502    0  0.35094730391E+03  0.79436687876E+03 -0.10328336679E+04  0.13494177017E+04  0.25500000920E-02 0.  1.
       -2    1    3    3    0  502 -0.35094730391E+03 -0.79436687876E+03  0.19656242771E+04  0.21489210192E+04  0.25500000920E-02 0. -1.
</event>
<event>
 5   0  0.1282578E-06  0.3178424E+04  0.7818609E-02  0.8194539E-01
        1   -1    0    0  501    0  0.00000000000E+00  0.00000000000E+00  0.18613051960E+04  0.18613051960E+04  0.50400001928E-02 0.  1.
       -1   -1    0    0    0  501  0.00000000000E+00  0.00000000000E+00 -0.13568948940E+04  0.13568948940E+04  0.50400001928E-02 0. -1.
    10030    2    1    2    0    0  0.00000000000E+00  0.00000000000E+00  0.50441030199E+03  0.32182000900E+04  0.31784244629E+04 0.  0.
        4    1    3    3  502    0 -0.19873423146E+03  0.62128693744E+03  0.17195130464E+04  0.18390811518E+04  0.12699999809E+01 0.  1.
       -4    1    3    3    0  502  0.19873423146E+03 -0.62128693744E+03 -0.12151027444E+04  0.13791189382E+04  0.12699999809E+01 0. -1.
</event>
<event>
 5   0  0.1352708E-06  0.2244933E+04  0.7818609E-02  0.8499955E-01
        1   -1    0    0  501    0  0.00000000000E+00  0.00000000000E+00  0.15190663861E+04  0.15190663861E+04  0.50400001928E-02 0. -1.
       -1   -1    0    0    0  501  0.00000000000E+00  0.00000000000E+00 -0.82941171578E+03  0.82941171580E+03  0.50400001928E-02 0.  1.
    10030    2    1    2    0    0  0.00000000000E+00  0.00000000000E+00  0.68965467027E+03  0.23484781019E+04  0.22449333689E+04 0.  0.
        5    1    3    3  502    0 -0.59068552313E+03 -0.24538288185E+03 -0.62009762105E+03  0.89087894552E+03  0.46999998093E+01 0.  1.
       -5    1    3    3    0  502  0.59068552313E+03  0.24538288185E+03  0.13097522913E+04  0.14575991563E+04  0.46999998093E+01 0. -1.
</event>
<event>
 5   0  0.1352708E-06  0.2623648E+04  0.7818609E-02  0.8360213E-01
       -1   -1    0    0    0  501  0.00000000000E+00  0.00000000000E+00  0.15281256876E+04  0.15281256876E+04  0.50400001928E-02 0. -1.
        1   -1    0    0  501    0  0.00000000000E+00  0.00000000000E+00 -0.11261391610E+04  0.11261391610E+04  0.50400001928E-02 0.  1.
    10030    2    1    2    0    0  0.00000000000E+00  0.00000000000E+00  0.40198652663E+03  0.26542648486E+04  0.26236479792E+04 0.  0.
        5    1    3    3  502    0 -0.11380510456E+03 -0.65800109875E+02  0.15214367204E+04  0.15271126483E+04  0.46999998093E+01 0. -1.
       -5    1    3    3    0  502  0.11380510456E+03  0.65800109875E+02 -0.11194501938E+04  0.11271522003E+04  0.46999998093E+01 0.  1.
</event>
<event>
 5   0  0.3896210E-06  0.2335801E+04  0.7818609E-02  0.8463938E-01
        2   -1    0    0  501    0  0.00000000000E+00  0.00000000000E+00  0.16040136136E+04  0.16040136136E+04  0.25500000920E-02 0. -1.
       -2   -1    0    0    0  501  0.00000000000E+00  0.00000000000E+00 -0.85036142362E+03  0.85036142362E+03  0.25500000920E-02 0.  1.
    10030    2    1    2    0    0  0.00000000000E+00  0.00000000000E+00  0.75365218994E+03  0.24543750372E+04  0.23358007620E+04 0.  0.
        3    1    3    3  502    0  0.18573134200E+03 -0.68092664487E+03  0.13545640243E+04  0.15274164243E+04  0.10100000352E+00 0. -1.
       -3    1    3    3    0  502 -0.18573134200E+03  0.68092664487E+03 -0.60091183437E+03  0.92695861287E+03  0.10100000352E+00 0.  1.
</event>
<event>
 5   0  0.3896210E-06  0.3270197E+04  0.7818609E-02  0.8170520E-01
        2   -1    0    0  501    0  0.00000000000E+00  0.00000000000E+00  0.13498149005E+04  0.13498149005E+04  0.25500000920E-02 0.  1.
       -2   -1    0    0    0  501  0.00000000000E+00  0.00000000000E+00 -0.19806771332E+04  0.19806771332E+04  0.25500000920E-02 0. -1.
    10030    2    1    2    0    0  0.00000000000E+00  0.00000000000E+00 -0.63086223274E+03  0.33304920337E+04  0.32701972463E+04 0.  0.
        3    1    3    3  502    0  0.15520189482E+04 -0.22577654150E+01 -0.83948591079E+03  0.17645125439E+04  0.10100000352E+00 0. -1.
       -3    1    3    3    0  502 -0.15520189482E+04  0.22577654150E+01  0.20862367805E+03  0.15659794897E+04  0.10100000352E+00 0.  1.
</event>
<event>
 5   0  0.1352708E-06  0.3145559E+04  0.7818609E-02  0.8203345E-01
       -1   -1    0    0    0  501  0.00000000000E+00  0.00000000000E+00  0.13931585782E+04  0.13931585782E+04  0.50400001928E-02 0. -1.
        1   -1    0    0  501    0  0.00000000000E+00  0.00000000000E+00 -0.17755586571E+04  0.17755586571E+04  0.50400001928E-02 0.  1.
    10030    2    1    2    0    0  0.00000000000E+00  0.00000000000E+00 -0.38240007895E+03  0.31687172353E+04  0.31455586303E+04 0.  0.
        5    1    3    3  502    0  0.14644534492E+04  0.50823089451E+03  0.76633594665E+02  0.15520365153E+04  0.46999998093E+01 0. -1.
       -5    1    3    3    0  502 -0.14644534492E+04 -0.50823089451E+03 -0.45903367361E+03  0.16166807200E+04  0.46999998093E+01 0.  1.
</event>
<event>
 5   0  0.4017247E-06  0.2494986E+04  0.7818609E-02  0.8404774E-01
        2   -1    0    0  501    0  0.00000000000E+00  0.00000000000E+00  0.13922734057E+04  0.13922734057E+04  0.25500000920E-02 0. -1.
       -2   -1    0    0    0  501  0.00000000000E+00  0.00000000000E+00 -0.11177683760E+04  0.11177683760E+04  0.25500000920E-02 0.  1.
    10030    2    1    2    0    0  0.00000000000E+00  0.00000000000E+00  0.27450502974E+03  0.25100417818E+04  0.24949863196E+04 0.  0.
        1    1    3    3  502    0 -0.79604794145E+03  0.70531961457E+03  0.79316148677E+03  0.13267528888E+04  0.50400001928E-02 0. -1.
       -1    1    3    3    0  502  0.79604794145E+03 -0.70531961457E+03 -0.51865645703E+03  0.11832888930E+04  0.50400001928E-02 0.  1.
</event>
<event>
 5   0  0.1391878E-06  0.3285959E+04  0.7818609E-02  0.8166477E-01
        1   -1    0    0  501    0  0.00000000000E+00  0.00000000000E+00  0.18127854480E+04  0.18127854480E+04  0.50400001928E-02 0. -1.
       -1   -1    0    0    0  501  0.00000000000E+00  0.00000000000E+00 -0.14890798864E+04  0.14890798865E+04  0.50400001928E-02 0.  1.
    10030    2    1    2    0    0  0.00000000000E+00  0.00000000000E+00  0.32370556158E+03  0.33018653345E+04  0.32859594332E+04 0.  0.
        2    1    3    3  502    0 -0.64795419343E+03 -0.82869363558E+03  0.14300254981E+04  0.17752607425E+04  0.25500000920E-02 0. -1.
       -2    1    3    3    0  502  0.64795419343E+03  0.82869363558E+03 -0.11063199365E+04  0.15266045920E+04  0.25500000920E-02 0.  1.
</event>
<event>
 5   0  0.3896210E-06  0.3361825E+04  0.7818609E-02  0.8147340E-01
        2   -1    0    0  501    0  0.00000000000E+00  0.00000000000E+00  0.17062145257E+04  0.17062145257E+04  0.25500000920E-02 0.  1.
       -2   -1    0    0    0  501  0.00000000000E+00  0.00000000000E+00 -0.16559856611E+04  0.16559856611E+04  0.25500000920E-02 0. -1.
    10030    2    1    2    0    0  0.00000000000E+00  0.00000000000E+00  0.50228864643E+02  0.33622001868E+04  0.33618249742E+04 0.  0.
        3    1    3    3  502    0  0.47644385229E+03  0.16119594228E+04  0.17707266022E+02  0.16809894356E+04  0.10100000352E+00 0. -1.
       -3    1    3    3    0  502 -0.47644385229E+03 -0.16119594228E+04  0.32521598620E+02  0.16812107512E+04  0.10100000352E+00 0.  1.
</event>
<event>
 5   0  0.3920487E-06  0.2873514E+04  0.7818609E-02  0.8280802E-01
        2   -1    0    0  501    0  0.00000000000E+00  0.00000000000E+00  0.28243142264E+04  0.28243142264E+04  0.25500000920E-02 0.  1.
       -2   -1    0    0    0  501  0.00000000000E+00  0.00000000000E+00 -0.73089293803E+03  0.73089293804E+03  0.25500000920E-02 0. -1.
    10030    2    1    2    0    0  0.00000000000E+00  0.00000000000E+00  0.20934212884E+04  0.35552071645E+04  0.28735144495E+04 0.  0.
        4    1    3    3  502    0 -0.53677044906E+03  0.25306752786E+03 -0.57217659878E+03  0.82435026641E+03  0.12699999809E+01 0. -1.
       -4    1    3    3    0  502  0.53677044906E+03 -0.25306752786E+03  0.26655978872E+04  0.27308568981E+04  0.12699999809E+01 0.  1.
</event>
<event>
 5   0  0.3812379E-06  0.3277013E+04  0.7818609E-02  0.8168769E-01
        2   -1    0    0  501    0  0.00000000000E+00  0.00000000000E+00  0.18344340177E+04  0.18344340177E+04  0.25500000920E-02 0. -1.
       -2   -1    0    0    0  501  0.00000000000E+00  0.00000000000E+00 -0.14635050219E+04  0.14635050219E+04  0.25500000920E-02 0.  1.
    10030    2    1    2    0    0  0.00000000000E+00  0.00000000000E+00  0.37092899576E+03  0.32979390396E+04  0.32770129065E+04 0.  0.
        5    1    3    3  502    0 -0.15631760496E+04  0.18231108779E+03  0.64436382630E+03  0.17005832898E+04  0.46999998093E+01 0. -1.
       -5    1    3    3    0  502  0.15631760496E+04 -0.18231108779E+03 -0.27343483054E+03  0.15973557498E+04  0.46999998093E+01 0.  1.
</event>
<event>
 5   0  0.1405389E-06  0.2840761E+04  0.7818609E-02  0.8290724E-01
       -1   -1    0    0    0  501  0.00000000000E+00  0.00000000000E+00  0.88062283630E+03  0.88062283631E+03  0.50400001928E-02 0.  1.
        1   -1    0    0  501    0  0.00000000000E+00  0.00000000000E+00 -0.22909710826E+04  0.22909710826E+04  0.50400001928E-02 0. -1.
    10030    2    1    2    0    0  0.00000000000E+00  0.00000000000E+00 -0.14103482463E+04  0.31715939189E+04  0.28407614843E+04 0.  0.
        1    1    3    3  502    0 -0.37856519575E+03  0.85941267246E+03 -0.18949128989E+04  0.21148514471E+04  0.50400001928E-02 0. -1.
       -1    1    3    3    0  502  0.37856519575E+03 -0.85941267246E+03  0.48456465262E+03  0.10567424718E+04  0.50400001928E-02 0.  1.
</event>
<event>
 5   0  0.1339825E-06  0.2976407E+04  0.7818609E-02  0.8250500E-01
        1   -1    0    0  501    0  0.00000000000E+00  0.00000000000E+00  0.85062920051E+03  0.85062920052E+03  0.50400001928E-02 0. -1.
       -1   -1    0    0    0  501  0.00000000000E+00  0.00000000000E+00 -0.26036600061E+04  0.26036600061E+04  0.50400001928E-02 0.  1.
    10030    2    1    2    0    0  0.00000000000E+00  0.00000000000E+00 -0.17530308056E+04  0.34542892066E+04  0.29764067124E+04 0.  0.
        3    1    3    3  502    0  0.39556884179E+03  0.33582462642E+03 -0.24952722868E+04  0.25486538965E+04  0.10100000352E+00 0.  1.
       -3    1    3    3    0  502 -0.39556884179E+03 -0.33582462642E+03  0.74224148125E+03  0.90563531016E+03  0.10100000352E+00 0. -1.
</event>
<event>
 5   0  0.1282578E-06  0.3281282E+04  0.7818609E-02  0.8167675E-01
       -1   -1    0    0    0  501  0.00000000000E+00  0.00000000000E+00  0.12713497655E+04  0.12713497655E+04  0.50400001928E-02 0.  1.
        1   -1    0    0  501    0  0.00000000000E+00  0.00000000000E+00 -0.21172006953E+04  0.21172006953E+04  0.50400001928E-02 0. -1.
    10030    2    1    2    0    0  0.00000000000E+00  0.00000000000E+00 -0.84585092974E+03  0.33885504608E+04  0.32812818273E+04 0.  0.
        4    1    3    3  502    0  0.12852325837E+04  0.33425633616E+03 -0.14178261264E+04  0.19426226165E+04  0.12699999809E+01 0.  1.
       -4    1    3    3    0  502 -0.12852325837E+04 -0.33425633616E+03  0.57197519663E+03  0.14459278443E+04  0.12699999809E+01 0. -1.
</event>
<event>
 5   0  0.1352708E-06  0.3339597E+04  0.7818609E-02  0.8152892E-01
       -1   -1    0    0    0  501  0.00000000000E+00  0.00000000000E+00  0.15658922544E+04  0.15658922544E+04  0.50400001928E-02 0.  1.
        1   -1    0    0  501    0  0.00000000000E+00  0.00000000000E+00 -0.17805993300E+04  0.17805993300E+04  0.50400001928E-02 0. -1.
    10030    2    1    2    0    0  0.00000000000E+00  0.00000000000E+00 -0.21470707563E+03  0.33464915844E+04  0.33395968014E+04 0.  0.
        5    1    3    3  502    0  0.66722851995E+03 -0.74852757451E+03  0.12305873492E+04  0.15874050339E+04  0.46999998093E+01 0.  1.
       -5    1    3    3    0  502 -0.66722851995E+03  0.74852757451E+03 -0.14452944248E+04  0.17590865505E+04  0.46999998093E+01 0. -1.
</event>
<event>
 5   0  0.3896210E-06  0.3300280E+04  0.7818609E-02  0.8162824E-01
        2   -1    0    0  501    0  0.00000000000E+00  0.00000000000E+00  0.12677073741E+04  0.12677073741E+04  0.25500000920E-02 0.  1.
       -2   -1    0    0    0  501  0.00000000000E+00  0.00000000000E+00 -0.21479419924E+04  0.21479419924E+04  0.25500000920E-02 0. -1.
    10030    2    1    2    0    0  0.00000000000E+00  0.00000000000E+00 -0.88023461829E+03  0.34156493665E+04  0.33002799293E+04 0.  0.
        3    1    3    3  502    0 -0.13255514416E+04 -0.69242010916E+02  0.57450044377E+03  0.14463512196E+04  0.10100000352E+00 0.  1.
       -3    1    3    3    0  502  0.13255514416E+04  0.69242010916E+02 -0.14547350621E+04  0.19692981469E+04  0.10100000352E+00 0. -1.
</event>
<event>
 5   0  0.1391878E-06  0.3246228E+04  0.7818609E-02  0.8176714E-01
        1   -1    0    0  501    0  0.00000000000E+00  0.00000000000E+00  0.22061159587E+04  0.22061159587E+04  0.50400001928E-02 0. -1.
       -1   -1    0    0    0  501  0.00000000000E+00  0.00000000000E+00 -0.11941796808E+04  0.11941796808E+04  0.50400001928E-02 0.  1.
    10030    2    1    2    0    0  0.00000000000E+00  0.00000000000E+00  0.10119362779E+04  0.34002956395E+04  0.32462278733E+04 0.  0.
        2    1    3    3  502    0 -0.78090530647E+03  0.14221600192E+04  0.55449884775E+03  0.17145906771E+04  0.25500000920E-02 0. -1.
       -2    1    3    3    0  502  0.78090530647E+03 -0.14221600192E+04  0.45743743016E+03  0.16857049624E+04  0.25500000920E-02 0.  1.
</event>
<event>
 5   0  0.1282578E-06  0.2070104E+04  0.7818609E-02  0.8574528E-01
        1   -1    0    0  501    0  0.00000000000E+00  0.00000000000E+00  0.26426311590E+04  0.26426311590E+04  0.50400001928E-02 0. -1.
       -1   -1    0    0    0  501  0.00000000000E+00  0.00000000000E+00 -0.40540383948E+03  0.40540383951E+03  0.50400001928E-02 0.  1.
    10030    2    1    2    0    0  0.00000000000E+00  0.00000000000E+00  0.22372273195E+04  0.30480349985E+04  0.20701041696E+04 0.  0.
        4    1    3    3  502    0 -0.59474876413E+03 -0.35202213809E+03 -0.15890206438E+02  0.69130296520E+03  0.12699999809E+01 0.  1.
       -4    1    3    3    0  502  0.59474876413E+03  0.35202213809E+03  0.22531175260E+04  0.23567320333E+04  0.12699999809E+01 0. -1.
</event>
<event>
 5   0  0.1339825E-06  0.3400711E+04  0.7818609E-02  0.8137732E-01
        1   -1    0    0  501    0  0.00000000000E+00  0.00000000000E+00  0.25759418314E+04  0.25759418314E+04  0.50400001928E-02 0. -1.
       -1   -1    0    0    0  501  0.00000000000E+00  0.00000000000E+00 -0.11223892839E+04  0.11223892839E+04  0.50400001928E-02 0.  1.
    10030    2    1    2    0    0  0.00000000000E+00  0.00000000000E+00  0.14535525475E+04  0.36983311153E+04  0.34007114005E+04 0.  0.
        3    1    3    3  502    0 -0.63781402628E+02 -0.16640843655E+04  0.11002946420E+04  0.19959692263E+04  0.10100000352E+00 0. -1.
       -3    1    3    3    0  502  0.63781402628E+02  0.16640843655E+04  0.35325790553E+03  0.17023618890E+04  0.10100000352E+00 0.  1.
</event>
<event>
 5   0  0.1282578E-06  0.3311460E+04  0.7818609E-02  0.8159986E-01
       -1   -1    0    0    0  501  0.00000000000E+00  0.00000000000E+00  0.16296660850E+04  0.16296660850E+04  0.50400001928E-02 0. -1.
        1   -1    0    0  501    0  0.00000000000E+00  0.00000000000E+00 -0.16822106781E+04  0.16822106782E+04  0.50400001928E-02 0.  1.
    10030    2    1    2    0    0  0.00000000000E+00  0.00000000000E+00 -0.52544593185E+02  0.33118767631E+04  0.33114599137E+04 0.  0.
        4    1    3    3  502    0 -0.15005367561E+04  0.21642009288E+03  0.63938782656E+03  0.16453773484E+04  0.12699999809E+01 0. -1.
       -4    1    3    3    0  502  0.15005367561E+04 -0.21642009288E+03 -0.69193241975E+03  0.16664994147E+04  0.12699999809E+01 0.  1.
</event>
<event>
 5   0  0.3671997E-06  0.3282971E+04  0.7818609E-02  0.8167242E-01
       -2   -1    0    0    0  501  0.00000000000E+00  0.00000000000E+00  0.19533494876E+04  0.19533494876E+04  0.25500000920E-02 0. -1.
        2   -1    0    0  501    0  0.00000000000E+00  0.00000000000E+00 -0.13794124062E+04  0.13794124062E+04  0.25500000920E-02 0.  1.
    10030    2    1    2    0    0  0.00000000000E+00  0.00000000000E+00  0.57393708142E+03  0.33327618939E+04  0.32829709209E+04 0.  0.
        2    1    3    3  502    0  0.64915887579E+03 -0.87336092684E+03 -0.96061606441E+03  0.14515335951E+04  0.25500000920E-02 0.  1.
       -2    1    3    3    0  502 -0.64915887579E+03  0.87336092684E+03  0.15345531458E+04  0.18812282987E+04  0.25500000920E-02 0. -1.
</event>
<event>
 5   0  0.3812379E-06  0.3591269E+04  0.7818609E-02  0.8092495E-01
        2   -1    0    0  501    0  0.00000000000E+00  0.00000000000E+00  0.22803306524E+04  0.22803306524E+04  0.25500000920E-02 0. -1.
       -2   -1    0    0    0  501  0.00000000000E+00  0.00000000000E+00 -0.14139628514E+04  0.14139628514E+04  0.25500000920E-02 0.  1.
    10030    2    1    2    0    0  0.00000000000E+00  0.00000000000E+00  0.86636780097E+03  0.36942935039E+04  0.35912687627E+04 0.  0.
        5    1    3    3  502    0  0.89509690185E+03  0.79410068325E+03 -0.94406178586E+03  0.15241617711E+04  0.46999998093E+01 0.  1.
       -5    1    3    3    0  502 -0.89509690185E+03 -0.79410068325E+03  0.18104295868E+04  0.21701317328E+04  0.46999998093E+01 0. -1.
</event>
<event>
 5   0  0.3896210E-06  0.3345560E+04  0.7818609E-02  0.8151398E-01
       -2   -1    0    0    0  501  0.00000000000E+00  0.00000000000E+00  0.12880189975E+04  0.12880189975E+04  0.25500000920E-02 0.  1.
        2   -1    0    0  501    0  0.00000000000E+00  0.00000000000E+00 -0.21724782911E+04  0.21724782911E+04  0.25500000920E-02 0. -1.
    10030    2    1    2    0    0  0.00000000000E+00  0.00000000000E+00 -0.88445929359E+03  0.34604972886E+04  0.33455602285E+04 0.  0.
        3    1    3    3  502    0 -0.53716721082E+03  0.84762922839E+03  0.94209511945E+03  0.13764327610E+04  0.10100000352E+00 0.  1.
       -3    1    3    3    0  502  0.53716721082E+03 -0.84762922839E+03 -0.18265544130E+04  0.20840645276E+04  0.10100000352E+00 0. -1.
</event>
<event>
 5   0  0.3812379E-06  0.3259445E+04  0.7818609E-02  0.8173292E-01
       -2   -1    0    0    0  501  0.00000000000E+00  0.00000000000E+00  0.27760472628E+04  0.27760472628E+04  0.25500000920E-02 0.  1.
        2   -1    0    0  501    0  0.00000000000E+00  0.00000000000E+00 -0.95675464727E+03  0.95675464728E+03  0.25500000920E-02 0. -1.
    10030    2    1    2    0    0  0.00000000000E+00  0.00000000000E+00  0.18192926155E+04  0.37328019101E+04  0.32594454251E+04 0.  0.
        5    1    3    3  502    0 -0.82106111508E+03 -0.87721476952E+03 -0.35131309631E+03  0.12518346888E+04  0.46999998093E+01 0. -1.
       -5    1    3    3    0  502  0.82106111508E+03  0.87721476952E+03  0.21706057118E+04  0.24809672212E+04  0.46999998093E+01 0.  1.
</event>
<event>
 5   0  0.1282578E-06  0.3375017E+04  0.7818609E-02  0.8144065E-01
       -1   -1    0    0    0  501  0.00000000000E+00  0.00000000000E+00  0.30181503303E+04  0.30181503303E+04  0.50400001928E-02 0. -1.
        1   -1    0    0  501    0  0.00000000000E+00  0.00000000000E+00 -0.94351968101E+03  0.94351968103E+03  0.50400001928E-02 0.  1.
    10030    2    1    2    0    0  0.00000000000E+00  0.00000000000E+00  0.20746306492E+04  0.39616700113E+04  0.33750165848E+04 0.  0.
        4    1    3    3  502    0  0.76549843590E+03 -0.11953541198E+04  0.21085356870E+04  0.25418071688E+04  0.12699999809E+01 0.  1.
       -4    1    3    3    0  502 -0.76549843590E+03  0.11953541198E+04 -0.33905037779E+02  0.14198628425E+04  0.12699999809E+01 0. -1.
</event>
<event>
 5   0  0.1352708E-06  0.2955814E+04  0.7818609E-02  0.8256462E-01
       -1   -1    0    0    0  501  0.00000000000E+00  0.00000000000E+00  0.10866343215E+04  0.10866343215E+04  0.50400001928E-02 0. -1.
        1   -1    0    0  501    0  0.00000000000E+00  0.00000000000E+00 -0.20100686129E+04  0.20100686129E+04  0.50400001928E-02 0.  1.
    10030    2    1    2    0    0  0.00000000000E+00  0.00000000000E+00 -0.92343429144E+03  0.30967029345E+04  0.29558142996E+04 0.  0.
        5    1    3    3  502    0 -0.10167196505E+04 -0.43958200984E+03 -0.14867362764E+04  0.18540113367E+04  0.46999998093E+01 0.  1.
       -5    1    3    3    0  502  0.10167196505E+04  0.43958200984E+03  0.56330198493E+03  0.12426915978E+04  0.46999998093E+01 0. -1.
</event>
<event>
 5   0  0.1339825E-06  0.3516023E+04  0.7818609E-02  0.8110003E-01
        1   -1    0    0  501    0  0.00000000000E+00  0.00000000000E+00  0.30511841534E+04  0.30511841534E+04  0.50400001928E-02 0.  1.
       -1   -1    0    0    0  501  0.00000000000E+00  0.00000000000E+00 -0.10129195519E+04  0.10129195519E+04  0.50400001928E-02 0. -1.
    10030    2    1    2    0    0  0.00000000000E+00  0.00000000000E+00  0.20382646015E+04  0.40641037053E+04  0.35160228016E+04 0.  0.
        3    1    3    3  502    0 -0.29355343334E+03 -0.15980119252E+04  0.24306490594E+03  0.16428317899E+04  0.10100000352E+00 0.  1.
       -3    1    3    3    0  502  0.29355343334E+03  0.15980119252E+04  0.17951996956E+04  0.24212719154E+04  0.10100000352E+00 0. -1.
</event>
<event>
 5   0  0.1352708E-06  0.3225804E+04  0.7818609E-02  0.8182036E-01
       -1   -1    0    0    0  501  0.00000000000E+00  0.00000000000E+00  0.19039672089E+04  0.19039672089E+04  0.50400001928E-02 0. -1.
        1   -1    0    0  501    0  0.00000000000E+00  0.00000000000E+00 -0.13663325978E+04  0.13663325978E+04  0.50400001928E-02 0.  1.
    10030    2    1    2    0    0  0.00000000000E+00  0.00000000000E+00  0.53763461111E+03  0.32702998068E+04  0.32258037527E+04 0.  0.
        5    1    3    3  502    0 -0.14010385343E+04 -0.45009038202E+03 -0.40054770804E+03  0.15251068431E+04  0.46999998093E+01 0.  1.
       -5    1    3    3    0  502  0.14010385343E+04  0.45009038202E+03  0.93818231915E+03  0.17451929637E+04  0.46999998093E+01 0. -1.
</event>
<event>
 5   0  0.3671997E-06  0.3280746E+04  0.7818609E-02  0.8167812E-01
        2   -1    0    0  501    0  0.00000000000E+00  0.00000000000E+00  0.31397521167E+04  0.31397521167E+04  0.25500000920E-02 0. -1.
       -2   -1    0    0    0  501  0.00000000000E+00  0.00000000000E+00 -0.85701799782E+03  0.85701799782E+03  0.25500000920E-02 0.  1.
    10030    2    1    2    0    0  0.00000000000E+00  0.00000000000E+00  0.22827341188E+04  0.39967701145E+04  0.32807463009E+04 0.  0.
        2    1    3    3  502    0  0.95438516709E+03  0.17196858756E+03 -0.47041067784E+03  0.10778267245E+04  0.25500000920E-02 0.  1.
       -2    1    3    3    0  502 -0.95438516709E+03 -0.17196858756E+03  0.27531447967E+04  0.29189433900E+04  0.25500000920E-02 0. -1.
</event>
<event>
 5   0  0.3896210E-06  0.3310651E+04  0.7818609E-02  0.8160190E-01
       -2   -1    0    0    0  501  0.00000000000E+00  0.00000000000E+00  0.14471689930E+04  0.14471689930E+04  0.25500000920E-02 0.  1.
        2   -1    0    0  501    0  0.00000000000E+00  0.00000000000E+00 -0.18934227592E+04  0.18934227592E+04  0.25500000920E-02 0. -1.
    10030    2    1    2    0    0  0.00000000000E+00  0.00000000000E+00 -0.44625376621E+03  0.33405917523E+04  0.33106511190E+04 0.  0.
        3    1    3    3  502    0  0.48259193886E+03 -0.13165847321E+04  0.66449462983E+03  0.15517227393E+04  0.10100000352E+00 0.  1.
       -3    1    3    3    0  502 -0.48259193886E+03  0.13165847321E+04 -0.11107483960E+04  0.17888690130E+04  0.10100000352E+00 0. -1.
</event>
<event>
 5   0  0.3896210E-06  0.3271123E+04  0.7818609E-02  0.8170282E-01
       -2   -1    0    0    0  501  0.00000000000E+00  0.00000000000E+00  0.11112021394E+04  0.11112021394E+04  0.25500000920E-02 0. -1.
        2   -1    0    0  501    0  0.00000000000E+00  0.00000000000E+00 -0.24073584383E+04  0.24073584383E+04  0.25500000920E-02 0.  1.
    10030    2    1    2    0    0  0.00000000000E+00  0.00000000000E+00 -0.12961562988E+04  0.35185605777E+04  0.32711232609E+04 0.  0.
        3    1    3    3  502    0 -0.41328983012E+02  0.13449457535E+04 -0.16481800669E+04  0.21276946933E+04  0.10100000352E+00 0.  1.
       -3    1    3    3    0  502  0.41328983012E+02 -0.13449457535E+04  0.35202376812E+03  0.13908658844E+04  0.10100000352E+00 0. -1.
</event>
<event>
 5   0  0.1391878E-06  0.3296149E+04  0.7818609E-02  0.8163876E-01
        1   -1    0    0  501    0  0.00000000000E+00  0.00000000000E+00  0.14531015541E+04  0.14531015541E+04  0.50400001928E-02 0.  1.
       -1   -1    0    0    0  501  0.00000000000E+00  0.00000000000E+00 -0.18692084862E+04  0.18692084862E+04  0.50400001928E-02 0. -1.
    10030    2    1    2    0    0  0.00000000000E+00  0.00000000000E+00 -0.41610693207E+03  0.33223100404E+04  0.32961491206E+04 0.  0.
        2    1    3    3  502    0 -0.11573080527E+03 -0.11097431524E+04  0.10145145877E+04  0.15080329347E+04  0.25500000920E-02 0.  1.
       -2    1    3    3    0  502  0.11573080527E+03  0.11097431524E+04 -0.14306215197E+04  0.18142771057E+04  0.25500000920E-02 0. -1.
</event>
<event>
 5   0  0.3920487E-06  0.3257842E+04  0.7818609E-02  0.8173706E-01
       -2   -1    0    0    0  501  0.00000000000E+00  0.00000000000E+00  0.11472211034E+04  0.11472211034E+04  0.25500000920E-02 0.  1.
        2   -1    0    0  501    0  0.00000000000E+00  0.00000000000E+00 -0.23128784809E+04  0.23128784809E+04  0.25500000920E-02 0. -1.
    10030    2    1    2    0    0  0.00000000000E+00  0.00000000000E+00 -0.11656573776E+04  0.34600995843E+04  0.32578416185E+04 0.  0.
        4    1    3    3  502    0 -0.34810163106E+03  0.53614985428E+03  0.10084367095E+04  0.11939755532E+04  0.12699999809E+01 0.  1.
       -4    1    3    3    0  502  0.34810163106E+03 -0.53614985428E+03 -0.21740940871E+04  0.22661240310E+04  0.12699999809E+01 0. -1.
</event>
<event>
 5   0  0.3896210E-06  0.3228770E+04  0.7818609E-02  0.8181260E-01
        2   -1    0    0  501    0  0.00000000000E+00  0.00000000000E+00  0.20193056941E+04  0.20193056941E+04  0.25500000920E-02 0.  1.
       -2   -1    0    0    0  501  0.00000000000E+00  0.00000000000E+00 -0.12906606909E+04  0.12906606909E+04  0.25500000920E-02 0. -1.
    10030    2    1    2    0    0  0.00000000000E+00  0.00000000000E+00  0.72864500325E+03  0.33099663850E+04  0.32287697238E+04 0.  0.
        3    1    3    3  502    0  0.40095219604E+03 -0.12800654568E+04 -0.55654804979E+03  0.14522658087E+04  0.10100000352E+00 0. -1.
       -3    1    3    3    0  502 -0.40095219604E+03  0.12800654568E+04  0.12851930530E+04  0.18577005763E+04  0.10100000352E+00 0.  1.
</event>
<event>
 5   0  0.3896210E-06  0.3304985E+04  0.7818609E-02  0.8161628E-01
        2   -1    0    0  501    0  0.00000000000E+00  0.00000000000E+00  0.21005356523E+04  0.21005356523E+04  0.25500000920E-02 0.  1.
       -2   -1    0    0    0  501  0.00000000000E+00  0.00000000000E+00 -0.13000163442E+04  0.13000163442E+04  0.25500000920E-02 0. -1.
    10030    2    1    2    0    0  0.00000000000E+00  0.00000000000E+00  0.80051930805E+03  0.34005519965E+04  0.33049845262E+04 0.  0.
        3    1    3    3  502    0 -0.16263965817E+04 -0.17696480673E+03  0.16061210129E+03  0.16438608947E+04  0.10100000352E+00 0.  1.
       -3    1    3    3    0  502  0.16263965817E+04  0.17696480673E+03  0.63990720676E+03  0.17566911018E+04  0.10100000352E+00 0. -1.
</event>
<event>
 5   0  0.3896210E-06  0.3279153E+04  0.7818609E-02  0.8168220E-01
       -2   -1    0    0    0  501  0.00000000000E+00  0.00000000000E+00  0.18789173576E+04  0.18789173576E+04  0.25500000920E-02 0.  1.
        2   -1    0    0  501    0  0.00000000000E+00  0.00000000000E+00 -0.14307238026E+04  0.14307238026E+04  0.25500000920E-02 0. -1.
    10030    2    1    2    0    0  0.00000000000E+00  0.00000000000E+00  0.44819355504E+03  0.33096411602E+04  0.32791534191E+04 0.  0.
        3    1    3    3  502    0 -0.13498663981E+04  0.30468073238E+03 -0.66342072917E+03  0.15346324366E+04  0.10100000352E+00 0. -1.
       -3    1    3    3    0  502  0.13498663981E+04 -0.30468073238E+03  0.11116142842E+04  0.17750087235E+04  0.10100000352E+00 0.  1.
</event>
<event>
 5   0  0.3812379E-06  0.2094919E+04  0.7818609E-02  0.8563485E-01
        2   -1    0    0  501    0  0.00000000000E+00  0.00000000000E+00  0.76844473180E+03  0.76844473180E+03  0.25500000920E-02 0.  1.
       -2   -1    0    0    0  501  0.00000000000E+00  0.00000000000E+00 -0.14277812000E+04  0.14277812000E+04  0.25500000920E-02 0. -1.
    10030    2    1    2    0    0  0.00000000000E+00  0.00000000000E+00 -0.65933646817E+03  0.21962259318E+04  0.20949185581E+04 0.  0.
        5    1    3    3  502    0  0.10047669436E+04 -0.57561963142E+02 -0.63401535592E+03  0.11894820521E+04  0.46999998093E+01 0. -1.
       -5    1    3    3    0  502 -0.10047669436E+04  0.57561963142E+02 -0.25321112248E+02  0.10067438797E+04  0.46999998093E+01 0.  1.
</event>
<event>
 5   0  0.1339825E-06  0.3285590E+04  0.7818609E-02  0.8166572E-01
        1   -1    0    0  501    0  0.00000000000E+00  0.00000000000E+00  0.90138270018E+03  0.90138270020E+03  0.50400001928E-02 0. -1.
       -1   -1    0    0    0  501  0.00000000000E+00  0.00000000000E+00 -0.29940394121E+04  0.29940394122E+04  0.50400001928E-02 0.  1.
    10030    2    1    2    0    0  0.00000000000E+00  0.00000000000E+00 -0.20926567120E+04  0.38954221123E+04  0.32855899500E+04 0.  0.
        3    1    3    3  502    0 -0.13388751716E+04 -0.51609818426E+03 -0.97966909205E+02  0.14382425340E+04  0.10100000352E+00 0. -1.
       -3    1    3    3    0  502  0.13388751716E+04  0.51609818426E+03 -0.19946898028E+04  0.24571795784E+04  0.10100000352E+00 0.  1.
</event>
<event>
 5   0  0.1391878E-06  0.3290180E+04  0.7818609E-02  0.8165399E-01
       -1   -1    0    0    0  501  0.00000000000E+00  0.00000000000E+00  0.14205077496E+04  0.14205077496E+04  0.50400001928E-02 0. -1.
        1   -1    0    0  501    0  0.00000000000E+00  0.00000000000E+00 -0.19051784171E+04  0.19051784171E+04  0.50400001928E-02 0.  1.
    10030    2    1    2    0    0  0.00000000000E+00  0.00000000000E+00 -0.48467066752E+03  0.33256861668E+04  0.32901797556E+04 0.  0.
        2    1    3    3  502    0 -0.73321033146E+03 -0.11074138644E+04  0.73889183390E+03  0.15198434128E+04  0.25500000920E-02 0. -1.
       -2    1    3    3    0  502  0.73321033146E+03  0.11074138644E+04 -0.12235625014E+04  0.18058427540E+04  0.25500000920E-02 0.  1.
</event>
<event>
 5   0  0.1282578E-06  0.3344803E+04  0.7818609E-02  0.8151588E-01
        1   -1    0    0  501    0  0.00000000000E+00  0.00000000000E+00  0.21828081035E+04  0.21828081035E+04  0.50400001928E-02 0. -1.
       -1   -1    0    0    0  501  0.00000000000E+00  0.00000000000E+00 -0.12813437181E+04  0.12813437181E+04  0.50400001928E-02 0.  1.
    10030    2    1    2    0    0  0.00000000000E+00  0.00000000000E+00  0.90146438539E+03  0.34641518215E+04  0.33448034030E+04 0.  0.
        4    1    3    3  502    0 -0.13299596779E+04 -0.55719550752E+03  0.13281118998E+04  0.19603934324E+04  0.12699999809E+01 0.  1.
       -4    1    3    3    0  502  0.13299596779E+04  0.55719550752E+03 -0.42664751436E+03  0.15037583892E+04  0.12699999809E+01 0. -1.
</event>
<event>
 5   0  0.3896210E-06  0.3046948E+04  0.7818609E-02  0.8230450E-01
        2   -1    0    0  501    0  0.00000000000E+00  0.00000000000E+00  0.13024032946E+04  0.13024032946E+04  0.25500000920E-02 0. -1.
       -2   -1    0    0    0  501  0.00000000000E+00  0.00000000000E+00 -0.17820689246E+04  0.17820689246E+04  0.25500000920E-02 0.  1.
    10030    2    1    2    0    0  0.00000000000E+00  0.00000000000E+00 -0.47966562999E+03  0.30844722192E+04  0.30469476127E+04 0.  0.
        3    1    3    3  502    0 -0.10055863470E+04 -0.67375312342E+03 -0.11763342023E+04  0.16878712446E+04  0.10100000352E+00 0.  1.
       -3    1    3    3    0  502  0.10055863470E+04  0.67375312342E+03  0.69666857234E+03  0.13966009747E+04  0.10100000352E+00 0. -1.
</event>
<event>
 5   0  0.3896210E-06  0.3289285E+04  0.7818609E-02  0.8165627E-01
        2   -1    0    0  501    0  0.00000000000E+00  0.00000000000E+00  0.24823239406E+04  0.24823239406E+04  0.25500000920E-02 0.  1.
       -2   -1    0    0    0  501  0.00000000000E+00  0.00000000000E+00 -0.10896436496E+04  0.10896436496E+04  0.25500000920E-02 0. -1.
    10030    2    1    2    0    0  0.00000000000E+00  0.00000000000E+00  0.13926802911E+04  0.35719675902E+04  0.32892847357E+04 0.  0.
        3    1    3    3  502    0 -0.13741713366E+04  0.33031506684E+03  0.16096888222E+04  0.21420908058E+04  0.10100000352E+00 0.  1.
       -3    1    3    3    0  502  0.13741713366E+04 -0.33031506684E+03 -0.21700853112E+03  0.14298767844E+04  0.10100000352E+00 0. -1.
</event>
<event>
 5   0  0.4017247E-06  0.3316292E+04  0.7818609E-02  0.8158762E-01
        2   -1    0    0  501    0  0.00000000000E+00  0.00000000000E+00  0.13477793532E+04  0.13477793532E+04  0.25500000920E-02 0.  1.
       -2   -1    0    0    0  501  0.00000000000E+00  0.00000000000E+00 -0.20399843225E+04  0.20399843225E+04  0.25500000920E-02 0. -1.
    10030    2    1    2    0    0  0.00000000000E+00  0.00000000000E+00 -0.69220496929E+03  0.33877636756E+04  0.33162923578E+04 0.  0.
        1    1    3    3  502    0  0.21565768762E+03  0.35740913336E+03  0.12932249741E+04  0.13589261792E+04  0.50400001928E-02 0.  1.
       -1    1    3    3    0  502 -0.21565768762E+03 -0.35740913336E+03 -0.19854299434E+04  0.20288374964E+04  0.50400001928E-02 0. -1.
</event>
<event>
 5   0  0.1405389E-06  0.3299456E+04  0.7818609E-02  0.8163034E-01
        1   -1    0    0  501    0  0.00000000000E+00  0.00000000000E+00  0.19929388434E+04  0.19929388434E+04  0.50400001928E-02 0.  1.
       -1   -1    0    0    0  501  0.00000000000E+00  0.00000000000E+00 -0.13656224033E+04  0.13656224033E+04  0.50400001928E-02 0. -1.
    10030    2    1    2    0    0  0.00000000000E+00  0.00000000000E+00  0.62731644012E+03  0.33585612466E+04  0.32994556720E+04 0.  0.
        1    1    3    3  502    0  0.57687647478E+03 -0.23323423805E+03  0.18689082447E+04  0.19697722468E+04  0.50400001928E-02 0.  1.
       -1    1    3    3    0  502 -0.57687647478E+03  0.23323423805E+03 -0.12415918046E+04  0.13887889999E+04  0.50400001928E-02 0. -1.
</event>
<event>
 5   0  0.3671997E-06  0.3296413E+04  0.7818609E-02  0.8163809E-01
        2   -1    0    0  501    0  0.00000000000E+00  0.00000000000E+00  0.25108729082E+04  0.25108729082E+04  0.25500000920E-02 0.  1.
       -2   -1    0    0    0  501  0.00000000000E+00  0.00000000000E+00 -0.10819286808E+04  0.10819286808E+04  0.25500000920E-02 0. -1.
    10030    2    1    2    0    0  0.00000000000E+00  0.00000000000E+00  0.14289442274E+04  0.35928015890E+04  0.32964134529E+04 0.  0.
        2    1    3    3  502    0  0.12246306548E+04  0.10198879009E+04  0.25632783923E+03  0.16141857180E+04  0.25500000920E-02 0. -1.
       -2    1    3    3    0  502 -0.12246306548E+04 -0.10198879009E+04  0.11726163882E+04  0.19786158710E+04  0.25500000920E-02 0.  1.
</event>
<event>
 5   0  0.3896210E-06  0.3258885E+04  0.7818609E-02  0.8173437E-01
       -2   -1    0    0    0  501  0.00000000000E+00  0.00000000000E+00  0.12145532693E+04  0.12145532693E+04  0.25500000920E-02 0.  1.
        2   -1    0    0  501    0  0.00000000000E+00  0.00000000000E+00 -0.21860573714E+04  0.21860573714E+04  0.25500000920E-02 0. -1.
    10030    2    1    2    0    0  0.00000000000E+00  0.00000000000E+00 -0.97150410214E+03  0.34006106407E+04  0.32588851635E+04 0.  0.
        3    1    3    3  502    0 -0.17166912059E+03 -0.52633584176E+03 -0.20849081063E+04  0.21571605242E+04  0.10100000352E+00 0. -1.
       -3    1    3    3    0  502  0.17166912059E+03  0.52633584176E+03  0.11134040042E+04  0.12434501164E+04  0.10100000352E+00 0.  1.
</event>
<event>
 5   0  0.1405389E-06  0.3168866E+04  0.7818609E-02  0.8197088E-01
        1   -1    0    0  501    0  0.00000000000E+00  0.00000000000E+00  0.16581547659E+04  0.16581547659E+04  0.50400001928E-02 0. -1.
       -1   -1    0    0    0  501  0.00000000000E+00  0.00000000000E+00 -0.15139891847E+04  0.15139891847E+04  0.50400001928E-02 0.  1.
    10030    2    1    2    0    0  0.00000000000E+00  0.00000000000E+00  0.14416558115E+03  0.31721439506E+04  0.31688662844E+04 0.  0.
        1    1    3    3  502    0 -0.40046879899E+02  0.15296842788E+04 -0.33930534258E+03  0.15673754690E+04  0.50400001928E-02 0.  1.
       -1    1    3    3    0  502  0.40046879899E+02 -0.15296842788E+04  0.48347092373E+03  0.16047684816E+04  0.50400001928E-02 0. -1.
</event>
<event>
 5   0  0.3920487E-06  0.3283523E+04  0.7818609E-02  0.8167101E-01
        2   -1    0    0  501    0  0.00000000000E+00  0.00000000000E+00  0.20672869768E+04  0.20672869768E+04  0.25500000920E-02 0. -1.
       -2   -1    0    0    0  501  0.00000000000E+00  0.00000000000E+00 -0.13038249064E+04  0.13038249064E+04  0.25500000920E-02 0.  1.
    10030    2    1    2    0    0  0.00000000000E+00  0.00000000000E+00  0.76346207046E+03  0.33711118832E+04  0.32835226504E+04 0.  0.
        4    1    3    3  502    0  0.89268187654E+03 -0.10177871085E+04 -0.57181061045E+03  0.14696055655E+04  0.12699999809E+01 0.  1.
       -4    1    3    3    0  502 -0.89268187654E+03  0.10177871085E+04  0.13352726809E+04  0.19015063177E+04  0.12699999809E+01 0. -1.
</event>
<event>
 5   0  0.1259875E-06  0.3303820E+04  0.7818609E-02  0.8161924E-01
        3   -1    0    0  501    0  0.00000000000E+00  0.00000000000E+00  0.16193578019E+04  0.16193578050E+04  0.10100000352E+00 0. -1.
       -3   -1    0    0    0  501  0.00000000000E+00  0.00000000000E+00 -0.16851163609E+04  0.16851163639E+04  0.10100000352E+00 0.  1.
    10030    2    1    2    0    0  0.00000000000E+00  0.00000000000E+00 -0.65758559011E+02  0.33044741690E+04  0.33038198113E+04 0.  0.
        2    1    3    3  502    0  0.14913985962E+04 -0.49453978874E+03 -0.54284981774E+03  0.16623854246E+04  0.25500000920E-02 0.  1.
       -2    1    3    3    0  502 -0.14913985962E+04  0.49453978874E+03  0.47709125873E+03  0.16420887444E+04  0.25500000920E-02 0. -1.
</event>
<event>
 5   0  0.3812379E-06  0.2232018E+04  0.7818609E-02  0.8505218E-01
        2   -1    0    0  501    0  0.00000000000E+00  0.00000000000E+00  0.13348750276E+04  0.13348750276E+04  0.25500000920E-02 0.  1.
       -2   -1    0    0    0  501  0.00000000000E+00  0.00000000000E+00 -0.93302837196E+03  0.93302837197E+03  0.25500000920E-02 0. -1.
    10030    2    1    2    0    0  0.00000000000E+00  0.00000000000E+00  0.40184665562E+03  0.22679033995E+04  0.22320181664E+04 0.  0.
        5    1    3    3  502    0  0.66978297650E+03 -0.77144235810E+03  0.65727859575E+03  0.12148126563E+04  0.46999998093E+01 0.  1.
       -5    1    3    3    0  502 -0.66978297650E+03  0.77144235810E+03 -0.25543194014E+03  0.10530907432E+04  0.46999998093E+01 0. -1.
</event>
<event>
 5   0  0.3671997E-06  0.3310088E+04  0.7818609E-02  0.8160333E-01
        2   -1    0    0  501    0  0.00000000000E+00  0.00000000000E+00  0.16500679334E+04  0.16500679334E+04  0.25500000920E-02 0. -1.
       -2   -1    0    0    0  501  0.00000000000E+00  0.00000000000E+00 -0.16600354078E+04  0.16600354078E+04  0.25500000920E-02 0.  1.
    10030    2    1    2    0    0  0.00000000000E+00  0.00000000000E+00 -0.99674744415E+01  0.33101033412E+04  0.33100883340E+04 0.  0.
        2    1    3    3  502    0 -0.67041078470E+03 -0.24100475309E+03  0.14888895904E+04  0.16505532780E+04  0.25500000920E-02 0. -1.
       -2    1    3    3    0  502  0.67041078470E+03  0.24100475309E+03 -0.14988570648E+04  0.16595500631E+04  0.25500000920E-02 0.  1.
</event>
<event>
 5   0  0.3896210E-06  0.2216848E+04  0.7818609E-02  0.8511448E-01
        2   -1    0    0  501    0  0.00000000000E+00  0.00000000000E+00  0.14675477190E+04  0.14675477190E+04  0.25500000920E-02 0.  1.
       -2   -1    0    0    0  501  0.00000000000E+00  0.00000000000E+00 -0.83718180312E+03  0.83718180313E+03  0.25500000920E-02 0. -1.
    10030    2    1    2    0    0  0.00000000000E+00  0.00000000000E+00  0.63036591584E+03  0.23047295221E+04  0.22168484346E+04 0.  0.
        3    1    3    3  502    0  0.93793695088E+03 -0.33674362063E+03 -0.18931922252E+03  0.10143785132E+04  0.10100000352E+00 0. -1.
       -3    1    3    3    0  502 -0.93793695088E+03  0.33674362063E+03  0.81968513836E+03  0.12903510089E+04  0.10100000352E+00 0.  1.
</event>
<event>
 5   0  0.3896210E-06  0.3384907E+04  0.7818609E-02  0.8141621E-01
       -2   -1    0    0    0  501  0.00000000000E+00  0.00000000000E+00  0.21946931410E+04  0.21946931410E+04  0.25500000920E-02 0. -1.
        2   -1    0    0  501    0  0.00000000000E+00  0.00000000000E+00 -0.13051478810E+04  0.13051478810E+04  0.25500000920E-02 0.  1.
    10030    2    1    2    0    0  0.00000000000E+00  0.00000000000E+00  0.88954526001E+03  0.34998410220E+04  0.33849071493E+04 0.  0.
        3    1    3    3  502    0  0.47736021311E+03 -0.16181705620E+04  0.30585915048E+03  0.17146132423E+04  0.10100000352E+00 0.  1.
       -3    1    3    3    0  502 -0.47736021311E+03  0.16181705620E+04  0.58368610953E+03  0.17852277797E+04  0.10100000352E+00 0. -1.
</event>
<event>
 5   0  0.3671997E-06  0.3233190E+04  0.7818609E-02  0.8180106E-01
        2   -1    0    0  501    0  0.00000000000E+00  0.00000000000E+00  0.18651007253E+04  0.18651007253E+04  0.25500000920E-02 0.  1.
       -2   -1    0    0    0  501  0.00000000000E+00  0.00000000000E+00 -0.14011999920E+04  0.14011999920E+04  0.25500000920E-02 0. -1.
    10030    2    1    2    0    0  0.00000000000E+00  0.00000000000E+00  0.46390073331E+03  0.32663007173E+04  0.32331898313E+04 0.  0.
        2    1    3    3  502    0  0.11033466541E+02  0.46160472590E+03 -0.13331663465E+04  0.14108625616E+04  0.25500000920E-02 0. -1.
       -2    1    3    3    0  502 -0.11033466541E+02 -0.46160472590E+03  0.17970670798E+04  0.18554381557E+04  0.25500000920E-02 0.  1.
</event>
<event>
 5   0  0.3896210E-06  0.3286897E+04  0.7818609E-02  0.8166238E-01
       -2   -1    0    0    0  501  0.00000000000E+00  0.00000000000E+00  0.24631395786E+04  0.24631395786E+04  0.25500000920E-02 0.  1.
        2   -1    0    0  501    0  0.00000000000E+00  0.00000000000E+00 -0.10965365560E+04  0.10965365560E+04  0.25500000920E-02 0. -1.
    10030    2    1    2    0    0  0.00000000000E+00  0.00000000000E+00  0.13666030227E+04  0.35596761346E+04  0.32868967677E+04 0.  0.
        3    1    3    3  502    0  0.15592881792E+04 -0.33054802766E+03  0.11168776613E+04  0.19462932319E+04  0.10100000352E+00 0.  1.
       -3    1    3    3    0  502 -0.15592881792E+04  0.33054802766E+03  0.24972536140E+03  0.16133829026E+04  0.10100000352E+00 0. -1.
</event>
<event>
 5   0  0.1352708E-06  0.3253074E+04  0.7818609E-02  0.8174939E-01
        1   -1    0    0  501    0  0.00000000000E+00  0.00000000000E+00  0.16859769853E+04  0.16859769853E+04  0.50400001928E-02 0. -1.
       -1   -1    0    0    0  501  0.00000000000E+00  0.00000000000E+00 -0.15691924934E+04  0.15691924935E+04  0.50400001928E-02 0.  1.
    10030    2    1    2    0    0  0.00000000000E+00  0.00000000000E+00  0.11678449182E+03  0.32551694787E+04  0.32530738875E+04 0.  0.
        5    1    3    3  502    0 -0.59345413594E+03  0.83821889011E+03  0.13204745852E+04  0.16728639931E+04  0.46999998093E+01 0. -1.
       -5    1    3    3    0  502  0.59345413594E+03 -0.83821889011E+03 -0.12036900933E+04  0.15823054857E+04  0.46999998093E+01 0.  1.
</event>
<event>
 5   0  0.4017247E-06  0.3477886E+04  0.7818609E-02  0.8119051E-01
       -2   -1    0    0    0  501  0.00000000000E+00  0.00000000000E+00  0.11341847229E+04  0.11341847229E+04  0.25500000920E-02 0.  1.
        2   -1    0    0  501    0  0.00000000000E+00  0.00000000000E+00 -0.26661636506E+04  0.26661636506E+04  0.25500000920E-02 0. -1.
    10030    2    1    2    0    0  0.00000000000E+00  0.00000000000E+00 -0.15319789277E+04  0.38003483735E+04  0.34778856113E+04 0.  0.
        1    1    3    3  502    0 -0.13442699154E+04  0.42936592631E+03  0.34434616776E+03  0.14525808024E+04  0.50400001928E-02 0.  1.
       -1    1    3    3    0  502  0.13442699154E+04 -0.42936592631E+03 -0.18763250955E+04  0.23477675712E+04  0.50400001928E-02 0. -1.
</event>
<event>
 5   0  0.1339825E-06  0.3296838E+04  0.7818609E-02  0.8163700E-01
        1   -1    0    0  501    0  0.00000000000E+00  0.00000000000E+00  0.27682309110E+04  0.27682309110E+04  0.50400001928E-02 0. -1.
       -1   -1    0    0    0  501  0.00000000000E+00  0.00000000000E+00 -0.98159613865E+03  0.98159613867E+03  0.50400001928E-02 0.  1.
    10030    2    1    2    0    0  0.00000000000E+00  0.00000000000E+00  0.17866347723E+04  0.37498270497E+04  0.32968377413E+04 0.  0.
        3    1    3    3  502    0 -0.30408078806E+03 -0.16090868593E+04  0.67853485655E+03  0.17725786889E+04  0.10100000352E+00 0.  1.
       -3    1    3    3    0  502  0.30408078806E+03  0.16090868593E+04  0.11080999158E+04  0.19772483608E+04  0.10100000352E+00 0. -1.
</event>
<event>
 5   0  0.3920487E-06  0.3299193E+04  0.7818609E-02  0.8163101E-01
       -2   -1    0    0    0  501  0.00000000000E+00  0.00000000000E+00  0.13240251083E+04  0.13240251083E+04  0.25500000920E-02 0.  1.
        2   -1    0    0  501    0  0.00000000000E+00  0.00000000000E+00 -0.20552239891E+04  0.20552239891E+04  0.25500000920E-02 0. -1.
    10030    2    1    2    0    0  0.00000000000E+00  0.00000000000E+00 -0.73119888077E+03  0.33792490974E+04  0.32991927284E+04 0.  0.
        4    1    3    3  502    0  0.19352916576E+03  0.11315760872E+04 -0.15789319236E+04  0.19521643403E+04  0.12699999809E+01 0.  1.
       -4    1    3    3    0  502 -0.19352916576E+03 -0.11315760872E+04  0.84773304285E+03  0.14270847571E+04  0.12699999809E+01 0. -1.
</event>
<event>
 5   0  0.3920487E-06  0.2031711E+04  0.7818609E-02  0.8591937E-01
        2   -1    0    0  501    0  0.00000000000E+00  0.00000000000E+00  0.20791036839E+04  0.20791036839E+04  0.25500000920E-02 0. -1.
       -2   -1    0    0    0  501  0.00000000000E+00  0.00000000000E+00 -0.49634948256E+03  0.49634948257E+03  0.25500000920E-02 0.  1.
    10030    2    1    2    0    0  0.00000000000E+00  0.00000000000E+00  0.15827542013E+04  0.25754531664E+04  0.20317106464E+04 0.  0.
        4    1    3    3  502    0  0.21772698698E+03  0.56258052728E+03  0.18274708619E+04  0.19244618091E+04  0.12699999809E+01 0. -1.
       -4    1    3    3    0  502 -0.21772698698E+03 -0.56258052728E+03 -0.24471666058E+03  0.65099135739E+03  0.12699999809E+01 0.  1.
</event>
<event>
 5   0  0.3920487E-06  0.3310919E+04  0.7818609E-02  0.8160123E-01
       -2   -1    0    0    0  501  0.00000000000E+00  0.00000000000E+00  0.10351363558E+04  0.10351363558E+04  0.25500000920E-02 0. -1.
        2   -1    0    0  501    0  0.00000000000E+00  0.00000000000E+00 -0.26475218562E+04  0.26475218562E+04  0.25500000920E-02 0.  1.
    10030    2    1    2    0    0  0.00000000000E+00  0.00000000000E+00 -0.16123855005E+04  0.36826582120E+04  0.33109189819E+04 0.  0.
        4    1    3    3  502    0 -0.13775960278E+04 -0.85305778476E+03 -0.11834925562E+04  0.20065230234E+04  0.12699999809E+01 0. -1.
       -4    1    3    3    0  502  0.13775960278E+04  0.85305778476E+03 -0.42889294429E+03  0.16761351886E+04  0.12699999809E+01 0.  1.
</event>
<event>
 5   0  0.4017247E-06  0.3318182E+04  0.7818609E-02  0.8158284E-01
        2   -1    0    0  501    0  0.00000000000E+00  0.00000000000E+00  0.11148176801E+04  0.11148176801E+04  0.25500000920E-02 0.  1.
       -2   -1    0    0    0  501  0.00000000000E+00  0.00000000000E+00 -0.24690886943E+04  0.24690886943E+04  0.25500000920E-02 0. -1.
    10030    2    1    2    0    0  0.00000000000E+00  0.00000000000E+00 -0.13542710142E+04  0.35839063744E+04  0.33181824724E+04 0.  0.
        1    1    3    3  502    0  0.86188582921E+02 -0.42935226631E+03 -0.24055393750E+04  0.24450749528E+04  0.50400001928E-02 0. -1.
       -1    1    3    3    0  502 -0.86188582921E+02  0.42935226631E+03  0.10512683607E+04  0.11388314215E+04  0.50400001928E-02 0.  1.
</event>
<event>
 5   0  0.1282578E-06  0.3323769E+04  0.7818609E-02  0.8156874E-01
        1   -1    0    0  501    0  0.00000000000E+00  0.00000000000E+00  0.18964116533E+04  0.18964116533E+04  0.50400001928E-02 0.  1.
       -1   -1    0    0    0  501  0.00000000000E+00  0.00000000000E+00 -0.14563610690E+04  0.14563610690E+04  0.50400001928E-02 0. -1.
    10030    2    1    2    0    0  0.00000000000E+00  0.00000000000E+00  0.44005058430E+03  0.33527727223E+04  0.33237690069E+04 0.  0.
        4    1    3    3  502    0  0.73076715700E+03  0.14879656090E+04  0.10154312214E+03  0.16608356059E+04  0.12699999809E+01 0.  1.
       -4    1    3    3    0  502 -0.73076715700E+03 -0.14879656090E+04  0.33850746216E+03  0.16919371165E+04  0.12699999809E+01 0. -1.
</event>
<event>
 5   0  0.1352708E-06  0.2450476E+04  0.7818609E-02  0.8420844E-01
       -1   -1    0    0    0  501  0.00000000000E+00  0.00000000000E+00  0.12313725293E+04  0.12313725293E+04  0.50400001928E-02 0. -1.
        1   -1    0    0  501    0  0.00000000000E+00  0.00000000000E+00 -0.12191343320E+04  0.12191343320E+04  0.50400001928E-02 0.  1.
    10030    2    1    2    0    0  0.00000000000E+00  0.00000000000E+00  0.12238197282E+02  0.24505068613E+04  0.24504763015E+04 0.  0.
        5    1    3    3  502    0 -0.10532705378E+04 -0.58159853457E+03  0.23753234467E+03  0.12264091430E+04  0.46999998093E+01 0.  1.
       -5    1    3    3    0  502  0.10532705378E+04  0.58159853457E+03 -0.22529414739E+03  0.12240977184E+04  0.46999998093E+01 0. -1.
</event>
<event>
 5   0  0.3920487E-06  0.3230389E+04  0.7818609E-02  0.8180837E-01
       -2   -1    0    0    0  501  0.00000000000E+00  0.00000000000E+00  0.11572916735E+04  0.11572916735E+04  0.25500000920E-02 0. -1.
        2   -1    0    0  501    0  0.00000000000E+00  0.00000000000E+00 -0.22542739718E+04  0.22542739718E+04  0.25500000920E-02 0.  1.
    10030    2    1    2    0    0  0.00000000000E+00  0.00000000000E+00 -0.10969822983E+04  0.34115656453E+04  0.32303885198E+04 0.  0.
        4    1    3    3  502    0  0.82281153813E+03  0.11586799846E+04  0.26221697168E+03  0.14451012031E+04  0.12699999809E+01 0. -1.
       -4    1    3    3    0  502 -0.82281153813E+03 -0.11586799846E+04 -0.13591992700E+04  0.19664644422E+04  0.12699999809E+01 0.  1.
</event>
<event>
 5   0  0.4017247E-06  0.2847080E+04  0.7818609E-02  0.8288799E-01
       -2   -1    0    0    0  501  0.00000000000E+00  0.00000000000E+00  0.98421456655E+03  0.98421456655E+03  0.25500000920E-02 0.  1.
        2   -1    0    0  501    0  0.00000000000E+00  0.00000000000E+00 -0.20589685518E+04  0.20589685518E+04  0.25500000920E-02 0. -1.
    10030    2    1    2    0    0  0.00000000000E+00  0.00000000000E+00 -0.10747539853E+04  0.30431831184E+04  0.28470804982E+04 0.  0.
        1    1    3    3  502    0 -0.61544558042E+03 -0.79936316795E+03  0.53614749564E+03  0.11424573838E+04  0.50400001928E-02 0.  1.
       -1    1    3    3    0  502  0.61544558042E+03  0.79936316795E+03 -0.16109014809E+04  0.19007257346E+04  0.50400001928E-02 0. -1.
</event>
<event>
 5   0  0.3671997E-06  0.3365240E+04  0.7818609E-02  0.8146491E-01
        2   -1    0    0  501    0  0.00000000000E+00  0.00000000000E+00  0.17614390096E+04  0.17614390096E+04  0.25500000920E-02 0.  1.
       -2   -1    0    0    0  501  0.00000000000E+00  0.00000000000E+00 -0.16073282519E+04  0.16073282520E+04  0.25500000920E-02 0. -1.
    10030    2    1    2    0    0  0.00000000000E+00  0.00000000000E+00  0.15411075766E+03  0.33687672616E+04  0.33652403684E+04 0.  0.
        2    1    3    3  502    0 -0.20162551591E+03 -0.14811009223E+04  0.85045675601E+03  0.17197643689E+04  0.25500000920E-02 0.  1.
       -2    1    3    3    0  502  0.20162551591E+03  0.14811009223E+04 -0.69634599835E+03  0.16490028927E+04  0.25500000920E-02 0. -1.
</event>
<event>
 5   0  0.3812379E-06  0.3469456E+04  0.7818609E-02  0.8121067E-01
        2   -1    0    0  501    0  0.00000000000E+00  0.00000000000E+00  0.15217903070E+04  0.15217903070E+04  0.25500000920E-02 0. -1.
       -2   -1    0    0    0  501  0.00000000000E+00  0.00000000000E+00 -0.19774611663E+04  0.19774611663E+04  0.25500000920E-02 0.  1.
    10030    2    1    2    0    0  0.00000000000E+00  0.00000000000E+00 -0.45567085936E+03  0.34992514733E+04  0.34694560007E+04 0.  0.
        5    1    3    3  502    0  0.13911770359E+04 -0.66954423322E+03 -0.10255743722E+04  0.18535069216E+04  0.46999998093E+01 0.  1.
       -5    1    3    3    0  502 -0.13911770359E+04  0.66954423322E+03  0.56990351283E+03  0.16457445517E+04  0.46999998093E+01 0. -1.
</event>
<event>
 5   0  0.3671997E-06  0.3295982E+04  0.7818609E-02  0.8163918E-01
       -2   -1    0    0    0  501  0.00000000000E+00  0.00000000000E+00  0.14144810213E+04  0.14144810213E+04  0.25500000920E-02 0. -1.
        2   -1    0    0  501    0  0.00000000000E+00  0.00000000000E+00 -0.19200501939E+04  0.19200501939E+04  0.25500000920E-02 0.  1.
    10030    2    1    2    0    0  0.00000000000E+00  0.00000000000E+00 -0.50556917263E+03  0.33345312152E+04  0.32959821354E+04 0.  0.
        2    1    3    3  502    0 -0.21775884959E+02 -0.15947547696E+04 -0.67255616591E+03  0.17309098072E+04  0.25500000920E-02 0.  1.
       -2    1    3    3    0  502  0.21775884959E+02  0.15947547696E+04  0.16698699328E+03  0.16036214080E+04  0.25500000920E-02 0. -1.
</event>
<event>
 5   0  0.1339825E-06  0.3234321E+04  0.7818609E-02  0.8179811E-01
        1   -1    0    0  501    0  0.00000000000E+00  0.00000000000E+00  0.19776535631E+04  0.19776535631E+04  0.50400001928E-02 0. -1.
       -1   -1    0    0    0  501  0.00000000000E+00  0.00000000000E+00 -0.13223796454E+04  0.13223796454E+04  0.50400001928E-02 0.  1.
    10030    2    1    2    0    0  0.00000000000E+00  0.00000000000E+00  0.65527391770E+03  0.33000332086E+04  0.32343214544E+04 0.  0.
        3    1    3    3  502    0 -0.10580330798E+03 -0.29405454893E+03  0.19465512974E+04  0.19714777151E+04  0.10100000352E+00 0. -1.
       -3    1    3    3    0  502  0.10580330798E+03  0.29405454893E+03 -0.12912773797E+04  0.13285554934E+04  0.10100000352E+00 0.  1.
</event>
<event>
 5   0  0.4017247E-06  0.3172148E+04  0.7818609E-02  0.8196212E-01
        2   -1    0    0  501    0  0.00000000000E+00  0.00000000000E+00  0.16704131516E+04  0.16704131516E+04  0.25500000920E-02 0.  1.
       -2   -1    0    0    0  501  0.00000000000E+00  0.00000000000E+00 -0.15059933475E+04  0.15059933475E+04  0.25500000920E-02 0. -1.
    10030    2    1    2    0    0  0.00000000000E+00  0.00000000000E+00  0.16441980418E+03  0.31764064991E+04  0.31721482272E+04 0.  0.
        1    1    3    3  502    0  0.44405023575E+02 -0.95316448794E+03  0.13508505487E+04  0.16538716855E+04  0.50400001928E-02 0.  1.
       -1    1    3    3    0  502 -0.44405023575E+02  0.95316448794E+03 -0.11864307445E+04  0.15225348136E+04  0.50400001928E-02 0. -1.
</event>
<event>
 5   0  0.1282578E-06  0.3261366E+04  0.7818609E-02  0.8172796E-01
        1   -1    0    0  501    0  0.00000000000E+00  0.00000000000E+00  0.16809429583E+04  0.16809429583E+04  0.50400001928E-02 0.  1.
       -1   -1    0    0    0  501  0.00000000000E+00  0.00000000000E+00 -0.15819261988E+04  0.15819261988E+04  0.50400001928E-02 0. -1.
    10030    2    1    2    0    0  0.00000000000E+00  0.00000000000E+00  0.99016759418E+02  0.32628691571E+04  0.32613664035E+04 0.  0.
        4    1    3    3  502    0  0.89434468738E+03 -0.87620274427E+03  0.10947588586E+04  0.16631543044E+04  0.12699999809E+01 0.  1.
       -4    1    3    3    0  502 -0.89434468738E+03  0.87620274427E+03 -0.99574209918E+03  0.15997148527E+04  0.12699999809E+01 0. -1.
</event>
<event>
 5   0  0.1282578E-06  0.3335578E+04  0.7818609E-02  0.8153901E-01
       -1   -1    0    0    0  501  0.00000000000E+00  0.00000000000E+00  0.12034063136E+04  0.12034063137E+04  0.50400001928E-02 0. -1.
        1   -1    0    0  501    0  0.00000000000E+00  0.00000000000E+00 -0.23113719284E+04  0.23113719284E+04  0.50400001928E-02 0.  1.
    10030    2    1    2    0    0  0.00000000000E+00  0.00000000000E+00 -0.11079656147E+04  0.35147782420E+04  0.33355776542E+04 0.  0.
        4    1    3    3  502    0 -0.12170538115E+03  0.14158086733E+04 -0.14739216174E+04  0.20473819738E+04  0.12699999809E+01 0.  1.
       -4    1    3    3    0  502  0.12170538115E+03 -0.14158086733E+04  0.36595600275E+03  0.14673962682E+04  0.12699999809E+01 0. -1.
</event>
<event>
 5   0  0.3896210E-06  0.3311484E+04  0.7818609E-02  0.8159980E-01
       -2   -1    0    0    0  501  0.00000000000E+00  0.00000000000E+00  0.14788003707E+04  0.14788003707E+04  0.25500000920E-02 0. -1.
        2   -1    0    0  501    0  0.00000000000E+00  0.00000000000E+00 -0.18538546369E+04  0.18538546369E+04  0.25500000920E-02 0.  1.
    10030    2    1    2    0    0  0.00000000000E+00  0.00000000000E+00 -0.37505426619E+03  0.33326550076E+04  0.33114836096E+04 0.  0.
        3    1    3    3  502    0  0.15344826319E+04 -0.27614795689E+03  0.37333856085E+03  0.16032081378E+04  0.10100000352E+00 0. -1.
       -3    1    3    3    0  502 -0.15344826319E+04  0.27614795689E+03 -0.74839282704E+03  0.17294468698E+04  0.10100000352E+00 0.  1.
</event>
<event>
 5   0  0.3812379E-06  0.3354447E+04  0.7818609E-02  0.8149178E-01
       -2   -1    0    0    0  501  0.00000000000E+00  0.00000000000E+00  0.14783252957E+04  0.14783252957E+04  0.25500000920E-02 0.  1.
        2   -1    0    0  501    0  0.00000000000E+00  0.00000000000E+00 -0.19028820067E+04  0.19028820067E+04  0.25500000920E-02 0. -1.
    10030    2    1    2    0    0  0.00000000000E+00  0.00000000000E+00 -0.42455671094E+03  0.33812073024E+04  0.33544469620E+04 0.  0.
        5    1    3    3  502    0 -0.60231407545E+03  0.61209982131E+03 -0.16644687001E+04  0.18729459630E+04  0.46999998093E+01 0. -1.
       -5    1    3    3    0  502  0.60231407545E+03 -0.61209982131E+03  0.12399119892E+04  0.15082613393E+04  0.46999998093E+01 0.  1.
</event>
<event>
 5   0  0.3812379E-06  0.3148433E+04  0.7818609E-02  0.8202570E-01
        2   -1    0    0  501    0  0.00000000000E+00  0.00000000000E+00  0.24599714038E+04  0.24599714038E+04  0.25500000920E-02 0.  1.
       -2   -1    0    0    0  501  0.00000000000E+00  0.00000000000E+00 -0.10073930443E+04  0.10073930443E+04  0.25500000920E-02 0. -1.
    10030    2    1    2    0    0  0.00000000000E+00  0.00000000000E+00  0.14525783595E+04  0.34673644481E+04  0.31484333129E+04 0.  0.
        5    1    3    3  502    0  0.20329764430E+03  0.15547147898E+04  0.57184025471E+03  0.16689791421E+04  0.46999998093E+01 0. -1.
       -5    1    3    3    0  502 -0.20329764430E+03 -0.15547147898E+04  0.88073810481E+03  0.17983853061E+04  0.46999998093E+01 0.  1.
</event>
<event>
 5   0  0.4017247E-06  0.3313134E+04  0.7818609E-02  0.8159561E-01
       -2   -1    0    0    0  501  0.00000000000E+00  0.00000000000E+00  0.13785231608E+04  0.13785231608E+04  0.25500000920E-02 0.  1.
        2   -1    0    0  501    0  0.00000000000E+00  0.00000000000E+00 -0.19906916336E+04  0.19906916336E+04  0.25500000920E-02 0. -1.
    10030    2    1    2    0    0  0.00000000000E+00  0.00000000000E+00 -0.61216847274E+03  0.33692147944E+04  0.33131341795E+04 0.  0.
        1    1    3    3  502    0 -0.85614834092E+02 -0.52289417395E+03 -0.19021948572E+04  0.19746122383E+04  0.50400001928E-02 0. -1.
       -1    1    3    3    0  502  0.85614834092E+02  0.52289417395E+03  0.12900263844E+04  0.13946025561E+04  0.50400001928E-02 0.  1.
</event>
<event>
 5   0  0.1282578E-06  0.3248618E+04  0.7818609E-02  0.8176094E-01
        1   -1    0    0  501    0  0.00000000000E+00  0.00000000000E+00  0.15605885252E+04  0.15605885252E+04  0.50400001928E-02 0.  1.
       -1   -1    0    0    0  501  0.00000000000E+00  0.00000000000E+00 -0.16906309011E+04  0.16906309011E+04  0.50400001928E-02 0. -1.
    10030    2    1    2    0    0  0.00000000000E+00  0.00000000000E+00 -0.13004237593E+03  0.32512194263E+04  0.32486176658E+04 0.  0.
        4    1    3    3  502    0 -0.33083710792E+03 -0.86032284373E+03 -0.14035410117E+04  0.16791478708E+04  0.12699999809E+01 0. -1.
       -4    1    3    3    0  502  0.33083710792E+03  0.86032284373E+03  0.12734986358E+04  0.15720715555E+04  0.12699999809E+01 0.  1.
</event>
<event>
 5   0  0.1259875E-06  0.3292304E+04  0.7818609E-02  0.8164856E-01
       -3   -1    0    0    0  501  0.00000000000E+00  0.00000000000E+00  0.19123190831E+04  0.19123190858E+04  0.10100000352E+00 0.  1.
        3   -1    0    0  501    0  0.00000000000E+00  0.00000000000E+00 -0.14170315160E+04  0.14170315196E+04  0.10100000352E+00 0. -1.
    10030    2    1    2    0    0  0.00000000000E+00  0.00000000000E+00  0.49528756707E+03  0.33293506054E+04  0.32923040078E+04 0.  0.
        2    1    3    3  502    0  0.19630747968E+03  0.16340246943E+03  0.18921590474E+04  0.19093199979E+04  0.25500000920E-02 0.  1.
       -2    1    3    3    0  502 -0.19630747968E+03 -0.16340246943E+03 -0.13968714804E+04  0.14200306075E+04  0.25500000920E-02 0. -1.
</event>
<event>
 5   0  0.3812379E-06  0.3315578E+04  0.7818609E-02  0.8158943E-01
        2   -1    0    0  501    0  0.00000000000E+00  0.00000000000E+00  0.16062909018E+04  0.16062909018E+04  0.25500000920E-02 0.  1.
       -2   -1    0    0    0  501  0.00000000000E+00  0.00000000000E+00 -0.17109385358E+04  0.17109385358E+04  0.25500000920E-02 0. -1.
    10030    2    1    2    0    0  0.00000000000E+00  0.00000000000E+00 -0.10464763401E+03  0.33172294376E+04  0.33155783831E+04 0.  0.
        5    1    3    3  502    0 -0.82664443184E+03 -0.89009092184E+03 -0.11809990729E+04  0.16942206958E+04  0.46999998093E+01 0. -1.
       -5    1    3    3    0  502  0.82664443184E+03  0.89009092184E+03  0.10763514389E+04  0.16230087418E+04  0.46999998093E+01 0.  1.
</event>
<event>
 5   0  0.3671997E-06  0.3313364E+04  0.7818609E-02  0.8159503E-01
        2   -1    0    0  501    0  0.00000000000E+00  0.00000000000E+00  0.16383997114E+04  0.16383997114E+04  0.25500000920E-02 0. -1.
       -2   -1    0    0    0  501  0.00000000000E+00  0.00000000000E+00 -0.16751678677E+04  0.16751678677E+04  0.25500000920E-02 0.  1.
    10030    2    1    2    0    0  0.00000000000E+00  0.00000000000E+00 -0.36768156340E+02  0.33135675791E+04  0.33133635786E+04 0.  0.
        2    1    3    3  502    0 -0.77944336162E+03  0.13567618246E+04 -0.56271525530E+03  0.16628238215E+04  0.25500000920E-02 0.  1.
       -2    1    3    3    0  502  0.77944336162E+03 -0.13567618246E+04  0.52594709896E+03  0.16507437577E+04  0.25500000920E-02 0. -1.
</event>
<event>
 5   0  0.3896210E-06  0.3095146E+04  0.7818609E-02  0.8217071E-01
       -2   -1    0    0    0  501  0.00000000000E+00  0.00000000000E+00  0.25041622493E+04  0.25041622493E+04  0.25500000920E-02 0. -1.
        2   -1    0    0  501    0  0.00000000000E+00  0.00000000000E+00 -0.95640086713E+03  0.95640086713E+03  0.25500000920E-02 0.  1.
    10030    2    1    2    0    0  0.00000000000E+00  0.00000000000E+00  0.15477613822E+04  0.34605631164E+04  0.30951464887E+04 0.  0.
        3    1    3    3  502    0  0.15473655397E+04  0.18723942188E+02  0.75476750338E+03  0.17217330495E+04  0.10100000352E+00 0.  1.
       -3    1    3    3    0  502 -0.15473655397E+04 -0.18723942188E+02  0.79299387881E+03  0.17388300669E+04  0.10100000352E+00 0. -1.
</event>
<event>
 5   0  0.1405389E-06  0.2591170E+04  0.7818609E-02  0.8371207E-01
        1   -1    0    0  501    0  0.00000000000E+00  0.00000000000E+00  0.11249846393E+04  0.11249846393E+04  0.50400001928E-02 0.  1.
       -1   -1    0    0    0  501  0.00000000000E+00  0.00000000000E+00 -0.14920564281E+04  0.14920564281E+04  0.50400001928E-02 0. -1.
    10030    2    1    2    0    0  0.00000000000E+00  0.00000000000E+00 -0.36707178882E+03  0.26170410673E+04  0.25911700543E+04 0.  0.
        1    1    3    3  502    0  0.36386991358E+03  0.10939041437E+04 -0.78063479552E+03  0.13922709052E+04  0.50400001928E-02 0. -1.
       -1    1    3    3    0  502 -0.36386991358E+03 -0.10939041437E+04  0.41356300670E+03  0.12247701621E+04  0.50400001928E-02 0.  1.
</event>
<event>
 5   0  0.3896210E-06  0.2231598E+04  0.7818609E-02  0.8505390E-01
        2   -1    0    0  501    0  0.00000000000E+00  0.00000000000E+00  0.99651499625E+03  0.99651499625E+03  0.25500000920E-02 0.  1.
       -2   -1    0    0    0  501  0.00000000000E+00  0.00000000000E+00 -0.12493617883E+04  0.12493617883E+04  0.25500000920E-02 0. -1.
    10030    2    1    2    0    0  0.00000000000E+00  0.00000000000E+00 -0.25284679205E+03  0.22458767846E+04  0.22315983131E+04 0.  0.
        3    1    3    3  502    0 -0.54311190464E+03 -0.81103410102E+03 -0.67049399207E+03  0.11841913095E+04  0.10100000352E+00 0. -1.
       -3    1    3    3    0  502  0.54311190464E+03  0.81103410102E+03  0.41764720002E+03  0.10616854750E+04  0.10100000352E+00 0.  1.
</event>
<event>
 5   0  0.3812379E-06  0.3330782E+04  0.7818609E-02  0.8155107E-01
        2   -1    0    0  501    0  0.00000000000E+00  0.00000000000E+00  0.14085798281E+04  0.14085798281E+04  0.25500000920E-02 0. -1.
       -2   -1    0    0    0  501  0.00000000000E+00  0.00000000000E+00 -0.19690233554E+04  0.19690233554E+04  0.25500000920E-02 0.  1.
    10030    2    1    2    0    0  0.00000000000E+00  0.00000000000E+00 -0.56044352727E+03  0.33776031835E+04  0.33307816377E+04 0.  0.
        5    1    3    3  502    0  0.28317078186E+03  0.19065620621E+03  0.13727129783E+04  0.14145311914E+04  0.46999998093E+01 0. -1.
       -5    1    3    3    0  502 -0.28317078186E+03 -0.19065620621E+03 -0.19331565056E+04  0.19630719920E+04  0.46999998093E+01 0.  1.
</event>
<event>
 5   0  0.1405389E-06  0.3330080E+04  0.7818609E-02  0.8155283E-01
       -1   -1    0    0    0  501  0.00000000000E+00  0.00000000000E+00  0.13315246812E+04  0.13315246812E+04  0.50400001928E-02 0. -1.
        1   -1    0    0  501    0  0.00000000000E+00  0.00000000000E+00 -0.20820935048E+04  0.20820935048E+04  0.50400001928E-02 0.  1.
    10030    2    1    2    0    0  0.00000000000E+00  0.00000000000E+00 -0.75056882364E+03  0.34136181860E+04  0.33300804135E+04 0.  0.
        1    1    3    3  502    0 -0.15294968194E+04  0.50297870866E+03  0.59635698382E+02  0.16111810943E+04  0.50400001928E-02 0. -1.
       -1    1    3    3    0  502  0.15294968194E+04 -0.50297870866E+03 -0.81020452202E+03  0.18024370917E+04  0.50400001928E-02 0.  1.
</event>
<event>
 5   0  0.1391878E-06  0.3311366E+04  0.7818609E-02  0.8160009E-01
       -1   -1    0    0    0  501  0.00000000000E+00  0.00000000000E+00  0.14567827235E+04  0.14567827235E+04  0.50400001928E-02 0. -1.
        1   -1    0    0  501    0  0.00000000000E+00  0.00000000000E+00 -0.18817403910E+04  0.18817403910E+04  0.50400001928E-02 0.  1.
    10030    2    1    2    0    0  0.00000000000E+00  0.00000000000E+00 -0.42495766747E+03  0.33385231145E+04  0.33113664199E+04 0.  0.
        2    1    3    3  502    0 -0.14419525165E+04  0.18038165750E+03  0.58745248959E+03  0.15674390035E+04  0.25500000920E-02 0. -1.
       -2    1    3    3    0  502  0.14419525165E+04 -0.18038165750E+03 -0.10124101571E+04  0.17710841110E+04  0.25500000920E-02 0.  1.
</event>
<event>
 5   0  0.3920487E-06  0.3330993E+04  0.7818609E-02  0.8155054E-01
       -2   -1    0    0    0  501  0.00000000000E+00  0.00000000000E+00  0.18778563523E+04  0.18778563523E+04  0.25500000920E-02 0.  1.
        2   -1    0    0  501    0  0.00000000000E+00  0.00000000000E+00 -0.14771515959E+04  0.14771515959E+04  0.25500000920E-02 0. -1.
    10030    2    1    2    0    0  0.00000000000E+00  0.00000000000E+00  0.40070475638E+03  0.33550079483E+04  0.33309929497E+04 0.  0.
        4    1    3    3  502    0  0.24273230795E+03 -0.15505435505E+04  0.76184132852E+03  0.17445653035E+04  0.12699999809E+01 0. -1.
       -4    1    3    3    0  502 -0.24273230795E+03  0.15505435505E+04 -0.36113657214E+03  0.16104426448E+04  0.12699999809E+01 0.  1.
</event>
<event>
 5   0  0.3920487E-06  0.2429260E+04  0.7818609E-02  0.8428630E-01
        2   -1    0    0  501    0  0.00000000000E+00  0.00000000000E+00  0.22411256780E+04  0.22411256780E+04  0.25500000920E-02 0.  1.
       -2   -1    0    0    0  501  0.00000000000E+00  0.00000000000E+00 -0.65829663976E+03  0.65829663977E+03  0.25500000920E-02 0. -1.
    10030    2    1    2    0    0  0.00000000000E+00  0.00000000000E+00  0.15828290383E+04  0.28994223178E+04  0.24292595606E+04 0.  0.
        4    1    3    3  502    0 -0.31250015127E+02 -0.12254168939E+03 -0.65041675134E+03  0.66259836433E+03  0.12699999809E+01 0. -1.
       -4    1    3    3    0  502  0.31250015127E+02  0.12254168939E+03  0.22332457896E+04  0.22368239535E+04  0.12699999809E+01 0.  1.
</event>
<event>
 5   0  0.3671997E-06  0.3283892E+04  0.7818609E-02  0.8167006E-01
       -2   -1    0    0    0  501  0.00000000000E+00  0.00000000000E+00  0.96048793436E+03  0.96048793436E+03  0.25500000920E-02 0. -1.
        2   -1    0    0  501    0  0.00000000000E+00  0.00000000000E+00 -0.28068928971E+04  0.28068928971E+04  0.25500000920E-02 0.  1.
    10030    2    1    2    0    0  0.00000000000E+00  0.00000000000E+00 -0.18464049627E+04  0.37673808314E+04  0.32838920571E+04 0.  0.
        2    1    3    3  502    0  0.24079125859E+03  0.16657177734E+03  0.93029734230E+03  0.97528443663E+03  0.25500000920E-02 0. -1.
       -2    1    3    3    0  502 -0.24079125859E+03 -0.16657177734E+03 -0.27767023050E+04  0.27920963948E+04  0.25500000920E-02 0.  1.
</event>
<event>
 5   0  0.4017247E-06  0.3217205E+04  0.7818609E-02  0.8184288E-01
        2   -1    0    0  501    0  0.00000000000E+00  0.00000000000E+00  0.18447471557E+04  0.18447471557E+04  0.25500000920E-02 0.  1.
       -2   -1    0    0    0  501  0.00000000000E+00  0.00000000000E+00 -0.14026867940E+04  0.14026867940E+04  0.25500000920E-02 0. -1.
    10030    2    1    2    0    0  0.00000000000E+00  0.00000000000E+00  0.44206036177E+03  0.32474339497E+04  0.32172052925E+04 0.  0.
        1    1    3    3  502    0  0.56770102762E+03 -0.88593103422E+02  0.17376351568E+04  0.18301664222E+04  0.50400001928E-02 0.  1.
       -1    1    3    3    0  502 -0.56770102762E+03  0.88593103422E+02 -0.12955747951E+04  0.14172675275E+04  0.50400001928E-02 0. -1.
</event>
<event>
 5   0  0.3920487E-06  0.3239938E+04  0.7818609E-02  0.8178349E-01
       -2   -1    0    0    0  501  0.00000000000E+00  0.00000000000E+00  0.26429821368E+04  0.26429821368E+04  0.25500000920E-02 0.  1.
        2   -1    0    0  501    0  0.00000000000E+00  0.00000000000E+00 -0.99293138091E+03  0.99293138091E+03  0.25500000920E-02 0. -1.
    10030    2    1    2    0    0  0.00000000000E+00  0.00000000000E+00  0.16500507559E+04  0.36359135177E+04  0.32399382110E+04 0.  0.
        4    1    3    3  502    0 -0.55095523610E+03  0.15233884077E+04  0.83160514110E+03  0.18209427878E+04  0.12699999809E+01 0. -1.
       -4    1    3    3    0  502  0.55095523610E+03 -0.15233884077E+04  0.81844561478E+03  0.18149707299E+04  0.12699999809E+01 0.  1.
</event>
<event>
 5   0  0.3896210E-06  0.3247412E+04  0.7818609E-02  0.8176407E-01
       -2   -1    0    0    0  501  0.00000000000E+00  0.00000000000E+00  0.14967224922E+04  0.14967224922E+04  0.25500000920E-02 0.  1.
        2   -1    0    0  501    0  0.00000000000E+00  0.00000000000E+00 -0.17614631745E+04  0.17614631745E+04  0.25500000920E-02 0. -1.
    10030    2    1    2    0    0  0.00000000000E+00  0.00000000000E+00 -0.26474068231E+03  0.32581856668E+04  0.32474122329E+04 0.  0.
        3    1    3    3  502    0 -0.12796344629E+04  0.95795927946E+03  0.15365647366E+03  0.16058520049E+04  0.10100000352E+00 0. -1.
       -3    1    3    3    0  502  0.12796344629E+04 -0.95795927946E+03 -0.41839715597E+03  0.16523336618E+04  0.10100000352E+00 0.  1.
</event>
<event>
 5   0  0.1339825E-06  0.3220192E+04  0.7818609E-02  0.8183505E-01
        1   -1    0    0  501    0  0.00000000000E+00  0.00000000000E+00  0.16007140617E+04  0.16007140617E+04  0.50400001928E-02 0.  1.
       -1   -1    0    0    0  501  0.00000000000E+00  0.00000000000E+00 -0.16195330119E+04  0.16195330119E+04  0.50400001928E-02 0. -1.
    10030    2    1    2    0    0  0.00000000000E+00  0.00000000000E+00 -0.18818950257E+02  0.32202470736E+04  0.32201920847E+04 0.  0.
        3    1    3    3  502    0  0.98950312946E+03 -0.15055615077E+03  0.12518121478E+04  0.16027530257E+04  0.10100000352E+00 0.  1.
       -3    1    3    3    0  502 -0.98950312946E+03  0.15055615077E+03 -0.12706310980E+04  0.16174940480E+04  0.10100000352E+00 0. -1.
</event>
<event>
 5   0  0.1339825E-06  0.3273736E+04  0.7818609E-02  0.8169610E-01
       -1   -1    0    0    0  501  0.00000000000E+00  0.00000000000E+00  0.18012954394E+04  0.18012954394E+04  0.50400001928E-02 0.  1.
        1   -1    0    0  501    0  0.00000000000E+00  0.00000000000E+00 -0.14874502861E+04  0.14874502861E+04  0.50400001928E-02 0. -1.
    10030    2    1    2    0    0  0.00000000000E+00  0.00000000000E+00  0.31384515331E+03  0.32887457256E+04  0.32737363466E+04 0.  0.
        3    1    3    3  502    0  0.11094921752E+04  0.77400393065E+03  0.10827129648E+04  0.17327210814E+04  0.10100000352E+00 0.  1.
       -3    1    3    3    0  502 -0.11094921752E+04 -0.77400393065E+03 -0.76886781152E+03  0.15560246442E+04  0.10100000352E+00 0. -1.
</event>
<event>
 5   0  0.1282578E-06  0.2666312E+04  0.7818609E-02  0.8346019E-01
        1   -1    0    0  501    0  0.00000000000E+00  0.00000000000E+00  0.15028690484E+04  0.15028690485E+04  0.50400001928E-02 0.  1.
       -1   -1    0    0    0  501  0.00000000000E+00  0.00000000000E+00 -0.11826080735E+04  0.11826080735E+04  0.50400001928E-02 0. -1.
    10030    2    1    2    0    0  0.00000000000E+00  0.00000000000E+00  0.32026097496E+03  0.26854771220E+04  0.26663121124E+04 0.  0.
        4    1    3    3  502    0  0.16390658777E+03 -0.16406270138E+03 -0.11621354984E+04  0.11850495640E+04  0.12699999809E+01 0. -1.
       -4    1    3    3    0  502 -0.16390658777E+03  0.16406270138E+03  0.14823964734E+04  0.15004275580E+04  0.12699999809E+01 0.  1.
</event>
<event>
 5   0  0.1405389E-06  0.3130082E+04  0.7818609E-02  0.8207530E-01
        1   -1    0    0  501    0  0.00000000000E+00  0.00000000000E+00  0.20576431234E+04  0.20576431234E+04  0.50400001928E-02 0. -1.
       -1   -1    0    0    0  501  0.00000000000E+00  0.00000000000E+00 -0.11903684052E+04  0.11903684052E+04  0.50400001928E-02 0.  1.
    10030    2    1    2    0    0  0.00000000000E+00  0.00000000000E+00  0.86727471819E+03  0.32480115286E+04  0.31300820201E+04 0.  0.
        1    1    3    3  502    0 -0.10054725522E+04 -0.69894024436E+03 -0.57769018798E+03  0.13539639847E+04  0.50400001928E-02 0.  1.
       -1    1    3    3    0  502  0.10054725522E+04  0.69894024436E+03  0.14449649062E+04  0.18940475439E+04  0.50400001928E-02 0. -1.
</event>
<event>
 5   0  0.4017247E-06  0.3170193E+04  0.7818609E-02  0.8196734E-01
       -2   -1    0    0    0  501  0.00000000000E+00  0.00000000000E+00  0.97532618786E+03  0.97532618786E+03  0.25500000920E-02 0.  1.
        2   -1    0    0  501    0  0.00000000000E+00  0.00000000000E+00 -0.25760929211E+04  0.25760929211E+04  0.25500000920E-02 0. -1.
    10030    2    1    2    0    0  0.00000000000E+00  0.00000000000E+00 -0.16007667332E+04  0.35514191089E+04  0.31701929836E+04 0.  0.
        1    1    3    3  502    0 -0.64425638902E+03  0.12979540326E+04 -0.15201231509E+04  0.21001250819E+04  0.50400001928E-02 0. -1.
       -1    1    3    3    0  502  0.64425638902E+03 -0.12979540326E+04 -0.80643582278E+02  0.14512940270E+04  0.50400001928E-02 0.  1.
</event>
<event>
 5   0  0.3920487E-06  0.3268442E+04  0.7818609E-02  0.8170972E-01
       -2   -1    0    0    0  501  0.00000000000E+00  0.00000000000E+00  0.17579909991E+04  0.17579909991E+04  0.25500000920E-02 0. -1.
        2   -1    0    0  501    0  0.00000000000E+00  0.00000000000E+00 -0.15191653234E+04  0.15191653234E+04  0.25500000920E-02 0.  1.
    10030    2    1    2    0    0  0.00000000000E+00  0.00000000000E+00  0.23882567567E+03  0.32771563225E+04  0.32684424209E+04 0.  0.
        4    1    3    3  502    0  0.10146713367E+04 -0.12304894034E+04 -0.23792932973E+03  0.16125365336E+04  0.12699999809E+01 0.  1.
       -4    1    3    3    0  502 -0.10146713367E+04  0.12304894034E+04  0.47675500539E+03  0.16646197889E+04  0.12699999809E+01 0. -1.
</event>
<event>
 5   0  0.3671997E-06  0.3284031E+04  0.7818609E-02  0.8166971E-01
        2   -1    0    0  501    0  0.00000000000E+00  0.00000000000E+00  0.15833016628E+04  0.15833016628E+04  0.25500000920E-02 0.  1.
       -2   -1    0    0    0  501  0.00000000000E+00  0.00000000000E+00 -0.17029067247E+04  0.17029067247E+04  0.25500000920E-02 0. -1.
    10030    2    1    2    0    0  0.00000000000E+00  0.00000000000E+00 -0.11960506190E+03  0.32862083876E+04  0.32840310894E+04 0.  0.
        2    1    3    3  502    0 -0.10933081059E+04 -0.11639509095E+04 -0.44230027030E+03  0.16570256073E+04  0.25500000920E-02 0.  1.
       -2    1    3    3    0  502  0.10933081059E+04  0.11639509095E+04  0.32269520840E+03  0.16291827803E+04  0.25500000920E-02 0. -1.
</event>
<event>
 5   0  0.1352708E-06  0.3314780E+04  0.7818609E-02  0.8159145E-01
        1   -1    0    0  501    0  0.00000000000E+00  0.00000000000E+00  0.21923358210E+04  0.21923358210E+04  0.50400001928E-02 0.  1.
       -1   -1    0    0    0  501  0.00000000000E+00  0.00000000000E+00 -0.12529749357E+04  0.12529749357E+04  0.50400001928E-02 0. -1.
    10030    2    1    2    0    0  0.00000000000E+00  0.00000000000E+00  0.93936088523E+03  0.34453107567E+04  0.33147801341E+04 0.  0.
        5    1    3    3  502    0 -0.96318346109E+03  0.65556307299E+03 -0.75547924839E+03  0.13886166883E+04  0.46999998093E+01 0. -1.
       -5    1    3    3    0  502  0.96318346109E+03 -0.65556307299E+03  0.16948401336E+04  0.20566940684E+04  0.46999998093E+01 0.  1.
</event>
<event>
 5   0  0.1339825E-06  0.2228007E+04  0.7818609E-02  0.8506861E-01
       -1   -1    0    0    0  501  0.00000000000E+00  0.00000000000E+00  0.92003581253E+03  0.92003581254E+03  0.50400001928E-02 0.  1.
        1   -1    0    0  501    0  0.00000000000E+00  0.00000000000E+00 -0.13488644147E+04  0.13488644148E+04  0.50400001928E-02 0. -1.
    10030    2    1    2    0    0  0.00000000000E+00  0.00000000000E+00 -0.42882860222E+03  0.22689002273E+04  0.22280067934E+04 0.  0.
        3    1    3    3  502    0  0.23337436622E+03 -0.58826085789E+03 -0.11480231028E+04  0.13109048350E+04  0.10100000352E+00 0. -1.
       -3    1    3    3    0  502 -0.23337436622E+03  0.58826085789E+03  0.71919450059E+03  0.95799539227E+03  0.10100000352E+00 0.  1.
</event>
<event>
 5   0  0.4017247E-06  0.3268080E+04  0.7818609E-02  0.8171065E-01
        2   -1    0    0  501    0  0.00000000000E+00  0.00000000000E+00  0.22682795437E+04  0.22682795437E+04  0.25500000920E-02 0.  1.
       -2   -1    0    0    0  501  0.00000000000E+00  0.00000000000E+00 -0.11771419822E+04  0.11771419822E+04  0.25500000920E-02 0. -1.
    10030    2    1    2    0    0  0.00000000000E+00  0.00000000000E+00  0.10911375616E+04  0.34454215259E+04  0.32680802182E+04 0.  0.
        1    1    3    3  502    0 -0.37575471244E+03  0.13558447065E+04  0.14216751616E+04  0.20001666774E+04  0.50400001928E-02 0.  1.
       -1    1    3    3    0  502  0.37575471244E+03 -0.13558447065E+04 -0.33053760008E+03  0.14452548485E+04  0.50400001928E-02 0. -1.
</event>
<event>
 5   0  0.1282578E-06  0.3205871E+04  0.7818609E-02  0.8187268E-01
        1   -1    0    0  501    0  0.00000000000E+00  0.00000000000E+00  0.17500506825E+04  0.17500506825E+04  0.50400001928E-02 0.  1.
       -1   -1    0    0    0  501  0.00000000000E+00  0.00000000000E+00 -0.14681874705E+04  0.14681874705E+04  0.50400001928E-02 0. -1.
    10030    2    1    2    0    0  0.00000000000E+00  0.00000000000E+00  0.28186321197E+03  0.32182381530E+04  0.32058711669E+04 0.  0.
        4    1    3    3  502    0  0.95492622086E+03 -0.22760158793E+03  0.14129876665E+04  0.17205296651E+04  0.12699999809E+01 0. -1.
       -4    1    3    3    0  502 -0.95492622086E+03  0.22760158793E+03 -0.11311244545E+04  0.14977084878E+04  0.12699999809E+01 0.  1.
</event>
<event>
 5   0  0.1339825E-06  0.3132030E+04  0.7818609E-02  0.8207002E-01
        1   -1    0    0  501    0  0.00000000000E+00  0.00000000000E+00  0.19583125955E+04  0.19583125955E+04  0.50400001928E-02 0.  1.
       -1   -1    0    0    0  501  0.00000000000E+00  0.00000000000E+00 -0.12523045343E+04  0.12523045343E+04  0.50400001928E-02 0. -1.
    10030    2    1    2    0    0  0.00000000000E+00  0.00000000000E+00  0.70600806121E+03  0.32106171298E+04  0.31320304871E+04 0.  0.
        3    1    3    3  502    0 -0.22721605813E+03  0.10567548954E+04  0.15145937933E+04  0.18607397494E+04  0.10100000352E+00 0.  1.
       -3    1    3    3    0  502  0.22721605813E+03 -0.10567548954E+04 -0.80858573210E+03  0.13498773805E+04  0.10100000352E+00 0. -1.
</event>
<event>
 5   0  0.1405389E-06  0.3408305E+04  0.7818609E-02  0.8135871E-01
        1   -1    0    0  501    0  0.00000000000E+00  0.00000000000E+00  0.18061662867E+04  0.18061662867E+04  0.50400001928E-02 0. -1.
       -1   -1    0    0    0  501  0.00000000000E+00  0.00000000000E+00 -0.16079003118E+04  0.16079003118E+04  0.50400001928E-02 0.  1.
    10030    2    1    2    0    0  0.00000000000E+00  0.00000000000E+00  0.19826597490E+03  0.34140665986E+04  0.34083047608E+04 0.  0.
        1    1    3    3  502    0 -0.56190855775E+03  0.56184507152E+03 -0.14109712908E+04  0.16193366219E+04  0.50400001928E-02 0.  1.
       -1    1    3    3    0  502  0.56190855775E+03 -0.56184507152E+03  0.16092372657E+04  0.17947299766E+04  0.50400001928E-02 0. -1.
</event>
<event>
 5   0  0.1352708E-06  0.3350179E+04  0.7818609E-02  0.8150243E-01
       -1   -1    0    0    0  501  0.00000000000E+00  0.00000000000E+00  0.13299152291E+04  0.13299152291E+04  0.50400001928E-02 0. -1.
        1   -1    0    0  501    0  0.00000000000E+00  0.00000000000E+00 -0.21098525144E+04  0.21098525144E+04  0.50400001928E-02 0.  1.
    10030    2    1    2    0    0  0.00000000000E+00  0.00000000000E+00 -0.77993728530E+03  0.34397677435E+04  0.33501790938E+04 0.  0.
        5    1    3    3  502    0 -0.10600846327E+04  0.12846388798E+04 -0.57313891512E+03  0.17614161308E+04  0.46999998093E+01 0.  1.
       -5    1    3    3    0  502  0.10600846327E+04 -0.12846388798E+04 -0.20679837018E+03  0.16783516127E+04  0.46999998093E+01 0. -1.
</event>
<event>
 5   0  0.1339825E-06  0.3317712E+04  0.7818609E-02  0.8158403E-01
        1   -1    0    0  501    0  0.00000000000E+00  0.00000000000E+00  0.18164553151E+04  0.18164553151E+04  0.50400001928E-02 0. -1.
       -1   -1    0    0    0  501  0.00000000000E+00  0.00000000000E+00 -0.15149303591E+04  0.15149303591E+04  0.50400001928E-02 0.  1.
    10030    2    1    2    0    0  0.00000000000E+00  0.00000000000E+00  0.30152495596E+03  0.33313856742E+04  0.33177120447E+04 0.  0.
        3    1    3    3  502    0 -0.12371050336E+04 -0.19008707596E+03  0.12439372946E+04  0.17646364962E+04  0.10100000352E+00 0. -1.
       -3    1    3    3    0  502  0.12371050336E+04  0.19008707596E+03 -0.94241233860E+03  0.15667491780E+04  0.10100000352E+00 0.  1.
</event>
<event>
 5   0  0.3920487E-06  0.3291026E+04  0.7818609E-02  0.8165183E-01
        2   -1    0    0  501    0  0.00000000000E+00  0.00000000000E+00  0.22167752506E+04  0.22167752506E+04  0.25500000920E-02 0. -1.
       -2   -1    0    0    0  501  0.00000000000E+00  0.00000000000E+00 -0.12214646120E+04  0.12214646120E+04  0.25500000920E-02 0.  1.
    10030    2    1    2    0    0  0.00000000000E+00  0.00000000000E+00  0.99531063861E+03  0.34382398626E+04  0.32910256890E+04 0.  0.
        4    1    3    3  502    0 -0.15756038796E+04 -0.22376388391E+03  0.93483921094E+03  0.18456770640E+04  0.12699999809E+01 0. -1.
       -4    1    3    3    0  502  0.15756038796E+04  0.22376388391E+03  0.60471427665E+02  0.15925627987E+04  0.12699999809E+01 0.  1.
</event>
<event>
 5   0  0.4017247E-06  0.3244895E+04  0.7818609E-02  0.8177060E-01
       -2   -1    0    0    0  501  0.00000000000E+00  0.00000000000E+00  0.14985014054E+04  0.14985014054E+04  0.25500000920E-02 0. -1.
        2   -1    0    0  501    0  0.00000000000E+00  0.00000000000E+00 -0.17566455233E+04  0.17566455233E+04  0.25500000920E-02 0.  1.
    10030    2    1    2    0    0  0.00000000000E+00  0.00000000000E+00 -0.25814411794E+03  0.32551469287E+04  0.32448949354E+04 0.  0.
        1    1    3    3  502    0 -0.81282139068E+03 -0.12552948929E+04 -0.76025938084E+03  0.16776287454E+04  0.50400001928E-02 0.  1.
       -1    1    3    3    0  502  0.81282139068E+03  0.12552948929E+04  0.50211526290E+03  0.15775181833E+04  0.50400001928E-02 0. -1.
</event>
<event>
 5   0  0.1282578E-06  0.3052157E+04  0.7818609E-02  0.8228992E-01
       -1   -1    0    0    0  501  0.00000000000E+00  0.00000000000E+00  0.13868796383E+04  0.13868796383E+04  0.50400001928E-02 0.  1.
        1   -1    0    0  501    0  0.00000000000E+00  0.00000000000E+00 -0.16792483271E+04  0.16792483271E+04  0.50400001928E-02 0. -1.
    10030    2    1    2    0    0  0.00000000000E+00  0.00000000000E+00 -0.29236868880E+03  0.30661279654E+04  0.30521568193E+04 0.  0.
        4    1    3    3  502    0 -0.12842893644E+04 -0.80514634315E+03  0.31412604854E+02  0.15161293381E+04  0.12699999809E+01 0.  1.
       -4    1    3    3    0  502  0.12842893644E+04  0.80514634315E+03 -0.32378129365E+03  0.15499986272E+04  0.12699999809E+01 0. -1.
</event>
<event>
 5   0  0.3812379E-06  0.3385383E+04  0.7818609E-02  0.8141503E-01
        2   -1    0    0  501    0  0.00000000000E+00  0.00000000000E+00  0.29199606877E+04  0.29199606877E+04  0.25500000920E-02 0.  1.
       -2   -1    0    0    0  501  0.00000000000E+00  0.00000000000E+00 -0.98124734746E+03  0.98124734746E+03  0.25500000920E-02 0. -1.
    10030    2    1    2    0    0  0.00000000000E+00  0.00000000000E+00  0.19387133403E+04  0.39012080352E+04  0.33853825069E+04 0.  0.
        5    1    3    3  502    0  0.10287893820E+04 -0.11410942889E+04  0.15070627858E+03  0.15437740252E+04  0.46999998093E+01 0. -1.
       -5    1    3    3    0  502 -0.10287893820E+04  0.11410942889E+04  0.17880070617E+04  0.23574340099E+04  0.46999998093E+01 0.  1.
</event>
<event>
 5   0  0.1282578E-06  0.3336762E+04  0.7818609E-02  0.8153604E-01
       -1   -1    0    0    0  501  0.00000000000E+00  0.00000000000E+00  0.24974661478E+04  0.24974661478E+04  0.50400001928E-02 0.  1.
        1   -1    0    0  501    0  0.00000000000E+00  0.00000000000E+00 -0.11145278024E+04  0.11145278024E+04  0.50400001928E-02 0. -1.
    10030    2    1    2    0    0  0.00000000000E+00  0.00000000000E+00  0.13829383454E+04  0.36119939502E+04  0.33367621775E+04 0.  0.
        4    1    3    3  502    0  0.70673316009E+03  0.13906132004E+04  0.50864091324E+02  0.15607259853E+04  0.12699999809E+01 0. -1.
       -4    1    3    3    0  502 -0.70673316009E+03 -0.13906132004E+04  0.13320742541E+04  0.20512679649E+04  0.12699999809E+01 0.  1.
</event>
<event>
 5   0  0.1405389E-06  0.3107404E+04  0.7818609E-02  0.8213709E-01
       -1   -1    0    0    0  501  0.00000000000E+00  0.00000000000E+00  0.16337606559E+04  0.16337606559E+04  0.50400001928E-02 0.  1.
        1   -1    0    0  501    0  0.00000000000E+00  0.00000000000E+00 -0.14775663613E+04  0.14775663613E+04  0.50400001928E-02 0. -1.
    10030    2    1    2    0    0  0.00000000000E+00  0.00000000000E+00  0.15619429452E+03  0.31113270172E+04  0.31074039246E+04 0.  0.
        1    1    3    3  502    0 -0.75096145507E+02 -0.15415578029E+04  0.25706815364E+03  0.15646481797E+04  0.50400001928E-02 0. -1.
       -1    1    3    3    0  502  0.75096145507E+02  0.15415578029E+04 -0.10087385912E+03  0.15466788375E+04  0.50400001928E-02 0.  1.
</event>
<event>
 5   0  0.1405389E-06  0.3524062E+04  0.7818609E-02  0.8108111E-01
       -1   -1    0    0    0  501  0.00000000000E+00  0.00000000000E+00  0.14538902065E+04  0.14538902065E+04  0.50400001928E-02 0. -1.
        1   -1    0    0  501    0  0.00000000000E+00  0.00000000000E+00 -0.21354796096E+04  0.21354796096E+04  0.50400001928E-02 0.  1.
    10030    2    1    2    0    0  0.00000000000E+00  0.00000000000E+00 -0.68158940305E+03  0.35893698161E+04  0.35240617989E+04 0.  0.
        1    1    3    3  502    0  0.12886251413E+04 -0.59683582162E+03  0.72160067519E+03  0.15929454753E+04  0.50400001928E-02 0. -1.
       -1    1    3    3    0  502 -0.12886251413E+04  0.59683582162E+03 -0.14031900782E+04  0.19964243408E+04  0.50400001928E-02 0.  1.
</event>
<event>
 5   0  0.1339825E-06  0.3331214E+04  0.7818609E-02  0.8154998E-01
       -1   -1    0    0    0  501  0.00000000000E+00  0.00000000000E+00  0.17321578273E+04  0.17321578273E+04  0.50400001928E-02 0.  1.
        1   -1    0    0  501    0  0.00000000000E+00  0.00000000000E+00 -0.16016132203E+04  0.16016132203E+04  0.50400001928E-02 0. -1.
    10030    2    1    2    0    0  0.00000000000E+00  0.00000000000E+00  0.13054460698E+03  0.33337710476E+04  0.33312141185E+04 0.  0.
        3    1    3    3  502    0  0.94971655251E+03 -0.10371561528E+04  0.95847765239E+03  0.17018618733E+04  0.10100000352E+00 0.  1.
       -3    1    3    3    0  502 -0.94971655251E+03  0.10371561528E+04 -0.82793304541E+03  0.16319091743E+04  0.10100000352E+00 0. -1.
</event>
<event>
 5   0  0.3812379E-06  0.3216039E+04  0.7818609E-02  0.8184594E-01
        2   -1    0    0  501    0  0.00000000000E+00  0.00000000000E+00  0.32042914311E+04  0.32042914311E+04  0.25500000920E-02 0.  1.
       -2   -1    0    0    0  501  0.00000000000E+00  0.00000000000E+00 -0.80695761142E+03  0.80695761142E+03  0.25500000920E-02 0. -1.
    10030    2    1    2    0    0  0.00000000000E+00  0.00000000000E+00  0.23973338197E+04  0.40112490425E+04  0.32160394025E+04 0.  0.
        5    1    3    3  502    0  0.14001794371E+04 -0.22670464982E+03  0.21434704130E+04  0.25702888857E+04  0.46999998093E+01 0. -1.
       -5    1    3    3    0  502 -0.14001794371E+04  0.22670464982E+03  0.25386340665E+03  0.14409601568E+04  0.46999998093E+01 0.  1.
</event>
<event>
 5   0  0.4017247E-06  0.4038997E+04  0.7818609E-02  0.7996725E-01
        2   -1    0    0  501    0  0.00000000000E+00  0.00000000000E+00  0.18587250102E+04  0.18587250102E+04  0.25500000920E-02 0. -1.
       -2   -1    0    0    0  501  0.00000000000E+00  0.00000000000E+00 -0.21941787184E+04  0.21941787184E+04  0.25500000920E-02 0.  1.
    10030    2    1    2    0    0  0.00000000000E+00  0.00000000000E+00 -0.33545370820E+03  0.40529037285E+04  0.40389973313E+04 0.  0.
        1    1    3    3  502    0 -0.15171231456E+04  0.10393841652E+04  0.66964787659E+03  0.19571434184E+04  0.50400001928E-02 0. -1.
       -1    1    3    3    0  502  0.15171231456E+04 -0.10393841652E+04 -0.10051015848E+04  0.20957603101E+04  0.50400001928E-02 0.  1.
</event>
<event>
 5   0  0.1282578E-06  0.3364169E+04  0.7818609E-02  0.8146757E-01
        1   -1    0    0  501    0  0.00000000000E+00  0.00000000000E+00  0.10168480915E+04  0.10168480915E+04  0.50400001928E-02 0. -1.
       -1   -1    0    0    0  501  0.00000000000E+00  0.00000000000E+00 -0.27825282482E+04  0.27825282482E+04  0.50400001928E-02 0.  1.
    10030    2    1    2    0    0  0.00000000000E+00  0.00000000000E+00 -0.17656801567E+04  0.37993763397E+04  0.33641691627E+04 0.  0.
        4    1    3    3  502    0 -0.12930684488E+04 -0.25996869872E+03  0.29614234297E+03  0.13517809134E+04  0.12699999809E+01 0. -1.
       -4    1    3    3    0  502  0.12930684488E+04  0.25996869872E+03 -0.20618224997E+04  0.24475954263E+04  0.12699999809E+01 0.  1.
</event>
<event>
 5   0  0.1339825E-06  0.3167046E+04  0.7818609E-02  0.8197575E-01
       -1   -1    0    0    0  501  0.00000000000E+00  0.00000000000E+00  0.20932781214E+04  0.20932781215E+04  0.50400001928E-02 0. -1.
        1   -1    0    0  501    0  0.00000000000E+00  0.00000000000E+00 -0.11979035568E+04  0.11979035568E+04  0.50400001928E-02 0.  1.
    10030    2    1    2    0    0  0.00000000000E+00  0.00000000000E+00  0.89537456462E+03  0.32911816783E+04  0.31670461362E+04 0.  0.
        3    1    3    3  502    0 -0.10513299847E+04 -0.70210301090E+02 -0.78072901944E+03  0.13113969784E+04  0.10100000352E+00 0.  1.
       -3    1    3    3    0  502  0.10513299847E+04  0.70210301090E+02  0.16761035841E+04  0.19797846998E+04  0.10100000352E+00 0. -1.
</event>
<event>
 5   0  0.3812379E-06  0.3278471E+04  0.7818609E-02  0.8168395E-01
        2   -1    0    0  501    0  0.00000000000E+00  0.00000000000E+00  0.12338110799E+04  0.12338110799E+04  0.25500000920E-02 0.  1.
       -2   -1    0    0    0  501  0.00000000000E+00  0.00000000000E+00 -0.21778804906E+04  0.21778804906E+04  0.25500000920E-02 0. -1.
    10030    2    1    2    0    0  0.00000000000E+00  0.00000000000E+00 -0.94406941072E+03  0.34116915705E+04  0.32784710339E+04 0.  0.
        5    1    3    3  502    0  0.57584820107E+03  0.13995657163E+04  0.18338825920E+03  0.15244798091E+04  0.46999998093E+01 0.  1.
       -5    1    3    3    0  502 -0.57584820107E+03 -0.13995657163E+04 -0.11274576699E+04  0.18872117614E+04  0.46999998093E+01 0. -1.
</event>
<event>
 5   0  0.1339825E-06  0.3343777E+04  0.7818609E-02  0.8151845E-01
        1   -1    0    0  501    0  0.00000000000E+00  0.00000000000E+00  0.13675478816E+04  0.13675478816E+04  0.50400001928E-02 0.  1.
       -1   -1    0    0    0  501  0.00000000000E+00  0.00000000000E+00 -0.20439588743E+04  0.20439588743E+04  0.50400001928E-02 0. -1.
    10030    2    1    2    0    0  0.00000000000E+00  0.00000000000E+00 -0.67641099267E+03  0.34115067559E+04  0.33437772825E+04 0.  0.
        3    1    3    3  502    0 -0.58719439811E+03 -0.15639564538E+04 -0.40629994147E+03  0.17192546941E+04  0.10100000352E+00 0.  1.
       -3    1    3    3    0  502  0.58719439811E+03  0.15639564538E+04 -0.27011105120E+03  0.16922520618E+04  0.10100000352E+00 0. -1.
</event>
<event>
 5   0  0.1339825E-06  0.3130209E+04  0.7818609E-02  0.8207496E-01
        1   -1    0    0  501    0  0.00000000000E+00  0.00000000000E+00  0.19753228951E+04  0.19753228951E+04  0.50400001928E-02 0.  1.
       -1   -1    0    0    0  501  0.00000000000E+00  0.00000000000E+00 -0.12400768313E+04  0.12400768313E+04  0.50400001928E-02 0. -1.
    10030    2    1    2    0    0  0.00000000000E+00  0.00000000000E+00  0.73524606374E+03  0.32153997264E+04  0.31302090388E+04 0.  0.
        3    1    3    3  502    0 -0.38797421131E+03  0.16473819490E+03 -0.11806773826E+04  0.12536593451E+04  0.10100000352E+00 0. -1.
       -3    1    3    3    0  502  0.38797421131E+03 -0.16473819490E+03  0.19159234463E+04  0.19617403814E+04  0.10100000352E+00 0.  1.
</event>
<event>
 5   0  0.3920487E-06  0.3310710E+04  0.7818609E-02  0.8160176E-01
        2   -1    0    0  501    0  0.00000000000E+00  0.00000000000E+00  0.18785364836E+04  0.18785364836E+04  0.25500000920E-02 0. -1.
       -2   -1    0    0    0  501  0.00000000000E+00  0.00000000000E+00 -0.14586887681E+04  0.14586887681E+04  0.25500000920E-02 0.  1.
    10030    2    1    2    0    0  0.00000000000E+00  0.00000000000E+00  0.41984771550E+03  0.33372252518E+04  0.33107099355E+04 0.  0.
        4    1    3    3  502    0  0.94991822157E+03 -0.81291599601E+03 -0.88367128016E+03  0.15310302376E+04  0.12699999809E+01 0.  1.
       -4    1    3    3    0  502 -0.94991822157E+03  0.81291599601E+03  0.13035189957E+04  0.18061950142E+04  0.12699999809E+01 0. -1.
</event>
<event>
 5   0  0.3671997E-06  0.2048411E+04  0.7818609E-02  0.8584315E-01
        2   -1    0    0  501    0  0.00000000000E+00  0.00000000000E+00  0.13497432252E+04  0.13497432252E+04  0.25500000920E-02 0.  1.
       -2   -1    0    0    0  501  0.00000000000E+00  0.00000000000E+00 -0.77718286670E+03  0.77718286670E+03  0.25500000920E-02 0. -1.
    10030    2    1    2    0    0  0.00000000000E+00  0.00000000000E+00  0.57256035846E+03  0.21269260919E+04  0.20484113933E+04 0.  0.
        2    1    3    3  502    0  0.23278356009E+03  0.41636456975E+03  0.12273583410E+04  0.13167976831E+04  0.25500000920E-02 0.  1.
       -2    1    3    3    0  502 -0.23278356009E+03 -0.41636456975E+03 -0.65479798256E+03  0.81012840882E+03  0.25500000920E-02 0. -1.
</event>
<event>
 5   0  0.1391878E-06  0.3368617E+04  0.7818609E-02  0.8145652E-01
        1   -1    0    0  501    0  0.00000000000E+00  0.00000000000E+00  0.25083307422E+04  0.25083307422E+04  0.50400001928E-02 0. -1.
       -1   -1    0    0    0  501  0.00000000000E+00  0.00000000000E+00 -0.11309893299E+04  0.11309893299E+04  0.50400001928E-02 0.  1.
    10030    2    1    2    0    0  0.00000000000E+00  0.00000000000E+00  0.13773414123E+04  0.36393200721E+04  0.33686171081E+04 0.  0.
        2    1    3    3  502    0 -0.78498280020E+03 -0.67908038567E+03 -0.74440474273E+03  0.12772965935E+04  0.25500000920E-02 0.  1.
       -2    1    3    3    0  502  0.78498280020E+03  0.67908038567E+03  0.21217461550E+04  0.23620234786E+04  0.25500000920E-02 0. -1.
</event>
<event>
 5   0  0.3671997E-06  0.3186851E+04  0.7818609E-02  0.8192298E-01
        2   -1    0    0  501    0  0.00000000000E+00  0.00000000000E+00  0.19985244968E+04  0.19985244968E+04  0.25500000920E-02 0.  1.
       -2   -1    0    0    0  501  0.00000000000E+00  0.00000000000E+00 -0.12704397826E+04  0.12704397826E+04  0.25500000920E-02 0. -1.
    10030    2    1    2    0    0  0.00000000000E+00  0.00000000000E+00  0.72808471415E+03  0.32689642794E+04  0.31868511275E+04 0.  0.
        2    1    3    3  502    0  0.14961973914E+04 -0.40052251655E+02  0.92474743335E+03  0.17593659746E+04  0.25500000920E-02 0.  1.
       -2    1    3    3    0  502 -0.14961973914E+04  0.40052251655E+02 -0.19666271920E+03  0.15095983049E+04  0.25500000920E-02 0. -1.
</event>
<event>
 5   0  0.1391878E-06  0.3314343E+04  0.7818609E-02  0.8159255E-01
        1   -1    0    0  501    0  0.00000000000E+00  0.00000000000E+00  0.16563339152E+04  0.16563339152E+04  0.50400001928E-02 0. -1.
       -1   -1    0    0    0  501  0.00000000000E+00  0.00000000000E+00 -0.16580096871E+04  0.16580096871E+04  0.50400001928E-02 0.  1.
    10030    2    1    2    0    0  0.00000000000E+00  0.00000000000E+00 -0.16757718872E+01  0.33143436023E+04  0.33143431787E+04 0.  0.
        2    1    3    3  502    0 -0.82151065388E+03  0.45942131894E+03 -0.13647552036E+04  0.16578614141E+04  0.25500000920E-02 0.  1.
       -2    1    3    3    0  502  0.82151065388E+03 -0.45942131894E+03  0.13630794317E+04  0.16564821882E+04  0.25500000920E-02 0. -1.
</event>
<event>
 5   0  0.1405389E-06  0.2645130E+04  0.7818609E-02  0.8353031E-01
        1   -1    0    0  501    0  0.00000000000E+00  0.00000000000E+00  0.11231027387E+04  0.11231027388E+04  0.50400001928E-02 0.  1.
       -1   -1    0    0    0  501  0.00000000000E+00  0.00000000000E+00 -0.15574520355E+04  0.15574520355E+04  0.50400001928E-02 0. -1.
    10030    2    1    2    0    0  0.00000000000E+00  0.00000000000E+00 -0.43434929671E+03  0.26805547742E+04  0.26451303533E+04 0.  0.
        1    1    3    3  502    0 -0.46226927665E+03 -0.99970240106E+03  0.52480631406E+03  0.12200489507E+04  0.50400001928E-02 0.  1.
       -1    1    3    3    0  502  0.46226927665E+03  0.99970240106E+03 -0.95915561077E+03  0.14605058235E+04  0.50400001928E-02 0. -1.
</event>
<event>
 5   0  0.3671997E-06  0.3354414E+04  0.7818609E-02  0.8149186E-01
        2   -1    0    0  501    0  0.00000000000E+00  0.00000000000E+00  0.21940286819E+04  0.21940286819E+04  0.25500000920E-02 0. -1.
       -2   -1    0    0    0  501  0.00000000000E+00  0.00000000000E+00 -0.12821266789E+04  0.12821266789E+04  0.25500000920E-02 0.  1.
    10030    2    1    2    0    0  0.00000000000E+00  0.00000000000E+00  0.91190200292E+03  0.34761553608E+04  0.33544136342E+04 0.  0.
        2    1    3    3  502    0 -0.72180983021E+03 -0.82262909839E+03 -0.86111773218E+03  0.13925702184E+04  0.25500000920E-02 0.  1.
       -2    1    3    3    0  502  0.72180983021E+03  0.82262909839E+03  0.17730197351E+04  0.20835851424E+04  0.25500000920E-02 0. -1.
</event>
<event>
 5   0  0.3920487E-06  0.3284817E+04  0.7818609E-02  0.8166770E-01
       -2   -1    0    0    0  501  0.00000000000E+00  0.00000000000E+00  0.16954987349E+04  0.16954987349E+04  0.25500000920E-02 0.  1.
        2   -1    0    0  501    0  0.00000000000E+00  0.00000000000E+00 -0.15909804006E+04  0.15909804006E+04  0.25500000920E-02 0. -1.
    10030    2    1    2    0    0  0.00000000000E+00  0.00000000000E+00  0.10451833437E+03  0.32864791355E+04  0.32848167416E+04 0.  0.
        4    1    3    3  502    0 -0.31021104878E+03  0.10238628108E+04 -0.11945567639E+04  0.16035876731E+04  0.12699999809E+01 0. -1.
       -4    1    3    3    0  502  0.31021104878E+03 -0.10238628108E+04  0.12990750983E+04  0.16828914624E+04  0.12699999809E+01 0.  1.
</event>
<event>
 5   0  0.4017247E-06  0.3292903E+04  0.7818609E-02  0.8164704E-01
        2   -1    0    0  501    0  0.00000000000E+00  0.00000000000E+00  0.19804818353E+04  0.19804818353E+04  0.25500000920E-02 0.  1.
       -2   -1    0    0    0  501  0.00000000000E+00  0.00000000000E+00 -0.13687591871E+04  0.13687591871E+04  0.25500000920E-02 0. -1.
    10030    2    1    2    0    0  0.00000000000E+00  0.00000000000E+00  0.61172264820E+03  0.33492410223E+04  0.32929031002E+04 0.  0.
        1    1    3    3  502    0 -0.38482071602E+02 -0.98158429572E+03  0.16497597654E+04  0.19200770513E+04  0.50400001928E-02 0.  1.
       -1    1    3    3    0  502  0.38482071602E+02  0.98158429572E+03 -0.10380371172E+04  0.14291639710E+04  0.50400001928E-02 0. -1.
</event>
<event>
 5   0  0.4017247E-06  0.2043368E+04  0.7818609E-02  0.8586609E-01
        2   -1    0    0  501    0  0.00000000000E+00  0.00000000000E+00  0.22099926718E+04  0.22099926718E+04  0.25500000920E-02 0.  1.
       -2   -1    0    0    0  501  0.00000000000E+00  0.00000000000E+00 -0.47232669540E+03  0.47232669541E+03  0.25500000920E-02 0. -1.
    10030    2    1    2    0    0  0.00000000000E+00  0.00000000000E+00  0.17376659764E+04  0.26823193672E+04  0.20433683325E+04 0.  0.
        1    1    3    3  502    0  0.13630623668E+02  0.38368951830E+03 -0.37402999149E+03  0.53600548030E+03  0.50400001928E-02 0. -1.
       -1    1    3    3    0  502 -0.13630623668E+02 -0.38368951830E+03  0.21116959678E+04  0.21463138869E+04  0.50400001928E-02 0.  1.
</event>
<event>
 5   0  0.1391878E-06  0.2333700E+04  0.7818609E-02  0.8464751E-01
        1   -1    0    0  501    0  0.00000000000E+00  0.00000000000E+00  0.10065479462E+04  0.10065479463E+04  0.50400001928E-02 0.  1.
       -1   -1    0    0    0  501  0.00000000000E+00  0.00000000000E+00 -0.13526818437E+04  0.13526818437E+04  0.50400001928E-02 0. -1.
    10030    2    1    2    0    0  0.00000000000E+00  0.00000000000E+00 -0.34613389745E+03  0.23592297900E+04  0.23337001793E+04 0.  0.
        2    1    3    3  502    0 -0.10301866400E+04 -0.15853972474E+03  0.35718965639E+03  0.11018184098E+04  0.25500000920E-02 0. -1.
       -2    1    3    3    0  502  0.10301866400E+04  0.15853972474E+03 -0.70332355384E+03  0.12574113802E+04  0.25500000920E-02 0.  1.
</event>
<event>
 5   0  0.1259875E-06  0.3288274E+04  0.7818609E-02  0.8165885E-01
        4   -1    0    0  501    0  0.00000000000E+00  0.00000000000E+00  0.20945012571E+04  0.20945016422E+04  0.12699999809E+01 0.  1.
       -4   -1    0    0    0  501  0.00000000000E+00  0.00000000000E+00 -0.12906103835E+04  0.12906110083E+04  0.12699999809E+01 0. -1.
    10030    2    1    2    0    0  0.00000000000E+00  0.00000000000E+00  0.80389087365E+03  0.33851126505E+04  0.32882741856E+04 0.  0.
        5    1    3    3  502    0  0.11933187455E+04  0.49704939534E+03 -0.64389481361E+03  0.14441919370E+04  0.46999998093E+01 0. -1.
       -5    1    3    3    0  502 -0.11933187455E+04 -0.49704939534E+03  0.14477856873E+04  0.19409207135E+04  0.46999998093E+01 0.  1.
</event>
<event>
 5   0  0.4017247E-06  0.3185500E+04  0.7818609E-02  0.8192657E-01
        2   -1    0    0  501    0  0.00000000000E+00  0.00000000000E+00  0.17708901822E+04  0.17708901823E+04  0.25500000920E-02 0. -1.
       -2   -1    0    0    0  501  0.00000000000E+00  0.00000000000E+00 -0.14325296563E+04  0.14325296563E+04  0.25500000920E-02 0.  1.
    10030    2    1    2    0    0  0.00000000000E+00  0.00000000000E+00  0.33836052595E+03  0.32034198386E+04  0.31855000889E+04 0.  0.
        1    1    3    3  502    0 -0.68747630276E+03  0.12020461345E+03  0.16089394323E+04  0.17537841694E+04  0.50400001928E-02 0. -1.
       -1    1    3    3    0  502  0.68747630276E+03 -0.12020461345E+03 -0.12705789064E+04  0.14496356692E+04  0.50400001928E-02 0.  1.
</event>
<event>
 5   0  0.3812379E-06  0.3286311E+04  0.7818609E-02  0.8166387E-01
       -2   -1    0    0    0  501  0.00000000000E+00  0.00000000000E+00  0.11674758440E+04  0.11674758440E+04  0.25500000920E-02 0.  1.
        2   -1    0    0  501    0  0.00000000000E+00  0.00000000000E+00 -0.23126469177E+04  0.23126469177E+04  0.25500000920E-02 0. -1.
    10030    2    1    2    0    0  0.00000000000E+00  0.00000000000E+00 -0.11451710737E+04  0.34801227617E+04  0.32863106439E+04 0.  0.
        5    1    3    3  502    0  0.59040460353E+03 -0.67562544936E+02 -0.21948570060E+04  0.22738869058E+04  0.46999998093E+01 0. -1.
       -5    1    3    3    0  502 -0.59040460353E+03  0.67562544936E+02  0.10496859324E+04  0.12062358559E+04  0.46999998093E+01 0.  1.
</event>
<event>
 5   0  0.3920487E-06  0.3051718E+04  0.7818609E-02  0.8229115E-01
       -2   -1    0    0    0  501  0.00000000000E+00  0.00000000000E+00  0.15793956054E+04  0.15793956054E+04  0.25500000920E-02 0.  1.
        2   -1    0    0  501    0  0.00000000000E+00  0.00000000000E+00 -0.14741368060E+04  0.14741368060E+04  0.25500000920E-02 0. -1.
    10030    2    1    2    0    0  0.00000000000E+00  0.00000000000E+00  0.10525879944E+03  0.30535324114E+04  0.30517176757E+04 0.  0.
        4    1    3    3  502    0 -0.51398460069E+03  0.96632234416E+03 -0.10111512206E+04  0.14900964554E+04  0.12699999809E+01 0. -1.
       -4    1    3    3    0  502  0.51398460069E+03 -0.96632234416E+03  0.11164100201E+04  0.15634359560E+04  0.12699999809E+01 0.  1.
</event>
<event>
 5   0  0.1405389E-06  0.3305252E+04  0.7818609E-02  0.8161560E-01
       -1   -1    0    0    0  501  0.00000000000E+00  0.00000000000E+00  0.13679772896E+04  0.13679772896E+04  0.50400001928E-02 0.  1.
        1   -1    0    0  501    0  0.00000000000E+00  0.00000000000E+00 -0.19965043383E+04  0.19965043383E+04  0.50400001928E-02 0. -1.
    10030    2    1    2    0    0  0.00000000000E+00  0.00000000000E+00 -0.62852704867E+03  0.33644816279E+04  0.33052519380E+04 0.  0.
        1    1    3    3  502    0  0.71223473302E+03  0.40489942461E+03  0.11467088690E+04  0.14093129849E+04  0.50400001928E-02 0.  1.
       -1    1    3    3    0  502 -0.71223473302E+03 -0.40489942461E+03 -0.17752359177E+04  0.19551686430E+04  0.50400001928E-02 0. -1.
</event>
<event>
 5   0  0.3896210E-06  0.2638123E+04  0.7818609E-02  0.8355366E-01
        2   -1    0    0  501    0  0.00000000000E+00  0.00000000000E+00  0.11791376638E+04  0.11791376638E+04  0.25500000920E-02 0. -1.
       -2   -1    0    0    0  501  0.00000000000E+00  0.00000000000E+00 -0.14755893453E+04  0.14755893453E+04  0.25500000920E-02 0.  1.
    10030    2    1    2    0    0  0.00000000000E+00  0.00000000000E+00 -0.29645168148E+03  0.26547270091E+04  0.26381227973E+04 0.  0.
        3    1    3    3  502    0 -0.27457436058E+03  0.12857672898E+04 -0.25535886588E+03  0.13393269815E+04  0.10100000352E+00 0. -1.
       -3    1    3    3    0  502  0.27457436058E+03 -0.12857672898E+04 -0.41092815601E+02  0.13154000276E+04  0.10100000352E+00 0.  1.
</event>
<event>
 5   0  0.4017247E-06  0.3272210E+04  0.7818609E-02  0.8170003E-01
        2   -1    0    0  501    0  0.00000000000E+00  0.00000000000E+00  0.22936453199E+04  0.22936453199E+04  0.25500000920E-02 0.  1.
       -2   -1    0    0    0  501  0.00000000000E+00  0.00000000000E+00 -0.11670680706E+04  0.11670680706E+04  0.25500000920E-02 0. -1.
    10030    2    1    2    0    0  0.00000000000E+00  0.00000000000E+00  0.11265772493E+04  0.34607133905E+04  0.32722103955E+04 0.  0.
        1    1    3    3  502    0  0.40324367915E+03 -0.26451418752E+03  0.22167678220E+04  0.22686191388E+04  0.50400001928E-02 0.  1.
       -1    1    3    3    0  502 -0.40324367915E+03  0.26451418752E+03 -0.10901905727E+04  0.11920942517E+04  0.50400001928E-02 0. -1.
</event>
<event>
 5   0  0.1282578E-06  0.2551857E+04  0.7818609E-02  0.8384741E-01
        1   -1    0    0  501    0  0.00000000000E+00  0.00000000000E+00  0.16925762369E+04  0.16925762370E+04  0.50400001928E-02 0.  1.
       -1   -1    0    0    0  501  0.00000000000E+00  0.00000000000E+00 -0.96184344068E+03  0.96184344069E+03  0.50400001928E-02 0. -1.
    10030    2    1    2    0    0  0.00000000000E+00  0.00000000000E+00  0.73073279627E+03  0.26544196776E+04  0.25518568544E+04 0.  0.
        4    1    3    3  502    0  0.11869794847E+02 -0.10476961813E+04 -0.39203553072E+03  0.11187053457E+04  0.12699999809E+01 0. -1.
       -4    1    3    3    0  502 -0.11869794847E+02  0.10476961813E+04  0.11227683270E+04  0.15357143319E+04  0.12699999809E+01 0.  1.
</event>
<event>
 5   0  0.3896210E-06  0.2805424E+04  0.7818609E-02  0.8301586E-01
       -2   -1    0    0    0  501  0.00000000000E+00  0.00000000000E+00  0.12906355463E+04  0.12906355463E+04  0.25500000920E-02 0. -1.
        2   -1    0    0  501    0  0.00000000000E+00  0.00000000000E+00 -0.15245212400E+04  0.15245212400E+04  0.25500000920E-02 0.  1.
    10030    2    1    2    0    0  0.00000000000E+00  0.00000000000E+00 -0.23388569364E+03  0.28151567863E+04  0.28054242485E+04 0.  0.
        3    1    3    3  502    0  0.10658174299E+04  0.83633865390E+03 -0.48175897267E+03  0.14378876367E+04  0.10100000352E+00 0.  1.
       -3    1    3    3    0  502 -0.10658174299E+04 -0.83633865390E+03  0.24787327903E+03  0.13772691496E+04  0.10100000352E+00 0. -1.
</event>
<event>
 5   0  0.4017247E-06  0.2669869E+04  0.7818609E-02  0.8344848E-01
       -2   -1    0    0    0  501  0.00000000000E+00  0.00000000000E+00  0.97976081365E+03  0.97976081365E+03  0.25500000920E-02 0. -1.
        2   -1    0    0  501    0  0.00000000000E+00  0.00000000000E+00 -0.18188628168E+04  0.18188628168E+04  0.25500000920E-02 0.  1.
    10030    2    1    2    0    0  0.00000000000E+00  0.00000000000E+00 -0.83910200315E+03  0.27986236304E+04  0.26698692952E+04 0.  0.
        1    1    3    3  502    0 -0.10073026469E+04  0.58130209225E+03 -0.11065021456E+04  0.16052780891E+04  0.50400001928E-02 0.  1.
       -1    1    3    3    0  502  0.10073026469E+04 -0.58130209225E+03  0.26740014248E+03  0.11933455414E+04  0.50400001928E-02 0. -1.
</event>
<event>
 5   0  0.1391878E-06  0.3653571E+04  0.7818609E-02  0.8078330E-01
       -1   -1    0    0    0  501  0.00000000000E+00  0.00000000000E+00  0.16567035850E+04  0.16567035850E+04  0.50400001928E-02 0.  1.
        1   -1    0    0  501    0  0.00000000000E+00  0.00000000000E+00 -0.20143290430E+04  0.20143290430E+04  0.50400001928E-02 0. -1.
    10030    2    1    2    0    0  0.00000000000E+00  0.00000000000E+00 -0.35762545804E+03  0.36710326280E+04  0.36535714838E+04 0.  0.
        2    1    3    3  502    0 -0.17713409921E+04  0.14057080608E+03  0.24716753890E+03  0.17940180752E+04  0.25500000920E-02 0. -1.
       -2    1    3    3    0  502  0.17713409921E+04 -0.14057080608E+03 -0.60479299693E+03  0.18770145527E+04  0.25500000920E-02 0.  1.
</event>
<event>
 5   0  0.3812379E-06  0.3174943E+04  0.7818609E-02  0.8195466E-01
       -2   -1    0    0    0  501  0.00000000000E+00  0.00000000000E+00  0.15816315480E+04  0.15816315480E+04  0.25500000920E-02 0. -1.
        2   -1    0    0  501    0  0.00000000000E+00  0.00000000000E+00 -0.15933325966E+04  0.15933325966E+04  0.25500000920E-02 0.  1.
    10030    2    1    2    0    0  0.00000000000E+00  0.00000000000E+00 -0.11701048640E+02  0.31749641446E+04  0.31749425829E+04 0.  0.
        5    1    3    3  502    0 -0.14376420466E+04  0.40522315761E+03 -0.54346235004E+03  0.15894633930E+04  0.46999998093E+01 0.  1.
       -5    1    3    3    0  502  0.14376420466E+04 -0.40522315761E+03  0.53176130139E+03  0.15855007516E+04  0.46999998093E+01 0. -1.
</event>
<event>
 5   0  0.1405389E-06  0.3281518E+04  0.7818609E-02  0.8167614E-01
        1   -1    0    0  501    0  0.00000000000E+00  0.00000000000E+00  0.94945381530E+03  0.94945381531E+03  0.50400001928E-02 0.  1.
       -1   -1    0    0    0  501  0.00000000000E+00  0.00000000000E+00 -0.28354086062E+04  0.28354086062E+04  0.50400001928E-02 0. -1.
    10030    2    1    2    0    0  0.00000000000E+00  0.00000000000E+00 -0.18859547909E+04  0.37848624215E+04  0.32815176483E+04 0.  0.
        1    1    3    3  502    0 -0.16172176459E+04 -0.25484790741E+03 -0.81795766579E+03  0.18301352719E+04  0.50400001928E-02 0.  1.
       -1    1    3    3    0  502  0.16172176459E+04  0.25484790741E+03 -0.10679971251E+04  0.19547271496E+04  0.50400001928E-02 0. -1.
</event>
<event>
 5   0  0.4017247E-06  0.3264497E+04  0.7818609E-02  0.8171988E-01
       -2   -1    0    0    0  501  0.00000000000E+00  0.00000000000E+00  0.13102177825E+04  0.13102177825E+04  0.25500000920E-02 0. -1.
        2   -1    0    0  501    0  0.00000000000E+00  0.00000000000E+00 -0.20334294948E+04  0.20334294948E+04  0.25500000920E-02 0.  1.
    10030    2    1    2    0    0  0.00000000000E+00  0.00000000000E+00 -0.72321171229E+03  0.33436472773E+04  0.32644971947E+04 0.  0.
        1    1    3    3  502    0  0.54285430419E+02  0.14776985446E+04 -0.10695186677E+04  0.18249411161E+04  0.50400001928E-02 0.  1.
       -1    1    3    3    0  502 -0.54285430419E+02 -0.14776985446E+04  0.34630695540E+03  0.15187061612E+04  0.50400001928E-02 0. -1.
</event>
<event>
 5   0  0.3671997E-06  0.3309450E+04  0.7818609E-02  0.8160495E-01
        2   -1    0    0  501    0  0.00000000000E+00  0.00000000000E+00  0.18460636642E+04  0.18460636642E+04  0.25500000920E-02 0.  1.
       -2   -1    0    0    0  501  0.00000000000E+00  0.00000000000E+00 -0.14832180235E+04  0.14832180235E+04  0.25500000920E-02 0. -1.
    10030    2    1    2    0    0  0.00000000000E+00  0.00000000000E+00  0.36284564079E+03  0.33292816877E+04  0.33094500445E+04 0.  0.
        2    1    3    3  502    0  0.12676279866E+04 -0.98297232188E+03 -0.22721274219E+03  0.16201052213E+04  0.25500000920E-02 0. -1.
       -2    1    3    3    0  502 -0.12676279866E+04  0.98297232188E+03  0.59005838298E+03  0.17091764664E+04  0.25500000920E-02 0.  1.
</event>
<event>
 5   0  0.1352708E-06  0.2817849E+04  0.7818609E-02  0.8297748E-01
        1   -1    0    0  501    0  0.00000000000E+00  0.00000000000E+00  0.19134584601E+04  0.19134584601E+04  0.50400001928E-02 0.  1.
       -1   -1    0    0    0  501  0.00000000000E+00  0.00000000000E+00 -0.10374242685E+04  0.10374242685E+04  0.50400001928E-02 0. -1.
    10030    2    1    2    0    0  0.00000000000E+00  0.00000000000E+00  0.87603419165E+03  0.29508827286E+04  0.28178489976E+04 0.  0.
        5    1    3    3  502    0 -0.84787275948E+03 -0.94079440733E+03  0.10844643461E+04  0.16673533942E+04  0.46999998093E+01 0.  1.
       -5    1    3    3    0  502  0.84787275948E+03  0.94079440733E+03 -0.20843015443E+03  0.12835293345E+04  0.46999998093E+01 0. -1.
</event>
<event>
 5   0  0.1339825E-06  0.3276527E+04  0.7818609E-02  0.8168894E-01
       -1   -1    0    0    0  501  0.00000000000E+00  0.00000000000E+00  0.13371813952E+04  0.13371813952E+04  0.50400001928E-02 0.  1.
        1   -1    0    0  501    0  0.00000000000E+00  0.00000000000E+00 -0.20071372388E+04  0.20071372388E+04  0.50400001928E-02 0. -1.
    10030    2    1    2    0    0  0.00000000000E+00  0.00000000000E+00 -0.66995584368E+03  0.33443186340E+04  0.32765265592E+04 0.  0.
        3    1    3    3  502    0 -0.16472967345E+03 -0.11843893197E+04 -0.14779653387E+04  0.19011300530E+04  0.10100000352E+00 0. -1.
       -3    1    3    3    0  502  0.16472967345E+03  0.11843893197E+04  0.80800949503E+03  0.14431885810E+04  0.10100000352E+00 0.  1.
</event>
<event>
 5   0  0.3896210E-06  0.3081838E+04  0.7818609E-02  0.8220740E-01
        2   -1    0    0  501    0  0.00000000000E+00  0.00000000000E+00  0.25793243388E+04  0.25793243388E+04  0.25500000920E-02 0.  1.
       -2   -1    0    0    0  501  0.00000000000E+00  0.00000000000E+00 -0.92056303020E+03  0.92056303020E+03  0.25500000920E-02 0. -1.
    10030    2    1    2    0    0  0.00000000000E+00  0.00000000000E+00  0.16587613086E+04  0.34998873690E+04  0.30818375228E+04 0.  0.
        3    1    3    3  502    0  0.11814563681E+03 -0.48538213843E+03  0.24848119723E+04  0.25345304811E+04  0.10100000352E+00 0.  1.
       -3    1    3    3    0  502 -0.11814563681E+03  0.48538213843E+03 -0.82605066370E+03  0.96535688789E+03  0.10100000352E+00 0. -1.
</event>
<event>
 5   0  0.3812379E-06  0.3305183E+04  0.7818609E-02  0.8161578E-01
       -2   -1    0    0    0  501  0.00000000000E+00  0.00000000000E+00  0.27699894489E+04  0.27699894489E+04  0.25500000920E-02 0. -1.
        2   -1    0    0  501    0  0.00000000000E+00  0.00000000000E+00 -0.98594528841E+03  0.98594528841E+03  0.25500000920E-02 0.  1.
    10030    2    1    2    0    0  0.00000000000E+00  0.00000000000E+00  0.17840441605E+04  0.37559347374E+04  0.33051826250E+04 0.  0.
        5    1    3    3  502    0  0.13865404580E+03  0.15442057063E+04  0.24195885032E+03  0.15691916336E+04  0.46999998093E+01 0. -1.
       -5    1    3    3    0  502 -0.13865404580E+03 -0.15442057063E+04  0.15420853102E+04  0.21867431037E+04  0.46999998093E+01 0.  1.
</event>
<event>
 5   0  0.1352708E-06  0.2982945E+04  0.7818609E-02  0.8248618E-01
       -1   -1    0    0    0  501  0.00000000000E+00  0.00000000000E+00  0.14320750856E+04  0.14320750856E+04  0.50400001928E-02 0.  1.
        1   -1    0    0  501    0  0.00000000000E+00  0.00000000000E+00 -0.15533340285E+04  0.15533340285E+04  0.50400001928E-02 0. -1.
    10030    2    1    2    0    0  0.00000000000E+00  0.00000000000E+00 -0.12125894290E+03  0.29854091140E+04  0.29829454985E+04 0.  0.
        5    1    3    3  502    0 -0.14746414262E+04 -0.81938097512E+02  0.14735863160E+03  0.14842566638E+04  0.46999998093E+01 0.  1.
       -5    1    3    3    0  502  0.14746414262E+04  0.81938097512E+02 -0.26861757450E+03  0.15011524503E+04  0.46999998093E+01 0. -1.
</event>
<event>
 5   0  0.4017247E-06  0.3295240E+04  0.7818609E-02  0.8164108E-01
       -2   -1    0    0    0  501  0.00000000000E+00  0.00000000000E+00  0.12599034657E+04  0.12599034657E+04  0.25500000920E-02 0. -1.
        2   -1    0    0  501    0  0.00000000000E+00  0.00000000000E+00 -0.21546506964E+04  0.21546506964E+04  0.25500000920E-02 0.  1.
    10030    2    1    2    0    0  0.00000000000E+00  0.00000000000E+00 -0.89474723067E+03  0.34145541621E+04  0.32952401308E+04 0.  0.
        1    1    3    3  502    0 -0.12620582457E+04 -0.10310188232E+04 -0.69877110791E+03  0.17731530929E+04  0.50400001928E-02 0. -1.
       -1    1    3    3    0  502  0.12620582457E+04  0.10310188232E+04 -0.19597612277E+03  0.16414010693E+04  0.50400001928E-02 0.  1.
</event>
<event>
 5   0  0.1405389E-06  0.3363850E+04  0.7818609E-02  0.8146836E-01
        1   -1    0    0  501    0  0.00000000000E+00  0.00000000000E+00  0.18157745205E+04  0.18157745205E+04  0.50400001928E-02 0.  1.
       -1   -1    0    0    0  501  0.00000000000E+00  0.00000000000E+00 -0.15579421579E+04  0.15579421579E+04  0.50400001928E-02 0. -1.
    10030    2    1    2    0    0  0.00000000000E+00  0.00000000000E+00  0.25783236259E+03  0.33737166785E+04  0.33638499817E+04 0.  0.
        1    1    3    3  502    0 -0.91945266502E+03 -0.75919039618E+03  0.13186115443E+04  0.17777794199E+04  0.50400001928E-02 0.  1.
       -1    1    3    3    0  502  0.91945266502E+03  0.75919039618E+03 -0.10607791818E+04  0.15959372586E+04  0.50400001928E-02 0. -1.
</event>
<event>
 5   0  0.3896210E-06  0.2210170E+04  0.7818609E-02  0.8514207E-01
       -2   -1    0    0    0  501  0.00000000000E+00  0.00000000000E+00  0.13106417574E+04  0.13106417574E+04  0.25500000920E-02 0.  1.
        2   -1    0    0  501    0  0.00000000000E+00  0.00000000000E+00 -0.93176740071E+03  0.93176740071E+03  0.25500000920E-02 0. -1.
    10030    2    1    2    0    0  0.00000000000E+00  0.00000000000E+00  0.37887435673E+03  0.22424091582E+04  0.22101703677E+04 0.  0.
        3    1    3    3  502    0 -0.43777269660E+03 -0.10630486642E+02 -0.83998342460E+03  0.94727509465E+03  0.10100000352E+00 0. -1.
       -3    1    3    3    0  502  0.43777269660E+03  0.10630486642E+02  0.12188577813E+04  0.12951340635E+04  0.10100000352E+00 0.  1.
</event>
<event>
 5   0  0.3920487E-06  0.3211849E+04  0.7818609E-02  0.8185695E-01
        2   -1    0    0  501    0  0.00000000000E+00  0.00000000000E+00  0.18579030687E+04  0.18579030687E+04  0.25500000920E-02 0.  1.
       -2   -1    0    0    0  501  0.00000000000E+00  0.00000000000E+00 -0.13881209399E+04  0.13881209399E+04  0.25500000920E-02 0. -1.
    10030    2    1    2    0    0  0.00000000000E+00  0.00000000000E+00  0.46978212877E+03  0.32460240085E+04  0.32118494074E+04 0.  0.
        4    1    3    3  502    0  0.78412437652E+03  0.39794950274E+03 -0.11231993862E+04  0.14264618182E+04  0.12699999809E+01 0. -1.
       -4    1    3    3    0  502 -0.78412437652E+03 -0.39794950274E+03  0.15929815150E+04  0.18195621904E+04  0.12699999809E+01 0.  1.
</event>
<event>
 5   0  0.3671997E-06  0.2298383E+04  0.7818609E-02  0.8478559E-01
        2   -1    0    0  501    0  0.00000000000E+00  0.00000000000E+00  0.10406869730E+04  0.10406869730E+04  0.25500000920E-02 0.  1.
       -2   -1    0    0    0  501  0.00000000000E+00  0.00000000000E+00 -0.12690088670E+04  0.12690088670E+04  0.25500000920E-02 0. -1.
    10030    2    1    2    0    0  0.00000000000E+00  0.00000000000E+00 -0.22832189407E+03  0.23096958400E+04  0.22983829067E+04 0.  0.
        2    1    3    3  502    0 -0.73137941759E+03  0.71498540527E+03  0.41236551949E+03  0.11027988501E+04  0.25500000920E-02 0. -1.
       -2    1    3    3    0  502  0.73137941759E+03 -0.71498540527E+03 -0.64068741355E+03  0.12068969899E+04  0.25500000920E-02 0.  1.
</event>
<event>
 5   0  0.3671997E-06  0.3308058E+04  0.7818609E-02  0.8160848E-01
       -2   -1    0    0    0  501  0.00000000000E+00  0.00000000000E+00  0.14867696039E+04  0.14867696039E+04  0.25500000920E-02 0. -1.
        2   -1    0    0  501    0  0.00000000000E+00  0.00000000000E+00 -0.18401051482E+04  0.18401051482E+04  0.25500000920E-02 0.  1.
    10030    2    1    2    0    0  0.00000000000E+00  0.00000000000E+00 -0.35333554427E+03  0.33268747521E+04  0.33080582839E+04 0.  0.
        2    1    3    3  502    0 -0.85170967443E+03  0.54762742135E+02  0.12482201301E+04  0.15121050958E+04  0.25500000920E-02 0. -1.
       -2    1    3    3    0  502  0.85170967443E+03 -0.54762742135E+02 -0.16015556744E+04  0.18147696563E+04  0.25500000920E-02 0.  1.
</event>
<event>
 5   0  0.4017247E-06  0.3280995E+04  0.7818609E-02  0.8167748E-01
        2   -1    0    0  501    0  0.00000000000E+00  0.00000000000E+00  0.16868854069E+04  0.16868854069E+04  0.25500000920E-02 0. -1.
       -2   -1    0    0    0  501  0.00000000000E+00  0.00000000000E+00 -0.15953849580E+04  0.15953849580E+04  0.25500000920E-02 0.  1.
    10030    2    1    2    0    0  0.00000000000E+00  0.00000000000E+00  0.91500448910E+02  0.32822703649E+04  0.32809947297E+04 0.  0.
        1    1    3    3  502    0  0.38880067180E+03  0.15514002360E+04 -0.31938887551E+03  0.16309561333E+04  0.50400001928E-02 0. -1.
       -1    1    3    3    0  502 -0.38880067180E+03 -0.15514002360E+04  0.41088932442E+03  0.16513142317E+04  0.50400001928E-02 0.  1.
</event>
<event>
 5   0  0.1352708E-06  0.3284656E+04  0.7818609E-02  0.8166811E-01
        1   -1    0    0  501    0  0.00000000000E+00  0.00000000000E+00  0.14926805740E+04  0.14926805740E+04  0.50400001928E-02 0.  1.
       -1   -1    0    0    0  501  0.00000000000E+00  0.00000000000E+00 -0.18069787095E+04  0.18069787095E+04  0.50400001928E-02 0. -1.
    10030    2    1    2    0    0  0.00000000000E+00  0.00000000000E+00 -0.31429813555E+03  0.32996592835E+04  0.32846564614E+04 0.  0.
        5    1    3    3  502    0  0.52346174029E+02 -0.44797588689E+03 -0.17435382097E+04  0.18009358945E+04  0.46999998093E+01 0. -1.
       -5    1    3    3    0  502 -0.52346174029E+02  0.44797588689E+03  0.14292400742E+04  0.14987233890E+04  0.46999998093E+01 0.  1.
</event>
<event>
 5   0  0.1405389E-06  0.3311823E+04  0.7818609E-02  0.8159893E-01
       -1   -1    0    0    0  501  0.00000000000E+00  0.00000000000E+00  0.11039345796E+04  0.11039345796E+04  0.50400001928E-02 0.  1.
        1   -1    0    0  501    0  0.00000000000E+00  0.00000000000E+00 -0.24838823919E+04  0.24838823919E+04  0.50400001928E-02 0. -1.
    10030    2    1    2    0    0  0.00000000000E+00  0.00000000000E+00 -0.13799478123E+04  0.35878169715E+04  0.33118234640E+04 0.  0.
        1    1    3    3  502    0  0.19754767448E+03  0.70264605025E+03  0.92026807870E+03  0.11745764736E+04  0.50400001928E-02 0.  1.
       -1    1    3    3    0  502 -0.19754767448E+03 -0.70264605025E+03 -0.23002158910E+04  0.24132404980E+04  0.50400001928E-02 0. -1.
</event>
<event>
 5   0  0.4017247E-06  0.3292534E+04  0.7818609E-02  0.8164798E-01
        2   -1    0    0  501    0  0.00000000000E+00  0.00000000000E+00  0.21639439954E+04  0.21639439954E+04  0.25500000920E-02 0. -1.
       -2   -1    0    0    0  501  0.00000000000E+00  0.00000000000E+00 -0.12524330298E+04  0.12524330298E+04  0.25500000920E-02 0.  1.
    10030    2    1    2    0    0  0.00000000000E+00  0.00000000000E+00  0.91151096553E+03  0.34163770252E+04  0.32925339388E+04 0.  0.
        1    1    3    3  502    0 -0.86270186580E+03  0.94489408177E+03  0.15306325232E+04  0.19949724951E+04  0.50400001928E-02 0. -1.
       -1    1    3    3    0  502  0.86270186580E+03 -0.94489408177E+03 -0.61912155766E+03  0.14214045301E+04  0.50400001928E-02 0.  1.
</event>
<event>
 5   0  0.1391878E-06  0.3266438E+04  0.7818609E-02  0.8171488E-01
        1   -1    0    0  501    0  0.00000000000E+00  0.00000000000E+00  0.18778621986E+04  0.18778621986E+04  0.50400001928E-02 0.  1.
       -1   -1    0    0    0  501  0.00000000000E+00  0.00000000000E+00 -0.14204470013E+04  0.14204470013E+04  0.50400001928E-02 0. -1.
    10030    2    1    2    0    0  0.00000000000E+00  0.00000000000E+00  0.45741519731E+03  0.32983092000E+04  0.32664376492E+04 0.  0.
        2    1    3    3  502    0 -0.50861117908E+03 -0.26276724254E+02  0.17956309529E+04  0.18664582279E+04  0.25500000920E-02 0.  1.
       -2    1    3    3    0  502  0.50861117908E+03  0.26276724254E+02 -0.13382157556E+04  0.14318509720E+04  0.25500000920E-02 0. -1.
</event>
<event>
 5   0  0.1339825E-06  0.3294152E+04  0.7818609E-02  0.8164385E-01
       -1   -1    0    0    0  501  0.00000000000E+00  0.00000000000E+00  0.13399673224E+04  0.13399673224E+04  0.50400001928E-02 0.  1.
        1   -1    0    0  501    0  0.00000000000E+00  0.00000000000E+00 -0.20245709493E+04  0.20245709493E+04  0.50400001928E-02 0. -1.
    10030    2    1    2    0    0  0.00000000000E+00  0.00000000000E+00 -0.68460362694E+03  0.33645382717E+04  0.32941517354E+04 0.  0.
        3    1    3    3  502    0  0.12386421430E+04  0.27692050801E+03  0.72986105813E+03  0.14641094565E+04  0.10100000352E+00 0.  1.
       -3    1    3    3    0  502 -0.12386421430E+04 -0.27692050801E+03 -0.14144646851E+04  0.19004288152E+04  0.10100000352E+00 0. -1.
</event>
<event>
 5   0  0.1282578E-06  0.3247126E+04  0.7818609E-02  0.8176481E-01
       -1   -1    0    0    0  501  0.00000000000E+00  0.00000000000E+00  0.17803332486E+04  0.17803332486E+04  0.50400001928E-02 0.  1.
        1   -1    0    0  501    0  0.00000000000E+00  0.00000000000E+00 -0.14805970808E+04  0.14805970808E+04  0.50400001928E-02 0. -1.
    10030    2    1    2    0    0  0.00000000000E+00  0.00000000000E+00  0.29973616775E+03  0.32609303294E+04  0.32471256279E+04 0.  0.
        4    1    3    3  502    0  0.68962055047E+03  0.11508723326E+04  0.10680147244E+04  0.17148587971E+04  0.12699999809E+01 0.  1.
       -4    1    3    3    0  502 -0.68962055047E+03 -0.11508723326E+04 -0.76827855669E+03  0.15460715323E+04  0.12699999809E+01 0. -1.
</event>
<event>
 5   0  0.4017247E-06  0.2762073E+04  0.7818609E-02  0.8315141E-01
        2   -1    0    0  501    0  0.00000000000E+00  0.00000000000E+00  0.17140371175E+04  0.17140371175E+04  0.25500000920E-02 0. -1.
       -2   -1    0    0    0  501  0.00000000000E+00  0.00000000000E+00 -0.11127309742E+04  0.11127309742E+04  0.25500000920E-02 0.  1.
    10030    2    1    2    0    0  0.00000000000E+00  0.00000000000E+00  0.60130614332E+03  0.28267680916E+04  0.27620732731E+04 0.  0.
        1    1    3    3  502    0  0.36982987407E+03  0.12643776062E+04  0.72489514447E+03  0.15036282245E+04  0.50400001928E-02 0. -1.
       -1    1    3    3    0  502 -0.36982987407E+03 -0.12643776062E+04 -0.12358900115E+03  0.13231398672E+04  0.50400001928E-02 0.  1.
</event>
<event>
 5   0  0.1391878E-06  0.3254773E+04  0.7818609E-02  0.8174500E-01
        1   -1    0    0  501    0  0.00000000000E+00  0.00000000000E+00  0.27500050732E+04  0.27500050732E+04  0.50400001928E-02 0. -1.
       -1   -1    0    0    0  501  0.00000000000E+00  0.00000000000E+00 -0.96304769635E+03  0.96304769636E+03  0.50400001928E-02 0.  1.
    10030    2    1    2    0    0  0.00000000000E+00  0.00000000000E+00  0.17869573769E+04  0.37130527696E+04  0.32547725271E+04 0.  0.
        2    1    3    3  502    0  0.70877826601E+03 -0.77582525338E+02  0.25623290775E+04  0.26596834361E+04  0.25500000920E-02 0. -1.
       -2    1    3    3    0  502 -0.70877826601E+03  0.77582525338E+02 -0.77537170065E+03  0.10533693335E+04  0.25500000920E-02 0.  1.
</event>
<event>
 5   0  0.1352708E-06  0.3509893E+04  0.7818609E-02  0.8111449E-01
       -1   -1    0    0    0  501  0.00000000000E+00  0.00000000000E+00  0.10411323168E+04  0.10411323168E+04  0.50400001928E-02 0. -1.
        1   -1    0    0  501    0  0.00000000000E+00  0.00000000000E+00 -0.29581608393E+04  0.29581608393E+04  0.50400001928E-02 0.  1.
    10030    2    1    2    0    0  0.00000000000E+00  0.00000000000E+00 -0.19170285225E+04  0.39992931562E+04  0.35098927894E+04 0.  0.
        5    1    3    3  502    0  0.37108224208E+03  0.87104028566E+03 -0.26421812463E+04  0.28066986012E+04  0.46999998093E+01 0.  1.
       -5    1    3    3    0  502 -0.37108224208E+03 -0.87104028566E+03  0.72515272382E+03  0.11925945549E+04  0.46999998093E+01 0. -1.
</event>
<event>
 5   0  0.1352708E-06  0.3812674E+04  0.7818609E-02  0.8043441E-01
        1   -1    0    0  501    0  0.00000000000E+00  0.00000000000E+00  0.16137282128E+04  0.16137282128E+04  0.50400001928E-02 0. -1.
       -1   -1    0    0    0  501  0.00000000000E+00  0.00000000000E+00 -0.22520024027E+04  0.22520024028E+04  0.50400001928E-02 0.  1.
    10030    2    1    2    0    0  0.00000000000E+00  0.00000000000E+00 -0.63827418997E+03  0.38657306155E+04  0.38126735043E+04 0.  0.
        5    1    3    3  502    0 -0.15906582648E+04  0.20528120572E+03  0.72562135804E+03  0.17603643185E+04  0.46999998093E+01 0. -1.
       -5    1    3    3    0  502  0.15906582648E+04 -0.20528120572E+03 -0.13638955480E+04  0.21053662970E+04  0.46999998093E+01 0.  1.
</event>
<event>
 5   0  0.4017247E-06  0.3320064E+04  0.7818609E-02  0.8157809E-01
       -2   -1    0    0    0  501  0.00000000000E+00  0.00000000000E+00  0.14312483303E+04  0.14312483303E+04  0.25500000920E-02 0. -1.
        2   -1    0    0  501    0  0.00000000000E+00  0.00000000000E+00 -0.19253863549E+04  0.19253863549E+04  0.25500000920E-02 0.  1.
    10030    2    1    2    0    0  0.00000000000E+00  0.00000000000E+00 -0.49413802456E+03  0.33566346852E+04  0.33200638583E+04 0.  0.
        1    1    3    3  502    0 -0.56911765411E+03 -0.15484265382E+04 -0.60136839241E+02  0.16507986212E+04  0.50400001928E-02 0.  1.
       -1    1    3    3    0  502  0.56911765411E+03  0.15484265382E+04 -0.43400118532E+03  0.17058360640E+04  0.50400001928E-02 0. -1.
</event>
<event>
 5   0  0.1352708E-06  0.3279987E+04  0.7818609E-02  0.8168006E-01
        1   -1    0    0  501    0  0.00000000000E+00  0.00000000000E+00  0.25547458092E+04  0.25547458092E+04  0.50400001928E-02 0.  1.
       -1   -1    0    0    0  501  0.00000000000E+00  0.00000000000E+00 -0.10527777225E+04  0.10527777225E+04  0.50400001928E-02 0. -1.
    10030    2    1    2    0    0  0.00000000000E+00  0.00000000000E+00  0.15019680866E+04  0.36075235317E+04  0.32799874845E+04 0.  0.
        5    1    3    3  502    0 -0.45307479382E+03 -0.65248730917E+03 -0.82705134779E+03  0.11467573760E+04  0.46999998093E+01 0. -1.
       -5    1    3    3    0  502  0.45307479382E+03  0.65248730917E+03  0.23290194344E+04  0.24607661558E+04  0.46999998093E+01 0.  1.
</event>
<event>
 5   0  0.3671997E-06  0.3265978E+04  0.7818609E-02  0.8171607E-01
        2   -1    0    0  501    0  0.00000000000E+00  0.00000000000E+00  0.14739590599E+04  0.14739590599E+04  0.25500000920E-02 0. -1.
       -2   -1    0    0    0  501  0.00000000000E+00  0.00000000000E+00 -0.18091772119E+04  0.18091772119E+04  0.25500000920E-02 0.  1.
    10030    2    1    2    0    0  0.00000000000E+00  0.00000000000E+00 -0.33521815192E+03  0.32831362718E+04  0.32659780419E+04 0.  0.
        2    1    3    3  502    0 -0.40726761209E+03  0.44857579498E+03 -0.16920078373E+04  0.17972138640E+04  0.25500000920E-02 0.  1.
       -2    1    3    3    0  502  0.40726761209E+03 -0.44857579498E+03  0.13567896853E+04  0.14859224078E+04  0.25500000920E-02 0. -1.
</event>
<event>
 5   0  0.1391878E-06  0.3239357E+04  0.7818609E-02  0.8178500E-01
        1   -1    0    0  501    0  0.00000000000E+00  0.00000000000E+00  0.17875755179E+04  0.17875755179E+04  0.50400001928E-02 0.  1.
       -1   -1    0    0    0  501  0.00000000000E+00  0.00000000000E+00 -0.14675508434E+04  0.14675508434E+04  0.50400001928E-02 0. -1.
    10030    2    1    2    0    0  0.00000000000E+00  0.00000000000E+00  0.32002467457E+03  0.32551263613E+04  0.32393567009E+04 0.  0.
        2    1    3    3  502    0 -0.15196425116E+04 -0.40921680208E+03 -0.22471728815E+03  0.15897388508E+04  0.25500000920E-02 0. -1.
       -2    1    3    3    0  502  0.15196425116E+04  0.40921680208E+03  0.54474196272E+03  0.16653875105E+04  0.25500000920E-02 0.  1.
</event>
<event>
 5   0  0.3812379E-06  0.3527990E+04  0.7818609E-02  0.8107189E-01
        2   -1    0    0  501    0  0.00000000000E+00  0.00000000000E+00  0.20779221029E+04  0.20779221029E+04  0.25500000920E-02 0.  1.
       -2   -1    0    0    0  501  0.00000000000E+00  0.00000000000E+00 -0.14974950423E+04  0.14974950423E+04  0.25500000920E-02 0. -1.
    10030    2    1    2    0    0  0.00000000000E+00  0.00000000000E+00  0.58042706058E+03  0.35754171453E+04  0.35279898228E+04 0.  0.
        5    1    3    3  502    0  0.13646368578E+04  0.12161887848E+03 -0.83586322194E+03  0.16049032124E+04  0.46999998093E+01 0.  1.
       -5    1    3    3    0  502 -0.13646368578E+04 -0.12161887848E+03  0.14162902825E+04  0.19705139329E+04  0.46999998093E+01 0. -1.
</event>
<event>
 5   0  0.3920487E-06  0.2782680E+04  0.7818609E-02  0.8308666E-01
        2   -1    0    0  501    0  0.00000000000E+00  0.00000000000E+00  0.12024803172E+04  0.12024803172E+04  0.25500000920E-02 0. -1.
       -2   -1    0    0    0  501  0.00000000000E+00  0.00000000000E+00 -0.16098621840E+04  0.16098621840E+04  0.25500000920E-02 0.  1.
    10030    2    1    2    0    0  0.00000000000E+00  0.00000000000E+00 -0.40738186677E+03  0.28123425013E+04  0.27826804270E+04 0.  0.
        4    1    3    3  502    0  0.11989635422E+04  0.54852124002E+03 -0.65276604259E+03  0.14712220246E+04  0.12699999809E+01 0.  1.
       -4    1    3    3    0  502 -0.11989635422E+04 -0.54852124002E+03  0.24538417582E+03  0.13411204767E+04  0.12699999809E+01 0. -1.
</event>
<event>
 5   0  0.3920487E-06  0.3394928E+04  0.7818609E-02  0.8139152E-01
        2   -1    0    0  501    0  0.00000000000E+00  0.00000000000E+00  0.24790500209E+04  0.24790500209E+04  0.25500000920E-02 0. -1.
       -2   -1    0    0    0  501  0.00000000000E+00  0.00000000000E+00 -0.11622939218E+04  0.11622939218E+04  0.25500000920E-02 0.  1.
    10030    2    1    2    0    0  0.00000000000E+00  0.00000000000E+00  0.13167560991E+04  0.36413439427E+04  0.33949284359E+04 0.  0.
        4    1    3    3  502    0 -0.14712871575E+04  0.67682699627E+03  0.11293750516E+03  0.16234337608E+04  0.12699999809E+01 0.  1.
       -4    1    3    3    0  502  0.14712871575E+04 -0.67682699627E+03  0.12038185939E+04  0.20179101820E+04  0.12699999809E+01 0. -1.
</event>
<event>
 5   0  0.1352708E-06  0.3285656E+04  0.7818609E-02  0.8166555E-01
        1   -1    0    0  501    0  0.00000000000E+00  0.00000000000E+00  0.30153217878E+04  0.30153217879E+04  0.50400001928E-02 0. -1.
       -1   -1    0    0    0  501  0.00000000000E+00  0.00000000000E+00 -0.89505683702E+03  0.89505683704E+03  0.50400001928E-02 0.  1.
    10030    2    1    2    0    0  0.00000000000E+00  0.00000000000E+00  0.21202649508E+04  0.39103786249E+04  0.32856563314E+04 0.  0.
        5    1    3    3  502    0 -0.59103768073E+03 -0.70060363617E+03 -0.56242581302E+03  0.10754142831E+04  0.46999998093E+01 0.  1.
       -5    1    3    3    0  502  0.59103768073E+03  0.70060363617E+03  0.26826907638E+04  0.28349643418E+04  0.46999998093E+01 0. -1.
</event>
<event>
 5   0  0.1259875E-06  0.3272048E+04  0.7818609E-02  0.8170044E-01
        3   -1    0    0  501    0  0.00000000000E+00  0.00000000000E+00  0.16488535096E+04  0.16488535127E+04  0.10100000352E+00 0.  1.
       -3   -1    0    0    0  501  0.00000000000E+00  0.00000000000E+00 -0.16232939597E+04  0.16232939629E+04  0.10100000352E+00 0. -1.
    10030    2    1    2    0    0  0.00000000000E+00  0.00000000000E+00  0.25559549904E+02  0.32721474756E+04  0.32720476481E+04 0.  0.
        4    1    3    3  502    0  0.12039384193E+04  0.10244361423E+04  0.43426055968E+03  0.16393660280E+04  0.12699999809E+01 0.  1.
       -4    1    3    3    0  502 -0.12039384193E+04 -0.10244361423E+04 -0.40870100978E+03  0.16327814476E+04  0.12699999809E+01 0. -1.
</event>
<event>
 5   0  0.1352708E-06  0.3284355E+04  0.7818609E-02  0.8166888E-01
        1   -1    0    0  501    0  0.00000000000E+00  0.00000000000E+00  0.22876232299E+04  0.22876232299E+04  0.50400001928E-02 0. -1.
       -1   -1    0    0    0  501  0.00000000000E+00  0.00000000000E+00 -0.11788425735E+04  0.11788425735E+04  0.50400001928E-02 0.  1.
    10030    2    1    2    0    0  0.00000000000E+00  0.00000000000E+00  0.11087806564E+04  0.34664658035E+04  0.32843554349E+04 0.  0.
        5    1    3    3  502    0 -0.85829818086E+03 -0.13286543588E+04  0.88643083051E+02  0.15842594038E+04  0.46999998093E+01 0.  1.
       -5    1    3    3    0  502  0.85829818086E+03  0.13286543588E+04  0.10201375734E+04  0.18822063997E+04  0.46999998093E+01 0. -1.
</event>
<event>
 5   0  0.3920487E-06  0.2268680E+04  0.7818609E-02  0.8490374E-01
       -2   -1    0    0    0  501  0.00000000000E+00  0.00000000000E+00  0.53437877546E+03  0.53437877547E+03  0.25500000920E-02 0.  1.
        2   -1    0    0  501    0  0.00000000000E+00  0.00000000000E+00 -0.24078931436E+04  0.24078931436E+04  0.25500000920E-02 0. -1.
    10030    2    1    2    0    0  0.00000000000E+00  0.00000000000E+00 -0.18735143682E+04  0.29422719191E+04  0.22686797831E+04 0.  0.
        4    1    3    3  502    0  0.15623279011E+03  0.29520172008E+03 -0.23426766407E+04  0.23663660317E+04  0.12699999809E+01 0. -1.
       -4    1    3    3    0  502 -0.15623279011E+03 -0.29520172008E+03  0.46916227254E+03  0.57590588738E+03  0.12699999809E+01 0.  1.
</event>
<event>
 5   0  0.3812379E-06  0.3239136E+04  0.7818609E-02  0.8178557E-01
       -2   -1    0    0    0  501  0.00000000000E+00  0.00000000000E+00  0.16322631626E+04  0.16322631626E+04  0.25500000920E-02 0. -1.
        2   -1    0    0  501    0  0.00000000000E+00  0.00000000000E+00 -0.16069716350E+04  0.16069716350E+04  0.25500000920E-02 0.  1.
    10030    2    1    2    0    0  0.00000000000E+00  0.00000000000E+00  0.25291527595E+02  0.32392347977E+04  0.32391360597E+04 0.  0.
        5    1    3    3  502    0 -0.88151163622E+02  0.13352027062E+04 -0.89976443458E+03  0.16124934177E+04  0.46999998093E+01 0.  1.
       -5    1    3    3    0  502  0.88151163622E+02 -0.13352027062E+04  0.92505596218E+03  0.16267413800E+04  0.46999998093E+01 0. -1.
</event>
<event>
 5   0  0.1339825E-06  0.2278214E+04  0.7818609E-02  0.8486561E-01
        1   -1    0    0  501    0  0.00000000000E+00  0.00000000000E+00  0.76230996171E+03  0.76230996172E+03  0.50400001928E-02 0. -1.
       -1   -1    0    0    0  501  0.00000000000E+00  0.00000000000E+00 -0.17021482875E+04  0.17021482875E+04  0.50400001928E-02 0.  1.
    10030    2    1    2    0    0  0.00000000000E+00  0.00000000000E+00 -0.93983832578E+03  0.24644582492E+04  0.22782138582E+04 0.  0.
        3    1    3    3  502    0  0.84624743206E+02 -0.10848674283E+04 -0.10553486012E+03  0.10932686317E+04  0.10100000352E+00 0. -1.
       -3    1    3    3    0  502 -0.84624743206E+02  0.10848674283E+04 -0.83430346566E+03  0.13711896175E+04  0.10100000352E+00 0.  1.
</event>
<event>
 5   0  0.3920487E-06  0.3322620E+04  0.7818609E-02  0.8157163E-01
       -2   -1    0    0    0  501  0.00000000000E+00  0.00000000000E+00  0.12904941225E+04  0.12904941225E+04  0.25500000920E-02 0.  1.
        2   -1    0    0  501    0  0.00000000000E+00  0.00000000000E+00 -0.21386779924E+04  0.21386779924E+04  0.25500000920E-02 0. -1.
    10030    2    1    2    0    0  0.00000000000E+00  0.00000000000E+00 -0.84818386993E+03  0.34291721149E+04  0.33226202787E+04 0.  0.
        4    1    3    3  502    0  0.98327862164E+03  0.13249542269E+03  0.95114012858E+03  0.13744311703E+04  0.12699999809E+01 0.  1.
       -4    1    3    3    0  502 -0.98327862164E+03 -0.13249542269E+03 -0.17993239985E+04  0.20547409446E+04  0.12699999809E+01 0. -1.
</event>
<event>
 5   0  0.4017247E-06  0.3365199E+04  0.7818609E-02  0.8146501E-01
       -2   -1    0    0    0  501  0.00000000000E+00  0.00000000000E+00  0.16097779139E+04  0.16097779140E+04  0.25500000920E-02 0. -1.
        2   -1    0    0  501    0  0.00000000000E+00  0.00000000000E+00 -0.17587148428E+04  0.17587148428E+04  0.25500000920E-02 0.  1.
    10030    2    1    2    0    0  0.00000000000E+00  0.00000000000E+00 -0.14893692888E+03  0.33684927568E+04  0.33651985445E+04 0.  0.
        1    1    3    3  502    0 -0.15074183046E+04 -0.72479744082E+03 -0.25767504879E+03  0.16923468043E+04  0.50400001928E-02 0. -1.
       -1    1    3    3    0  502  0.15074183046E+04  0.72479744082E+03  0.10873811991E+03  0.16761459525E+04  0.50400001928E-02 0.  1.
</event>
<event>
 5   0  0.1339825E-06  0.2265819E+04  0.7818609E-02  0.8491521E-01
        1   -1    0    0  501    0  0.00000000000E+00  0.00000000000E+00  0.11298484277E+04  0.11298484277E+04  0.50400001928E-02 0. -1.
       -1   -1    0    0    0  501  0.00000000000E+00  0.00000000000E+00 -0.11359793558E+04  0.11359793558E+04  0.50400001928E-02 0.  1.
    10030    2    1    2    0    0  0.00000000000E+00  0.00000000000E+00 -0.61309281014E+01  0.22658277835E+04  0.22658194889E+04 0.  0.
        3    1    3    3  502    0 -0.61081563111E+02  0.97472133169E+02  0.11239935428E+04  0.11298642700E+04  0.10100000352E+00 0. -1.
       -3    1    3    3    0  502  0.61081563111E+02 -0.97472133169E+02 -0.11301244709E+04  0.11359635135E+04  0.10100000352E+00 0.  1.
</event>
<event>
 5   0  0.3896210E-06  0.3318063E+04  0.7818609E-02  0.8158314E-01
       -2   -1    0    0    0  501  0.00000000000E+00  0.00000000000E+00  0.12420317783E+04  0.12420317783E+04  0.25500000920E-02 0. -1.
        2   -1    0    0  501    0  0.00000000000E+00  0.00000000000E+00 -0.22160353286E+04  0.22160353286E+04  0.25500000920E-02 0.  1.
    10030    2    1    2    0    0  0.00000000000E+00  0.00000000000E+00 -0.97400355033E+03  0.34580671069E+04  0.33180634714E+04 0.  0.
        3    1    3    3  502    0  0.59193590260E+03 -0.11597190376E+04  0.58450884178E+03  0.14272305193E+04  0.10100000352E+00 0. -1.
       -3    1    3    3    0  502 -0.59193590260E+03  0.11597190376E+04 -0.15585123921E+04  0.20308365876E+04  0.10100000352E+00 0.  1.
</event>
<event>
 5   0  0.1339825E-06  0.3297371E+04  0.7818609E-02  0.8163565E-01
        1   -1    0    0  501    0  0.00000000000E+00  0.00000000000E+00  0.21252165210E+04  0.21252165210E+04  0.50400001928E-02 0. -1.
       -1   -1    0    0    0  501  0.00000000000E+00  0.00000000000E+00 -0.12790058962E+04  0.12790058962E+04  0.50400001928E-02 0.  1.
    10030    2    1    2    0    0  0.00000000000E+00  0.00000000000E+00  0.84621062479E+03  0.34042224173E+04  0.32973713538E+04 0.  0.
        3    1    3    3  502    0 -0.75739074131E+03 -0.40394392536E+03  0.18763240781E+04  0.20633476406E+04  0.10100000352E+00 0. -1.
       -3    1    3    3    0  502  0.75739074131E+03  0.40394392536E+03 -0.10301134533E+04  0.13408747767E+04  0.10100000352E+00 0.  1.
</event>
<event>
 5   0  0.1352708E-06  0.3445072E+04  0.7818609E-02  0.8126932E-01
       -1   -1    0    0    0  501  0.00000000000E+00  0.00000000000E+00  0.20503240233E+04  0.20503240233E+04  0.50400001928E-02 0.  1.
        1   -1    0    0  501    0  0.00000000000E+00  0.00000000000E+00 -0.14471520233E+04  0.14471520233E+04  0.50400001928E-02 0. -1.
    10030    2    1    2    0    0  0.00000000000E+00  0.00000000000E+00  0.60317200000E+03  0.34974760466E+04  0.34450721668E+04 0.  0.
        5    1    3    3  502    0 -0.10152995168E+04 -0.11569123539E+02 -0.11110327732E+04  0.15051188878E+04  0.46999998093E+01 0. -1.
       -5    1    3    3    0  502  0.10152995168E+04  0.11569123539E+02  0.17142047732E+04  0.19923571587E+04  0.46999998093E+01 0.  1.
</event>
<event>
 5   0  0.1405389E-06  0.2166819E+04  0.7818609E-02  0.8532367E-01
       -1   -1    0    0    0  501  0.00000000000E+00  0.00000000000E+00  0.12050934727E+04  0.12050934727E+04  0.50400001928E-02 0.  1.
        1   -1    0    0  501    0  0.00000000000E+00  0.00000000000E+00 -0.97401209634E+03  0.97401209635E+03  0.50400001928E-02 0. -1.
    10030    2    1    2    0    0  0.00000000000E+00  0.00000000000E+00  0.23108137635E+03  0.21791055691E+04  0.21668185154E+04 0.  0.
        1    1    3    3  502    0 -0.88920648246E+03 -0.61855329182E+03  0.93524165303E+02  0.10872180613E+04  0.50400001928E-02 0. -1.
       -1    1    3    3    0  502  0.88920648246E+03  0.61855329182E+03  0.13755721104E+03  0.10918875078E+04  0.50400001928E-02 0.  1.
</event>
<event>
 5   0  0.1405389E-06  0.3306891E+04  0.7818609E-02  0.8161144E-01
       -1   -1    0    0    0  501  0.00000000000E+00  0.00000000000E+00  0.16039639002E+04  0.16039639002E+04  0.50400001928E-02 0.  1.
        1   -1    0    0  501    0  0.00000000000E+00  0.00000000000E+00 -0.17044537862E+04  0.17044537862E+04  0.50400001928E-02 0. -1.
    10030    2    1    2    0    0  0.00000000000E+00  0.00000000000E+00 -0.10048988599E+03  0.33084176865E+04  0.33068911943E+04 0.  0.
        1    1    3    3  502    0 -0.12222398032E+03  0.52612956663E+03 -0.16136983202E+04  0.17016971795E+04  0.50400001928E-02 0. -1.
       -1    1    3    3    0  502  0.12222398032E+03 -0.52612956663E+03  0.15132084342E+04  0.16067205070E+04  0.50400001928E-02 0.  1.
</event>
<event>
 5   0  0.3896210E-06  0.3075556E+04  0.7818609E-02  0.8222479E-01
       -2   -1    0    0    0  501  0.00000000000E+00  0.00000000000E+00  0.14821160285E+04  0.14821160285E+04  0.25500000920E-02 0.  1.
        2   -1    0    0  501    0  0.00000000000E+00  0.00000000000E+00 -0.15955303667E+04  0.15955303667E+04  0.25500000920E-02 0. -1.
    10030    2    1    2    0    0  0.00000000000E+00  0.00000000000E+00 -0.11341433820E+03  0.30776463953E+04  0.30755559696E+04 0.  0.
        3    1    3    3  502    0  0.11504697084E+04 -0.82522049600E+03 -0.65727482343E+03  0.15609547145E+04  0.10100000352E+00 0. -1.
       -3    1    3    3    0  502 -0.11504697084E+04  0.82522049600E+03  0.54386048523E+03  0.15166916808E+04  0.10100000352E+00 0.  1.
</event>
<event>
 5   0  0.1405389E-06  0.3083940E+04  0.7818609E-02  0.8220159E-01
       -1   -1    0    0    0  501  0.00000000000E+00  0.00000000000E+00  0.15988688843E+04  0.15988688843E+04  0.50400001928E-02 0.  1.
        1   -1    0    0  501    0  0.00000000000E+00  0.00000000000E+00 -0.14870956041E+04  0.14870956041E+04  0.50400001928E-02 0. -1.
    10030    2    1    2    0    0  0.00000000000E+00  0.00000000000E+00  0.11177328019E+03  0.30859644884E+04  0.30839396164E+04 0.  0.
        1    1    3    3  502    0  0.13621421278E+04  0.52890950848E+03  0.54864721729E+03  0.15608299759E+04  0.50400001928E-02 0.  1.
       -1    1    3    3    0  502 -0.13621421278E+04 -0.52890950848E+03 -0.43687393710E+03  0.15251345126E+04  0.50400001928E-02 0. -1.
</event>
<event>
 5   0  0.1391878E-06  0.3344206E+04  0.7818609E-02  0.8151737E-01
       -1   -1    0    0    0  501  0.00000000000E+00  0.00000000000E+00  0.17029563146E+04  0.17029563146E+04  0.50400001928E-02 0.  1.
        1   -1    0    0  501    0  0.00000000000E+00  0.00000000000E+00 -0.16418089029E+04  0.16418089029E+04  0.50400001928E-02 0. -1.
    10030    2    1    2    0    0  0.00000000000E+00  0.00000000000E+00  0.61147411645E+02  0.33447652175E+04  0.33442062368E+04 0.  0.
        2    1    3    3  502    0  0.46935273386E-01  0.21361014120E+03 -0.16281062031E+04  0.16420594092E+04  0.25500000920E-02 0. -1.
       -2    1    3    3    0  502 -0.46935273386E-01 -0.21361014120E+03  0.16892536148E+04  0.17027058083E+04  0.25500000920E-02 0.  1.
</event>
<event>
 5   0  0.1352708E-06  0.3312125E+04  0.7818609E-02  0.8159817E-01
        1   -1    0    0  501    0  0.00000000000E+00  0.00000000000E+00  0.18634298766E+04  0.18634298766E+04  0.50400001928E-02 0.  1.
       -1   -1    0    0    0  501  0.00000000000E+00  0.00000000000E+00 -0.14717717313E+04  0.14717717313E+04  0.50400001928E-02 0. -1.
    10030    2    1    2    0    0  0.00000000000E+00  0.00000000000E+00  0.39165814527E+03  0.33352016080E+04  0.33121252487E+04 0.  0.
        5    1    3    3  502    0 -0.12731333103E+04 -0.96862067312E+03  0.62709668377E+03  0.17182452605E+04  0.46999998093E+01 0.  1.
       -5    1    3    3    0  502  0.12731333103E+04  0.96862067312E+03 -0.23543853850E+03  0.16169563475E+04  0.46999998093E+01 0. -1.
</event>
<event>
 5   0  0.3920487E-06  0.3311784E+04  0.7818609E-02  0.8159903E-01
       -2   -1    0    0    0  501  0.00000000000E+00  0.00000000000E+00  0.13438709684E+04  0.13438709684E+04  0.25500000920E-02 0.  1.
        2   -1    0    0  501    0  0.00000000000E+00  0.00000000000E+00 -0.20403588535E+04  0.20403588535E+04  0.25500000920E-02 0. -1.
    10030    2    1    2    0    0  0.00000000000E+00  0.00000000000E+00 -0.69648788515E+03  0.33842298219E+04  0.33117844304E+04 0.  0.
        4    1    3    3  502    0 -0.14227343218E+04 -0.35942149837E+03 -0.11322429911E+04  0.18534650166E+04  0.12699999809E+01 0. -1.
       -4    1    3    3    0  502  0.14227343218E+04  0.35942149837E+03  0.43575510594E+03  0.15307648053E+04  0.12699999809E+01 0.  1.
</event>
<event>
 5   0  0.3896210E-06  0.3238723E+04  0.7818609E-02  0.8178665E-01
        2   -1    0    0  501    0  0.00000000000E+00  0.00000000000E+00  0.12701942309E+04  0.12701942309E+04  0.25500000920E-02 0. -1.
       -2   -1    0    0    0  501  0.00000000000E+00  0.00000000000E+00 -0.20645123135E+04  0.20645123135E+04  0.25500000920E-02 0.  1.
    10030    2    1    2    0    0  0.00000000000E+00  0.00000000000E+00 -0.79431808266E+03  0.33347065444E+04  0.32387229768E+04 0.  0.
        3    1    3    3  502    0  0.14993658012E+04  0.54598313165E+03 -0.11305362341E+03  0.15996801298E+04  0.10100000352E+00 0.  1.
       -3    1    3    3    0  502 -0.14993658012E+04 -0.54598313165E+03 -0.68126445925E+03  0.17350264146E+04  0.10100000352E+00 0. -1.
</event>
<event>
 5   0  0.1282578E-06  0.3258667E+04  0.7818609E-02  0.8173493E-01
        1   -1    0    0  501    0  0.00000000000E+00  0.00000000000E+00  0.15042480630E+04  0.15042480630E+04  0.50400001928E-02 0. -1.
       -1   -1    0    0    0  501  0.00000000000E+00  0.00000000000E+00 -0.17648203948E+04  0.17648203948E+04  0.50400001928E-02 0.  1.
    10030    2    1    2    0    0  0.00000000000E+00  0.00000000000E+00 -0.26057233183E+03  0.32690684578E+04  0.32586670038E+04 0.  0.
        4    1    3    3  502    0  0.15639542986E+04  0.43555486772E+03  0.82304720109E+01  0.16234932844E+04  0.12699999809E+01 0.  1.
       -4    1    3    3    0  502 -0.15639542986E+04 -0.43555486772E+03 -0.26880280384E+03  0.16455751734E+04  0.12699999809E+01 0. -1.
</event>
<event>
 5   0  0.1391878E-06  0.3192419E+04  0.7818609E-02  0.8190822E-01
        1   -1    0    0  501    0  0.00000000000E+00  0.00000000000E+00  0.15626842254E+04  0.15626842254E+04  0.50400001928E-02 0.  1.
       -1   -1    0    0    0  501  0.00000000000E+00  0.00000000000E+00 -0.16304539295E+04  0.16304539295E+04  0.50400001928E-02 0. -1.
    10030    2    1    2    0    0  0.00000000000E+00  0.00000000000E+00 -0.67769704085E+02  0.31931381550E+04  0.31924189174E+04 0.  0.
        2    1    3    3  502    0 -0.73084690547E+03 -0.94511988711E+03 -0.10926580940E+04  0.16190399966E+04  0.25500000920E-02 0. -1.
       -2    1    3    3    0  502  0.73084690547E+03  0.94511988711E+03  0.10248883900E+04  0.15740981583E+04  0.25500000920E-02 0.  1.
</event>
<event>
 5   0  0.1282578E-06  0.3183864E+04  0.7818609E-02  0.8193092E-01
        1   -1    0    0  501    0  0.00000000000E+00  0.00000000000E+00  0.21086165708E+04  0.21086165708E+04  0.50400001928E-02 0. -1.
       -1   -1    0    0    0  501  0.00000000000E+00  0.00000000000E+00 -0.12018532912E+04  0.12018532912E+04  0.50400001928E-02 0.  1.
    10030    2    1    2    0    0  0.00000000000E+00  0.00000000000E+00  0.90676327967E+03  0.33104698620E+04  0.31838641714E+04 0.  0.
        4    1    3    3  502    0  0.13643947398E+04  0.80137096342E+03  0.63490243410E+03  0.17049548794E+04  0.12699999809E+01 0.  1.
       -4    1    3    3    0  502 -0.13643947398E+04 -0.80137096342E+03  0.27186084557E+03  0.16055149826E+04  0.12699999809E+01 0. -1.
</event>
<event>
 5   0  0.1405389E-06  0.3300138E+04  0.7818609E-02  0.8162860E-01
       -1   -1    0    0    0  501  0.00000000000E+00  0.00000000000E+00  0.11538284605E+04  0.11538284605E+04  0.50400001928E-02 0. -1.
        1   -1    0    0  501    0  0.00000000000E+00  0.00000000000E+00 -0.23597334391E+04  0.23597334391E+04  0.50400001928E-02 0.  1.
    10030    2    1    2    0    0  0.00000000000E+00  0.00000000000E+00 -0.12059049785E+04  0.35135618996E+04  0.33001379373E+04 0.  0.
        1    1    3    3  502    0 -0.77664971605E+03  0.11342837067E+04 -0.15746324227E+04  0.20902754784E+04  0.50400001928E-02 0.  1.
       -1    1    3    3    0  502  0.77664971605E+03 -0.11342837067E+04  0.36872744418E+03  0.14232864213E+04  0.50400001928E-02 0. -1.
</event>
<event>
 5   0  0.1405389E-06  0.3225769E+04  0.7818609E-02  0.8182045E-01
       -1   -1    0    0    0  501  0.00000000000E+00  0.00000000000E+00  0.12231423515E+04  0.12231423515E+04  0.50400001928E-02 0. -1.
        1   -1    0    0  501    0  0.00000000000E+00  0.00000000000E+00 -0.21268141145E+04  0.21268141145E+04  0.50400001928E-02 0.  1.
    10030    2    1    2    0    0  0.00000000000E+00  0.00000000000E+00 -0.90367176304E+03  0.33499564660E+04  0.32257690042E+04 0.  0.
        1    1    3    3  502    0 -0.86500993503E+03 -0.78937179427E+03  0.69993646150E+03  0.13642804211E+04  0.50400001928E-02 0. -1.
       -1    1    3    3    0  502  0.86500993503E+03  0.78937179427E+03 -0.16036082245E+04  0.19856760449E+04  0.50400001928E-02 0.  1.
</event>
<event>
 5   0  0.3920487E-06  0.3393589E+04  0.7818609E-02  0.8139481E-01
        2   -1    0    0  501    0  0.00000000000E+00  0.00000000000E+00  0.21832981653E+04  0.21832981653E+04  0.25500000920E-02 0.  1.
       -2   -1    0    0    0  501  0.00000000000E+00  0.00000000000E+00 -0.13186986596E+04  0.13186986596E+04  0.25500000920E-02 0. -1.
    10030    2    1    2    0    0  0.00000000000E+00  0.00000000000E+00  0.86459950572E+03  0.35019968248E+04  0.33935894648E+04 0.  0.
        4    1    3    3  502    0 -0.57889338621E+03  0.85142085559E+02  0.20758945885E+04  0.21567815566E+04  0.12699999809E+01 0.  1.
       -4    1    3    3    0  502  0.57889338621E+03 -0.85142085559E+02 -0.12112950828E+04  0.13452152682E+04  0.12699999809E+01 0. -1.
</event>
<event>
 5   0  0.3920487E-06  0.3220320E+04  0.7818609E-02  0.8183471E-01
        2   -1    0    0  501    0  0.00000000000E+00  0.00000000000E+00  0.12196872169E+04  0.12196872169E+04  0.25500000920E-02 0. -1.
       -2   -1    0    0    0  501  0.00000000000E+00  0.00000000000E+00 -0.21256398064E+04  0.21256398064E+04  0.25500000920E-02 0.  1.
    10030    2    1    2    0    0  0.00000000000E+00  0.00000000000E+00 -0.90595258944E+03  0.33453270233E+04  0.32203202944E+04 0.  0.
        4    1    3    3  502    0  0.69721197701E+03  0.86211674498E+01  0.10547189454E+04  0.12643625003E+04  0.12699999809E+01 0. -1.
       -4    1    3    3    0  502 -0.69721197701E+03 -0.86211674498E+01 -0.19606715349E+04  0.20809645230E+04  0.12699999809E+01 0.  1.
</event>
<event>
 5   0  0.1405389E-06  0.3287974E+04  0.7818609E-02  0.8165962E-01
        1   -1    0    0  501    0  0.00000000000E+00  0.00000000000E+00  0.28080618684E+04  0.28080618684E+04  0.50400001928E-02 0.  1.
       -1   -1    0    0    0  501  0.00000000000E+00  0.00000000000E+00 -0.96247661148E+03  0.96247661149E+03  0.50400001928E-02 0. -1.
    10030    2    1    2    0    0  0.00000000000E+00  0.00000000000E+00  0.18455852569E+04  0.37705384799E+04  0.32879743746E+04 0.  0.
        1    1    3    3  502    0  0.94311601276E+03  0.15323887447E+03 -0.61136646746E+03  0.11343363362E+04  0.50400001928E-02 0. -1.
       -1    1    3    3    0  502 -0.94311601276E+03 -0.15323887447E+03  0.24569517244E+04  0.26362021436E+04  0.50400001928E-02 0.  1.
</event>
<event>
 5   0  0.1282578E-06  0.3186408E+04  0.7818609E-02  0.8192416E-01
        1   -1    0    0  501    0  0.00000000000E+00  0.00000000000E+00  0.14196422303E+04  0.14196422303E+04  0.50400001928E-02 0.  1.
       -1   -1    0    0    0  501  0.00000000000E+00  0.00000000000E+00 -0.17879848263E+04  0.17879848263E+04  0.50400001928E-02 0. -1.
    10030    2    1    2    0    0  0.00000000000E+00  0.00000000000E+00 -0.36834259592E+03  0.32076270566E+04  0.31864078625E+04 0.  0.
        4    1    3    3  502    0 -0.52167039937E+03 -0.49859261001E+03  0.12456969027E+04  0.14396169569E+04  0.12699999809E+01 0.  1.
       -4    1    3    3    0  502  0.52167039937E+03  0.49859261001E+03 -0.16140394987E+04  0.17680100997E+04  0.12699999809E+01 0. -1.
</event>
<event>
 5   0  0.3920487E-06  0.3300507E+04  0.7818609E-02  0.8162766E-01
       -2   -1    0    0    0  501  0.00000000000E+00  0.00000000000E+00  0.17482674035E+04  0.17482674035E+04  0.25500000920E-02 0. -1.
        2   -1    0    0  501    0  0.00000000000E+00  0.00000000000E+00 -0.15577350630E+04  0.15577350630E+04  0.25500000920E-02 0.  1.
    10030    2    1    2    0    0  0.00000000000E+00  0.00000000000E+00  0.19053234057E+03  0.33060024665E+04  0.33005074967E+04 0.  0.
        4    1    3    3  502    0 -0.41964650907E+03  0.11954342107E+04 -0.96392976372E+03  0.15919573948E+04  0.12699999809E+01 0.  1.
       -4    1    3    3    0  502  0.41964650907E+03 -0.11954342107E+04  0.11544621043E+04  0.17140450717E+04  0.12699999809E+01 0. -1.
</event>
<event>
 5   0  0.3920487E-06  0.3325556E+04  0.7818609E-02  0.8156423E-01
       -2   -1    0    0    0  501  0.00000000000E+00  0.00000000000E+00  0.12771544857E+04  0.12771544857E+04  0.25500000920E-02 0. -1.
        2   -1    0    0  501    0  0.00000000000E+00  0.00000000000E+00 -0.21648361012E+04  0.21648361012E+04  0.25500000920E-02 0.  1.
    10030    2    1    2    0    0  0.00000000000E+00  0.00000000000E+00 -0.88768161543E+03  0.34419905869E+04  0.33255556754E+04 0.  0.
        4    1    3    3  502    0  0.58135091327E+03  0.21201960376E+02 -0.20560728909E+04  0.21367863144E+04  0.12699999809E+01 0.  1.
       -4    1    3    3    0  502 -0.58135091327E+03 -0.21201960376E+02  0.11683912755E+04  0.13052042725E+04  0.12699999809E+01 0. -1.
</event>
<event>
 5   0  0.3812379E-06  0.3195031E+04  0.7818609E-02  0.8190131E-01
       -2   -1    0    0    0  501  0.00000000000E+00  0.00000000000E+00  0.12462868193E+04  0.12462868193E+04  0.25500000920E-02 0. -1.
        2   -1    0    0  501    0  0.00000000000E+00  0.00000000000E+00 -0.20477272556E+04  0.20477272556E+04  0.25500000920E-02 0.  1.
    10030    2    1    2    0    0  0.00000000000E+00  0.00000000000E+00 -0.80144043631E+03  0.32940140749E+04  0.31950308218E+04 0.  0.
        5    1    3    3  502    0 -0.95419443942E+02 -0.15944543036E+04 -0.37455684062E+03  0.16406414336E+04  0.46999998093E+01 0.  1.
       -5    1    3    3    0  502  0.95419443942E+02  0.15944543036E+04 -0.42688359569E+03  0.16533726413E+04  0.46999998093E+01 0. -1.
</event>
<event>
 5   0  0.4017247E-06  0.3194759E+04  0.7818609E-02  0.8190203E-01
        2   -1    0    0  501    0  0.00000000000E+00  0.00000000000E+00  0.23766833407E+04  0.23766833407E+04  0.25500000920E-02 0. -1.
       -2   -1    0    0    0  501  0.00000000000E+00  0.00000000000E+00 -0.10736061388E+04  0.10736061388E+04  0.25500000920E-02 0.  1.
    10030    2    1    2    0    0  0.00000000000E+00  0.00000000000E+00  0.13030772019E+04  0.34502894794E+04  0.31947593490E+04 0.  0.
        1    1    3    3  502    0  0.71023899251E+03  0.11806002884E+04 -0.22142359329E+03  0.13954514951E+04  0.50400001928E-02 0.  1.
       -1    1    3    3    0  502 -0.71023899251E+03 -0.11806002884E+04  0.15245007952E+04  0.20548379844E+04  0.50400001928E-02 0. -1.
</event>
<event>
 5   0  0.1352708E-06  0.3136598E+04  0.7818609E-02  0.8205765E-01
        1   -1    0    0  501    0  0.00000000000E+00  0.00000000000E+00  0.83066840517E+03  0.83066840518E+03  0.50400001928E-02 0. -1.
       -1   -1    0    0    0  501  0.00000000000E+00  0.00000000000E+00 -0.29609420843E+04  0.29609420843E+04  0.50400001928E-02 0.  1.
    10030    2    1    2    0    0  0.00000000000E+00  0.00000000000E+00 -0.21302736792E+04  0.37916104895E+04  0.31365975445E+04 0.  0.
        5    1    3    3  502    0  0.41366611156E+03 -0.11191129876E+04  0.16526205222E+03  0.12045194755E+04  0.46999998093E+01 0. -1.
       -5    1    3    3    0  502 -0.41366611156E+03  0.11191129876E+04 -0.22955357314E+04  0.25870910141E+04  0.46999998093E+01 0.  1.
</event>
<event>
 5   0  0.3812379E-06  0.3220778E+04  0.7818609E-02  0.8183351E-01
       -2   -1    0    0    0  501  0.00000000000E+00  0.00000000000E+00  0.10670255653E+04  0.10670255653E+04  0.25500000920E-02 0.  1.
        2   -1    0    0  501    0  0.00000000000E+00  0.00000000000E+00 -0.24304497961E+04  0.24304497961E+04  0.25500000920E-02 0. -1.
    10030    2    1    2    0    0  0.00000000000E+00  0.00000000000E+00 -0.13634242307E+04  0.34974753614E+04  0.32207775879E+04 0.  0.
        5    1    3    3  502    0  0.46409856885E+03 -0.52180179396E+03 -0.22574668004E+04  0.23630156662E+04  0.46999998093E+01 0. -1.
       -5    1    3    3    0  502 -0.46409856885E+03  0.52180179396E+03  0.89404256965E+03  0.11344596952E+04  0.46999998093E+01 0.  1.
</event>
<event>
 5   0  0.1391878E-06  0.3036025E+04  0.7818609E-02  0.8233518E-01
       -1   -1    0    0    0  501  0.00000000000E+00  0.00000000000E+00  0.10171086404E+04  0.10171086404E+04  0.50400001928E-02 0.  1.
        1   -1    0    0  501    0  0.00000000000E+00  0.00000000000E+00 -0.22656006375E+04  0.22656006375E+04  0.50400001928E-02 0. -1.
    10030    2    1    2    0    0  0.00000000000E+00  0.00000000000E+00 -0.12484919971E+04  0.32827092780E+04  0.30360250224E+04 0.  0.
        2    1    3    3  502    0 -0.67684509553E+03  0.46610439672E+03  0.75577661863E+03  0.11164993906E+04  0.25500000920E-02 0.  1.
       -2    1    3    3    0  502  0.67684509553E+03 -0.46610439672E+03 -0.20042686157E+04  0.21662098874E+04  0.25500000920E-02 0. -1.
</event>
<event>
 5   0  0.3812379E-06  0.2065361E+04  0.7818609E-02  0.8576658E-01
        2   -1    0    0  501    0  0.00000000000E+00  0.00000000000E+00  0.15568886939E+04  0.15568886940E+04  0.25500000920E-02 0. -1.
       -2   -1    0    0    0  501  0.00000000000E+00  0.00000000000E+00 -0.68497426236E+03  0.68497426237E+03  0.25500000920E-02 0.  1.
    10030    2    1    2    0    0  0.00000000000E+00  0.00000000000E+00  0.87191443159E+03  0.22418629563E+04  0.20653606801E+04 0.  0.
        5    1    3    3  502    0  0.10078693537E+04  0.22042604261E+03  0.38719221753E+03  0.11019655973E+04  0.46999998093E+01 0.  1.
       -5    1    3    3    0  502 -0.10078693537E+04 -0.22042604261E+03  0.48472221406E+03  0.11398973590E+04  0.46999998093E+01 0. -1.
</event>
<event>
 5   0  0.1339825E-06  0.3301210E+04  0.7818609E-02  0.8162588E-01
        1   -1    0    0  501    0  0.00000000000E+00  0.00000000000E+00  0.22002757938E+04  0.22002757938E+04  0.50400001928E-02 0.  1.
       -1   -1    0    0    0  501  0.00000000000E+00  0.00000000000E+00 -0.12382522637E+04  0.12382522637E+04  0.50400001928E-02 0. -1.
    10030    2    1    2    0    0  0.00000000000E+00  0.00000000000E+00  0.96202353013E+03  0.34385280576E+04  0.33012097677E+04 0.  0.
        3    1    3    3  502    0 -0.56284530619E+03  0.15362680287E+04  0.70821871318E+03  0.17828314700E+04  0.10100000352E+00 0.  1.
       -3    1    3    3    0  502  0.56284530619E+03 -0.15362680287E+04  0.25380481695E+03  0.16556965875E+04  0.10100000352E+00 0. -1.
</event>
<event>
 5   0  0.1282578E-06  0.3266042E+04  0.7818609E-02  0.8171590E-01
       -1   -1    0    0    0  501  0.00000000000E+00  0.00000000000E+00  0.11434712009E+04  0.11434712009E+04  0.50400001928E-02 0. -1.
        1   -1    0    0  501    0  0.00000000000E+00  0.00000000000E+00 -0.23321592399E+04  0.23321592399E+04  0.50400001928E-02 0.  1.
    10030    2    1    2    0    0  0.00000000000E+00  0.00000000000E+00 -0.11886880391E+04  0.34756304408E+04  0.32660415960E+04 0.  0.
        4    1    3    3  502    0 -0.87716860458E+03 -0.11807833296E+04  0.16045436143E+03  0.14796693034E+04  0.12699999809E+01 0. -1.
       -4    1    3    3    0  502  0.87716860458E+03  0.11807833296E+04 -0.13491424005E+04  0.19959611374E+04  0.12699999809E+01 0.  1.
</event>
<event>
 5   0  0.1339825E-06  0.3198632E+04  0.7818609E-02  0.8189179E-01
       -1   -1    0    0    0  501  0.00000000000E+00  0.00000000000E+00  0.12449348827E+04  0.12449348827E+04  0.50400001928E-02 0.  1.
        1   -1    0    0  501    0  0.00000000000E+00  0.00000000000E+00 -0.20545746319E+04  0.20545746319E+04  0.50400001928E-02 0. -1.
    10030    2    1    2    0    0  0.00000000000E+00  0.00000000000E+00 -0.80963974923E+03  0.32995095146E+04  0.31986319752E+04 0.  0.
        3    1    3    3  502    0  0.85264955706E+03  0.10875599303E+03 -0.17960474446E+04  0.19911367524E+04  0.10100000352E+00 0. -1.
       -3    1    3    3    0  502 -0.85264955706E+03 -0.10875599303E+03  0.98640769536E+03  0.13083727622E+04  0.10100000352E+00 0.  1.
</event>
<event>
 5   0  0.1339825E-06  0.2479904E+04  0.7818609E-02  0.8410180E-01
       -1   -1    0    0    0  501  0.00000000000E+00  0.00000000000E+00  0.73950213225E+03  0.73950213227E+03  0.50400001928E-02 0. -1.
        1   -1    0    0  501    0  0.00000000000E+00  0.00000000000E+00 -0.20790751850E+04  0.20790751851E+04  0.50400001928E-02 0.  1.
    10030    2    1    2    0    0  0.00000000000E+00  0.00000000000E+00 -0.13395730528E+04  0.28185773173E+04  0.24799036534E+04 0.  0.
        3    1    3    3  502    0  0.37543427840E+03 -0.11493261048E+04 -0.98224772013E+03  0.15577907390E+04  0.10100000352E+00 0.  1.
       -3    1    3    3    0  502 -0.37543427840E+03  0.11493261048E+04 -0.35732533267E+03  0.12607865783E+04  0.10100000352E+00 0. -1.
</event>
<event>
 5   0  0.3671997E-06  0.3448548E+04  0.7818609E-02  0.8126093E-01
       -2   -1    0    0    0  501  0.00000000000E+00  0.00000000000E+00  0.13755137332E+04  0.13755137332E+04  0.25500000920E-02 0. -1.
        2   -1    0    0  501    0  0.00000000000E+00  0.00000000000E+00 -0.21614616541E+04  0.21614616541E+04  0.25500000920E-02 0.  1.
    10030    2    1    2    0    0  0.00000000000E+00  0.00000000000E+00 -0.78594792081E+03  0.35369753873E+04  0.34485476300E+04 0.  0.
        2    1    3    3  502    0  0.44567931104E+03 -0.16636890273E+04 -0.30946779293E+03  0.17499318680E+04  0.25500000920E-02 0.  1.
       -2    1    3    3    0  502 -0.44567931104E+03  0.16636890273E+04 -0.47648012788E+03  0.17870435193E+04  0.25500000920E-02 0. -1.
</event>
<event>
 5   0  0.1352708E-06  0.3271608E+04  0.7818609E-02  0.8170158E-01
       -1   -1    0    0    0  501  0.00000000000E+00  0.00000000000E+00  0.17103931805E+04  0.17103931805E+04  0.50400001928E-02 0.  1.
        1   -1    0    0  501    0  0.00000000000E+00  0.00000000000E+00 -0.15644671458E+04  0.15644671458E+04  0.50400001928E-02 0. -1.
    10030    2    1    2    0    0  0.00000000000E+00  0.00000000000E+00  0.14592603467E+03  0.32748603263E+04  0.32716075175E+04 0.  0.
        5    1    3    3  502    0  0.89445874739E+03  0.13510033067E+04 -0.15212821188E+03  0.16274002176E+04  0.46999998093E+01 0.  1.
       -5    1    3    3    0  502 -0.89445874739E+03 -0.13510033067E+04  0.29805424655E+03  0.16474601086E+04  0.46999998093E+01 0. -1.
</event>
<event>
 5   0  0.1391878E-06  0.3276415E+04  0.7818609E-02  0.8168923E-01
       -1   -1    0    0    0  501  0.00000000000E+00  0.00000000000E+00  0.27679028240E+04  0.27679028240E+04  0.50400001928E-02 0.  1.
        1   -1    0    0  501    0  0.00000000000E+00  0.00000000000E+00 -0.96958759500E+03  0.96958759502E+03  0.50400001928E-02 0. -1.
    10030    2    1    2    0    0  0.00000000000E+00  0.00000000000E+00  0.17983152290E+04  0.37374904191E+04  0.32764152621E+04 0.  0.
        2    1    3    3  502    0  0.10849909559E+04  0.10710720423E+04  0.21536565852E+03  0.15397347372E+04  0.25500000920E-02 0. -1.
       -2    1    3    3    0  502 -0.10849909559E+04 -0.10710720423E+04  0.15829495705E+04  0.21977556818E+04  0.25500000920E-02 0.  1.
</event>
<event>
 5   0  0.1339825E-06  0.3262276E+04  0.7818609E-02  0.8172561E-01
       -1   -1    0    0    0  501  0.00000000000E+00  0.00000000000E+00  0.18792898113E+04  0.18792898113E+04  0.50400001928E-02 0.  1.
        1   -1    0    0  501    0  0.00000000000E+00  0.00000000000E+00 -0.14157537377E+04  0.14157537377E+04  0.50400001928E-02 0. -1.
    10030    2    1    2    0    0  0.00000000000E+00  0.00000000000E+00  0.46353607358E+03  0.32950435490E+04  0.32622762450E+04 0.  0.
        3    1    3    3  502    0 -0.12679010730E+04 -0.10148639986E+04  0.78289493935E+02  0.16259309093E+04  0.10100000352E+00 0.  1.
       -3    1    3    3    0  502  0.12679010730E+04  0.10148639986E+04  0.38524657965E+03  0.16691126397E+04  0.10100000352E+00 0. -1.
</event>
<event>
 5   0  0.4017247E-06  0.2109726E+04  0.7818609E-02  0.8556971E-01
       -2   -1    0    0    0  501  0.00000000000E+00  0.00000000000E+00  0.47014568085E+03  0.47014568085E+03  0.25500000920E-02 0.  1.
        2   -1    0    0  501    0  0.00000000000E+00  0.00000000000E+00 -0.23667906274E+04  0.23667906274E+04  0.25500000920E-02 0. -1.
    10030    2    1    2    0    0  0.00000000000E+00  0.00000000000E+00 -0.18966449466E+04  0.28369363083E+04  0.21097264192E+04 0.  0.
        1    1    3    3  502    0  0.21348637011E+03 -0.81759855938E+03 -0.17973905410E+04  0.19861159562E+04  0.50400001928E-02 0. -1.
       -1    1    3    3    0  502 -0.21348637011E+03  0.81759855938E+03 -0.99254405608E+02  0.85082035212E+03  0.50400001928E-02 0.  1.
</event>
<event>
 5   0  0.3671997E-06  0.3294882E+04  0.7818609E-02  0.8164199E-01
       -2   -1    0    0    0  501  0.00000000000E+00  0.00000000000E+00  0.14070464525E+04  0.14070464525E+04  0.25500000920E-02 0.  1.
        2   -1    0    0  501    0  0.00000000000E+00  0.00000000000E+00 -0.19289065545E+04  0.19289065545E+04  0.25500000920E-02 0. -1.
    10030    2    1    2    0    0  0.00000000000E+00  0.00000000000E+00 -0.52186010204E+03  0.33359530070E+04  0.32948815607E+04 0.  0.
        2    1    3    3  502    0  0.12975639248E+04 -0.80866894207E+03  0.36026792749E+03  0.15707993431E+04  0.25500000920E-02 0. -1.
       -2    1    3    3    0  502 -0.12975639248E+04  0.80866894207E+03 -0.88212802953E+03  0.17651536639E+04  0.25500000920E-02 0.  1.
</event>
<event>
 5   0  0.1339825E-06  0.2277055E+04  0.7818609E-02  0.8487023E-01
       -1   -1    0    0    0  501  0.00000000000E+00  0.00000000000E+00  0.97348832313E+03  0.97348832315E+03  0.50400001928E-02 0.  1.
        1   -1    0    0  501    0  0.00000000000E+00  0.00000000000E+00 -0.13315460408E+04  0.13315460409E+04  0.50400001928E-02 0. -1.
    10030    2    1    2    0    0  0.00000000000E+00  0.00000000000E+00 -0.35805771771E+03  0.23050343640E+04  0.22770546963E+04 0.  0.
        3    1    3    3  502    0  0.25705119253E+02 -0.98373508392E+03  0.40058785758E+03  0.10624811106E+04  0.10100000352E+00 0.  1.
       -3    1    3    3    0  502 -0.25705119253E+02  0.98373508392E+03 -0.75864557528E+03  0.12425532534E+04  0.10100000352E+00 0. -1.
</event>
<event>
 5   0  0.4017247E-06  0.3267117E+04  0.7818609E-02  0.8171313E-01
       -2   -1    0    0    0  501  0.00000000000E+00  0.00000000000E+00  0.13326981555E+04  0.13326981555E+04  0.25500000920E-02 0. -1.
        2   -1    0    0  501    0  0.00000000000E+00  0.00000000000E+00 -0.20023385657E+04  0.20023385657E+04  0.25500000920E-02 0.  1.
    10030    2    1    2    0    0  0.00000000000E+00  0.00000000000E+00 -0.66964041016E+03  0.33350367212E+04  0.32671167186E+04 0.  0.
        1    1    3    3  502    0 -0.74271534079E+03 -0.60636083045E+03 -0.16848935577E+04  0.19385989361E+04  0.50400001928E-02 0.  1.
       -1    1    3    3    0  502  0.74271534079E+03  0.60636083045E+03  0.10152531475E+04  0.13964377851E+04  0.50400001928E-02 0. -1.
</event>
<event>
 5   0  0.1405389E-06  0.3323772E+04  0.7818609E-02  0.8156873E-01
       -1   -1    0    0    0  501  0.00000000000E+00  0.00000000000E+00  0.14346354712E+04  0.14346354712E+04  0.50400001928E-02 0.  1.
        1   -1    0    0  501    0  0.00000000000E+00  0.00000000000E+00 -0.19251338605E+04  0.19251338605E+04  0.50400001928E-02 0. -1.
    10030    2    1    2    0    0  0.00000000000E+00  0.00000000000E+00 -0.49049838936E+03  0.33597693317E+04  0.33237721481E+04 0.  0.
        1    1    3    3  502    0  0.68627871540E+03 -0.11267755340E+03 -0.17709635996E+04  0.19026262842E+04  0.50400001928E-02 0. -1.
       -1    1    3    3    0  502 -0.68627871540E+03  0.11267755340E+03  0.12804652102E+04  0.14571430475E+04  0.50400001928E-02 0.  1.
</event>
<event>
 5   0  0.1339825E-06  0.3355683E+04  0.7818609E-02  0.8148870E-01
        1   -1    0    0  501    0  0.00000000000E+00  0.00000000000E+00  0.21400052510E+04  0.21400052510E+04  0.50400001928E-02 0. -1.
       -1   -1    0    0    0  501  0.00000000000E+00  0.00000000000E+00 -0.13154880676E+04  0.13154880676E+04  0.50400001928E-02 0.  1.
    10030    2    1    2    0    0  0.00000000000E+00  0.00000000000E+00  0.82451718335E+03  0.34554933186E+04  0.33556825669E+04 0.  0.
        3    1    3    3  502    0 -0.95066193665E+03 -0.66354477137E+03 -0.83670712362E+03  0.14297302551E+04  0.10100000352E+00 0.  1.
       -3    1    3    3    0  502  0.95066193665E+03  0.66354477137E+03  0.16612243070E+04  0.20257630636E+04  0.10100000352E+00 0. -1.
</event>
<event>
 5   0  0.3920487E-06  0.3299423E+04  0.7818609E-02  0.8163042E-01
        2   -1    0    0  501    0  0.00000000000E+00  0.00000000000E+00  0.16156637596E+04  0.16156637596E+04  0.25500000920E-02 0.  1.
       -2   -1    0    0    0  501  0.00000000000E+00  0.00000000000E+00 -0.16844771017E+04  0.16844771017E+04  0.25500000920E-02 0. -1.
    10030    2    1    2    0    0  0.00000000000E+00  0.00000000000E+00 -0.68813342119E+02  0.33001408613E+04  0.32994233479E+04 0.  0.
        4    1    3    3  502    0  0.54117309410E+03  0.14308442508E+04  0.58327390323E+03  0.16371907790E+04  0.12699999809E+01 0.  1.
       -4    1    3    3    0  502 -0.54117309410E+03 -0.14308442508E+04 -0.65208724535E+03  0.16629500823E+04  0.12699999809E+01 0. -1.
</event>
<event>
 5   0  0.3812379E-06  0.2943980E+04  0.7818609E-02  0.8259911E-01
       -2   -1    0    0    0  501  0.00000000000E+00  0.00000000000E+00  0.27877799790E+04  0.27877799790E+04  0.25500000920E-02 0.  1.
        2   -1    0    0  501    0  0.00000000000E+00  0.00000000000E+00 -0.77723275899E+03  0.77723275899E+03  0.25500000920E-02 0. -1.
    10030    2    1    2    0    0  0.00000000000E+00  0.00000000000E+00  0.20105472200E+04  0.35650127380E+04  0.29439795682E+04 0.  0.
        5    1    3    3  502    0 -0.90878917237E+02 -0.11076048744E+04  0.21741287277E+04  0.24417013229E+04  0.46999998093E+01 0.  1.
       -5    1    3    3    0  502  0.90878917237E+02  0.11076048744E+04 -0.16358150777E+03  0.11233114150E+04  0.46999998093E+01 0. -1.
</event>
<event>
 5   0  0.4017247E-06  0.3263844E+04  0.7818609E-02  0.8172157E-01
       -2   -1    0    0    0  501  0.00000000000E+00  0.00000000000E+00  0.11673042259E+04  0.11673042259E+04  0.25500000920E-02 0.  1.
        2   -1    0    0  501    0  0.00000000000E+00  0.00000000000E+00 -0.22814700005E+04  0.22814700005E+04  0.25500000920E-02 0. -1.
    10030    2    1    2    0    0  0.00000000000E+00  0.00000000000E+00 -0.11141657747E+04  0.34487742264E+04  0.32638440973E+04 0.  0.
        1    1    3    3  502    0  0.75048608382E+03 -0.61154507309E+03  0.83111001694E+03  0.12759155923E+04  0.50400001928E-02 0.  1.
       -1    1    3    3    0  502 -0.75048608382E+03  0.61154507309E+03 -0.19452757916E+04  0.21728586341E+04  0.50400001928E-02 0. -1.
</event>
<event>
 5   0  0.3812379E-06  0.3241492E+04  0.7818609E-02  0.8177944E-01
       -2   -1    0    0    0  501  0.00000000000E+00  0.00000000000E+00  0.23010482633E+04  0.23010482633E+04  0.25500000920E-02 0. -1.
        2   -1    0    0  501    0  0.00000000000E+00  0.00000000000E+00 -0.11415744127E+04  0.11415744127E+04  0.25500000920E-02 0.  1.
    10030    2    1    2    0    0  0.00000000000E+00  0.00000000000E+00  0.11594738506E+04  0.34426226761E+04  0.32414921378E+04 0.  0.
        5    1    3    3  502    0  0.11805432657E+04  0.48553540189E+03 -0.48091362138E+03  0.13640846858E+04  0.46999998093E+01 0.  1.
       -5    1    3    3    0  502 -0.11805432657E+04 -0.48553540189E+03  0.16403874720E+04  0.20785379903E+04  0.46999998093E+01 0. -1.
</event>
<event>
 5   0  0.3920487E-06  0.3157132E+04  0.7818609E-02  0.8200231E-01
       -2   -1    0    0    0  501  0.00000000000E+00  0.00000000000E+00  0.11961864007E+04  0.11961864007E+04  0.25500000920E-02 0. -1.
        2   -1    0    0  501    0  0.00000000000E+00  0.00000000000E+00 -0.20831794334E+04  0.20831794334E+04  0.25500000920E-02 0.  1.
    10030    2    1    2    0    0  0.00000000000E+00  0.00000000000E+00 -0.88699303270E+03  0.32793658341E+04  0.31571321850E+04 0.  0.
        4    1    3    3  502    0  0.14392398864E+04  0.30000109132E+03  0.15361397928E+03  0.14781782615E+04  0.12699999809E+01 0. -1.
       -4    1    3    3    0  502 -0.14392398864E+04 -0.30000109132E+03 -0.10406070120E+04  0.18011875726E+04  0.12699999809E+01 0.  1.
</event>
<event>
 5   0  0.1339825E-06  0.2094249E+04  0.7818609E-02  0.8563781E-01
       -1   -1    0    0    0  501  0.00000000000E+00  0.00000000000E+00  0.57168021400E+03  0.57168021402E+03  0.50400001928E-02 0. -1.
        1   -1    0    0  501    0  0.00000000000E+00  0.00000000000E+00 -0.19179771305E+04  0.19179771305E+04  0.50400001928E-02 0.  1.
    10030    2    1    2    0    0  0.00000000000E+00  0.00000000000E+00 -0.13462969165E+04  0.24896573445E+04  0.20942488643E+04 0.  0.
        3    1    3    3  502    0  0.86886248079E+03 -0.49829615520E+03 -0.10361698447E+04  0.14411346315E+04  0.10100000352E+00 0. -1.
       -3    1    3    3    0  502 -0.86886248079E+03  0.49829615520E+03 -0.31012707175E+03  0.10485227130E+04  0.10100000352E+00 0.  1.
</event>
<event>
 5   0  0.1339825E-06  0.3340604E+04  0.7818609E-02  0.8152640E-01
       -1   -1    0    0    0  501  0.00000000000E+00  0.00000000000E+00  0.15144350498E+04  0.15144350498E+04  0.50400001928E-02 0. -1.
        1   -1    0    0  501    0  0.00000000000E+00  0.00000000000E+00 -0.18422106718E+04  0.18422106718E+04  0.50400001928E-02 0.  1.
    10030    2    1    2    0    0  0.00000000000E+00  0.00000000000E+00 -0.32777562202E+03  0.33566457216E+04  0.33406037840E+04 0.  0.
        3    1    3    3  502    0 -0.35639568795E+03  0.23377882369E+03  0.14588716286E+04  0.15198608041E+04  0.10100000352E+00 0. -1.
       -3    1    3    3    0  502  0.35639568795E+03 -0.23377882369E+03 -0.17866472506E+04  0.18367849175E+04  0.10100000352E+00 0.  1.
</event>
<event>
 5   0  0.3896210E-06  0.3222073E+04  0.7818609E-02  0.8183012E-01
       -2   -1    0    0    0  501  0.00000000000E+00  0.00000000000E+00  0.12766748976E+04  0.12766748976E+04  0.25500000920E-02 0.  1.
        2   -1    0    0  501    0  0.00000000000E+00  0.00000000000E+00 -0.20329677447E+04  0.20329677447E+04  0.25500000920E-02 0. -1.
    10030    2    1    2    0    0  0.00000000000E+00  0.00000000000E+00 -0.75629284701E+03  0.33096426423E+04  0.32220731757E+04 0.  0.
        3    1    3    3  502    0  0.24431165352E+03  0.52329560608E+03 -0.19229867404E+04  0.20078357725E+04  0.10100000352E+00 0. -1.
       -3    1    3    3    0  502 -0.24431165352E+03 -0.52329560608E+03  0.11666938933E+04  0.13018068698E+04  0.10100000352E+00 0.  1.
</event>
<event>
 5   0  0.3920487E-06  0.3523310E+04  0.7818609E-02  0.8108288E-01
       -2   -1    0    0    0  501  0.00000000000E+00  0.00000000000E+00  0.16277916568E+04  0.16277916568E+04  0.25500000920E-02 0.  1.
        2   -1    0    0  501    0  0.00000000000E+00  0.00000000000E+00 -0.19065263897E+04  0.19065263897E+04  0.25500000920E-02 0. -1.
    10030    2    1    2    0    0  0.00000000000E+00  0.00000000000E+00 -0.27873473291E+03  0.35343180465E+04  0.35233096660E+04 0.  0.
        4    1    3    3  502    0 -0.72703963144E+03  0.14440295223E+04  0.56254616034E+03  0.17118024660E+04  0.12699999809E+01 0.  1.
       -4    1    3    3    0  502  0.72703963144E+03 -0.14440295223E+04 -0.84128089326E+03  0.18225155805E+04  0.12699999809E+01 0. -1.
</event>
<event>
 5   0  0.1391878E-06  0.3289191E+04  0.7818609E-02  0.8165651E-01
        1   -1    0    0  501    0  0.00000000000E+00  0.00000000000E+00  0.14358511353E+04  0.14358511354E+04  0.50400001928E-02 0.  1.
       -1   -1    0    0    0  501  0.00000000000E+00  0.00000000000E+00 -0.18836872188E+04  0.18836872188E+04  0.50400001928E-02 0. -1.
    10030    2    1    2    0    0  0.00000000000E+00  0.00000000000E+00 -0.44783608346E+03  0.33195383542E+04  0.32891910445E+04 0.  0.
        2    1    3    3  502    0 -0.93170134103E+03  0.12742241775E+04  0.24183723859E+03  0.15969345301E+04  0.25500000920E-02 0. -1.
       -2    1    3    3    0  502  0.93170134103E+03 -0.12742241775E+04 -0.68967332205E+03  0.17226038241E+04  0.25500000920E-02 0.  1.
</event>
<event>
 5   0  0.1405389E-06  0.3129325E+04  0.7818609E-02  0.8207736E-01
        1   -1    0    0  501    0  0.00000000000E+00  0.00000000000E+00  0.17465529709E+04  0.17465529709E+04  0.50400001928E-02 0. -1.
       -1   -1    0    0    0  501  0.00000000000E+00  0.00000000000E+00 -0.14017148713E+04  0.14017148713E+04  0.50400001928E-02 0.  1.
    10030    2    1    2    0    0  0.00000000000E+00  0.00000000000E+00  0.34483809953E+03  0.31482678422E+04  0.31293253412E+04 0.  0.
        1    1    3    3  502    0 -0.43069571735E+03  0.16723882840E+03 -0.13315217134E+04  0.14094033135E+04  0.50400001928E-02 0.  1.
       -1    1    3    3    0  502  0.43069571735E+03 -0.16723882840E+03  0.16763598130E+04  0.17388645287E+04  0.50400001928E-02 0. -1.
</event>
<event>
 5   0  0.1391878E-06  0.3293699E+04  0.7818609E-02  0.8164501E-01
       -1   -1    0    0    0  501  0.00000000000E+00  0.00000000000E+00  0.12490270565E+04  0.12490270565E+04  0.50400001928E-02 0.  1.
        1   -1    0    0  501    0  0.00000000000E+00  0.00000000000E+00 -0.21713801062E+04  0.21713801062E+04  0.50400001928E-02 0. -1.
    10030    2    1    2    0    0  0.00000000000E+00  0.00000000000E+00 -0.92235304973E+03  0.34204071627E+04  0.32936985305E+04 0.  0.
        2    1    3    3  502    0 -0.13482394409E+03 -0.16288220776E+04 -0.25122663491E+03  0.16535881224E+04  0.25500000920E-02 0.  1.
       -2    1    3    3    0  502  0.13482394409E+03  0.16288220776E+04 -0.67112641482E+03  0.17668190403E+04  0.25500000920E-02 0. -1.
</event>
<event>
 5   0  0.3920487E-06  0.3265908E+04  0.7818609E-02  0.8171625E-01
        2   -1    0    0  501    0  0.00000000000E+00  0.00000000000E+00  0.18494206488E+04  0.18494206488E+04  0.25500000920E-02 0. -1.
       -2   -1    0    0    0  501  0.00000000000E+00  0.00000000000E+00 -0.14418235949E+04  0.14418235949E+04  0.25500000920E-02 0.  1.
    10030    2    1    2    0    0  0.00000000000E+00  0.00000000000E+00  0.40759705390E+03  0.32912442436E+04  0.32659077318E+04 0.  0.
        4    1    3    3  502    0  0.67706362974E+03  0.13252370487E+04  0.88122497671E+03  0.17295165413E+04  0.12699999809E+01 0. -1.
       -4    1    3    3    0  502 -0.67706362974E+03 -0.13252370487E+04 -0.47362792282E+03  0.15617277023E+04  0.12699999809E+01 0.  1.
</event>
<event>
 5   0  0.3920487E-06  0.2958936E+04  0.7818609E-02  0.8255555E-01
        2   -1    0    0  501    0  0.00000000000E+00  0.00000000000E+00  0.14952180350E+04  0.14952180351E+04  0.25500000920E-02 0.  1.
       -2   -1    0    0    0  501  0.00000000000E+00  0.00000000000E+00 -0.14638837909E+04  0.14638837909E+04  0.25500000920E-02 0. -1.
    10030    2    1    2    0    0  0.00000000000E+00  0.00000000000E+00  0.31334244192E+02  0.29591018259E+04  0.29589359204E+04 0.  0.
        4    1    3    3  502    0  0.43409821424E+03 -0.13831546561E+04 -0.27975724431E+03  0.14764226329E+04  0.12699999809E+01 0. -1.
       -4    1    3    3    0  502 -0.43409821424E+03  0.13831546561E+04  0.31109148851E+03  0.14826791930E+04  0.12699999809E+01 0.  1.
</event>
<event>
 5   0  0.3812379E-06  0.3287624E+04  0.7818609E-02  0.8166051E-01
        2   -1    0    0  501    0  0.00000000000E+00  0.00000000000E+00  0.13601163634E+04  0.13601163634E+04  0.25500000920E-02 0.  1.
       -2   -1    0    0    0  501  0.00000000000E+00  0.00000000000E+00 -0.19866819978E+04  0.19866819978E+04  0.25500000920E-02 0. -1.
    10030    2    1    2    0    0  0.00000000000E+00  0.00000000000E+00 -0.62656563446E+03  0.33467983612E+04  0.32876244883E+04 0.  0.
        5    1    3    3  502    0 -0.26816722868E+02 -0.82768674048E+02 -0.19843295509E+04  0.19862415881E+04  0.46999998093E+01 0. -1.
       -5    1    3    3    0  502  0.26816722868E+02  0.82768674048E+02  0.13577639164E+04  0.13605567730E+04  0.46999998093E+01 0.  1.
</event>
<event>
 5   0  0.1339825E-06  0.3272161E+04  0.7818609E-02  0.8170015E-01
        1   -1    0    0  501    0  0.00000000000E+00  0.00000000000E+00  0.16643679679E+04  0.16643679679E+04  0.50400001928E-02 0. -1.
       -1   -1    0    0    0  501  0.00000000000E+00  0.00000000000E+00 -0.16082740321E+04  0.16082740321E+04  0.50400001928E-02 0.  1.
    10030    2    1    2    0    0  0.00000000000E+00  0.00000000000E+00  0.56093935840E+02  0.32726420000E+04  0.32721612323E+04 0.  0.
        3    1    3    3  502    0  0.11931808641E+04 -0.10815812123E+04 -0.26054573385E+03  0.16313744459E+04  0.10100000352E+00 0.  1.
       -3    1    3    3    0  502 -0.11931808641E+04  0.10815812123E+04  0.31663966969E+03  0.16412675540E+04  0.10100000352E+00 0. -1.
</event>
<event>
 5   0  0.1391878E-06  0.3377696E+04  0.7818609E-02  0.8143402E-01
       -1   -1    0    0    0  501  0.00000000000E+00  0.00000000000E+00  0.25627204926E+04  0.25627204926E+04  0.50400001928E-02 0. -1.
        1   -1    0    0  501    0  0.00000000000E+00  0.00000000000E+00 -0.11129605799E+04  0.11129605800E+04  0.50400001928E-02 0.  1.
    10030    2    1    2    0    0  0.00000000000E+00  0.00000000000E+00  0.14497599126E+04  0.36756810726E+04  0.33776955965E+04 0.  0.
        2    1    3    3  502    0 -0.81532726972E+03  0.14784791489E+04  0.68206794375E+03  0.18209546481E+04  0.25500000920E-02 0.  1.
       -2    1    3    3    0  502  0.81532726972E+03 -0.14784791489E+04  0.76769196889E+03  0.18547264245E+04  0.25500000920E-02 0. -1.
</event>
<event>
 5   0  0.4017247E-06  0.2514512E+04  0.7818609E-02  0.8397834E-01
       -2   -1    0    0    0  501  0.00000000000E+00  0.00000000000E+00  0.12135995157E+04  0.12135995157E+04  0.25500000920E-02 0.  1.
        2   -1    0    0  501    0  0.00000000000E+00  0.00000000000E+00 -0.13024832573E+04  0.13024832573E+04  0.25500000920E-02 0. -1.
    10030    2    1    2    0    0  0.00000000000E+00  0.00000000000E+00 -0.88883741555E+02  0.25160827730E+04  0.25145123187E+04 0.  0.
        1    1    3    3  502    0 -0.63421777077E+03 -0.25426229572E+03 -0.11004737191E+04  0.12953470200E+04  0.50400001928E-02 0. -1.
       -1    1    3    3    0  502  0.63421777077E+03  0.25426229572E+03  0.10115899776E+04  0.12207357529E+04  0.50400001928E-02 0.  1.
</event>
<event>
 5   0  0.1282578E-06  0.3249105E+04  0.7818609E-02  0.8175968E-01
       -1   -1    0    0    0  501  0.00000000000E+00  0.00000000000E+00  0.21377562676E+04  0.21377562676E+04  0.50400001928E-02 0.  1.
        1   -1    0    0  501    0  0.00000000000E+00  0.00000000000E+00 -0.12345519557E+04  0.12345519557E+04  0.50400001928E-02 0. -1.
    10030    2    1    2    0    0  0.00000000000E+00  0.00000000000E+00  0.90320431195E+03  0.33723082233E+04  0.32491052189E+04 0.  0.
        4    1    3    3  502    0  0.15049263889E+04  0.32119356884E+03  0.99211869547E+03  0.18309204962E+04  0.12699999809E+01 0. -1.
       -4    1    3    3    0  502 -0.15049263889E+04 -0.32119356884E+03 -0.88914383520E+02  0.15413877271E+04  0.12699999809E+01 0.  1.
</event>
<event>
 5   0  0.3920487E-06  0.3406634E+04  0.7818609E-02  0.8136280E-01
        2   -1    0    0  501    0  0.00000000000E+00  0.00000000000E+00  0.21174184408E+04  0.21174184408E+04  0.25500000920E-02 0. -1.
       -2   -1    0    0    0  501  0.00000000000E+00  0.00000000000E+00 -0.13702005931E+04  0.13702005931E+04  0.25500000920E-02 0.  1.
    10030    2    1    2    0    0  0.00000000000E+00  0.00000000000E+00  0.74721784772E+03  0.34876190340E+04  0.34066335309E+04 0.  0.
        4    1    3    3  502    0  0.94254682804E+03  0.12636640620E+04 -0.28674046310E+03  0.16023305186E+04  0.12699999809E+01 0. -1.
       -4    1    3    3    0  502 -0.94254682804E+03 -0.12636640620E+04  0.10339583108E+04  0.18852885154E+04  0.12699999809E+01 0.  1.
</event>
<event>
 5   0  0.3671997E-06  0.2512171E+04  0.7818609E-02  0.8398662E-01
       -2   -1    0    0    0  501  0.00000000000E+00  0.00000000000E+00  0.83335129273E+03  0.83335129273E+03  0.25500000920E-02 0. -1.
        2   -1    0    0  501    0  0.00000000000E+00  0.00000000000E+00 -0.18932597547E+04  0.18932597547E+04  0.25500000920E-02 0.  1.
    10030    2    1    2    0    0  0.00000000000E+00  0.00000000000E+00 -0.10599084620E+04  0.27266110474E+04  0.25121707458E+04 0.  0.
        2    1    3    3  502    0  0.72410433616E+03  0.42527894122E+03 -0.15438002120E+04  0.17574152503E+04  0.25500000920E-02 0.  1.
       -2    1    3    3    0  502 -0.72410433616E+03 -0.42527894122E+03  0.48389174999E+03  0.96919579715E+03  0.25500000920E-02 0. -1.
</event>
<event>
 5   0  0.1282578E-06  0.3314062E+04  0.7818609E-02  0.8159326E-01
        1   -1    0    0  501    0  0.00000000000E+00  0.00000000000E+00  0.93576675714E+03  0.93576675715E+03  0.50400001928E-02 0.  1.
       -1   -1    0    0    0  501  0.00000000000E+00  0.00000000000E+00 -0.29342269809E+04  0.29342269809E+04  0.50400001928E-02 0. -1.
    10030    2    1    2    0    0  0.00000000000E+00  0.00000000000E+00 -0.19984602238E+04  0.38699937381E+04  0.33140622002E+04 0.  0.
        4    1    3    3  502    0  0.60549899708E+03  0.31755614245E+03 -0.27618274489E+04  0.28452000650E+04  0.12699999809E+01 0. -1.
       -4    1    3    3    0  502 -0.60549899708E+03 -0.31755614245E+03  0.76336722516E+03  0.10247936731E+04  0.12699999809E+01 0.  1.
</event>
<event>
 5   0  0.3920487E-06  0.2637391E+04  0.7818609E-02  0.8355610E-01
        2   -1    0    0  501    0  0.00000000000E+00  0.00000000000E+00  0.10491210394E+04  0.10491210394E+04  0.25500000920E-02 0.  1.
       -2   -1    0    0    0  501  0.00000000000E+00  0.00000000000E+00 -0.16575382094E+04  0.16575382094E+04  0.25500000920E-02 0. -1.
    10030    2    1    2    0    0  0.00000000000E+00  0.00000000000E+00 -0.60841717001E+03  0.27066592487E+04  0.26373912937E+04 0.  0.
        4    1    3    3  502    0  0.85626018766E+03  0.11768717294E+03  0.71790319581E+03  0.11235739366E+04  0.12699999809E+01 0.  1.
       -4    1    3    3    0  502 -0.85626018766E+03 -0.11768717294E+03 -0.13263203658E+04  0.15830853121E+04  0.12699999809E+01 0. -1.
</event>
<event>
 5   0  0.1339825E-06  0.3379598E+04  0.7818609E-02  0.8142932E-01
        1   -1    0    0  501    0  0.00000000000E+00  0.00000000000E+00  0.18208584492E+04  0.18208584492E+04  0.50400001928E-02 0.  1.
       -1   -1    0    0    0  501  0.00000000000E+00  0.00000000000E+00 -0.15681724030E+04  0.15681724030E+04  0.50400001928E-02 0. -1.
    10030    2    1    2    0    0  0.00000000000E+00  0.00000000000E+00  0.25268604623E+03  0.33890308522E+04  0.33795975913E+04 0.  0.
        3    1    3    3  502    0 -0.15921649529E+04 -0.53966889464E+03 -0.44979410534E+02  0.16817416302E+04  0.10100000352E+00 0. -1.
       -3    1    3    3    0  502  0.15921649529E+04  0.53966889464E+03  0.29766545677E+03  0.17072892220E+04  0.10100000352E+00 0.  1.
</event>
<event>
 5   0  0.3812379E-06  0.3300204E+04  0.7818609E-02  0.8162843E-01
        2   -1    0    0  501    0  0.00000000000E+00  0.00000000000E+00  0.20705581668E+04  0.20705581668E+04  0.25500000920E-02 0.  1.
       -2   -1    0    0    0  501  0.00000000000E+00  0.00000000000E+00 -0.13150254951E+04  0.13150254951E+04  0.25500000920E-02 0. -1.
    10030    2    1    2    0    0  0.00000000000E+00  0.00000000000E+00  0.75553267167E+03  0.33855836619E+04  0.33002041018E+04 0.  0.
        5    1    3    3  502    0  0.13472995554E+04  0.85116484923E+03  0.81675881288E+03  0.17907581470E+04  0.46999998093E+01 0. -1.
       -5    1    3    3    0  502 -0.13472995554E+04 -0.85116484923E+03 -0.61226141207E+02  0.15948255149E+04  0.46999998093E+01 0.  1.
</event>
<event>
 5   0  0.3812379E-06  0.3299931E+04  0.7818609E-02  0.8162913E-01
        2   -1    0    0  501    0  0.00000000000E+00  0.00000000000E+00  0.23384380648E+04  0.23384380648E+04  0.25500000920E-02 0. -1.
       -2   -1    0    0    0  501  0.00000000000E+00  0.00000000000E+00 -0.11641902192E+04  0.11641902192E+04  0.25500000920E-02 0.  1.
    10030    2    1    2    0    0  0.00000000000E+00  0.00000000000E+00  0.11742478456E+04  0.35026282841E+04  0.32999313468E+04 0.  0.
        5    1    3    3  502    0  0.10642869146E+04  0.27524440142E+03 -0.71885908775E+03  0.13134864275E+04  0.46999998093E+01 0.  1.
       -5    1    3    3    0  502 -0.10642869146E+04 -0.27524440142E+03  0.18931069333E+04  0.21891418566E+04  0.46999998093E+01 0. -1.
</event>
<event>
 5   0  0.4017247E-06  0.3348170E+04  0.7818609E-02  0.8150746E-01
       -2   -1    0    0    0  501  0.00000000000E+00  0.00000000000E+00  0.12953454488E+04  0.12953454488E+04  0.25500000920E-02 0. -1.
        2   -1    0    0  501    0  0.00000000000E+00  0.00000000000E+00 -0.21635623167E+04  0.21635623167E+04  0.25500000920E-02 0.  1.
    10030    2    1    2    0    0  0.00000000000E+00  0.00000000000E+00 -0.86821686794E+03  0.34589077655E+04  0.33481700077E+04 0.  0.
        1    1    3    3  502    0 -0.16099587217E+04 -0.37350884468E+03 -0.15867324944E+03  0.16603171814E+04  0.50400001928E-02 0.  1.
       -1    1    3    3    0  502  0.16099587217E+04  0.37350884468E+03 -0.70954361850E+03  0.17985905841E+04  0.50400001928E-02 0. -1.
</event>
<event>
 5   0  0.1282578E-06  0.3427179E+04  0.7818609E-02  0.8131268E-01
       -1   -1    0    0    0  501  0.00000000000E+00  0.00000000000E+00  0.13482064995E+04  0.13482064995E+04  0.50400001928E-02 0.  1.
        1   -1    0    0  501    0  0.00000000000E+00  0.00000000000E+00 -0.21779968616E+04  0.21779968616E+04  0.50400001928E-02 0. -1.
    10030    2    1    2    0    0  0.00000000000E+00  0.00000000000E+00 -0.82979036212E+03  0.35262033612E+04  0.34271793211E+04 0.  0.
        4    1    3    3  502    0 -0.57882832402E+03 -0.13187897477E+04 -0.13702380006E+04  0.19879140873E+04  0.12699999809E+01 0. -1.
       -4    1    3    3    0  502  0.57882832402E+03  0.13187897477E+04  0.54044763846E+03  0.15382892739E+04  0.12699999809E+01 0.  1.
</event>
<event>
 5   0  0.1339825E-06  0.3408107E+04  0.7818609E-02  0.8135920E-01
       -1   -1    0    0    0  501  0.00000000000E+00  0.00000000000E+00  0.14091260600E+04  0.14091260600E+04  0.50400001928E-02 0. -1.
        1   -1    0    0  501    0  0.00000000000E+00  0.00000000000E+00 -0.20607084606E+04  0.20607084606E+04  0.50400001928E-02 0.  1.
    10030    2    1    2    0    0  0.00000000000E+00  0.00000000000E+00 -0.65158240062E+03  0.34698345206E+04  0.34081068022E+04 0.  0.
        3    1    3    3  502    0 -0.59966777566E+03  0.90016257808E+03  0.10148361522E+04  0.14831677364E+04  0.10100000352E+00 0. -1.
       -3    1    3    3    0  502  0.59966777566E+03 -0.90016257808E+03 -0.16664185528E+04  0.19866667842E+04  0.10100000352E+00 0.  1.
</event>
<event>
 5   0  0.1339825E-06  0.3231651E+04  0.7818609E-02  0.8180508E-01
       -1   -1    0    0    0  501  0.00000000000E+00  0.00000000000E+00  0.12787503588E+04  0.12787503588E+04  0.50400001928E-02 0. -1.
        1   -1    0    0  501    0  0.00000000000E+00  0.00000000000E+00 -0.20417525723E+04  0.20417525723E+04  0.50400001928E-02 0.  1.
    10030    2    1    2    0    0  0.00000000000E+00  0.00000000000E+00 -0.76300221351E+03  0.33205029311E+04  0.32316508688E+04 0.  0.
        3    1    3    3  502    0 -0.11779207349E+03  0.20190646295E+03 -0.20242876951E+04  0.20377394031E+04  0.10100000352E+00 0.  1.
       -3    1    3    3    0  502  0.11779207349E+03 -0.20190646295E+03  0.12612854816E+04  0.12827635280E+04  0.10100000352E+00 0. -1.
</event>
<event>
 5   0  0.3920487E-06  0.2939013E+04  0.7818609E-02  0.8261364E-01
       -2   -1    0    0    0  501  0.00000000000E+00  0.00000000000E+00  0.10916628963E+04  0.10916628963E+04  0.25500000920E-02 0. -1.
        2   -1    0    0  501    0  0.00000000000E+00  0.00000000000E+00 -0.19781282346E+04  0.19781282346E+04  0.25500000920E-02 0.  1.
    10030    2    1    2    0    0  0.00000000000E+00  0.00000000000E+00 -0.88646533825E+03  0.30697911309E+04  0.29390128941E+04 0.  0.
        4    1    3    3  502    0 -0.13616474329E+04 -0.51257403508E+03 -0.22757062277E+03  0.14726187131E+04  0.12699999809E+01 0. -1.
       -4    1    3    3    0  502  0.13616474329E+04  0.51257403508E+03 -0.65889471549E+03  0.15971724178E+04  0.12699999809E+01 0.  1.
</event>
<event>
 5   0  0.1352708E-06  0.3392750E+04  0.7818609E-02  0.8139688E-01
        1   -1    0    0  501    0  0.00000000000E+00  0.00000000000E+00  0.26383119843E+04  0.26383119843E+04  0.50400001928E-02 0. -1.
       -1   -1    0    0    0  501  0.00000000000E+00  0.00000000000E+00 -0.10907305699E+04  0.10907305699E+04  0.50400001928E-02 0.  1.
    10030    2    1    2    0    0  0.00000000000E+00  0.00000000000E+00  0.15475814144E+04  0.37290425542E+04  0.33927496425E+04 0.  0.
        5    1    3    3  502    0 -0.13538237548E+04  0.93595846559E+02 -0.34497550627E+03  0.14002246718E+04  0.46999998093E+01 0.  1.
       -5    1    3    3    0  502  0.13538237548E+04 -0.93595846559E+02  0.18925569207E+04  0.23288178824E+04  0.46999998093E+01 0. -1.
</event>
<event>
 5   0  0.1282578E-06  0.3267700E+04  0.7818609E-02  0.8171163E-01
       -1   -1    0    0    0  501  0.00000000000E+00  0.00000000000E+00  0.10310225793E+04  0.10310225793E+04  0.50400001928E-02 0. -1.
        1   -1    0    0  501    0  0.00000000000E+00  0.00000000000E+00 -0.25891434619E+04  0.25891434619E+04  0.50400001928E-02 0.  1.
    10030    2    1    2    0    0  0.00000000000E+00  0.00000000000E+00 -0.15581208826E+04  0.36201660412E+04  0.32676997232E+04 0.  0.
        4    1    3    3  502    0 -0.76637776487E+00  0.93809424899E+03 -0.22610502072E+04  0.24479319965E+04  0.12699999809E+01 0.  1.
       -4    1    3    3    0  502  0.76637776487E+00 -0.93809424899E+03  0.70292932457E+03  0.11722340447E+04  0.12699999809E+01 0. -1.
</event>
<event>
 5   0  0.1391878E-06  0.3365217E+04  0.7818609E-02  0.8146496E-01
       -1   -1    0    0    0  501  0.00000000000E+00  0.00000000000E+00  0.10060313814E+04  0.10060313814E+04  0.50400001928E-02 0. -1.
        1   -1    0    0  501    0  0.00000000000E+00  0.00000000000E+00 -0.28141985959E+04  0.28141985960E+04  0.50400001928E-02 0.  1.
    10030    2    1    2    0    0  0.00000000000E+00  0.00000000000E+00 -0.18081672146E+04  0.38202299773E+04  0.33652174378E+04 0.  0.
        2    1    3    3  502    0 -0.15420343864E+04 -0.32216476415E+03 -0.23295249619E+03  0.15924594342E+04  0.25500000920E-02 0. -1.
       -2    1    3    3    0  502  0.15420343864E+04  0.32216476415E+03 -0.15752147184E+04  0.22277705432E+04  0.25500000920E-02 0.  1.
</event>
<event>
 5   0  0.3896210E-06  0.3315855E+04  0.7818609E-02  0.8158873E-01
        2   -1    0    0  501    0  0.00000000000E+00  0.00000000000E+00  0.18402959214E+04  0.18402959214E+04  0.25500000920E-02 0.  1.
       -2   -1    0    0    0  501  0.00000000000E+00  0.00000000000E+00 -0.14936314397E+04  0.14936314397E+04  0.25500000920E-02 0. -1.
    10030    2    1    2    0    0  0.00000000000E+00  0.00000000000E+00  0.34666448169E+03  0.33339273610E+04  0.33158551515E+04 0.  0.
        3    1    3    3  502    0  0.32001701961E+02  0.12852861520E+04  0.12258130576E+04  0.17764014928E+04  0.10100000352E+00 0.  1.
       -3    1    3    3    0  502 -0.32001701961E+02 -0.12852861520E+04 -0.87914857593E+03  0.15575258682E+04  0.10100000352E+00 0. -1.
</event>
<event>
 5   0  0.3920487E-06  0.3016165E+04  0.7818609E-02  0.8239130E-01
        2   -1    0    0  501    0  0.00000000000E+00  0.00000000000E+00  0.94574503845E+03  0.94574503846E+03  0.25500000920E-02 0.  1.
       -2   -1    0    0    0  501  0.00000000000E+00  0.00000000000E+00 -0.24047842623E+04  0.24047842623E+04  0.25500000920E-02 0. -1.
    10030    2    1    2    0    0  0.00000000000E+00  0.00000000000E+00 -0.14590392239E+04  0.33505293008E+04  0.30161649721E+04 0.  0.
        4    1    3    3  502    0 -0.10890923565E+04 -0.25193099419E+03  0.39498408866E+03  0.11855823169E+04  0.12699999809E+01 0.  1.
       -4    1    3    3    0  502  0.10890923565E+04  0.25193099419E+03 -0.18540233126E+04  0.21649469839E+04  0.12699999809E+01 0. -1.
</event>
<event>
 5   0  0.4017247E-06  0.3308705E+04  0.7818609E-02  0.8160684E-01
       -2   -1    0    0    0  501  0.00000000000E+00  0.00000000000E+00  0.15447945924E+04  0.15447945924E+04  0.25500000920E-02 0.  1.
        2   -1    0    0  501    0  0.00000000000E+00  0.00000000000E+00 -0.17716802508E+04  0.17716802508E+04  0.25500000920E-02 0. -1.
    10030    2    1    2    0    0  0.00000000000E+00  0.00000000000E+00 -0.22688565837E+03  0.33164748432E+04  0.33087049254E+04 0.  0.
        1    1    3    3  502    0 -0.68416203109E+03 -0.57063865290E+02 -0.16221512457E+04  0.17614507184E+04  0.50400001928E-02 0. -1.
       -1    1    3    3    0  502  0.68416203109E+03  0.57063865290E+02  0.13952655873E+04  0.15550241248E+04  0.50400001928E-02 0.  1.
</event>
<event>
 5   0  0.3896210E-06  0.3217346E+04  0.7818609E-02  0.8184251E-01
       -2   -1    0    0    0  501  0.00000000000E+00  0.00000000000E+00  0.12727391604E+04  0.12727391604E+04  0.25500000920E-02 0.  1.
        2   -1    0    0  501    0  0.00000000000E+00  0.00000000000E+00 -0.20332745908E+04  0.20332745908E+04  0.25500000920E-02 0. -1.
    10030    2    1    2    0    0  0.00000000000E+00  0.00000000000E+00 -0.76053543038E+03  0.33060137512E+04  0.32173456112E+04 0.  0.
        3    1    3    3  502    0 -0.15317754749E+03 -0.19936100585E+02 -0.20256362479E+04  0.20315174201E+04  0.10100000352E+00 0. -1.
       -3    1    3    3    0  502  0.15317754749E+03  0.19936100585E+02  0.12651008175E+04  0.12744963311E+04  0.10100000352E+00 0.  1.
</event>
<event>
 5   0  0.1352708E-06  0.3306376E+04  0.7818609E-02  0.8161275E-01
       -1   -1    0    0    0  501  0.00000000000E+00  0.00000000000E+00  0.12122403093E+04  0.12122403093E+04  0.50400001928E-02 0.  1.
        1   -1    0    0  501    0  0.00000000000E+00  0.00000000000E+00 -0.22545291907E+04  0.22545291907E+04  0.50400001928E-02 0. -1.
    10030    2    1    2    0    0  0.00000000000E+00  0.00000000000E+00 -0.10422888814E+04  0.34667695000E+04  0.33063763630E+04 0.  0.
        5    1    3    3  502    0 -0.88576600519E+03 -0.39428343852E+03 -0.19251181534E+04  0.21554913223E+04  0.46999998093E+01 0. -1.
       -5    1    3    3    0  502  0.88576600519E+03  0.39428343852E+03  0.88282927203E+03  0.13112781777E+04  0.46999998093E+01 0.  1.
</event>
<event>
 5   0  0.1282578E-06  0.3303817E+04  0.7818609E-02  0.8161925E-01
       -1   -1    0    0    0  501  0.00000000000E+00  0.00000000000E+00  0.13724542600E+04  0.13724542600E+04  0.50400001928E-02 0.  1.
        1   -1    0    0  501    0  0.00000000000E+00  0.00000000000E+00 -0.19882643875E+04  0.19882643875E+04  0.50400001928E-02 0. -1.
    10030    2    1    2    0    0  0.00000000000E+00  0.00000000000E+00 -0.61581012743E+03  0.33607186475E+04  0.33038171430E+04 0.  0.
        4    1    3    3  502    0  0.63355319147E+03 -0.15253202903E+04 -0.27897796352E+03  0.16750587904E+04  0.12699999809E+01 0.  1.
       -4    1    3    3    0  502 -0.63355319147E+03  0.15253202903E+04 -0.33683216390E+03  0.16856598571E+04  0.12699999809E+01 0. -1.
</event>
<event>
 5   0  0.1352708E-06  0.3266492E+04  0.7818609E-02  0.8171474E-01
        1   -1    0    0  501    0  0.00000000000E+00  0.00000000000E+00  0.17756618621E+04  0.17756618621E+04  0.50400001928E-02 0.  1.
       -1   -1    0    0    0  501  0.00000000000E+00  0.00000000000E+00 -0.15022520663E+04  0.15022520663E+04  0.50400001928E-02 0. -1.
    10030    2    1    2    0    0  0.00000000000E+00  0.00000000000E+00  0.27340979579E+03  0.32779139285E+04  0.32664915132E+04 0.  0.
        5    1    3    3  502    0  0.81273237471E+03 -0.14071131689E+04 -0.28089415735E+02  0.16252115211E+04  0.46999998093E+01 0.  1.
       -5    1    3    3    0  502 -0.81273237471E+03  0.14071131689E+04  0.30149921153E+03  0.16527024074E+04  0.46999998093E+01 0. -1.
</event>
<event>
 5   0  0.1405389E-06  0.3331637E+04  0.7818609E-02  0.8154892E-01
        1   -1    0    0  501    0  0.00000000000E+00  0.00000000000E+00  0.27455114392E+04  0.27455114392E+04  0.50400001928E-02 0.  1.
       -1   -1    0    0    0  501  0.00000000000E+00  0.00000000000E+00 -0.10107231511E+04  0.10107231511E+04  0.50400001928E-02 0. -1.
    10030    2    1    2    0    0  0.00000000000E+00  0.00000000000E+00  0.17347882882E+04  0.37562345903E+04  0.33316374192E+04 0.  0.
        1    1    3    3  502    0 -0.32597639974E+03  0.16198110620E+04  0.62848377843E+03  0.17677783655E+04  0.50400001928E-02 0. -1.
       -1    1    3    3    0  502  0.32597639974E+03 -0.16198110620E+04  0.11063045097E+04  0.19884562248E+04  0.50400001928E-02 0.  1.
</event>
<event>
 5   0  0.3920487E-06  0.3303068E+04  0.7818609E-02  0.8162115E-01
        2   -1    0    0  501    0  0.00000000000E+00  0.00000000000E+00  0.16279018662E+04  0.16279018662E+04  0.25500000920E-02 0. -1.
       -2   -1    0    0    0  501  0.00000000000E+00  0.00000000000E+00 -0.16755088698E+04  0.16755088698E+04  0.25500000920E-02 0.  1.
    10030    2    1    2    0    0  0.00000000000E+00  0.00000000000E+00 -0.47607003603E+02  0.33034107360E+04  0.33030676747E+04 0.  0.
        4    1    3    3  502    0  0.32096934209E+03  0.45650607956E+03 -0.15783597722E+04  0.16741088085E+04  0.12699999809E+01 0.  1.
       -4    1    3    3    0  502 -0.32096934209E+03 -0.45650607956E+03  0.15307527686E+04  0.16293019275E+04  0.12699999809E+01 0. -1.
</event>
<event>
 5   0  0.4017247E-06  0.3381448E+04  0.7818609E-02  0.8142475E-01
        2   -1    0    0  501    0  0.00000000000E+00  0.00000000000E+00  0.14357309421E+04  0.14357309421E+04  0.25500000920E-02 0. -1.
       -2   -1    0    0    0  501  0.00000000000E+00  0.00000000000E+00 -0.19910047304E+04  0.19910047304E+04  0.25500000920E-02 0.  1.
    10030    2    1    2    0    0  0.00000000000E+00  0.00000000000E+00 -0.55527378828E+03  0.34267356725E+04  0.33814476765E+04 0.  0.
        1    1    3    3  502    0 -0.24598083975E+03 -0.49499261059E+03 -0.18968547485E+04  0.19757485151E+04  0.50400001928E-02 0.  1.
       -1    1    3    3    0  502  0.24598083975E+03  0.49499261059E+03  0.13415809602E+04  0.14509871574E+04  0.50400001928E-02 0. -1.
</event>
<event>
 5   0  0.3671997E-06  0.3265699E+04  0.7818609E-02  0.8171679E-01
        2   -1    0    0  501    0  0.00000000000E+00  0.00000000000E+00  0.13408274594E+04  0.13408274594E+04  0.25500000920E-02 0. -1.
       -2   -1    0    0    0  501  0.00000000000E+00  0.00000000000E+00 -0.19884717974E+04  0.19884717974E+04  0.25500000920E-02 0.  1.
    10030    2    1    2    0    0  0.00000000000E+00  0.00000000000E+00 -0.64764433804E+03  0.33292992568E+04  0.32656990604E+04 0.  0.
        2    1    3    3  502    0  0.46303163561E+03 -0.59641713308E+03  0.11521603382E+04  0.13775286339E+04  0.25500000920E-02 0. -1.
       -2    1    3    3    0  502 -0.46303163561E+03  0.59641713308E+03 -0.17998046762E+04  0.19517706230E+04  0.25500000920E-02 0.  1.
</event>
<event>
 5   0  0.1339825E-06  0.3342586E+04  0.7818609E-02  0.8152143E-01
        1   -1    0    0  501    0  0.00000000000E+00  0.00000000000E+00  0.19033591477E+04  0.19033591477E+04  0.50400001928E-02 0. -1.
       -1   -1    0    0    0  501  0.00000000000E+00  0.00000000000E+00 -0.14675214571E+04  0.14675214571E+04  0.50400001928E-02 0.  1.
    10030    2    1    2    0    0  0.00000000000E+00  0.00000000000E+00  0.43583769066E+03  0.33708806048E+04  0.33425860586E+04 0.  0.
        3    1    3    3  502    0  0.26125470118E+03  0.97915694334E+03 -0.11223222520E+04  0.15121539558E+04  0.10100000352E+00 0.  1.
       -3    1    3    3    0  502 -0.26125470118E+03 -0.97915694334E+03  0.15581599427E+04  0.18587266490E+04  0.10100000352E+00 0. -1.
</event>
<event>
 5   0  0.3896210E-06  0.3142112E+04  0.7818609E-02  0.8204275E-01
        2   -1    0    0  501    0  0.00000000000E+00  0.00000000000E+00  0.17802246360E+04  0.17802246360E+04  0.25500000920E-02 0.  1.
       -2   -1    0    0    0  501  0.00000000000E+00  0.00000000000E+00 -0.13864634426E+04  0.13864634427E+04  0.25500000920E-02 0. -1.
    10030    2    1    2    0    0  0.00000000000E+00  0.00000000000E+00  0.39376119338E+03  0.31666880787E+04  0.31421116324E+04 0.  0.
        3    1    3    3  502    0 -0.12150559612E+03 -0.91390325467E+03 -0.10851673976E+04  0.14239280389E+04  0.10100000352E+00 0. -1.
       -3    1    3    3    0  502  0.12150559612E+03  0.91390325467E+03  0.14789285910E+04  0.17427600398E+04  0.10100000352E+00 0.  1.
</event>
<event>
 5   0  0.3812379E-06  0.3230566E+04  0.7818609E-02  0.8180791E-01
       -2   -1    0    0    0  501  0.00000000000E+00  0.00000000000E+00  0.16766102788E+04  0.16766102788E+04  0.25500000920E-02 0.  1.
        2   -1    0    0  501    0  0.00000000000E+00  0.00000000000E+00 -0.15561993267E+04  0.15561993267E+04  0.25500000920E-02 0. -1.
    10030    2    1    2    0    0  0.00000000000E+00  0.00000000000E+00  0.12041095213E+03  0.32328096056E+04  0.32305663820E+04 0.  0.
        5    1    3    3  502    0 -0.67622550714E+03 -0.25001828698E+03  0.15066598226E+04  0.16702802134E+04  0.46999998093E+01 0.  1.
       -5    1    3    3    0  502  0.67622550714E+03  0.25001828698E+03 -0.13862488705E+04  0.15625293921E+04  0.46999998093E+01 0. -1.
</event>
<event>
 5   0  0.4017247E-06  0.3420760E+04  0.7818609E-02  0.8132830E-01
       -2   -1    0    0    0  501  0.00000000000E+00  0.00000000000E+00  0.13762597098E+04  0.13762597098E+04  0.25500000920E-02 0.  1.
        2   -1    0    0  501    0  0.00000000000E+00  0.00000000000E+00 -0.21256162820E+04  0.21256162820E+04  0.25500000920E-02 0. -1.
    10030    2    1    2    0    0  0.00000000000E+00  0.00000000000E+00 -0.74935657221E+03  0.35018759918E+04  0.34207601772E+04 0.  0.
        1    1    3    3  502    0  0.14710091104E+04 -0.31128746477E+02 -0.12674610603E+04  0.19419820651E+04  0.50400001928E-02 0.  1.
       -1    1    3    3    0  502 -0.14710091104E+04  0.31128746477E+02  0.51810448811E+03  0.15598939267E+04  0.50400001928E-02 0. -1.
</event>
<event>
 5   0  0.1339825E-06  0.3102591E+04  0.7818609E-02  0.8215027E-01
        1   -1    0    0  501    0  0.00000000000E+00  0.00000000000E+00  0.20728327149E+04  0.20728327149E+04  0.50400001928E-02 0. -1.
       -1   -1    0    0    0  501  0.00000000000E+00  0.00000000000E+00 -0.11609804396E+04  0.11609804396E+04  0.50400001928E-02 0.  1.
    10030    2    1    2    0    0  0.00000000000E+00  0.00000000000E+00  0.91185227531E+03  0.32338131545E+04  0.31025913276E+04 0.  0.
        3    1    3    3  502    0  0.76484835637E+02  0.15489312403E+04  0.49602818482E+03  0.16282143248E+04  0.10100000352E+00 0.  1.
       -3    1    3    3    0  502 -0.76484835637E+02 -0.15489312403E+04  0.41582409049E+03  0.16055988296E+04  0.10100000352E+00 0. -1.
</event>
<event>
 5   0  0.1282578E-06  0.3359760E+04  0.7818609E-02  0.8147854E-01
       -1   -1    0    0    0  501  0.00000000000E+00  0.00000000000E+00  0.12584365935E+04  0.12584365935E+04  0.50400001928E-02 0. -1.
        1   -1    0    0  501    0  0.00000000000E+00  0.00000000000E+00 -0.22424624970E+04  0.22424624970E+04  0.50400001928E-02 0.  1.
    10030    2    1    2    0    0  0.00000000000E+00  0.00000000000E+00 -0.98402590356E+03  0.35008990905E+04  0.33597600306E+04 0.  0.
        4    1    3    3  502    0 -0.88185742531E+03  0.53204706400E+03 -0.18748839577E+04  0.21391442365E+04  0.12699999809E+01 0.  1.
       -4    1    3    3    0  502  0.88185742531E+03 -0.53204706400E+03  0.89085805412E+03  0.13617548540E+04  0.12699999809E+01 0. -1.
</event>
<event>
 5   0  0.1339825E-06  0.3315144E+04  0.7818609E-02  0.8159053E-01
       -1   -1    0    0    0  501  0.00000000000E+00  0.00000000000E+00  0.13615535181E+04  0.13615535181E+04  0.50400001928E-02 0.  1.
        1   -1    0    0  501    0  0.00000000000E+00  0.00000000000E+00 -0.20179488210E+04  0.20179488210E+04  0.50400001928E-02 0. -1.
    10030    2    1    2    0    0  0.00000000000E+00  0.00000000000E+00 -0.65639530286E+03  0.33795023391E+04  0.33151442301E+04 0.  0.
        3    1    3    3  502    0 -0.11666355873E+04 -0.94189133933E+03  0.39216589548E+03  0.15498361166E+04  0.10100000352E+00 0. -1.
       -3    1    3    3    0  502  0.11666355873E+04  0.94189133933E+03 -0.10485611983E+04  0.18296662224E+04  0.10100000352E+00 0.  1.
</event>
<event>
 5   0  0.3920487E-06  0.3108587E+04  0.7818609E-02  0.8213385E-01
        2   -1    0    0  501    0  0.00000000000E+00  0.00000000000E+00  0.15853896003E+04  0.15853896003E+04  0.25500000920E-02 0.  1.
       -2   -1    0    0    0  501  0.00000000000E+00  0.00000000000E+00 -0.15238068338E+04  0.15238068338E+04  0.25500000920E-02 0. -1.
    10030    2    1    2    0    0  0.00000000000E+00  0.00000000000E+00  0.61582766506E+02  0.31091964341E+04  0.31085865001E+04 0.  0.
        4    1    3    3  502    0 -0.12976479691E+04  0.82414943908E+03 -0.19884753381E+03  0.15500498393E+04  0.12699999809E+01 0. -1.
       -4    1    3    3    0  502  0.12976479691E+04 -0.82414943908E+03  0.26043030032E+03  0.15591465948E+04  0.12699999809E+01 0.  1.
</event>
<event>
 5   0  0.3812379E-06  0.3034586E+04  0.7818609E-02  0.8233923E-01
        2   -1    0    0  501    0  0.00000000000E+00  0.00000000000E+00  0.24902456915E+04  0.24902456915E+04  0.25500000920E-02 0.  1.
       -2   -1    0    0    0  501  0.00000000000E+00  0.00000000000E+00 -0.92447800717E+03  0.92447800717E+03  0.25500000920E-02 0. -1.
    10030    2    1    2    0    0  0.00000000000E+00  0.00000000000E+00  0.15657676843E+04  0.34147236986E+04  0.30345855560E+04 0.  0.
        5    1    3    3  502    0  0.72681074546E+03 -0.11440076787E+04  0.15503366756E+04  0.20592652394E+04  0.46999998093E+01 0.  1.
       -5    1    3    3    0  502 -0.72681074546E+03  0.11440076787E+04  0.15431008705E+02  0.13554584592E+04  0.46999998093E+01 0. -1.
</event>
<event>
 5   0  0.3671997E-06  0.3322847E+04  0.7818609E-02  0.8157106E-01
       -2   -1    0    0    0  501  0.00000000000E+00  0.00000000000E+00  0.12716082819E+04  0.12716082819E+04  0.25500000920E-02 0. -1.
        2   -1    0    0  501    0  0.00000000000E+00  0.00000000000E+00 -0.21707373537E+04  0.21707373537E+04  0.25500000920E-02 0.  1.
    10030    2    1    2    0    0  0.00000000000E+00  0.00000000000E+00 -0.89912907189E+03  0.34423456356E+04  0.33228467294E+04 0.  0.
        2    1    3    3  502    0  0.80195000545E+03 -0.21590084168E+03  0.10411390128E+04  0.13318060778E+04  0.25500000920E-02 0. -1.
       -2    1    3    3    0  502 -0.80195000545E+03  0.21590084168E+03 -0.19402680847E+04  0.21105395579E+04  0.25500000920E-02 0.  1.
</event>
<event>
 5   0  0.3896210E-06  0.2015430E+04  0.7818609E-02  0.8599441E-01
        2   -1    0    0  501    0  0.00000000000E+00  0.00000000000E+00  0.10619566131E+04  0.10619566132E+04  0.25500000920E-02 0.  1.
       -2   -1    0    0    0  501  0.00000000000E+00  0.00000000000E+00 -0.95624343301E+03  0.95624343301E+03  0.25500000920E-02 0. -1.
    10030    2    1    2    0    0  0.00000000000E+00  0.00000000000E+00  0.10571318014E+03  0.20182000462E+04  0.20154295199E+04 0.  0.
        3    1    3    3  502    0 -0.40421782283E+03 -0.69321293386E+03 -0.55753265087E+03  0.97712787646E+03  0.10100000352E+00 0. -1.
       -3    1    3    3    0  502  0.40421782283E+03  0.69321293386E+03  0.66324583101E+03  0.10410721697E+04  0.10100000352E+00 0.  1.
</event>
<event>
 5   0  0.3671997E-06  0.3342459E+04  0.7818609E-02  0.8152175E-01
        2   -1    0    0  501    0  0.00000000000E+00  0.00000000000E+00  0.12377361820E+04  0.12377361820E+04  0.25500000920E-02 0. -1.
       -2   -1    0    0    0  501  0.00000000000E+00  0.00000000000E+00 -0.22565448924E+04  0.22565448924E+04  0.25500000920E-02 0.  1.
    10030    2    1    2    0    0  0.00000000000E+00  0.00000000000E+00 -0.10188087104E+04  0.34942810743E+04  0.33424585320E+04 0.  0.
        2    1    3    3  502    0  0.12823505326E+04 -0.28427978464E+03 -0.15896699347E+04  0.20621077532E+04  0.25500000920E-02 0.  1.
       -2    1    3    3    0  502 -0.12823505326E+04  0.28427978464E+03  0.57086122425E+03  0.14321733212E+04  0.25500000920E-02 0. -1.
</event>
<event>
 5   0  0.3896210E-06  0.3319436E+04  0.7818609E-02  0.8157967E-01
       -2   -1    0    0    0  501  0.00000000000E+00  0.00000000000E+00  0.21629675231E+04  0.21629675231E+04  0.25500000920E-02 0.  1.
        2   -1    0    0  501    0  0.00000000000E+00  0.00000000000E+00 -0.12735576033E+04  0.12735576033E+04  0.25500000920E-02 0. -1.
    10030    2    1    2    0    0  0.00000000000E+00  0.00000000000E+00  0.88940991978E+03  0.34365251264E+04  0.33194359369E+04 0.  0.
        3    1    3    3  502    0  0.56209738130E+03 -0.15608121259E+04  0.49724718275E+03  0.17318610595E+04  0.10100000352E+00 0.  1.
       -3    1    3    3    0  502 -0.56209738130E+03  0.15608121259E+04  0.39216273703E+03  0.17046640669E+04  0.10100000352E+00 0. -1.
</event>
<event>
 5   0  0.3896210E-06  0.3281659E+04  0.7818609E-02  0.8167578E-01
       -2   -1    0    0    0  501  0.00000000000E+00  0.00000000000E+00  0.11190340829E+04  0.11190340829E+04  0.25500000920E-02 0. -1.
        2   -1    0    0  501    0  0.00000000000E+00  0.00000000000E+00 -0.24059339467E+04  0.24059339467E+04  0.25500000920E-02 0.  1.
    10030    2    1    2    0    0  0.00000000000E+00  0.00000000000E+00 -0.12868998638E+04  0.35249680296E+04  0.32816593898E+04 0.  0.
        3    1    3    3  502    0  0.96454245284E+03 -0.10556975028E+04 -0.15077723346E+04  0.20780319497E+04  0.10100000352E+00 0.  1.
       -3    1    3    3    0  502 -0.96454245284E+03  0.10556975028E+04  0.22087247077E+03  0.14469360799E+04  0.10100000352E+00 0. -1.
</event>
<event>
 5   0  0.3671997E-06  0.3414775E+04  0.7818609E-02  0.8134290E-01
        2   -1    0    0  501    0  0.00000000000E+00  0.00000000000E+00  0.15058163619E+04  0.15058163619E+04  0.25500000920E-02 0.  1.
       -2   -1    0    0    0  501  0.00000000000E+00  0.00000000000E+00 -0.19359412993E+04  0.19359412993E+04  0.25500000920E-02 0. -1.
    10030    2    1    2    0    0  0.00000000000E+00  0.00000000000E+00 -0.43012493747E+03  0.34417576612E+04  0.34147750053E+04 0.  0.
        2    1    3    3  502    0 -0.12022255567E+04 -0.10634112779E+04  0.37175991637E+03  0.16475421909E+04  0.25500000920E-02 0.  1.
       -2    1    3    3    0  502  0.12022255567E+04  0.10634112779E+04 -0.80188485385E+03  0.17942154704E+04  0.25500000920E-02 0. -1.
</event>
<event>
 5   0  0.1352708E-06  0.3306630E+04  0.7818609E-02  0.8161210E-01
       -1   -1    0    0    0  501  0.00000000000E+00  0.00000000000E+00  0.10150739600E+04  0.10150739600E+04  0.50400001928E-02 0.  1.
        1   -1    0    0  501    0  0.00000000000E+00  0.00000000000E+00 -0.26928583587E+04  0.26928583587E+04  0.50400001928E-02 0. -1.
    10030    2    1    2    0    0  0.00000000000E+00  0.00000000000E+00 -0.16777843987E+04  0.37079323188E+04  0.33066299448E+04 0.  0.
        5    1    3    3  502    0 -0.82244178041E+03  0.11319443560E+04  0.14874773636E+03  0.14070737317E+04  0.46999998093E+01 0.  1.
       -5    1    3    3    0  502  0.82244178041E+03 -0.11319443560E+04 -0.18265321351E+04  0.23008585871E+04  0.46999998093E+01 0. -1.
</event>
<event>
 5   0  0.1391878E-06  0.3258832E+04  0.7818609E-02  0.8173450E-01
        1   -1    0    0  501    0  0.00000000000E+00  0.00000000000E+00  0.25283991436E+04  0.25283991436E+04  0.50400001928E-02 0.  1.
       -1   -1    0    0    0  501  0.00000000000E+00  0.00000000000E+00 -0.10500698752E+04  0.10500698752E+04  0.50400001928E-02 0. -1.
    10030    2    1    2    0    0  0.00000000000E+00  0.00000000000E+00  0.14783292685E+04  0.35784690188E+04  0.32588315533E+04 0.  0.
        2    1    3    3  502    0 -0.10848385197E+04  0.11132120340E+04  0.12758569280E+04  0.20109516521E+04  0.25500000920E-02 0.  1.
       -2    1    3    3    0  502  0.10848385197E+04 -0.11132120340E+04  0.20247234052E+03  0.15675173667E+04  0.25500000920E-02 0. -1.
</event>
<event>
 5   0  0.1391878E-06  0.3294191E+04  0.7818609E-02  0.8164375E-01
       -1   -1    0    0    0  501  0.00000000000E+00  0.00000000000E+00  0.94443840135E+03  0.94443840137E+03  0.50400001928E-02 0.  1.
        1   -1    0    0  501    0  0.00000000000E+00  0.00000000000E+00 -0.28725258561E+04  0.28725258562E+04  0.50400001928E-02 0. -1.
    10030    2    1    2    0    0  0.00000000000E+00  0.00000000000E+00 -0.19280874548E+04  0.38169642575E+04  0.32941910858E+04 0.  0.
        2    1    3    3  502    0 -0.12559520408E+04  0.36678463995E+03  0.19521774898E+03  0.13228969992E+04  0.25500000920E-02 0.  1.
       -2    1    3    3    0  502  0.12559520408E+04 -0.36678463995E+03 -0.21233052038E+04  0.24940672584E+04  0.25500000920E-02 0. -1.
</event>
<event>
 5   0  0.1339825E-06  0.3105455E+04  0.7818609E-02  0.8214242E-01
       -1   -1    0    0    0  501  0.00000000000E+00  0.00000000000E+00  0.12033284533E+04  0.12033284533E+04  0.50400001928E-02 0.  1.
        1   -1    0    0  501    0  0.00000000000E+00  0.00000000000E+00 -0.20035785002E+04  0.20035785002E+04  0.50400001928E-02 0. -1.
    10030    2    1    2    0    0  0.00000000000E+00  0.00000000000E+00 -0.80025004684E+03  0.32069069535E+04  0.31054552115E+04 0.  0.
        3    1    3    3  502    0  0.39330788361E+03 -0.14894734424E+04 -0.19950857963E+03  0.15533917441E+04  0.10100000352E+00 0.  1.
       -3    1    3    3    0  502 -0.39330788361E+03  0.14894734424E+04 -0.60074146721E+03  0.16535152094E+04  0.10100000352E+00 0. -1.
</event>
<event>
 5   0  0.4017247E-06  0.3332181E+04  0.7818609E-02  0.8154755E-01
       -2   -1    0    0    0  501  0.00000000000E+00  0.00000000000E+00  0.11712657152E+04  0.11712657152E+04  0.25500000920E-02 0.  1.
        2   -1    0    0  501    0  0.00000000000E+00  0.00000000000E+00 -0.23699640796E+04  0.23699640796E+04  0.25500000920E-02 0. -1.
    10030    2    1    2    0    0  0.00000000000E+00  0.00000000000E+00 -0.11986983644E+04  0.35412297949E+04  0.33321810712E+04 0.  0.
        1    1    3    3  502    0  0.10092032174E+04  0.12759188009E+04 -0.21706275151E+03  0.16412117958E+04  0.50400001928E-02 0.  1.
       -1    1    3    3    0  502 -0.10092032174E+04 -0.12759188009E+04 -0.98163561290E+03  0.19000179991E+04  0.50400001928E-02 0. -1.
</event>
<event>
 5   0  0.1339825E-06  0.3308162E+04  0.7818609E-02  0.8160822E-01
       -1   -1    0    0    0  501  0.00000000000E+00  0.00000000000E+00  0.18150987084E+04  0.18150987084E+04  0.50400001928E-02 0. -1.
        1   -1    0    0  501    0  0.00000000000E+00  0.00000000000E+00 -0.15073472541E+04  0.15073472541E+04  0.50400001928E-02 0.  1.
    10030    2    1    2    0    0  0.00000000000E+00  0.00000000000E+00  0.30775145430E+03  0.33224459625E+04  0.33081620601E+04 0.  0.
        3    1    3    3  502    0  0.70940598910E+03 -0.59448902993E+03 -0.12229226948E+04  0.15336929261E+04  0.10100000352E+00 0.  1.
       -3    1    3    3    0  502 -0.70940598910E+03  0.59448902993E+03  0.15306741491E+04  0.17887530363E+04  0.10100000352E+00 0. -1.
</event>
<event>
 5   0  0.3896210E-06  0.3207460E+04  0.7818609E-02  0.8186850E-01
        2   -1    0    0  501    0  0.00000000000E+00  0.00000000000E+00  0.11692931178E+04  0.11692931178E+04  0.25500000920E-02 0. -1.
       -2   -1    0    0    0  501  0.00000000000E+00  0.00000000000E+00 -0.21995763992E+04  0.21995763992E+04  0.25500000920E-02 0.  1.
    10030    2    1    2    0    0  0.00000000000E+00  0.00000000000E+00 -0.10302832814E+04  0.33688695171E+04  0.32074597711E+04 0.  0.
        3    1    3    3  502    0  0.70638890000E+03 -0.83687023885E+03 -0.17456850559E+04  0.20607652460E+04  0.10100000352E+00 0.  1.
       -3    1    3    3    0  502 -0.70638890000E+03  0.83687023885E+03  0.71540177451E+03  0.13081042710E+04  0.10100000352E+00 0. -1.
</event>
<event>
 5   0  0.1405389E-06  0.3230409E+04  0.7818609E-02  0.8180832E-01
        1   -1    0    0  501    0  0.00000000000E+00  0.00000000000E+00  0.15101284159E+04  0.15101284159E+04  0.50400001928E-02 0. -1.
       -1   -1    0    0    0  501  0.00000000000E+00  0.00000000000E+00 -0.17275913534E+04  0.17275913534E+04  0.50400001928E-02 0.  1.
    10030    2    1    2    0    0  0.00000000000E+00  0.00000000000E+00 -0.21746293746E+03  0.32377197693E+04  0.32304085152E+04 0.  0.
        1    1    3    3  502    0  0.37490376045E+03 -0.71396920226E+02  0.14642901271E+04  0.15132071657E+04  0.50400001928E-02 0. -1.
       -1    1    3    3    0  502 -0.37490376045E+03  0.71396920226E+02 -0.16817530646E+04  0.17245126036E+04  0.50400001928E-02 0.  1.
</event>
<event>
 5   0  0.3920487E-06  0.3339715E+04  0.7818609E-02  0.8152863E-01
       -2   -1    0    0    0  501  0.00000000000E+00  0.00000000000E+00  0.97669796072E+03  0.97669796072E+03  0.25500000920E-02 0. -1.
        2   -1    0    0  501    0  0.00000000000E+00  0.00000000000E+00 -0.28549494074E+04  0.28549494074E+04  0.25500000920E-02 0.  1.
    10030    2    1    2    0    0  0.00000000000E+00  0.00000000000E+00 -0.18782514466E+04  0.38316473681E+04  0.33397145172E+04 0.  0.
        4    1    3    3  502    0 -0.55219493778E+03  0.14610967820E+04 -0.26163822083E+03  0.15837232167E+04  0.12699999809E+01 0. -1.
       -4    1    3    3    0  502  0.55219493778E+03 -0.14610967820E+04 -0.16166132258E+04  0.22479241514E+04  0.12699999809E+01 0.  1.
</event>
<event>
 5   0  0.3920487E-06  0.3224172E+04  0.7818609E-02  0.8182462E-01
        2   -1    0    0  501    0  0.00000000000E+00  0.00000000000E+00  0.15080642001E+04  0.15080642001E+04  0.25500000920E-02 0. -1.
       -2   -1    0    0    0  501  0.00000000000E+00  0.00000000000E+00 -0.17232832516E+04  0.17232832516E+04  0.25500000920E-02 0.  1.
    10030    2    1    2    0    0  0.00000000000E+00  0.00000000000E+00 -0.21521905141E+03  0.32313474517E+04  0.32241723145E+04 0.  0.
        4    1    3    3  502    0  0.90535554379E+03 -0.13207209479E+04 -0.29470029692E+03  0.16281346261E+04  0.12699999809E+01 0.  1.
       -4    1    3    3    0  502 -0.90535554379E+03  0.13207209479E+04  0.79481245506E+02  0.16032128256E+04  0.12699999809E+01 0. -1.
</event>
<event>
 5   0  0.1352708E-06  0.3306673E+04  0.7818609E-02  0.8161199E-01
       -1   -1    0    0    0  501  0.00000000000E+00  0.00000000000E+00  0.12657573136E+04  0.12657573136E+04  0.50400001928E-02 0. -1.
        1   -1    0    0  501    0  0.00000000000E+00  0.00000000000E+00 -0.21595942289E+04  0.21595942289E+04  0.50400001928E-02 0.  1.
    10030    2    1    2    0    0  0.00000000000E+00  0.00000000000E+00 -0.89383691525E+03  0.34253515425E+04  0.33066733674E+04 0.  0.
        5    1    3    3  502    0 -0.34004295871E+03  0.30973991781E+03  0.11981370033E+04  0.12834026644E+04  0.46999998093E+01 0. -1.
       -5    1    3    3    0  502  0.34004295871E+03 -0.30973991781E+03 -0.20919739185E+04  0.21419488781E+04  0.46999998093E+01 0.  1.
</event>
<event>
 5   0  0.1339825E-06  0.3299030E+04  0.7818609E-02  0.8163142E-01
        1   -1    0    0  501    0  0.00000000000E+00  0.00000000000E+00  0.24865659193E+04  0.24865659193E+04  0.50400001928E-02 0. -1.
       -1   -1    0    0    0  501  0.00000000000E+00  0.00000000000E+00 -0.10942400155E+04  0.10942400155E+04  0.50400001928E-02 0.  1.
    10030    2    1    2    0    0  0.00000000000E+00  0.00000000000E+00  0.13923259038E+04  0.35808059347E+04  0.32990301181E+04 0.  0.
        3    1    3    3  502    0  0.15490171477E+04  0.56094472181E+03  0.78558147937E+03  0.18251716017E+04  0.10100000352E+00 0. -1.
       -3    1    3    3    0  502 -0.15490171477E+04 -0.56094472181E+03  0.60674442445E+03  0.17556343331E+04  0.10100000352E+00 0.  1.
</event>
<event>
 5   0  0.1391878E-06  0.3195937E+04  0.7818609E-02  0.8189891E-01
        1   -1    0    0  501    0  0.00000000000E+00  0.00000000000E+00  0.21267262725E+04  0.21267262725E+04  0.50400001928E-02 0. -1.
       -1   -1    0    0    0  501  0.00000000000E+00  0.00000000000E+00 -0.12006730203E+04  0.12006730203E+04  0.50400001928E-02 0.  1.
    10030    2    1    2    0    0  0.00000000000E+00  0.00000000000E+00  0.92605325218E+03  0.33273992928E+04  0.31959367058E+04 0.  0.
        2    1    3    3  502    0  0.15335146760E+04 -0.47243143673E+02  0.92817448149E+03  0.17931556107E+04  0.25500000920E-02 0.  1.
       -2    1    3    3    0  502 -0.15335146760E+04  0.47243143673E+02 -0.21212293106E+01  0.15342436820E+04  0.25500000920E-02 0. -1.
</event>
<event>
 5   0  0.3920487E-06  0.3122623E+04  0.7818609E-02  0.8209557E-01
       -2   -1    0    0    0  501  0.00000000000E+00  0.00000000000E+00  0.15196126896E+04  0.15196126896E+04  0.25500000920E-02 0.  1.
        2   -1    0    0  501    0  0.00000000000E+00  0.00000000000E+00 -0.16041543409E+04  0.16041543409E+04  0.25500000920E-02 0. -1.
    10030    2    1    2    0    0  0.00000000000E+00  0.00000000000E+00 -0.84541651331E+02  0.31237670305E+04  0.31226228030E+04 0.  0.
        4    1    3    3  502    0 -0.28963614009E+03 -0.44605450917E+03  0.14262037064E+04  0.15221407109E+04  0.12699999809E+01 0.  1.
       -4    1    3    3    0  502  0.28963614009E+03  0.44605450917E+03 -0.15107453577E+04  0.16016263196E+04  0.12699999809E+01 0. -1.
</event>
<event>
 5   0  0.1339825E-06  0.3295461E+04  0.7818609E-02  0.8164051E-01
       -1   -1    0    0    0  501  0.00000000000E+00  0.00000000000E+00  0.11803308986E+04  0.11803308986E+04  0.50400001928E-02 0.  1.
        1   -1    0    0  501    0  0.00000000000E+00  0.00000000000E+00 -0.23002153201E+04  0.23002153201E+04  0.50400001928E-02 0. -1.
    10030    2    1    2    0    0  0.00000000000E+00  0.00000000000E+00 -0.11198844215E+04  0.34805462187E+04  0.32954606450E+04 0.  0.
        3    1    3    3  502    0  0.16394709180E+04 -0.15735733743E+03 -0.61156456411E+03  0.17568828785E+04  0.10100000352E+00 0.  1.
       -3    1    3    3    0  502 -0.16394709180E+04  0.15735733743E+03 -0.50831985744E+03  0.17236633402E+04  0.10100000352E+00 0. -1.
</event>
<event>
 5   0  0.3671997E-06  0.3184939E+04  0.7818609E-02  0.8192806E-01
        2   -1    0    0  501    0  0.00000000000E+00  0.00000000000E+00  0.21738857629E+04  0.21738857629E+04  0.25500000920E-02 0.  1.
       -2   -1    0    0    0  501  0.00000000000E+00  0.00000000000E+00 -0.11665557189E+04  0.11665557189E+04  0.25500000920E-02 0. -1.
    10030    2    1    2    0    0  0.00000000000E+00  0.00000000000E+00  0.10073300440E+04  0.33404414818E+04  0.31849388496E+04 0.  0.
        2    1    3    3  502    0  0.36436822900E+03  0.14017221447E+04 -0.19075627217E+03  0.14608138596E+04  0.25500000920E-02 0. -1.
       -2    1    3    3    0  502 -0.36436822900E+03 -0.14017221447E+04  0.11980863162E+04  0.18796276222E+04  0.25500000920E-02 0.  1.
</event>
<event>
 5   0  0.3920487E-06  0.3319767E+04  0.7818609E-02  0.8157884E-01
        2   -1    0    0  501    0  0.00000000000E+00  0.00000000000E+00  0.21369743814E+04  0.21369743814E+04  0.25500000920E-02 0.  1.
       -2   -1    0    0    0  501  0.00000000000E+00  0.00000000000E+00 -0.12893055373E+04  0.12893055373E+04  0.25500000920E-02 0. -1.
    10030    2    1    2    0    0  0.00000000000E+00  0.00000000000E+00  0.84766884409E+03  0.34262799187E+04  0.33197668009E+04 0.  0.
        4    1    3    3  502    0 -0.70001886981E+03  0.63780575738E+03 -0.98313137510E+03  0.13650536678E+04  0.12699999809E+01 0. -1.
       -4    1    3    3    0  502  0.70001886981E+03 -0.63780575738E+03  0.18308002192E+04  0.20612262510E+04  0.12699999809E+01 0.  1.
</event>
<event>
 5   0  0.1352708E-06  0.2016383E+04  0.7818609E-02  0.8598999E-01
       -1   -1    0    0    0  501  0.00000000000E+00  0.00000000000E+00  0.12000810790E+04  0.12000810790E+04  0.50400001928E-02 0. -1.
        1   -1    0    0  501    0  0.00000000000E+00  0.00000000000E+00 -0.84698425779E+03  0.84698425780E+03  0.50400001928E-02 0.  1.
    10030    2    1    2    0    0  0.00000000000E+00  0.00000000000E+00  0.35309682119E+03  0.20470653368E+04  0.20163826839E+04 0.  0.
        5    1    3    3  502    0 -0.99595288093E+02 -0.92371192233E+03 -0.22089920240E+03  0.95497721674E+03  0.46999998093E+01 0.  1.
       -5    1    3    3    0  502  0.99595288093E+02  0.92371192233E+03  0.57399602359E+03  0.10920881201E+04  0.46999998093E+01 0. -1.
</event>
<event>
 5   0  0.1391878E-06  0.3347774E+04  0.7818609E-02  0.8150844E-01
       -1   -1    0    0    0  501  0.00000000000E+00  0.00000000000E+00  0.10500051153E+04  0.10500051153E+04  0.50400001928E-02 0.  1.
        1   -1    0    0  501    0  0.00000000000E+00  0.00000000000E+00 -0.26684615357E+04  0.26684615357E+04  0.50400001928E-02 0. -1.
    10030    2    1    2    0    0  0.00000000000E+00  0.00000000000E+00 -0.16184564205E+04  0.37184666510E+04  0.33477743427E+04 0.  0.
        2    1    3    3  502    0  0.58742378056E+03 -0.58037971774E+03  0.80801269503E+03  0.11553319134E+04  0.25500000920E-02 0.  1.
       -2    1    3    3    0  502 -0.58742378056E+03  0.58037971774E+03 -0.24264691155E+04  0.25631347376E+04  0.25500000920E-02 0. -1.
</event>
<event>
 5   0  0.3671997E-06  0.3343881E+04  0.7818609E-02  0.8151819E-01
       -2   -1    0    0    0  501  0.00000000000E+00  0.00000000000E+00  0.21066313918E+04  0.21066313918E+04  0.25500000920E-02 0.  1.
        2   -1    0    0  501    0  0.00000000000E+00  0.00000000000E+00 -0.13269456321E+04  0.13269456321E+04  0.25500000920E-02 0. -1.
    10030    2    1    2    0    0  0.00000000000E+00  0.00000000000E+00  0.77968575969E+03  0.34335770239E+04  0.33438811724E+04 0.  0.
        2    1    3    3  502    0 -0.14549552679E+04 -0.62312907864E+03  0.94299571624E+03  0.18423967003E+04  0.25500000920E-02 0. -1.
       -2    1    3    3    0  502  0.14549552679E+04  0.62312907864E+03 -0.16330995655E+03  0.15911803236E+04  0.25500000920E-02 0.  1.
</event>
<event>
 5   0  0.3896210E-06  0.3266436E+04  0.7818609E-02  0.8171489E-01
       -2   -1    0    0    0  501  0.00000000000E+00  0.00000000000E+00  0.11186437178E+04  0.11186437178E+04  0.25500000920E-02 0. -1.
        2   -1    0    0  501    0  0.00000000000E+00  0.00000000000E+00 -0.23844962250E+04  0.23844962250E+04  0.25500000920E-02 0.  1.
    10030    2    1    2    0    0  0.00000000000E+00  0.00000000000E+00 -0.12658525072E+04  0.35031399428E+04  0.32664364204E+04 0.  0.
        3    1    3    3  502    0  0.10515012788E+03 -0.47131636666E+03  0.10403280312E+04  0.11469429322E+04  0.10100000352E+00 0. -1.
       -3    1    3    3    0  502 -0.10515012788E+03  0.47131636666E+03 -0.23061805384E+04  0.23561970106E+04  0.10100000352E+00 0.  1.
</event>
<event>
 5   0  0.3812379E-06  0.3377432E+04  0.7818609E-02  0.8143467E-01
        2   -1    0    0  501    0  0.00000000000E+00  0.00000000000E+00  0.19098667065E+04  0.19098667065E+04  0.25500000920E-02 0. -1.
       -2   -1    0    0    0  501  0.00000000000E+00  0.00000000000E+00 -0.14931735208E+04  0.14931735208E+04  0.25500000920E-02 0.  1.
    10030    2    1    2    0    0  0.00000000000E+00  0.00000000000E+00  0.41669318563E+03  0.34030402273E+04  0.33774323942E+04 0.  0.
        5    1    3    3  502    0 -0.16754479249E+04 -0.13611543888E+03  0.37108635459E+03  0.17214471628E+04  0.46999998093E+01 0. -1.
       -5    1    3    3    0  502  0.16754479249E+04  0.13611543888E+03  0.45606831042E+02  0.16815930645E+04  0.46999998093E+01 0.  1.
</event>
<event>
 5   0  0.1391878E-06  0.3388727E+04  0.7818609E-02  0.8140679E-01
        1   -1    0    0  501    0  0.00000000000E+00  0.00000000000E+00  0.23144603179E+04  0.23144603179E+04  0.50400001928E-02 0. -1.
       -1   -1    0    0    0  501  0.00000000000E+00  0.00000000000E+00 -0.12404051132E+04  0.12404051132E+04  0.50400001928E-02 0.  1.
    10030    2    1    2    0    0  0.00000000000E+00  0.00000000000E+00  0.10740552046E+04  0.35548654311E+04  0.33887274382E+04 0.  0.
        2    1    3    3  502    0 -0.95412557804E+03  0.26580790324E+03 -0.90509180786E+03  0.13417155588E+04  0.25500000920E-02 0.  1.
       -2    1    3    3    0  502  0.95412557804E+03 -0.26580790324E+03  0.19791470125E+04  0.22131498723E+04  0.25500000920E-02 0. -1.
</event>
<event>
 5   0  0.3671997E-06  0.3324958E+04  0.7818609E-02  0.8156574E-01
        2   -1    0    0  501    0  0.00000000000E+00  0.00000000000E+00  0.21296809236E+04  0.21296809236E+04  0.25500000920E-02 0.  1.
       -2   -1    0    0    0  501  0.00000000000E+00  0.00000000000E+00 -0.12977700467E+04  0.12977700467E+04  0.25500000920E-02 0. -1.
    10030    2    1    2    0    0  0.00000000000E+00  0.00000000000E+00  0.83191087682E+03  0.34274509703E+04  0.33249578113E+04 0.  0.
        2    1    3    3  502    0 -0.45293550927E+03  0.21646584874E+03  0.20496846210E+04  0.21102642215E+04  0.25500000920E-02 0.  1.
       -2    1    3    3    0  502  0.45293550927E+03 -0.21646584874E+03 -0.12177737441E+04  0.13171867488E+04  0.25500000920E-02 0. -1.
</event>
<event>
 5   0  0.1391878E-06  0.3262860E+04  0.7818609E-02  0.8172410E-01
       -1   -1    0    0    0  501  0.00000000000E+00  0.00000000000E+00  0.12570191982E+04  0.12570191982E+04  0.50400001928E-02 0. -1.
        1   -1    0    0  501    0  0.00000000000E+00  0.00000000000E+00 -0.21173619081E+04  0.21173619081E+04  0.50400001928E-02 0.  1.
    10030    2    1    2    0    0  0.00000000000E+00  0.00000000000E+00 -0.86034270991E+03  0.33743811063E+04  0.32628604433E+04 0.  0.
        2    1    3    3  502    0 -0.15832943119E+04  0.69542893911E+02 -0.83058353302E+03  0.17892808884E+04  0.25500000920E-02 0.  1.
       -2    1    3    3    0  502  0.15832943119E+04 -0.69542893911E+02 -0.29759176895E+02  0.15851002179E+04  0.25500000920E-02 0. -1.
</event>
<event>
 5   0  0.3812379E-06  0.3251727E+04  0.7818609E-02  0.8175288E-01
        2   -1    0    0  501    0  0.00000000000E+00  0.00000000000E+00  0.16517852498E+04  0.16517852498E+04  0.25500000920E-02 0.  1.
       -2   -1    0    0    0  501  0.00000000000E+00  0.00000000000E+00 -0.16003488631E+04  0.16003488631E+04  0.25500000920E-02 0. -1.
    10030    2    1    2    0    0  0.00000000000E+00  0.00000000000E+00  0.51436386676E+02  0.32521341128E+04  0.32517273234E+04 0.  0.
        5    1    3    3  502    0 -0.34435599261E+03  0.39974537481E+03 -0.15123406183E+04  0.16017408186E+04  0.46999998093E+01 0. -1.
       -5    1    3    3    0  502  0.34435599261E+03 -0.39974537481E+03  0.15637770050E+04  0.16503932942E+04  0.46999998093E+01 0.  1.
</event>
<event>
 5   0  0.1405389E-06  0.3255658E+04  0.7818609E-02  0.8174271E-01
       -1   -1    0    0    0  501  0.00000000000E+00  0.00000000000E+00  0.26931116147E+04  0.26931116148E+04  0.50400001928E-02 0.  1.
        1   -1    0    0  501    0  0.00000000000E+00  0.00000000000E+00 -0.98392783438E+03  0.98392783439E+03  0.50400001928E-02 0. -1.
    10030    2    1    2    0    0  0.00000000000E+00  0.00000000000E+00  0.17091837804E+04  0.36770394491E+04  0.32556581386E+04 0.  0.
        1    1    3    3  502    0 -0.98278109170E+03 -0.94055252883E+03 -0.15517815008E+03  0.13691522895E+04  0.50400001928E-02 0. -1.
       -1    1    3    3    0  502  0.98278109170E+03  0.94055252883E+03  0.18643619304E+04  0.23078871596E+04  0.50400001928E-02 0.  1.
</event>
<event>
 5   0  0.1282578E-06  0.2148731E+04  0.7818609E-02  0.8540076E-01
        1   -1    0    0  501    0  0.00000000000E+00  0.00000000000E+00  0.11779148293E+04  0.11779148293E+04  0.50400001928E-02 0.  1.
       -1   -1    0    0    0  501  0.00000000000E+00  0.00000000000E+00 -0.97991870659E+03  0.97991870660E+03  0.50400001928E-02 0. -1.
    10030    2    1    2    0    0  0.00000000000E+00  0.00000000000E+00  0.19799612267E+03  0.21578335359E+04  0.21487305797E+04 0.  0.
        4    1    3    3  502    0 -0.11703708265E+02  0.47456929423E+03  0.10668789129E+04  0.11677265175E+04  0.12699999809E+01 0.  1.
       -4    1    3    3    0  502  0.11703708265E+02 -0.47456929423E+03 -0.86888279026E+03  0.99010701842E+03  0.12699999809E+01 0. -1.
</event>
<event>
 5   0  0.1405389E-06  0.3340197E+04  0.7818609E-02  0.8152742E-01
       -1   -1    0    0    0  501  0.00000000000E+00  0.00000000000E+00  0.11187272457E+04  0.11187272457E+04  0.50400001928E-02 0. -1.
        1   -1    0    0  501    0  0.00000000000E+00  0.00000000000E+00 -0.24932169446E+04  0.24932169446E+04  0.50400001928E-02 0.  1.
    10030    2    1    2    0    0  0.00000000000E+00  0.00000000000E+00 -0.13744896989E+04  0.36119441904E+04  0.33401974346E+04 0.  0.
        1    1    3    3  502    0  0.16519059389E+04 -0.91649950478E+02 -0.44057043574E+03  0.17121025826E+04  0.50400001928E-02 0. -1.
       -1    1    3    3    0  502 -0.16519059389E+04  0.91649950478E+02 -0.93391926319E+03  0.18998416078E+04  0.50400001928E-02 0.  1.
</event>
<event>
 5   0  0.3812379E-06  0.3281876E+04  0.7818609E-02  0.8167522E-01
       -2   -1    0    0    0  501  0.00000000000E+00  0.00000000000E+00  0.16021105230E+04  0.16021105230E+04  0.25500000920E-02 0.  1.
        2   -1    0    0  501    0  0.00000000000E+00  0.00000000000E+00 -0.16807061502E+04  0.16807061502E+04  0.25500000920E-02 0. -1.
    10030    2    1    2    0    0  0.00000000000E+00  0.00000000000E+00 -0.78595627174E+02  0.32828166732E+04  0.32818756889E+04 0.  0.
        5    1    3    3  502    0  0.10845960687E+04  0.35636952563E+03 -0.12183244676E+04  0.16696360290E+04  0.46999998093E+01 0. -1.
       -5    1    3    3    0  502 -0.10845960687E+04 -0.35636952563E+03  0.11397288405E+04  0.16131806442E+04  0.46999998093E+01 0.  1.
</event>
<event>
 5   0  0.1352708E-06  0.3268027E+04  0.7818609E-02  0.8171079E-01
        1   -1    0    0  501    0  0.00000000000E+00  0.00000000000E+00  0.28394776577E+04  0.28394776577E+04  0.50400001928E-02 0. -1.
       -1   -1    0    0    0  501  0.00000000000E+00  0.00000000000E+00 -0.94031363238E+03  0.94031363240E+03  0.50400001928E-02 0.  1.
    10030    2    1    2    0    0  0.00000000000E+00  0.00000000000E+00  0.18991640253E+04  0.37797912901E+04  0.32680266525E+04 0.  0.
        5    1    3    3  502    0  0.81171293329E+03  0.13939811515E+04  0.12509996598E+04  0.20413435712E+04  0.46999998093E+01 0.  1.
       -5    1    3    3    0  502 -0.81171293329E+03 -0.13939811515E+04  0.64816436554E+03  0.17384477190E+04  0.46999998093E+01 0. -1.
</event>
<event>
 5   0  0.1339825E-06  0.3519995E+04  0.7818609E-02  0.8109068E-01
        1   -1    0    0  501    0  0.00000000000E+00  0.00000000000E+00  0.18732731780E+04  0.18732731780E+04  0.50400001928E-02 0.  1.
       -1   -1    0    0    0  501  0.00000000000E+00  0.00000000000E+00 -0.16535717249E+04  0.16535717249E+04  0.50400001928E-02 0. -1.
    10030    2    1    2    0    0  0.00000000000E+00  0.00000000000E+00  0.21970145308E+03  0.35268449029E+04  0.35199952046E+04 0.  0.
        3    1    3    3  502    0 -0.56070253616E+02 -0.15511864921E+04 -0.72138293855E+03  0.17116415399E+04  0.10100000352E+00 0. -1.
       -3    1    3    3    0  502  0.56070253616E+02  0.15511864921E+04  0.94108439163E+03  0.18152033630E+04  0.10100000352E+00 0.  1.
</event>
<event>
 5   0  0.4017247E-06  0.3296574E+04  0.7818609E-02  0.8163768E-01
       -2   -1    0    0    0  501  0.00000000000E+00  0.00000000000E+00  0.11399741814E+04  0.11399741814E+04  0.25500000920E-02 0.  1.
        2   -1    0    0  501    0  0.00000000000E+00  0.00000000000E+00 -0.23832552636E+04  0.23832552636E+04  0.25500000920E-02 0. -1.
    10030    2    1    2    0    0  0.00000000000E+00  0.00000000000E+00 -0.12432810821E+04  0.35232294450E+04  0.32965736565E+04 0.  0.
        1    1    3    3  502    0 -0.96869554919E+03 -0.13094879499E+04 -0.35185725558E+03  0.16664132999E+04  0.50400001928E-02 0.  1.
       -1    1    3    3    0  502  0.96869554919E+03  0.13094879499E+04 -0.89142382655E+03  0.18568161450E+04  0.50400001928E-02 0. -1.
</event>
<event>
 5   0  0.1339825E-06  0.3306582E+04  0.7818609E-02  0.8161223E-01
        1   -1    0    0  501    0  0.00000000000E+00  0.00000000000E+00  0.20602434299E+04  0.20602434299E+04  0.50400001928E-02 0.  1.
       -1   -1    0    0    0  501  0.00000000000E+00  0.00000000000E+00 -0.13267222291E+04  0.13267222291E+04  0.50400001928E-02 0. -1.
    10030    2    1    2    0    0  0.00000000000E+00  0.00000000000E+00  0.73352120081E+03  0.33869656590E+04  0.33065817733E+04 0.  0.
        3    1    3    3  502    0 -0.52984370398E+03  0.13618305986E+04 -0.42537887905E+03  0.15219277680E+04  0.10100000352E+00 0.  1.
       -3    1    3    3    0  502  0.52984370398E+03 -0.13618305986E+04  0.11589000799E+04  0.18650378911E+04  0.10100000352E+00 0. -1.
</event>
<event>
 5   0  0.3896210E-06  0.3267125E+04  0.7818609E-02  0.8171311E-01
        2   -1    0    0  501    0  0.00000000000E+00  0.00000000000E+00  0.21573043170E+04  0.21573043170E+04  0.25500000920E-02 0.  1.
       -2   -1    0    0    0  501  0.00000000000E+00  0.00000000000E+00 -0.12369725790E+04  0.12369725790E+04  0.25500000920E-02 0. -1.
    10030    2    1    2    0    0  0.00000000000E+00  0.00000000000E+00  0.92033173793E+03  0.33942768960E+04  0.32671249041E+04 0.  0.
        3    1    3    3  502    0 -0.24366861815E+03  0.90585484825E+03 -0.92926063223E+03  0.13204062763E+04  0.10100000352E+00 0. -1.
       -3    1    3    3    0  502  0.24366861815E+03 -0.90585484825E+03  0.18495923702E+04  0.20738706198E+04  0.10100000352E+00 0.  1.
</event>
<event>
 5   0  0.1405389E-06  0.3317353E+04  0.7818609E-02  0.8158494E-01
       -1   -1    0    0    0  501  0.00000000000E+00  0.00000000000E+00  0.11366532040E+04  0.11366532040E+04  0.50400001928E-02 0. -1.
        1   -1    0    0  501    0  0.00000000000E+00  0.00000000000E+00 -0.24204463307E+04  0.24204463307E+04  0.50400001928E-02 0.  1.
    10030    2    1    2    0    0  0.00000000000E+00  0.00000000000E+00 -0.12837931267E+04  0.35570995347E+04  0.33173532081E+04 0.  0.
        1    1    3    3  502    0  0.32669497611E+03 -0.65940015813E+03  0.95202887997E+03  0.12032859861E+04  0.50400001928E-02 0. -1.
       -1    1    3    3    0  502 -0.32669497611E+03  0.65940015813E+03 -0.22358220067E+04  0.23538135486E+04  0.50400001928E-02 0.  1.
</event>
<event>
 5   0  0.1405389E-06  0.3325449E+04  0.7818609E-02  0.8156450E-01
        1   -1    0    0  501    0  0.00000000000E+00  0.00000000000E+00  0.17200228610E+04  0.17200228610E+04  0.50400001928E-02 0.  1.
       -1   -1    0    0    0  501  0.00000000000E+00  0.00000000000E+00 -0.16073348649E+04  0.16073348649E+04  0.50400001928E-02 0. -1.
    10030    2    1    2    0    0  0.00000000000E+00  0.00000000000E+00  0.11268799615E+03  0.33273577260E+04  0.33254489700E+04 0.  0.
        1    1    3    3  502    0  0.76873986595E+03  0.78503540957E+02  0.15294420584E+04  0.17135684397E+04  0.50400001928E-02 0.  1.
       -1    1    3    3    0  502 -0.76873986595E+03 -0.78503540957E+02 -0.14167540623E+04  0.16137892863E+04  0.50400001928E-02 0. -1.
</event>
<event>
 5   0  0.4017247E-06  0.3307907E+04  0.7818609E-02  0.8160886E-01
       -2   -1    0    0    0  501  0.00000000000E+00  0.00000000000E+00  0.14358472778E+04  0.14358472778E+04  0.25500000920E-02 0. -1.
        2   -1    0    0  501    0  0.00000000000E+00  0.00000000000E+00 -0.19051897471E+04  0.19051897471E+04  0.25500000920E-02 0.  1.
    10030    2    1    2    0    0  0.00000000000E+00  0.00000000000E+00 -0.46934246928E+03  0.33410370250E+04  0.33079065961E+04 0.  0.
        1    1    3    3  502    0  0.68466652383E+03  0.52302425229E+02  0.12850775251E+04  0.14570271234E+04  0.50400001928E-02 0. -1.
       -1    1    3    3    0  502 -0.68466652383E+03 -0.52302425229E+02 -0.17544199944E+04  0.18840099016E+04  0.50400001928E-02 0.  1.
</event>
<event>
 5   0  0.1339825E-06  0.2840918E+04  0.7818609E-02  0.8290676E-01
       -1   -1    0    0    0  501  0.00000000000E+00  0.00000000000E+00  0.88558030850E+03  0.88558030851E+03  0.50400001928E-02 0. -1.
        1   -1    0    0  501    0  0.00000000000E+00  0.00000000000E+00 -0.22783977001E+04  0.22783977001E+04  0.50400001928E-02 0.  1.
    10030    2    1    2    0    0  0.00000000000E+00  0.00000000000E+00 -0.13928173916E+04  0.31639780086E+04  0.28409182587E+04 0.  0.
        3    1    3    3  502    0  0.22733569509E+03  0.22404405029E+03 -0.22379417754E+04  0.22605885638E+04  0.10100000352E+00 0.  1.
       -3    1    3    3    0  502 -0.22733569509E+03 -0.22404405029E+03  0.84512438376E+03  0.90338944480E+03  0.10100000352E+00 0. -1.
</event>
<event>
 5   0  0.1405389E-06  0.3240845E+04  0.7818609E-02  0.8178113E-01
        1   -1    0    0  501    0  0.00000000000E+00  0.00000000000E+00  0.17394984197E+04  0.17394984198E+04  0.50400001928E-02 0. -1.
       -1   -1    0    0    0  501  0.00000000000E+00  0.00000000000E+00 -0.15094977302E+04  0.15094977302E+04  0.50400001928E-02 0.  1.
    10030    2    1    2    0    0  0.00000000000E+00  0.00000000000E+00  0.23000068952E+03  0.32489961500E+04  0.32408448999E+04 0.  0.
        1    1    3    3  502    0  0.15802838058E+04  0.64241364409E+02  0.46851320046E+03  0.16495237127E+04  0.50400001928E-02 0. -1.
       -1    1    3    3    0  502 -0.15802838058E+04 -0.64241364409E+02 -0.23851251093E+03  0.15994724373E+04  0.50400001928E-02 0.  1.
</event>
<event>
 5   0  0.3896210E-06  0.3319604E+04  0.7818609E-02  0.8157925E-01
       -2   -1    0    0    0  501  0.00000000000E+00  0.00000000000E+00  0.25089086884E+04  0.25089086884E+04  0.25500000920E-02 0. -1.
        2   -1    0    0  501    0  0.00000000000E+00  0.00000000000E+00 -0.10980639258E+04  0.10980639258E+04  0.25500000920E-02 0.  1.
    10030    2    1    2    0    0  0.00000000000E+00  0.00000000000E+00  0.14108447627E+04  0.36069726142E+04  0.33196036654E+04 0.  0.
        3    1    3    3  502    0  0.23824305649E+03  0.13882877591E+04  0.16594008617E+04  0.21766290189E+04  0.10100000352E+00 0. -1.
       -3    1    3    3    0  502 -0.23824305649E+03 -0.13882877591E+04 -0.24855609901E+03  0.14303435953E+04  0.10100000352E+00 0.  1.
</event>
<event>
 5   0  0.3812379E-06  0.2875218E+04  0.7818609E-02  0.8280289E-01
        2   -1    0    0  501    0  0.00000000000E+00  0.00000000000E+00  0.20741920875E+04  0.20741920875E+04  0.25500000920E-02 0.  1.
       -2   -1    0    0    0  501  0.00000000000E+00  0.00000000000E+00 -0.99639766186E+03  0.99639766187E+03  0.25500000920E-02 0. -1.
    10030    2    1    2    0    0  0.00000000000E+00  0.00000000000E+00  0.10777944256E+04  0.30705897493E+04  0.28752183543E+04 0.  0.
        5    1    3    3  502    0  0.44370929090E+03 -0.11748663946E+04 -0.20829328108E+03  0.12730267715E+04  0.46999998093E+01 0. -1.
       -5    1    3    3    0  502 -0.44370929090E+03  0.11748663946E+04  0.12860877067E+04  0.17975629778E+04  0.46999998093E+01 0.  1.
</event>
<event>
 5   0  0.3671997E-06  0.3370723E+04  0.7818609E-02  0.8145130E-01
       -2   -1    0    0    0  501  0.00000000000E+00  0.00000000000E+00  0.10264720462E+04  0.10264720462E+04  0.25500000920E-02 0. -1.
        2   -1    0    0  501    0  0.00000000000E+00  0.00000000000E+00 -0.27671896118E+04  0.27671896118E+04  0.25500000920E-02 0.  1.
    10030    2    1    2    0    0  0.00000000000E+00  0.00000000000E+00 -0.17407175656E+04  0.37936616580E+04  0.33707226424E+04 0.  0.
        2    1    3    3  502    0  0.13533656366E+04  0.24390717584E+03  0.22624454841E+03  0.13936555716E+04  0.25500000920E-02 0. -1.
       -2    1    3    3    0  502 -0.13533656366E+04 -0.24390717584E+03 -0.19669621140E+04  0.24000060864E+04  0.25500000920E-02 0.  1.
</event>
<event>
 5   0  0.3671997E-06  0.3296665E+04  0.7818609E-02  0.8163745E-01
       -2   -1    0    0    0  501  0.00000000000E+00  0.00000000000E+00  0.18855383007E+04  0.18855383007E+04  0.25500000920E-02 0.  1.
        2   -1    0    0  501    0  0.00000000000E+00  0.00000000000E+00 -0.14409675652E+04  0.14409675652E+04  0.25500000920E-02 0. -1.
    10030    2    1    2    0    0  0.00000000000E+00  0.00000000000E+00  0.44457073550E+03  0.33265058658E+04  0.32966646988E+04 0.  0.
        2    1    3    3  502    0 -0.12252224357E+04 -0.12728059294E+03  0.13274755653E+04  0.18109560300E+04  0.25500000920E-02 0.  1.
       -2    1    3    3    0  502  0.12252224357E+04  0.12728059294E+03 -0.88290482977E+03  0.15155498358E+04  0.25500000920E-02 0. -1.
</event>
<event>
 5   0  0.3896210E-06  0.3242587E+04  0.7818609E-02  0.8177660E-01
       -2   -1    0    0    0  501  0.00000000000E+00  0.00000000000E+00  0.10566235476E+04  0.10566235476E+04  0.25500000920E-02 0. -1.
        2   -1    0    0  501    0  0.00000000000E+00  0.00000000000E+00 -0.24877286855E+04  0.24877286855E+04  0.25500000920E-02 0.  1.
    10030    2    1    2    0    0  0.00000000000E+00  0.00000000000E+00 -0.14311051380E+04  0.35443522331E+04  0.32425870592E+04 0.  0.
        3    1    3    3  502    0  0.99599188880E+03 -0.54868886304E+03 -0.19787539875E+04  0.22822196792E+04  0.10100000352E+00 0.  1.
       -3    1    3    3    0  502 -0.99599188880E+03  0.54868886304E+03  0.54764884954E+03  0.12621325539E+04  0.10100000352E+00 0. -1.
</event>
<event>
 5   0  0.1391878E-06  0.3264195E+04  0.7818609E-02  0.8172066E-01
       -1   -1    0    0    0  501  0.00000000000E+00  0.00000000000E+00  0.11662432489E+04  0.11662432490E+04  0.50400001928E-02 0. -1.
        1   -1    0    0  501    0  0.00000000000E+00  0.00000000000E+00 -0.22840364158E+04  0.22840364158E+04  0.50400001928E-02 0.  1.
    10030    2    1    2    0    0  0.00000000000E+00  0.00000000000E+00 -0.11177931669E+04  0.34502796648E+04  0.32641948779E+04 0.  0.
        2    1    3    3  502    0  0.62402597135E+03 -0.14966273527E+04 -0.75505686700E+03  0.17886902242E+04  0.25500000920E-02 0.  1.
       -2    1    3    3    0  502 -0.62402597135E+03  0.14966273527E+04 -0.36273629986E+03  0.16615894406E+04  0.25500000920E-02 0. -1.
</event>
<event>
 5   0  0.4017247E-06  0.3232125E+04  0.7818609E-02  0.8180384E-01
       -2   -1    0    0    0  501  0.00000000000E+00  0.00000000000E+00  0.13273663892E+04  0.13273663892E+04  0.25500000920E-02 0. -1.
        2   -1    0    0  501    0  0.00000000000E+00  0.00000000000E+00 -0.19675486211E+04  0.19675486211E+04  0.25500000920E-02 0.  1.
    10030    2    1    2    0    0  0.00000000000E+00  0.00000000000E+00 -0.64018223194E+03  0.32949150103E+04  0.32321249411E+04 0.  0.
        1    1    3    3  502    0  0.52357573284E+03 -0.48348506734E+03  0.11585237065E+04  0.13601715101E+04  0.50400001928E-02 0. -1.
       -1    1    3    3    0  502 -0.52357573284E+03  0.48348506734E+03 -0.17987059384E+04  0.19347435002E+04  0.50400001928E-02 0.  1.
</event>
<event>
 5   0  0.1339825E-06  0.3286504E+04  0.7818609E-02  0.8166338E-01
       -1   -1    0    0    0  501  0.00000000000E+00  0.00000000000E+00  0.25201560088E+04  0.25201560088E+04  0.50400001928E-02 0. -1.
        1   -1    0    0  501    0  0.00000000000E+00  0.00000000000E+00 -0.10714720653E+04  0.10714720653E+04  0.50400001928E-02 0.  1.
    10030    2    1    2    0    0  0.00000000000E+00  0.00000000000E+00  0.14486839435E+04  0.35916280742E+04  0.32865037737E+04 0.  0.
        3    1    3    3  502    0 -0.16125510157E+04  0.28861901241E+03  0.86537800185E+03  0.18527009496E+04  0.10100000352E+00 0. -1.
       -3    1    3    3    0  502  0.16125510157E+04 -0.28861901241E+03  0.58330594169E+03  0.17389271245E+04  0.10100000352E+00 0.  1.
</event>
<event>
 5   0  0.1339825E-06  0.2427720E+04  0.7818609E-02  0.8429198E-01
        1   -1    0    0  501    0  0.00000000000E+00  0.00000000000E+00  0.11432567713E+04  0.11432567713E+04  0.50400001928E-02 0. -1.
       -1   -1    0    0    0  501  0.00000000000E+00  0.00000000000E+00 -0.12888236886E+04  0.12888236886E+04  0.50400001928E-02 0.  1.
    10030    2    1    2    0    0  0.00000000000E+00  0.00000000000E+00 -0.14556691728E+03  0.24320804600E+04  0.24277202550E+04 0.  0.
        3    1    3    3  502    0  0.14418456531E+03 -0.52843552439E+03  0.10124086194E+04  0.11510884046E+04  0.10100000352E+00 0. -1.
       -3    1    3    3    0  502 -0.14418456531E+03  0.52843552439E+03 -0.11579755367E+04  0.12809920554E+04  0.10100000352E+00 0.  1.
</event>
<event>
 5   0  0.1282578E-06  0.3327900E+04  0.7818609E-02  0.8155832E-01
        1   -1    0    0  501    0  0.00000000000E+00  0.00000000000E+00  0.14988885210E+04  0.14988885210E+04  0.50400001928E-02 0.  1.
       -1   -1    0    0    0  501  0.00000000000E+00  0.00000000000E+00 -0.18471879879E+04  0.18471879879E+04  0.50400001928E-02 0. -1.
    10030    2    1    2    0    0  0.00000000000E+00  0.00000000000E+00 -0.34829946687E+03  0.33460765089E+04  0.33278995605E+04 0.  0.
        4    1    3    3  502    0 -0.14350921715E+04 -0.62977043529E+03 -0.73633419804E+03  0.17315571045E+04  0.12699999809E+01 0. -1.
       -4    1    3    3    0  502  0.14350921715E+04  0.62977043529E+03  0.38803473117E+03  0.16145194045E+04  0.12699999809E+01 0.  1.
</event>
<event>
 5   0  0.3920487E-06  0.2945335E+04  0.7818609E-02  0.8259515E-01
        2   -1    0    0  501    0  0.00000000000E+00  0.00000000000E+00  0.12438061365E+04  0.12438061365E+04  0.25500000920E-02 0. -1.
       -2   -1    0    0    0  501  0.00000000000E+00  0.00000000000E+00 -0.17436394684E+04  0.17436394684E+04  0.25500000920E-02 0.  1.
    10030    2    1    2    0    0  0.00000000000E+00  0.00000000000E+00 -0.49983333195E+03  0.29874456049E+04  0.29453349356E+04 0.  0.
        4    1    3    3  502    0  0.13768866321E+04 -0.40225576677E+03 -0.58803139362E+03  0.15502932085E+04  0.12699999809E+01 0. -1.
       -4    1    3    3    0  502 -0.13768866321E+04  0.40225576677E+03  0.88198061664E+02  0.14371523964E+04  0.12699999809E+01 0.  1.
</event>
<event>
 5   0  0.1339825E-06  0.3295660E+04  0.7818609E-02  0.8164001E-01
       -1   -1    0    0    0  501  0.00000000000E+00  0.00000000000E+00  0.15416136415E+04  0.15416136415E+04  0.50400001928E-02 0. -1.
        1   -1    0    0  501    0  0.00000000000E+00  0.00000000000E+00 -0.17613648115E+04  0.17613648115E+04  0.50400001928E-02 0.  1.
    10030    2    1    2    0    0  0.00000000000E+00  0.00000000000E+00 -0.21975117002E+03  0.33029784530E+04  0.32956601895E+04 0.  0.
        3    1    3    3  502    0  0.10455533563E+04  0.39852769473E+03  0.11024956402E+04  0.15708286957E+04  0.10100000352E+00 0. -1.
       -3    1    3    3    0  502 -0.10455533563E+04 -0.39852769473E+03 -0.13222468103E+04  0.17321497573E+04  0.10100000352E+00 0.  1.
</event>
<event>
 5   0  0.3812379E-06  0.3178827E+04  0.7818609E-02  0.8194431E-01
       -2   -1    0    0    0  501  0.00000000000E+00  0.00000000000E+00  0.24016893205E+04  0.24016893205E+04  0.25500000920E-02 0. -1.
        2   -1    0    0  501    0  0.00000000000E+00  0.00000000000E+00 -0.10518576191E+04  0.10518576192E+04  0.25500000920E-02 0.  1.
    10030    2    1    2    0    0  0.00000000000E+00  0.00000000000E+00  0.13498317013E+04  0.34535469396E+04  0.31788269601E+04 0.  0.
        5    1    3    3  502    0  0.35933800052E+03 -0.46403915093E+03  0.22796447114E+04  0.23539877299E+04  0.46999998093E+01 0. -1.
       -5    1    3    3    0  502 -0.35933800052E+03  0.46403915093E+03 -0.92981301003E+03  0.10995592098E+04  0.46999998093E+01 0.  1.
</event>
<event>
 5   0  0.1339825E-06  0.3393028E+04  0.7818609E-02  0.8139620E-01
        1   -1    0    0  501    0  0.00000000000E+00  0.00000000000E+00  0.23944922756E+04  0.23944922756E+04  0.50400001928E-02 0. -1.
       -1   -1    0    0    0  501  0.00000000000E+00  0.00000000000E+00 -0.12019913270E+04  0.12019913270E+04  0.50400001928E-02 0.  1.
    10030    2    1    2    0    0  0.00000000000E+00  0.00000000000E+00  0.11925009486E+04  0.35964836026E+04  0.33930275259E+04 0.  0.
        3    1    3    3  502    0  0.40937521392E+03 -0.73290608322E+03  0.21589032433E+04  0.23163770454E+04  0.10100000352E+00 0. -1.
       -3    1    3    3    0  502 -0.40937521392E+03  0.73290608322E+03 -0.96640229463E+03  0.12801065572E+04  0.10100000352E+00 0.  1.
</event>
<event>
 5   0  0.4017247E-06  0.3296339E+04  0.7818609E-02  0.8163827E-01
       -2   -1    0    0    0  501  0.00000000000E+00  0.00000000000E+00  0.13027174961E+04  0.13027174961E+04  0.25500000920E-02 0. -1.
        2   -1    0    0  501    0  0.00000000000E+00  0.00000000000E+00 -0.20852283700E+04  0.20852283700E+04  0.25500000920E-02 0.  1.
    10030    2    1    2    0    0  0.00000000000E+00  0.00000000000E+00 -0.78251087386E+03  0.33879458661E+04  0.32963394734E+04 0.  0.
        1    1    3    3  502    0 -0.99579709541E+03 -0.88837818737E+03 -0.13854192515E+04  0.19235940740E+04  0.50400001928E-02 0.  1.
       -1    1    3    3    0  502  0.99579709541E+03  0.88837818737E+03  0.60290837768E+03  0.14643517921E+04  0.50400001928E-02 0. -1.
</event>
<event>
 5   0  0.1339825E-06  0.3234637E+04  0.7818609E-02  0.8179729E-01
       -1   -1    0    0    0  501  0.00000000000E+00  0.00000000000E+00  0.13668444652E+04  0.13668444652E+04  0.50400001928E-02 0. -1.
        1   -1    0    0  501    0  0.00000000000E+00  0.00000000000E+00 -0.19136917425E+04  0.19136917425E+04  0.50400001928E-02 0.  1.
    10030    2    1    2    0    0  0.00000000000E+00  0.00000000000E+00 -0.54684727728E+03  0.32805362077E+04  0.32346368986E+04 0.  0.
        3    1    3    3  502    0 -0.14760277539E+04  0.59224362778E+03 -0.57137550597E+03  0.16899350355E+04  0.10100000352E+00 0.  1.
       -3    1    3    3    0  502  0.14760277539E+04 -0.59224362778E+03  0.24528228689E+02  0.15906011723E+04  0.10100000352E+00 0. -1.
</event>
<event>
 5   0  0.3812379E-06  0.3273192E+04  0.7818609E-02  0.8169750E-01
        2   -1    0    0  501    0  0.00000000000E+00  0.00000000000E+00  0.20777090161E+04  0.20777090161E+04  0.25500000920E-02 0. -1.
       -2   -1    0    0    0  501  0.00000000000E+00  0.00000000000E+00 -0.12891348931E+04  0.12891348931E+04  0.25500000920E-02 0.  1.
    10030    2    1    2    0    0  0.00000000000E+00  0.00000000000E+00  0.78857412304E+03  0.33668439092E+04  0.32731924419E+04 0.  0.
        5    1    3    3  502    0  0.33919424168E+02 -0.12185176970E+04  0.15175428599E+04  0.19465082396E+04  0.46999998093E+01 0. -1.
       -5    1    3    3    0  502 -0.33919424168E+02  0.12185176970E+04 -0.72896873687E+03  0.14203356696E+04  0.46999998093E+01 0.  1.
</event>
<event>
 5   0  0.3896210E-06  0.2180842E+04  0.7818609E-02  0.8526445E-01
        2   -1    0    0  501    0  0.00000000000E+00  0.00000000000E+00  0.15021579263E+04  0.15021579263E+04  0.25500000920E-02 0. -1.
       -2   -1    0    0    0  501  0.00000000000E+00  0.00000000000E+00 -0.79153962530E+03  0.79153962530E+03  0.25500000920E-02 0.  1.
    10030    2    1    2    0    0  0.00000000000E+00  0.00000000000E+00  0.71061830104E+03  0.22936975516E+04  0.21808416010E+04 0.  0.
        3    1    3    3  502    0 -0.24317953877E+03 -0.10195778525E+04  0.39185183602E+02  0.10489093260E+04  0.10100000352E+00 0.  1.
       -3    1    3    3    0  502  0.24317953877E+03  0.10195778525E+04  0.67143311744E+03  0.12447882257E+04  0.10100000352E+00 0. -1.
</event>
<event>
 5   0  0.3896210E-06  0.3172512E+04  0.7818609E-02  0.8196115E-01
       -2   -1    0    0    0  501  0.00000000000E+00  0.00000000000E+00  0.12654438322E+04  0.12654438322E+04  0.25500000920E-02 0. -1.
        2   -1    0    0  501    0  0.00000000000E+00  0.00000000000E+00 -0.19883993559E+04  0.19883993559E+04  0.25500000920E-02 0.  1.
    10030    2    1    2    0    0  0.00000000000E+00  0.00000000000E+00 -0.72295552371E+03  0.32538431881E+04  0.31725117499E+04 0.  0.
        3    1    3    3  502    0  0.60284101133E+03  0.26346614605E+03  0.11189158690E+04  0.12980001646E+04  0.10100000352E+00 0. -1.
       -3    1    3    3    0  502 -0.60284101133E+03 -0.26346614605E+03 -0.18418713927E+04  0.19558430235E+04  0.10100000352E+00 0.  1.
</event>
<event>
 5   0  0.1405389E-06  0.3263299E+04  0.7818609E-02  0.8172297E-01
       -1   -1    0    0    0  501  0.00000000000E+00  0.00000000000E+00  0.10924626535E+04  0.10924626535E+04  0.50400001928E-02 0.  1.
        1   -1    0    0  501    0  0.00000000000E+00  0.00000000000E+00 -0.24369528610E+04  0.24369528610E+04  0.50400001928E-02 0. -1.
    10030    2    1    2    0    0  0.00000000000E+00  0.00000000000E+00 -0.13444902075E+04  0.35294155145E+04  0.32632989375E+04 0.  0.
        1    1    3    3  502    0  0.13158462585E+04  0.95103491035E+03 -0.84784676431E+03  0.18316011882E+04  0.50400001928E-02 0. -1.
       -1    1    3    3    0  502 -0.13158462585E+04 -0.95103491035E+03 -0.49664344321E+03  0.16978143263E+04  0.50400001928E-02 0.  1.
</event>
<event>
 5   0  0.1282578E-06  0.2186289E+04  0.7818609E-02  0.8524157E-01
       -1   -1    0    0    0  501  0.00000000000E+00  0.00000000000E+00  0.59257755629E+03  0.59257755631E+03  0.50400001928E-02 0.  1.
        1   -1    0    0  501    0  0.00000000000E+00  0.00000000000E+00 -0.20165541407E+04  0.20165541407E+04  0.50400001928E-02 0. -1.
    10030    2    1    2    0    0  0.00000000000E+00  0.00000000000E+00 -0.14239765844E+04  0.26091316970E+04  0.21862888417E+04 0.  0.
        4    1    3    3  502    0  0.83595554448E+03 -0.67775040755E+03 -0.94091039831E+03  0.14295038572E+04  0.12699999809E+01 0.  1.
       -4    1    3    3    0  502 -0.83595554448E+03  0.67775040755E+03 -0.48306618607E+03  0.11796278398E+04  0.12699999809E+01 0. -1.
</event>
<event>
 5   0  0.1405389E-06  0.3327322E+04  0.7818609E-02  0.8155978E-01
        1   -1    0    0  501    0  0.00000000000E+00  0.00000000000E+00  0.15193899213E+04  0.15193899213E+04  0.50400001928E-02 0.  1.
       -1   -1    0    0    0  501  0.00000000000E+00  0.00000000000E+00 -0.18216312980E+04  0.18216312980E+04  0.50400001928E-02 0. -1.
    10030    2    1    2    0    0  0.00000000000E+00  0.00000000000E+00 -0.30224137668E+03  0.33410212193E+04  0.33273221873E+04 0.  0.
        1    1    3    3  502    0 -0.31082055802E+03 -0.85692995500E+03 -0.15485508566E+04  0.17969274116E+04  0.50400001928E-02 0. -1.
       -1    1    3    3    0  502  0.31082055802E+03  0.85692995500E+03  0.12463094799E+04  0.15440938077E+04  0.50400001928E-02 0.  1.
</event>
<event>
 5   0  0.1259875E-06  0.3265858E+04  0.7818609E-02  0.8171638E-01
        3   -1    0    0  501    0  0.00000000000E+00  0.00000000000E+00  0.18038013295E+04  0.18038013323E+04  0.10100000352E+00 0. -1.
       -3   -1    0    0    0  501  0.00000000000E+00  0.00000000000E+00 -0.14782429432E+04  0.14782429466E+04  0.10100000352E+00 0.  1.
    10030    2    1    2    0    0  0.00000000000E+00  0.00000000000E+00  0.32555838634E+03  0.32820442789E+04  0.32658576800E+04 0.  0.
        4    1    3    3  502    0  0.91294826468E+02 -0.15991111813E+04  0.48210185516E+03  0.16726969622E+04  0.12699999809E+01 0. -1.
       -4    1    3    3    0  502 -0.91294826468E+02  0.15991111813E+04 -0.15654346882E+03  0.16093473168E+04  0.12699999809E+01 0.  1.
</event>
<event>
 5   0  0.1339825E-06  0.2860735E+04  0.7818609E-02  0.8284657E-01
        1   -1    0    0  501    0  0.00000000000E+00  0.00000000000E+00  0.14202940543E+04  0.14202940543E+04  0.50400001928E-02 0. -1.
       -1   -1    0    0    0  501  0.00000000000E+00  0.00000000000E+00 -0.14405127569E+04  0.14405127569E+04  0.50400001928E-02 0.  1.
    10030    2    1    2    0    0  0.00000000000E+00  0.00000000000E+00 -0.20218702617E+02  0.28608068112E+04  0.28607353626E+04 0.  0.
        3    1    3    3  502    0  0.11048482053E+04 -0.87113251401E+03 -0.26777889979E+03  0.14322244807E+04  0.10100000352E+00 0.  1.
       -3    1    3    3    0  502 -0.11048482053E+04  0.87113251401E+03  0.24756019717E+03  0.14285823305E+04  0.10100000352E+00 0. -1.
</event>
<event>
 5   0  0.1282578E-06  0.3330163E+04  0.7818609E-02  0.8155263E-01
       -1   -1    0    0    0  501  0.00000000000E+00  0.00000000000E+00  0.10545991078E+04  0.10545991078E+04  0.50400001928E-02 0. -1.
        1   -1    0    0  501    0  0.00000000000E+00  0.00000000000E+00 -0.26289575593E+04  0.26289575593E+04  0.50400001928E-02 0.  1.
    10030    2    1    2    0    0  0.00000000000E+00  0.00000000000E+00 -0.15743584515E+04  0.36835566672E+04  0.33301629369E+04 0.  0.
        4    1    3    3  502    0 -0.10039580406E+03 -0.43820405339E+03 -0.25605583887E+04  0.25997236362E+04  0.12699999809E+01 0.  1.
       -4    1    3    3    0  502  0.10039580406E+03  0.43820405339E+03  0.98619993720E+03  0.10838330309E+04  0.12699999809E+01 0. -1.
</event>
<event>
 5   0  0.1391878E-06  0.3268875E+04  0.7818609E-02  0.8170861E-01
        1   -1    0    0  501    0  0.00000000000E+00  0.00000000000E+00  0.26528334437E+04  0.26528334437E+04  0.50400001928E-02 0.  1.
       -1   -1    0    0    0  501  0.00000000000E+00  0.00000000000E+00 -0.10069933220E+04  0.10069933220E+04  0.50400001928E-02 0. -1.
    10030    2    1    2    0    0  0.00000000000E+00  0.00000000000E+00  0.16458401217E+04  0.36598267656E+04  0.32688747679E+04 0.  0.
        2    1    3    3  502    0 -0.12330689393E+04  0.10522168571E+04  0.10571443112E+04  0.19352450538E+04  0.25500000920E-02 0.  1.
       -2    1    3    3    0  502  0.12330689393E+04 -0.10522168571E+04  0.58869581051E+03  0.17245817118E+04  0.25500000920E-02 0. -1.
</event>
<event>
 5   0  0.3671997E-06  0.3303919E+04  0.7818609E-02  0.8161899E-01
       -2   -1    0    0    0  501  0.00000000000E+00  0.00000000000E+00  0.12333780530E+04  0.12333780530E+04  0.25500000920E-02 0. -1.
        2   -1    0    0  501    0  0.00000000000E+00  0.00000000000E+00 -0.22125988990E+04  0.22125988990E+04  0.25500000920E-02 0.  1.
    10030    2    1    2    0    0  0.00000000000E+00  0.00000000000E+00 -0.97922084601E+03  0.34459769519E+04  0.33039194433E+04 0.  0.
        2    1    3    3  502    0  0.13243889684E+04  0.89698806686E+03 -0.92012577679E+03  0.18453252225E+04  0.25500000920E-02 0.  1.
       -2    1    3    3    0  502 -0.13243889684E+04 -0.89698806686E+03 -0.59095069221E+02  0.16006517294E+04  0.25500000920E-02 0. -1.
</event>
<event>
 5   0  0.1352708E-06  0.2463401E+04  0.7818609E-02  0.8416141E-01
        1   -1    0    0  501    0  0.00000000000E+00  0.00000000000E+00  0.20988298562E+04  0.20988298562E+04  0.50400001928E-02 0. -1.
       -1   -1    0    0    0  501  0.00000000000E+00  0.00000000000E+00 -0.72282494079E+03  0.72282494081E+03  0.50400001928E-02 0.  1.
    10030    2    1    2    0    0  0.00000000000E+00  0.00000000000E+00  0.13760049154E+04  0.28216547970E+04  0.24634013612E+04 0.  0.
        5    1    3    3  502    0  0.88802800520E+03 -0.76329219995E+03  0.25055037341E+03  0.11975000209E+04  0.46999998093E+01 0.  1.
       -5    1    3    3    0  502 -0.88802800520E+03  0.76329219995E+03  0.11254545420E+04  0.16241547761E+04  0.46999998093E+01 0. -1.
</event>
<event>
 5   0  0.1339825E-06  0.3306208E+04  0.7818609E-02  0.8161318E-01
       -1   -1    0    0    0  501  0.00000000000E+00  0.00000000000E+00  0.16065508783E+04  0.16065508783E+04  0.50400001928E-02 0. -1.
        1   -1    0    0  501    0  0.00000000000E+00  0.00000000000E+00 -0.17010056723E+04  0.17010056723E+04  0.50400001928E-02 0.  1.
    10030    2    1    2    0    0  0.00000000000E+00  0.00000000000E+00 -0.94454794017E+02  0.33075565507E+04  0.33062075899E+04 0.  0.
        3    1    3    3  502    0  0.47746780172E+03  0.12772873370E+04 -0.98212123477E+03  0.16804762935E+04  0.10100000352E+00 0.  1.
       -3    1    3    3    0  502 -0.47746780172E+03 -0.12772873370E+04  0.88766644075E+03  0.16270802572E+04  0.10100000352E+00 0. -1.
</event>
<event>
 5   0  0.3671997E-06  0.2673566E+04  0.7818609E-02  0.8343633E-01
       -2   -1    0    0    0  501  0.00000000000E+00  0.00000000000E+00  0.13577432905E+04  0.13577432905E+04  0.25500000920E-02 0.  1.
        2   -1    0    0  501    0  0.00000000000E+00  0.00000000000E+00 -0.13161461722E+04  0.13161461722E+04  0.25500000920E-02 0. -1.
    10030    2    1    2    0    0  0.00000000000E+00  0.00000000000E+00  0.41597118295E+02  0.26738894628E+04  0.26735658845E+04 0.  0.
        2    1    3    3  502    0  0.10392248857E+03 -0.99082242357E+03 -0.87063399161E+03  0.13230769086E+04  0.25500000920E-02 0. -1.
       -2    1    3    3    0  502 -0.10392248857E+03  0.99082242357E+03  0.91223110990E+03  0.13508125542E+04  0.25500000920E-02 0.  1.
</event>
<event>
 5   0  0.1391878E-06  0.3335378E+04  0.7818609E-02  0.8153951E-01
       -1   -1    0    0    0  501  0.00000000000E+00  0.00000000000E+00  0.12911938787E+04  0.12911938787E+04  0.50400001928E-02 0. -1.
        1   -1    0    0  501    0  0.00000000000E+00  0.00000000000E+00 -0.21539651709E+04  0.21539651709E+04  0.50400001928E-02 0.  1.
    10030    2    1    2    0    0  0.00000000000E+00  0.00000000000E+00 -0.86277129219E+03  0.34451590495E+04  0.33353780256E+04 0.  0.
        2    1    3    3  502    0  0.85307257940E+03  0.97111992479E+03 -0.15198144113E+04  0.19951547756E+04  0.25500000920E-02 0.  1.
       -2    1    3    3    0  502 -0.85307257940E+03 -0.97111992479E+03  0.65704311906E+03  0.14500042739E+04  0.25500000920E-02 0. -1.
</event>
<event>
 5   0  0.1352708E-06  0.2873375E+04  0.7818609E-02  0.8280844E-01
       -1   -1    0    0    0  501  0.00000000000E+00  0.00000000000E+00  0.12387916686E+04  0.12387916686E+04  0.50400001928E-02 0.  1.
        1   -1    0    0  501    0  0.00000000000E+00  0.00000000000E+00 -0.16661967549E+04  0.16661967549E+04  0.50400001928E-02 0. -1.
    10030    2    1    2    0    0  0.00000000000E+00  0.00000000000E+00 -0.42740508633E+03  0.29049884235E+04  0.28733747812E+04 0.  0.
        5    1    3    3  502    0 -0.79871399466E+03 -0.40325045549E+03 -0.13501219780E+04  0.16196933106E+04  0.46999998093E+01 0. -1.
       -5    1    3    3    0  502  0.79871399466E+03  0.40325045549E+03  0.92271689164E+03  0.12852951129E+04  0.46999998093E+01 0.  1.
</event>
<event>
 5   0  0.4017247E-06  0.3213687E+04  0.7818609E-02  0.8185212E-01
       -2   -1    0    0    0  501  0.00000000000E+00  0.00000000000E+00  0.12553535838E+04  0.12553535838E+04  0.25500000920E-02 0.  1.
        2   -1    0    0  501    0  0.00000000000E+00  0.00000000000E+00 -0.20567485092E+04  0.20567485092E+04  0.25500000920E-02 0. -1.
    10030    2    1    2    0    0  0.00000000000E+00  0.00000000000E+00 -0.80139492542E+03  0.33121020930E+04  0.32136873600E+04 0.  0.
        1    1    3    3  502    0  0.13842407405E+04  0.60404605106E+03  0.16469381710E+03  0.15192491938E+04  0.50400001928E-02 0. -1.
       -1    1    3    3    0  502 -0.13842407405E+04 -0.60404605106E+03 -0.96608874253E+03  0.17928528992E+04  0.50400001928E-02 0.  1.
</event>
<event>
 5   0  0.3671997E-06  0.3310454E+04  0.7818609E-02  0.8160240E-01
       -2   -1    0    0    0  501  0.00000000000E+00  0.00000000000E+00  0.21243000385E+04  0.21243000385E+04  0.25500000920E-02 0.  1.
        2   -1    0    0  501    0  0.00000000000E+00  0.00000000000E+00 -0.12897315884E+04  0.12897315884E+04  0.25500000920E-02 0. -1.
    10030    2    1    2    0    0  0.00000000000E+00  0.00000000000E+00  0.83456845004E+03  0.34140316269E+04  0.33104542666E+04 0.  0.
        2    1    3    3  502    0 -0.38659017059E+03  0.12438210506E+04  0.14706297001E+04  0.19645087123E+04  0.25500000920E-02 0.  1.
       -2    1    3    3    0  502  0.38659017059E+03 -0.12438210506E+04 -0.63606125003E+03  0.14495229146E+04  0.25500000920E-02 0. -1.
</event>
<event>
 5   0  0.3920487E-06  0.3315620E+04  0.7818609E-02  0.8158932E-01
        2   -1    0    0  501    0  0.00000000000E+00  0.00000000000E+00  0.12322122616E+04  0.12322122616E+04  0.25500000920E-02 0.  1.
       -2   -1    0    0    0  501  0.00000000000E+00  0.00000000000E+00 -0.22304060648E+04  0.22304060648E+04  0.25500000920E-02 0. -1.
    10030    2    1    2    0    0  0.00000000000E+00  0.00000000000E+00 -0.99819380313E+03  0.34626183264E+04  0.33156198223E+04 0.  0.
        4    1    3    3  502    0  0.83999022599E+03  0.14158439198E+04 -0.70303527197E+03  0.17900999390E+04  0.12699999809E+01 0. -1.
       -4    1    3    3    0  502 -0.83999022599E+03 -0.14158439198E+04 -0.29515853117E+03  0.16725183874E+04  0.12699999809E+01 0.  1.
</event>
<event>
 5   0  0.3812379E-06  0.3259851E+04  0.7818609E-02  0.8173187E-01
       -2   -1    0    0    0  501  0.00000000000E+00  0.00000000000E+00  0.10066122990E+04  0.10066122990E+04  0.25500000920E-02 0. -1.
        2   -1    0    0  501    0  0.00000000000E+00  0.00000000000E+00 -0.26392061002E+04  0.26392061002E+04  0.25500000920E-02 0.  1.
    10030    2    1    2    0    0  0.00000000000E+00  0.00000000000E+00 -0.16325938011E+04  0.36458183992E+04  0.32598511133E+04 0.  0.
        5    1    3    3  502    0  0.20067226944E+03 -0.93735417785E+03 -0.22906068403E+04  0.24831037033E+04  0.46999998093E+01 0.  1.
       -5    1    3    3    0  502 -0.20067226944E+03  0.93735417785E+03  0.65801303916E+03  0.11627146959E+04  0.46999998093E+01 0. -1.
</event>
<event>
 5   0  0.3920487E-06  0.2713641E+04  0.7818609E-02  0.8330593E-01
       -2   -1    0    0    0  501  0.00000000000E+00  0.00000000000E+00  0.13020322665E+04  0.13020322665E+04  0.25500000920E-02 0. -1.
        2   -1    0    0  501    0  0.00000000000E+00  0.00000000000E+00 -0.14139137121E+04  0.14139137121E+04  0.25500000920E-02 0.  1.
    10030    2    1    2    0    0  0.00000000000E+00  0.00000000000E+00 -0.11188144561E+03  0.27159459787E+04  0.27136405623E+04 0.  0.
        4    1    3    3  502    0 -0.13080360019E+04  0.33455838259E+03 -0.19048769955E+03  0.13635155555E+04  0.12699999809E+01 0.  1.
       -4    1    3    3    0  502  0.13080360019E+04 -0.33455838259E+03  0.78606253944E+02  0.13524304232E+04  0.12699999809E+01 0. -1.
</event>
<event>
 5   0  0.4017247E-06  0.3308396E+04  0.7818609E-02  0.8160762E-01
        2   -1    0    0  501    0  0.00000000000E+00  0.00000000000E+00  0.21609210850E+04  0.21609210850E+04  0.25500000920E-02 0. -1.
       -2   -1    0    0    0  501  0.00000000000E+00  0.00000000000E+00 -0.12662983952E+04  0.12662983952E+04  0.25500000920E-02 0.  1.
    10030    2    1    2    0    0  0.00000000000E+00  0.00000000000E+00  0.89462268982E+03  0.34272194803E+04  0.33083959268E+04 0.  0.
        1    1    3    3  502    0 -0.11395057498E+04  0.27340442214E+03  0.16567835077E+04  0.20293237601E+04  0.50400001928E-02 0. -1.
       -1    1    3    3    0  502  0.11395057498E+04 -0.27340442214E+03 -0.76216081790E+03  0.13978957201E+04  0.50400001928E-02 0.  1.
</event>
<event>
 5   0  0.1282578E-06  0.3372022E+04  0.7818609E-02  0.8144807E-01
       -1   -1    0    0    0  501  0.00000000000E+00  0.00000000000E+00  0.14514490764E+04  0.14514490764E+04  0.50400001928E-02 0. -1.
        1   -1    0    0  501    0  0.00000000000E+00  0.00000000000E+00 -0.19584795542E+04  0.19584795542E+04  0.50400001928E-02 0.  1.
    10030    2    1    2    0    0  0.00000000000E+00  0.00000000000E+00 -0.50703047776E+03  0.34099286306E+04  0.33720221471E+04 0.  0.
        4    1    3    3  502    0  0.22641426649E+03  0.48739514665E+03  0.13625151615E+04  0.14646728738E+04  0.12699999809E+01 0. -1.
       -4    1    3    3    0  502 -0.22641426649E+03 -0.48739514665E+03 -0.18695456393E+04  0.19452557568E+04  0.12699999809E+01 0.  1.
</event>
<event>
 5   0  0.3671997E-06  0.3119209E+04  0.7818609E-02  0.8210486E-01
       -2   -1    0    0    0  501  0.00000000000E+00  0.00000000000E+00  0.14759645991E+04  0.14759645991E+04  0.25500000920E-02 0.  1.
        2   -1    0    0  501    0  0.00000000000E+00  0.00000000000E+00 -0.16479836107E+04  0.16479836107E+04  0.25500000920E-02 0. -1.
    10030    2    1    2    0    0  0.00000000000E+00  0.00000000000E+00 -0.17201901165E+03  0.31239482098E+04  0.31192085337E+04 0.  0.
        2    1    3    3  502    0  0.11277080558E+04  0.87078012127E+03  0.54929024110E+03  0.15269915677E+04  0.25500000920E-02 0. -1.
       -2    1    3    3    0  502 -0.11277080558E+04 -0.87078012127E+03 -0.72130925275E+03  0.15969566421E+04  0.25500000920E-02 0.  1.
</event>
<event>
 5   0  0.3896210E-06  0.3008855E+04  0.7818609E-02  0.8241207E-01
        2   -1    0    0  501    0  0.00000000000E+00  0.00000000000E+00  0.17017623648E+04  0.17017623648E+04  0.25500000920E-02 0. -1.
       -2   -1    0    0    0  501  0.00000000000E+00  0.00000000000E+00 -0.13299750694E+04  0.13299750694E+04  0.25500000920E-02 0.  1.
    10030    2    1    2    0    0  0.00000000000E+00  0.00000000000E+00  0.37178729542E+03  0.30317374341E+04  0.30088546121E+04 0.  0.
        3    1    3    3  502    0 -0.11494638761E+03  0.14660036009E+04  0.50599234591E+03  0.15551229836E+04  0.10100000352E+00 0. -1.
       -3    1    3    3    0  502  0.11494638761E+03 -0.14660036009E+04 -0.13420505050E+03  0.14766144505E+04  0.10100000352E+00 0.  1.
</event>
<event>
 5   0  0.3812379E-06  0.3183600E+04  0.7818609E-02  0.8193162E-01
       -2   -1    0    0    0  501  0.00000000000E+00  0.00000000000E+00  0.10945341779E+04  0.10945341779E+04  0.25500000920E-02 0.  1.
        2   -1    0    0  501    0  0.00000000000E+00  0.00000000000E+00 -0.23149824991E+04  0.23149824991E+04  0.25500000920E-02 0. -1.
    10030    2    1    2    0    0  0.00000000000E+00  0.00000000000E+00 -0.12204483212E+04  0.34095166770E+04  0.31836001422E+04 0.  0.
        5    1    3    3  502    0  0.21326775836E+03  0.46395497812E+03 -0.22248820516E+04  0.22827307314E+04  0.46999998093E+01 0. -1.
       -5    1    3    3    0  502 -0.21326775836E+03 -0.46395497812E+03  0.10044337304E+04  0.11267859456E+04  0.46999998093E+01 0.  1.
</event>
<event>
 5   0  0.4017247E-06  0.3285127E+04  0.7818609E-02  0.8166690E-01
       -2   -1    0    0    0  501  0.00000000000E+00  0.00000000000E+00  0.10715044917E+04  0.10715044917E+04  0.25500000920E-02 0.  1.
        2   -1    0    0  501    0  0.00000000000E+00  0.00000000000E+00 -0.25179692763E+04  0.25179692763E+04  0.25500000920E-02 0. -1.
    10030    2    1    2    0    0  0.00000000000E+00  0.00000000000E+00 -0.14464647846E+04  0.35894737680E+04  0.32851273275E+04 0.  0.
        1    1    3    3  502    0  0.31737144128E+03 -0.12165231359E+04 -0.18782153283E+04  0.22601650363E+04  0.50400001928E-02 0. -1.
       -1    1    3    3    0  502 -0.31737144128E+03  0.12165231359E+04  0.43175054377E+03  0.13293087316E+04  0.50400001928E-02 0.  1.
</event>
<event>
 5   0  0.1405389E-06  0.3380220E+04  0.7818609E-02  0.8142778E-01
       -1   -1    0    0    0  501  0.00000000000E+00  0.00000000000E+00  0.14410403295E+04  0.14410403295E+04  0.50400001928E-02 0.  1.
        1   -1    0    0  501    0  0.00000000000E+00  0.00000000000E+00 -0.19822292664E+04  0.19822292664E+04  0.50400001928E-02 0. -1.
    10030    2    1    2    0    0  0.00000000000E+00  0.00000000000E+00 -0.54118893695E+03  0.34232695959E+04  0.33802202977E+04 0.  0.
        1    1    3    3  502    0  0.10897690015E+04  0.10240148337E+04 -0.10681965826E+04  0.18377287056E+04  0.50400001928E-02 0. -1.
       -1    1    3    3    0  502 -0.10897690015E+04 -0.10240148337E+04  0.52700764570E+03  0.15855408903E+04  0.50400001928E-02 0.  1.
</event>
<event>
 5   0  0.3671997E-06  0.3188085E+04  0.7818609E-02  0.8191971E-01
        2   -1    0    0  501    0  0.00000000000E+00  0.00000000000E+00  0.16610836324E+04  0.16610836324E+04  0.25500000920E-02 0. -1.
       -2   -1    0    0    0  501  0.00000000000E+00  0.00000000000E+00 -0.15297067251E+04  0.15297067251E+04  0.25500000920E-02 0.  1.
    10030    2    1    2    0    0  0.00000000000E+00  0.00000000000E+00  0.13137690735E+03  0.31907903575E+04  0.31880845682E+04 0.  0.
        2    1    3    3  502    0 -0.12727805025E+04  0.39404307161E+03 -0.81011459841E+03  0.15593350546E+04  0.25500000920E-02 0.  1.
       -2    1    3    3    0  502  0.12727805025E+04 -0.39404307161E+03  0.94149150577E+03  0.16314553029E+04  0.25500000920E-02 0. -1.
</event>
<event>
 5   0  0.1352708E-06  0.3281784E+04  0.7818609E-02  0.8167546E-01
       -1   -1    0    0    0  501  0.00000000000E+00  0.00000000000E+00  0.19932752068E+04  0.19932752068E+04  0.50400001928E-02 0.  1.
        1   -1    0    0  501    0  0.00000000000E+00  0.00000000000E+00 -0.13508051909E+04  0.13508051909E+04  0.50400001928E-02 0. -1.
    10030    2    1    2    0    0  0.00000000000E+00  0.00000000000E+00  0.64247001595E+03  0.33440803977E+04  0.32817839637E+04 0.  0.
        5    1    3    3  502    0 -0.15108178737E+04  0.43133941766E+03  0.80337641872E+03  0.17646699694E+04  0.46999998093E+01 0. -1.
       -5    1    3    3    0  502  0.15108178737E+04 -0.43133941766E+03 -0.16090640278E+03  0.15794104283E+04  0.46999998093E+01 0.  1.
</event>
<event>
 5   0  0.3812379E-06  0.2584201E+04  0.7818609E-02  0.8373587E-01
        2   -1    0    0  501    0  0.00000000000E+00  0.00000000000E+00  0.15115817732E+04  0.15115817732E+04  0.25500000920E-02 0. -1.
       -2   -1    0    0    0  501  0.00000000000E+00  0.00000000000E+00 -0.11044882330E+04  0.11044882330E+04  0.25500000920E-02 0.  1.
    10030    2    1    2    0    0  0.00000000000E+00  0.00000000000E+00  0.40709354018E+03  0.26160700062E+04  0.25842014486E+04 0.  0.
        5    1    3    3  502    0 -0.51543546646E+03 -0.17860553143E+03  0.13892847770E+04  0.14925508157E+04  0.46999998093E+01 0. -1.
       -5    1    3    3    0  502  0.51543546646E+03  0.17860553143E+03 -0.98219123678E+03  0.11235191906E+04  0.46999998093E+01 0.  1.
</event>
<event>
 5   0  0.1282578E-06  0.3293026E+04  0.7818609E-02  0.8164672E-01
       -1   -1    0    0    0  501  0.00000000000E+00  0.00000000000E+00  0.17130237910E+04  0.17130237910E+04  0.50400001928E-02 0.  1.
        1   -1    0    0  501    0  0.00000000000E+00  0.00000000000E+00 -0.15825848659E+04  0.15825848659E+04  0.50400001928E-02 0. -1.
    10030    2    1    2    0    0  0.00000000000E+00  0.00000000000E+00  0.13043892514E+03  0.32956086569E+04  0.32930262839E+04 0.  0.
        4    1    3    3  502    0 -0.10012556694E+04 -0.11048318444E+04 -0.63378197733E+03  0.16201381199E+04  0.12699999809E+01 0. -1.
       -4    1    3    3    0  502  0.10012556694E+04  0.11048318444E+04  0.76422090247E+03  0.16754705371E+04  0.12699999809E+01 0.  1.
</event>
<event>
 5   0  0.3920487E-06  0.3311965E+04  0.7818609E-02  0.8159858E-01
        2   -1    0    0  501    0  0.00000000000E+00  0.00000000000E+00  0.12472174850E+04  0.12472174850E+04  0.25500000920E-02 0. -1.
       -2   -1    0    0    0  501  0.00000000000E+00  0.00000000000E+00 -0.21987161534E+04  0.21987161534E+04  0.25500000920E-02 0.  1.
    10030    2    1    2    0    0  0.00000000000E+00  0.00000000000E+00 -0.95149866832E+03  0.34459336384E+04  0.33119645113E+04 0.  0.
        4    1    3    3  502    0 -0.23134238193E+02 -0.16428913766E+04 -0.69061763635E+03  0.17822967207E+04  0.12699999809E+01 0.  1.
       -4    1    3    3    0  502  0.23134238193E+02  0.16428913766E+04 -0.26088103197E+03  0.16636369177E+04  0.12699999809E+01 0. -1.
</event>
<event>
 5   0  0.1405389E-06  0.3313550E+04  0.7818609E-02  0.8159456E-01
        1   -1    0    0  501    0  0.00000000000E+00  0.00000000000E+00  0.22363594412E+04  0.22363594412E+04  0.50400001928E-02 0.  1.
       -1   -1    0    0    0  501  0.00000000000E+00  0.00000000000E+00 -0.12273984344E+04  0.12273984344E+04  0.50400001928E-02 0. -1.
    10030    2    1    2    0    0  0.00000000000E+00  0.00000000000E+00  0.10089610067E+04  0.34637578756E+04  0.33135504082E+04 0.  0.
        1    1    3    3  502    0  0.12959218957E+04 -0.26015668243E+03  0.15486660000E+04  0.20360406280E+04  0.50400001928E-02 0.  1.
       -1    1    3    3    0  502 -0.12959218957E+04  0.26015668243E+03 -0.53970499329E+03  0.14277172476E+04  0.50400001928E-02 0. -1.
</event>
<event>
 5   0  0.4017247E-06  0.2586112E+04  0.7818609E-02  0.8372934E-01
        2   -1    0    0  501    0  0.00000000000E+00  0.00000000000E+00  0.22953271910E+04  0.22953271910E+04  0.25500000920E-02 0.  1.
       -2   -1    0    0    0  501  0.00000000000E+00  0.00000000000E+00 -0.72843399672E+03  0.72843399672E+03  0.25500000920E-02 0. -1.
    10030    2    1    2    0    0  0.00000000000E+00  0.00000000000E+00  0.15668931943E+04  0.30237611878E+04  0.25861124179E+04 0.  0.
        1    1    3    3  502    0  0.10852117954E+04 -0.17657132862E+02  0.16052400167E+04  0.19377285482E+04  0.50400001928E-02 0.  1.
       -1    1    3    3    0  502 -0.10852117954E+04  0.17657132862E+02 -0.38346822406E+02  0.10860326395E+04  0.50400001928E-02 0. -1.
</event>
<event>
 5   0  0.1282578E-06  0.3261538E+04  0.7818609E-02  0.8172752E-01
       -1   -1    0    0    0  501  0.00000000000E+00  0.00000000000E+00  0.20765390154E+04  0.20765390154E+04  0.50400001928E-02 0. -1.
        1   -1    0    0  501    0  0.00000000000E+00  0.00000000000E+00 -0.12806925008E+04  0.12806925008E+04  0.50400001928E-02 0.  1.
    10030    2    1    2    0    0  0.00000000000E+00  0.00000000000E+00  0.79584651461E+03  0.33572315162E+04  0.32615382535E+04 0.  0.
        4    1    3    3  502    0 -0.88960399468E+03 -0.58451824633E+02 -0.10076419823E+04  0.13454203286E+04  0.12699999809E+01 0.  1.
       -4    1    3    3    0  502  0.88960399468E+03  0.58451824633E+02  0.18034884969E+04  0.20118111876E+04  0.12699999809E+01 0. -1.
</event>
<event>
 5   0  0.3896210E-06  0.3372561E+04  0.7818609E-02  0.8144674E-01
       -2   -1    0    0    0  501  0.00000000000E+00  0.00000000000E+00  0.14235926176E+04  0.14235926176E+04  0.25500000920E-02 0.  1.
        2   -1    0    0  501    0  0.00000000000E+00  0.00000000000E+00 -0.19974402151E+04  0.19974402151E+04  0.25500000920E-02 0. -1.
    10030    2    1    2    0    0  0.00000000000E+00  0.00000000000E+00 -0.57384759756E+03  0.34210328327E+04  0.33725605372E+04 0.  0.
        3    1    3    3  502    0  0.52105770004E+03  0.13822583438E+04 -0.11118786869E+04  0.18488952054E+04  0.10100000352E+00 0. -1.
       -3    1    3    3    0  502 -0.52105770004E+03 -0.13822583438E+04  0.53803108936E+03  0.15721376273E+04  0.10100000352E+00 0.  1.
</event>
<event>
 5   0  0.1339825E-06  0.3231109E+04  0.7818609E-02  0.8180649E-01
       -1   -1    0    0    0  501  0.00000000000E+00  0.00000000000E+00  0.17287991918E+04  0.17287991918E+04  0.50400001928E-02 0.  1.
        1   -1    0    0  501    0  0.00000000000E+00  0.00000000000E+00 -0.15097277665E+04  0.15097277665E+04  0.50400001928E-02 0. -1.
    10030    2    1    2    0    0  0.00000000000E+00  0.00000000000E+00  0.21907142534E+03  0.32385269583E+04  0.32311088762E+04 0.  0.
        3    1    3    3  502    0  0.12272128229E+04 -0.78979364416E+03 -0.58501322356E+03  0.15722804441E+04  0.10100000352E+00 0. -1.
       -3    1    3    3    0  502 -0.12272128229E+04  0.78979364416E+03  0.80408464890E+03  0.16662465141E+04  0.10100000352E+00 0.  1.
</event>
<event>
 5   0  0.4017247E-06  0.3252704E+04  0.7818609E-02  0.8175035E-01
       -2   -1    0    0    0  501  0.00000000000E+00  0.00000000000E+00  0.17733091962E+04  0.17733091962E+04  0.25500000920E-02 0.  1.
        2   -1    0    0  501    0  0.00000000000E+00  0.00000000000E+00 -0.14915736906E+04  0.14915736906E+04  0.25500000920E-02 0. -1.
    10030    2    1    2    0    0  0.00000000000E+00  0.00000000000E+00  0.28173550563E+03  0.32648828868E+04  0.32527043163E+04 0.  0.
        1    1    3    3  502    0 -0.92469099232E+02 -0.97239391482E+03 -0.11643550885E+04  0.15198102618E+04  0.50400001928E-02 0. -1.
       -1    1    3    3    0  502  0.92469099232E+02  0.97239391482E+03  0.14460905941E+04  0.17450726249E+04  0.50400001928E-02 0.  1.
</event>
<event>
 5   0  0.1282578E-06  0.3281405E+04  0.7818609E-02  0.8167643E-01
       -1   -1    0    0    0  501  0.00000000000E+00  0.00000000000E+00  0.26183150254E+04  0.26183150254E+04  0.50400001928E-02 0.  1.
        1   -1    0    0  501    0  0.00000000000E+00  0.00000000000E+00 -0.10281057887E+04  0.10281057888E+04  0.50400001928E-02 0. -1.
    10030    2    1    2    0    0  0.00000000000E+00  0.00000000000E+00  0.15902092367E+04  0.36464208142E+04  0.32814050859E+04 0.  0.
        4    1    3    3  502    0  0.16029660280E+04  0.28542624364E+03  0.57027459500E+03  0.17251617183E+04  0.12699999809E+01 0. -1.
       -4    1    3    3    0  502 -0.16029660280E+04 -0.28542624364E+03  0.10199346417E+04  0.19212590959E+04  0.12699999809E+01 0.  1.
</event>
<event>
 5   0  0.3896210E-06  0.3275534E+04  0.7818609E-02  0.8169149E-01
        2   -1    0    0  501    0  0.00000000000E+00  0.00000000000E+00  0.18263826635E+04  0.18263826635E+04  0.25500000920E-02 0. -1.
       -2   -1    0    0    0  501  0.00000000000E+00  0.00000000000E+00 -0.14686300758E+04  0.14686300758E+04  0.25500000920E-02 0.  1.
    10030    2    1    2    0    0  0.00000000000E+00  0.00000000000E+00  0.35775258769E+03  0.32950127394E+04  0.32755338555E+04 0.  0.
        3    1    3    3  502    0 -0.92967374899E+03  0.12465580759E+04 -0.33806700712E+03  0.15913797874E+04  0.10100000352E+00 0. -1.
       -3    1    3    3    0  502  0.92967374899E+03 -0.12465580759E+04  0.69581959481E+03  0.17036329519E+04  0.10100000352E+00 0.  1.
</event>
<event>
 5   0  0.1282578E-06  0.3312352E+04  0.7818609E-02  0.8159759E-01
       -1   -1    0    0    0  501  0.00000000000E+00  0.00000000000E+00  0.11258356547E+04  0.11258356547E+04  0.50400001928E-02 0.  1.
        1   -1    0    0  501    0  0.00000000000E+00  0.00000000000E+00 -0.24363406414E+04  0.24363406414E+04  0.50400001928E-02 0. -1.
    10030    2    1    2    0    0  0.00000000000E+00  0.00000000000E+00 -0.13105049868E+04  0.35621762961E+04  0.33123521317E+04 0.  0.
        4    1    3    3  502    0  0.26844138189E+02 -0.13944202186E+04 -0.16158091465E+04  0.21344716359E+04  0.12699999809E+01 0. -1.
       -4    1    3    3    0  502 -0.26844138189E+02  0.13944202186E+04  0.30530415978E+03  0.14277046601E+04  0.12699999809E+01 0.  1.
</event>
<event>
 5   0  0.1259875E-06  0.3359513E+04  0.7818609E-02  0.8147915E-01
       -3   -1    0    0    0  501  0.00000000000E+00  0.00000000000E+00  0.17709093685E+04  0.17709093714E+04  0.10100000352E+00 0.  1.
        3   -1    0    0  501    0  0.00000000000E+00  0.00000000000E+00 -0.15932950665E+04  0.15932950697E+04  0.10100000352E+00 0. -1.
    10030    2    1    2    0    0  0.00000000000E+00  0.00000000000E+00  0.17761430200E+03  0.33642044411E+04  0.33595125660E+04 0.  0.
        1    1    3    3  502    0  0.14743128537E+04  0.62025127799E+03 -0.42500897489E+03  0.16549751258E+04  0.50400001928E-02 0. -1.
       -1    1    3    3    0  502 -0.14743128537E+04 -0.62025127799E+03  0.60262327689E+03  0.17092293153E+04  0.50400001928E-02 0.  1.
</event>
<event>
 5   0  0.1282578E-06  0.3313084E+04  0.7818609E-02  0.8159574E-01
        1   -1    0    0  501    0  0.00000000000E+00  0.00000000000E+00  0.13928916730E+04  0.13928916730E+04  0.50400001928E-02 0.  1.
       -1   -1    0    0    0  501  0.00000000000E+00  0.00000000000E+00 -0.19700972207E+04  0.19700972207E+04  0.50400001928E-02 0. -1.
    10030    2    1    2    0    0  0.00000000000E+00  0.00000000000E+00 -0.57720554772E+03  0.33629888936E+04  0.33130843718E+04 0.  0.
        4    1    3    3  502    0 -0.24774661639E+03  0.14894957812E+04 -0.98015365899E+03  0.18001885669E+04  0.12699999809E+01 0. -1.
       -4    1    3    3    0  502  0.24774661639E+03 -0.14894957812E+04  0.40294811127E+03  0.15628003268E+04  0.12699999809E+01 0.  1.
</event>
<event>
 5   0  0.1352708E-06  0.3098154E+04  0.7818609E-02  0.8216245E-01
        1   -1    0    0  501    0  0.00000000000E+00  0.00000000000E+00  0.16262606257E+04  0.16262606257E+04  0.50400001928E-02 0.  1.
       -1   -1    0    0    0  501  0.00000000000E+00  0.00000000000E+00 -0.14755566597E+04  0.14755566597E+04  0.50400001928E-02 0. -1.
    10030    2    1    2    0    0  0.00000000000E+00  0.00000000000E+00  0.15070396599E+03  0.31018172855E+04  0.30981540935E+04 0.  0.
        5    1    3    3  502    0  0.48863571946E+03 -0.61965679778E+02  0.15457658104E+04  0.16223497287E+04  0.46999998093E+01 0.  1.
       -5    1    3    3    0  502 -0.48863571946E+03  0.61965679778E+02 -0.13950618444E+04  0.14794675567E+04  0.46999998093E+01 0. -1.
</event>
<event>
 5   0  0.3671997E-06  0.3249399E+04  0.7818609E-02  0.8175892E-01
        2   -1    0    0  501    0  0.00000000000E+00  0.00000000000E+00  0.16024485512E+04  0.16024485512E+04  0.25500000920E-02 0. -1.
       -2   -1    0    0    0  501  0.00000000000E+00  0.00000000000E+00 -0.16472591361E+04  0.16472591361E+04  0.25500000920E-02 0.  1.
    10030    2    1    2    0    0  0.00000000000E+00  0.00000000000E+00 -0.44810584884E+02  0.32497076873E+04  0.32493987236E+04 0.  0.
        2    1    3    3  502    0 -0.73296986625E+03  0.82398476108E+03 -0.12156039394E+04  0.16413069940E+04  0.25500000920E-02 0.  1.
       -2    1    3    3    0  502  0.73296986625E+03 -0.82398476108E+03  0.11707933545E+04  0.16084006933E+04  0.25500000920E-02 0. -1.
</event>
<event>
 5   0  0.3920487E-06  0.3221868E+04  0.7818609E-02  0.8183066E-01
       -2   -1    0    0    0  501  0.00000000000E+00  0.00000000000E+00  0.17706352094E+04  0.17706352094E+04  0.25500000920E-02 0. -1.
        2   -1    0    0  501    0  0.00000000000E+00  0.00000000000E+00 -0.14656367628E+04  0.14656367628E+04  0.25500000920E-02 0.  1.
    10030    2    1    2    0    0  0.00000000000E+00  0.00000000000E+00  0.30499844661E+03  0.32362719723E+04  0.32218678164E+04 0.  0.
        4    1    3    3  502    0  0.40528748667E+03 -0.15418115591E+04  0.38519330634E+03  0.16400659520E+04  0.12699999809E+01 0. -1.
       -4    1    3    3    0  502 -0.40528748667E+03  0.15418115591E+04 -0.80194859724E+02  0.15962060203E+04  0.12699999809E+01 0.  1.
</event>
<event>
 5   0  0.3812379E-06  0.3262611E+04  0.7818609E-02  0.8172475E-01
       -2   -1    0    0    0  501  0.00000000000E+00  0.00000000000E+00  0.10583615869E+04  0.10583615869E+04  0.25500000920E-02 0. -1.
        2   -1    0    0  501    0  0.00000000000E+00  0.00000000000E+00 -0.25144122910E+04  0.25144122910E+04  0.25500000920E-02 0.  1.
    10030    2    1    2    0    0  0.00000000000E+00  0.00000000000E+00 -0.14560507041E+04  0.35727738779E+04  0.32626108456E+04 0.  0.
        5    1    3    3  502    0 -0.82939076598E+03 -0.14030449056E+04 -0.80318902517E+03  0.18170191936E+04  0.46999998093E+01 0.  1.
       -5    1    3    3    0  502  0.82939076598E+03  0.14030449056E+04 -0.65286167895E+03  0.17557546843E+04  0.46999998093E+01 0. -1.
</event>
<event>
 5   0  0.3812379E-06  0.3350172E+04  0.7818609E-02  0.8150245E-01
       -2   -1    0    0    0  501  0.00000000000E+00  0.00000000000E+00  0.16483730960E+04  0.16483730960E+04  0.25500000920E-02 0.  1.
        2   -1    0    0  501    0  0.00000000000E+00  0.00000000000E+00 -0.17022313723E+04  0.17022313723E+04  0.25500000920E-02 0. -1.
    10030    2    1    2    0    0  0.00000000000E+00  0.00000000000E+00 -0.53858276211E+02  0.33506044683E+04  0.33501715761E+04 0.  0.
        5    1    3    3  502    0 -0.75423555258E+03 -0.88114334902E+03  0.11817821283E+04  0.16558731712E+04  0.46999998093E+01 0.  1.
       -5    1    3    3    0  502  0.75423555258E+03  0.88114334902E+03 -0.12356404045E+04  0.16947312971E+04  0.46999998093E+01 0. -1.
</event>
<event>
 5   0  0.1282578E-06  0.3164751E+04  0.7818609E-02  0.8198189E-01
        1   -1    0    0  501    0  0.00000000000E+00  0.00000000000E+00  0.18548976453E+04  0.18548976453E+04  0.50400001928E-02 0. -1.
       -1   -1    0    0    0  501  0.00000000000E+00  0.00000000000E+00 -0.13498924559E+04  0.13498924560E+04  0.50400001928E-02 0.  1.
    10030    2    1    2    0    0  0.00000000000E+00  0.00000000000E+00  0.50500518932E+03  0.32047901012E+04  0.31647510726E+04 0.  0.
        4    1    3    3  502    0  0.78063129830E+03 -0.12048694027E+04 -0.42135993257E+03  0.14962089784E+04  0.12699999809E+01 0. -1.
       -4    1    3    3    0  502 -0.78063129830E+03  0.12048694027E+04  0.92636512189E+03  0.17085811228E+04  0.12699999809E+01 0.  1.
</event>
<event>
 5   0  0.1405389E-06  0.3289607E+04  0.7818609E-02  0.8165545E-01
       -1   -1    0    0    0  501  0.00000000000E+00  0.00000000000E+00  0.13880379811E+04  0.13880379811E+04  0.50400001928E-02 0.  1.
        1   -1    0    0  501    0  0.00000000000E+00  0.00000000000E+00 -0.19490664417E+04  0.19490664417E+04  0.50400001928E-02 0. -1.
    10030    2    1    2    0    0  0.00000000000E+00  0.00000000000E+00 -0.56102846060E+03  0.33371044228E+04  0.32896068146E+04 0.  0.
        1    1    3    3  502    0 -0.52697514370E+03 -0.82631627846E+03 -0.16205247100E+04  0.18938325507E+04  0.50400001928E-02 0. -1.
       -1    1    3    3    0  502  0.52697514370E+03  0.82631627846E+03  0.10594962494E+04  0.14432718721E+04  0.50400001928E-02 0.  1.
</event>
<event>
 5   0  0.3896210E-06  0.3375458E+04  0.7818609E-02  0.8143956E-01
        2   -1    0    0  501    0  0.00000000000E+00  0.00000000000E+00  0.24236621454E+04  0.24236621454E+04  0.25500000920E-02 0. -1.
       -2   -1    0    0    0  501  0.00000000000E+00  0.00000000000E+00 -0.11752581213E+04  0.11752581213E+04  0.25500000920E-02 0.  1.
    10030    2    1    2    0    0  0.00000000000E+00  0.00000000000E+00  0.12484040241E+04  0.35989202666E+04  0.33754576695E+04 0.  0.
        3    1    3    3  502    0 -0.19406542320E+03 -0.45307497974E+03 -0.10968115314E+04  0.12024699046E+04  0.10100000352E+00 0.  1.
       -3    1    3    3    0  502  0.19406542320E+03  0.45307497974E+03  0.23452155555E+04  0.23964503621E+04  0.10100000352E+00 0. -1.
</event>
<event>
 5   0  0.4017247E-06  0.2879921E+04  0.7818609E-02  0.8278877E-01
        2   -1    0    0  501    0  0.00000000000E+00  0.00000000000E+00  0.11830220251E+04  0.11830220251E+04  0.25500000920E-02 0. -1.
       -2   -1    0    0    0  501  0.00000000000E+00  0.00000000000E+00 -0.17527034025E+04  0.17527034025E+04  0.25500000920E-02 0.  1.
    10030    2    1    2    0    0  0.00000000000E+00  0.00000000000E+00 -0.56968137739E+03  0.29357254275E+04  0.28799213382E+04 0.  0.
        1    1    3    3  502    0  0.95166813100E+03  0.62475619650E+02  0.81491128476E+03  0.12544543980E+04  0.50400001928E-02 0. -1.
       -1    1    3    3    0  502 -0.95166813100E+03 -0.62475619650E+02 -0.13845926621E+04  0.16812710295E+04  0.50400001928E-02 0.  1.
</event>
<event>
 5   0  0.3812379E-06  0.3282316E+04  0.7818609E-02  0.8167410E-01
        2   -1    0    0  501    0  0.00000000000E+00  0.00000000000E+00  0.20346957654E+04  0.20346957654E+04  0.25500000920E-02 0. -1.
       -2   -1    0    0    0  501  0.00000000000E+00  0.00000000000E+00 -0.13237357703E+04  0.13237357703E+04  0.25500000920E-02 0.  1.
    10030    2    1    2    0    0  0.00000000000E+00  0.00000000000E+00  0.71095999505E+03  0.33584315357E+04  0.32823159910E+04 0.  0.
        5    1    3    3  502    0  0.82474569467E+03 -0.43803431441E+03 -0.10253703407E+04  0.13868979584E+04  0.46999998093E+01 0.  1.
       -5    1    3    3    0  502 -0.82474569467E+03  0.43803431441E+03  0.17363303357E+04  0.19715335773E+04  0.46999998093E+01 0. -1.
</event>
<event>
 5   0  0.1339825E-06  0.2396191E+04  0.7818609E-02  0.8440931E-01
       -1   -1    0    0    0  501  0.00000000000E+00  0.00000000000E+00  0.91848562131E+03  0.91848562133E+03  0.50400001928E-02 0. -1.
        1   -1    0    0  501    0  0.00000000000E+00  0.00000000000E+00 -0.15628257221E+04  0.15628257221E+04  0.50400001928E-02 0.  1.
    10030    2    1    2    0    0  0.00000000000E+00  0.00000000000E+00 -0.64434010075E+03  0.24813113434E+04  0.23961911062E+04 0.  0.
        3    1    3    3  502    0 -0.53654091734E+02  0.88237722021E+03 -0.11595777254E+04  0.14581113921E+04  0.10100000352E+00 0.  1.
       -3    1    3    3    0  502  0.53654091734E+02 -0.88237722021E+03  0.51523762465E+03  0.10231999513E+04  0.10100000352E+00 0. -1.
</event>
<event>
 5   0  0.3671997E-06  0.3295718E+04  0.7818609E-02  0.8163986E-01
       -2   -1    0    0    0  501  0.00000000000E+00  0.00000000000E+00  0.18221582232E+04  0.18221582232E+04  0.25500000920E-02 0.  1.
        2   -1    0    0  501    0  0.00000000000E+00  0.00000000000E+00 -0.14902324777E+04  0.14902324777E+04  0.25500000920E-02 0. -1.
    10030    2    1    2    0    0  0.00000000000E+00  0.00000000000E+00  0.33192574554E+03  0.33123907009E+04  0.32957180484E+04 0.  0.
        2    1    3    3  502    0 -0.64411143778E+03 -0.14518806816E+04 -0.27512208506E+03  0.16119954155E+04  0.25500000920E-02 0.  1.
       -2    1    3    3    0  502  0.64411143778E+03  0.14518806816E+04  0.60704783060E+03  0.17003952854E+04  0.25500000920E-02 0. -1.
</event>
<event>
 5   0  0.1405389E-06  0.3312657E+04  0.7818609E-02  0.8159682E-01
        1   -1    0    0  501    0  0.00000000000E+00  0.00000000000E+00  0.16558736662E+04  0.16558736662E+04  0.50400001928E-02 0.  1.
       -1   -1    0    0    0  501  0.00000000000E+00  0.00000000000E+00 -0.16567830051E+04  0.16567830051E+04  0.50400001928E-02 0. -1.
    10030    2    1    2    0    0  0.00000000000E+00  0.00000000000E+00 -0.90933890920E+00  0.33126566713E+04  0.33126565465E+04 0.  0.
        1    1    3    3  502    0  0.13873942900E+03  0.97752050715E+02 -0.16480648967E+04  0.16567806120E+04  0.50400001928E-02 0. -1.
       -1    1    3    3    0  502 -0.13873942900E+03 -0.97752050715E+02  0.16471555577E+04  0.16558760594E+04  0.50400001928E-02 0.  1.
</event>
<event>
 5   0  0.3896210E-06  0.2280931E+04  0.7818609E-02  0.8485478E-01
        2   -1    0    0  501    0  0.00000000000E+00  0.00000000000E+00  0.28693604571E+04  0.28693604571E+04  0.25500000920E-02 0.  1.
       -2   -1    0    0    0  501  0.00000000000E+00  0.00000000000E+00 -0.45329331944E+03  0.45329331945E+03  0.25500000920E-02 0. -1.
    10030    2    1    2    0    0  0.00000000000E+00  0.00000000000E+00  0.24160671376E+04  0.33226537765E+04  0.22809313241E+04 0.  0.
        3    1    3    3  502    0  0.82005092650E+03 -0.40451701488E+03  0.21517706525E+03  0.93937144783E+03  0.10100000352E+00 0. -1.
       -3    1    3    3    0  502 -0.82005092650E+03  0.40451701488E+03  0.22008900724E+04  0.23832823287E+04  0.10100000352E+00 0.  1.
</event>
<event>
 5   0  0.3671997E-06  0.3181427E+04  0.7818609E-02  0.8193740E-01
       -2   -1    0    0    0  501  0.00000000000E+00  0.00000000000E+00  0.17610026031E+04  0.17610026031E+04  0.25500000920E-02 0.  1.
        2   -1    0    0  501    0  0.00000000000E+00  0.00000000000E+00 -0.14368914284E+04  0.14368914284E+04  0.25500000920E-02 0. -1.
    10030    2    1    2    0    0  0.00000000000E+00  0.00000000000E+00  0.32411117471E+03  0.31978940314E+04  0.31814270670E+04 0.  0.
        2    1    3    3  502    0 -0.81425481048E+03  0.50077529736E+03 -0.11159744675E+04  0.14694168254E+04  0.25500000920E-02 0. -1.
       -2    1    3    3    0  502  0.81425481048E+03 -0.50077529736E+03  0.14400856422E+04  0.17284772060E+04  0.25500000920E-02 0.  1.
</event>
<event>
 5   0  0.1405389E-06  0.3303230E+04  0.7818609E-02  0.8162074E-01
       -1   -1    0    0    0  501  0.00000000000E+00  0.00000000000E+00  0.16602924710E+04  0.16602924711E+04  0.50400001928E-02 0. -1.
        1   -1    0    0  501    0  0.00000000000E+00  0.00000000000E+00 -0.16429830128E+04  0.16429830128E+04  0.50400001928E-02 0.  1.
    10030    2    1    2    0    0  0.00000000000E+00  0.00000000000E+00  0.17309458267E+02  0.33032754838E+04  0.33032301320E+04 0.  0.
        1    1    3    3  502    0 -0.15872942085E+04  0.37285322569E+03 -0.25461660847E+03  0.16502581766E+04  0.50400001928E-02 0. -1.
       -1    1    3    3    0  502  0.15872942085E+04 -0.37285322569E+03  0.27192606674E+03  0.16530173072E+04  0.50400001928E-02 0.  1.
</event>
<event>
 5   0  0.3812379E-06  0.3289580E+04  0.7818609E-02  0.8165552E-01
       -2   -1    0    0    0  501  0.00000000000E+00  0.00000000000E+00  0.11933314710E+04  0.11933314710E+04  0.25500000920E-02 0. -1.
        2   -1    0    0  501    0  0.00000000000E+00  0.00000000000E+00 -0.22670439469E+04  0.22670439469E+04  0.25500000920E-02 0.  1.
    10030    2    1    2    0    0  0.00000000000E+00  0.00000000000E+00 -0.10737124760E+04  0.34603754179E+04  0.32895804522E+04 0.  0.
        5    1    3    3  502    0  0.18473046208E+03  0.10291758740E+04 -0.18724154071E+04  0.21445955026E+04  0.46999998093E+01 0.  1.
       -5    1    3    3    0  502 -0.18473046208E+03 -0.10291758740E+04  0.79870293108E+03  0.13157799153E+04  0.46999998093E+01 0. -1.
</event>
<event>
 5   0  0.3671997E-06  0.2836445E+04  0.7818609E-02  0.8292042E-01
        2   -1    0    0  501    0  0.00000000000E+00  0.00000000000E+00  0.12100034492E+04  0.12100034492E+04  0.25500000920E-02 0.  1.
       -2   -1    0    0    0  501  0.00000000000E+00  0.00000000000E+00 -0.16622722948E+04  0.16622722948E+04  0.25500000920E-02 0. -1.
    10030    2    1    2    0    0  0.00000000000E+00  0.00000000000E+00 -0.45226884563E+03  0.28722757440E+04  0.28364451062E+04 0.  0.
        2    1    3    3  502    0 -0.60709636222E+02 -0.38626771421E+03 -0.16066113474E+04  0.16535079161E+04  0.25500000920E-02 0. -1.
       -2    1    3    3    0  502  0.60709636222E+02  0.38626771421E+03  0.11543425017E+04  0.12187678279E+04  0.25500000920E-02 0.  1.
</event>
<event>
 5   0  0.3812379E-06  0.3351801E+04  0.7818609E-02  0.8149838E-01
       -2   -1    0    0    0  501  0.00000000000E+00  0.00000000000E+00  0.92350789581E+03  0.92350789582E+03  0.25500000920E-02 0.  1.
        2   -1    0    0  501    0  0.00000000000E+00  0.00000000000E+00 -0.30412764857E+04  0.30412764857E+04  0.25500000920E-02 0. -1.
    10030    2    1    2    0    0  0.00000000000E+00  0.00000000000E+00 -0.21177685899E+04  0.39647843815E+04  0.33518012160E+04 0.  0.
        5    1    3    3  502    0  0.75424909258E+03 -0.95588001720E+03 -0.24210086531E+04  0.27099637063E+04  0.46999998093E+01 0. -1.
       -5    1    3    3    0  502 -0.75424909258E+03  0.95588001720E+03  0.30324006325E+03  0.12548206752E+04  0.46999998093E+01 0.  1.
</event>
<event>
 5   0  0.1405389E-06  0.3168558E+04  0.7818609E-02  0.8197171E-01
       -1   -1    0    0    0  501  0.00000000000E+00  0.00000000000E+00  0.98996344191E+03  0.98996344192E+03  0.50400001928E-02 0. -1.
        1   -1    0    0  501    0  0.00000000000E+00  0.00000000000E+00 -0.25353868063E+04  0.25353868064E+04  0.50400001928E-02 0.  1.
    10030    2    1    2    0    0  0.00000000000E+00  0.00000000000E+00 -0.15454233644E+04  0.35253502483E+04  0.31685581891E+04 0.  0.
        1    1    3    3  502    0  0.54122869537E+03 -0.11076520307E+01  0.88391427222E+03  0.10364526850E+04  0.50400001928E-02 0. -1.
       -1    1    3    3    0  502 -0.54122869537E+03  0.11076520307E+01 -0.24293376367E+04  0.24888975633E+04  0.50400001928E-02 0.  1.
</event>
<event>
 5   0  0.3920487E-06  0.2208973E+04  0.7818609E-02  0.8514703E-01
       -2   -1    0    0    0  501  0.00000000000E+00  0.00000000000E+00  0.69438839286E+03  0.69438839287E+03  0.25500000920E-02 0. -1.
        2   -1    0    0  501    0  0.00000000000E+00  0.00000000000E+00 -0.17567838824E+04  0.17567838824E+04  0.25500000920E-02 0.  1.
    10030    2    1    2    0    0  0.00000000000E+00  0.00000000000E+00 -0.10623954896E+04  0.24511722753E+04  0.22089729167E+04 0.  0.
        4    1    3    3  502    0  0.86247600751E+03  0.67930878522E+03 -0.39728702331E+03  0.11675460937E+04  0.12699999809E+01 0.  1.
       -4    1    3    3    0  502 -0.86247600751E+03 -0.67930878522E+03 -0.66510846625E+03  0.12836261816E+04  0.12699999809E+01 0. -1.
</event>
<event>
 5   0  0.3896210E-06  0.3192640E+04  0.7818609E-02  0.8190764E-01
       -2   -1    0    0    0  501  0.00000000000E+00  0.00000000000E+00  0.13402340465E+04  0.13402340465E+04  0.25500000920E-02 0.  1.
        2   -1    0    0  501    0  0.00000000000E+00  0.00000000000E+00 -0.19013376345E+04  0.19013376345E+04  0.25500000920E-02 0. -1.
    10030    2    1    2    0    0  0.00000000000E+00  0.00000000000E+00 -0.56110358808E+03  0.32415716810E+04  0.31926399306E+04 0.  0.
        3    1    3    3  502    0 -0.15720737214E+04 -0.21499035497E+03 -0.10293993542E+03  0.15900419110E+04  0.10100000352E+00 0.  1.
       -3    1    3    3    0  502  0.15720737214E+04  0.21499035497E+03 -0.45816365266E+03  0.16515297700E+04  0.10100000352E+00 0. -1.
</event>
<event>
 5   0  0.3812379E-06  0.3265208E+04  0.7818609E-02  0.8171805E-01
        2   -1    0    0  501    0  0.00000000000E+00  0.00000000000E+00  0.18072546619E+04  0.18072546619E+04  0.25500000920E-02 0.  1.
       -2   -1    0    0    0  501  0.00000000000E+00  0.00000000000E+00 -0.14748317353E+04  0.14748317353E+04  0.25500000920E-02 0. -1.
    10030    2    1    2    0    0  0.00000000000E+00  0.00000000000E+00  0.33242292659E+03  0.32820863973E+04  0.32652084339E+04 0.  0.
        5    1    3    3  502    0 -0.50287673955E+03 -0.21851026736E+03 -0.13795093157E+04  0.14844863738E+04  0.46999998093E+01 0. -1.
       -5    1    3    3    0  502  0.50287673955E+03  0.21851026736E+03  0.17119322423E+04  0.17976000234E+04  0.46999998093E+01 0.  1.
</event>
<event>
 5   0  0.3896210E-06  0.3070268E+04  0.7818609E-02  0.8223945E-01
       -2   -1    0    0    0  501  0.00000000000E+00  0.00000000000E+00  0.91310994007E+03  0.91310994008E+03  0.25500000920E-02 0. -1.
        2   -1    0    0  501    0  0.00000000000E+00  0.00000000000E+00 -0.25808894165E+04  0.25808894165E+04  0.25500000920E-02 0.  1.
    10030    2    1    2    0    0  0.00000000000E+00  0.00000000000E+00 -0.16677794764E+04  0.34939993566E+04  0.30702675978E+04 0.  0.
        3    1    3    3  502    0  0.99856096381E+02 -0.93754406133E+03 -0.22125639046E+04  0.24050777844E+04  0.10100000352E+00 0.  1.
       -3    1    3    3    0  502 -0.99856096381E+02  0.93754406133E+03  0.54478442819E+03  0.10889215722E+04  0.10100000352E+00 0. -1.
</event>
<event>
 5   0  0.1339825E-06  0.3329889E+04  0.7818609E-02  0.8155331E-01
        1   -1    0    0  501    0  0.00000000000E+00  0.00000000000E+00  0.20892964456E+04  0.20892964456E+04  0.50400001928E-02 0.  1.
       -1   -1    0    0    0  501  0.00000000000E+00  0.00000000000E+00 -0.13267818436E+04  0.13267818436E+04  0.50400001928E-02 0. -1.
    10030    2    1    2    0    0  0.00000000000E+00  0.00000000000E+00  0.76251460193E+03  0.34160782892E+04  0.33298892414E+04 0.  0.
        3    1    3    3  502    0  0.44121934362E+03  0.14902105141E+04  0.99390704648E+03  0.18447908046E+04  0.10100000352E+00 0.  1.
       -3    1    3    3    0  502 -0.44121934362E+03 -0.14902105141E+04 -0.23139244455E+03  0.15712874846E+04  0.10100000352E+00 0. -1.
</event>
<event>
 5   0  0.1339825E-06  0.3219209E+04  0.7818609E-02  0.8183763E-01
       -1   -1    0    0    0  501  0.00000000000E+00  0.00000000000E+00  0.13258199964E+04  0.13258199964E+04  0.50400001928E-02 0.  1.
        1   -1    0    0  501    0  0.00000000000E+00  0.00000000000E+00 -0.19541311909E+04  0.19541311909E+04  0.50400001928E-02 0. -1.
    10030    2    1    2    0    0  0.00000000000E+00  0.00000000000E+00 -0.62831119451E+03  0.32799511873E+04  0.32192087279E+04 0.  0.
        3    1    3    3  502    0 -0.71196356739E+03 -0.29692819528E+03  0.11252170367E+04  0.13642477284E+04  0.10100000352E+00 0.  1.
       -3    1    3    3    0  502  0.71196356739E+03  0.29692819528E+03 -0.17535282313E+04  0.19157034589E+04  0.10100000352E+00 0. -1.
</event>
<event>
 5   0  0.3920487E-06  0.3345003E+04  0.7818609E-02  0.8151538E-01
       -2   -1    0    0    0  501  0.00000000000E+00  0.00000000000E+00  0.11091708341E+04  0.11091708341E+04  0.25500000920E-02 0. -1.
        2   -1    0    0  501    0  0.00000000000E+00  0.00000000000E+00 -0.25219390634E+04  0.25219390634E+04  0.25500000920E-02 0.  1.
    10030    2    1    2    0    0  0.00000000000E+00  0.00000000000E+00 -0.14127682294E+04  0.36311098975E+04  0.33450029922E+04 0.  0.
        4    1    3    3  502    0  0.10267308369E+04  0.13078028188E+04 -0.50998003882E+03  0.17391393496E+04  0.12699999809E+01 0. -1.
       -4    1    3    3    0  502 -0.10267308369E+04 -0.13078028188E+04 -0.90278819054E+03  0.18919705479E+04  0.12699999809E+01 0.  1.
</event>
<event>
 5   0  0.1352708E-06  0.3299244E+04  0.7818609E-02  0.8163088E-01
       -1   -1    0    0    0  501  0.00000000000E+00  0.00000000000E+00  0.17122897974E+04  0.17122897974E+04  0.50400001928E-02 0. -1.
        1   -1    0    0  501    0  0.00000000000E+00  0.00000000000E+00 -0.15892481366E+04  0.15892481366E+04  0.50400001928E-02 0.  1.
    10030    2    1    2    0    0  0.00000000000E+00  0.00000000000E+00  0.12304166080E+03  0.33015379341E+04  0.32992443801E+04 0.  0.
        5    1    3    3  502    0  0.97003471451E+03 -0.12074537892E+04  0.62964720033E+03  0.16719418911E+04  0.46999998093E+01 0. -1.
       -5    1    3    3    0  502 -0.97003471451E+03  0.12074537892E+04 -0.50660553953E+03  0.16295960429E+04  0.46999998093E+01 0.  1.
</event>
<event>
 5   0  0.1339825E-06  0.3398915E+04  0.7818609E-02  0.8138173E-01
       -1   -1    0    0    0  501  0.00000000000E+00  0.00000000000E+00  0.29835534799E+04  0.29835534799E+04  0.50400001928E-02 0.  1.
        1   -1    0    0  501    0  0.00000000000E+00  0.00000000000E+00 -0.96802558903E+03  0.96802558905E+03  0.50400001928E-02 0. -1.
    10030    2    1    2    0    0  0.00000000000E+00  0.00000000000E+00  0.20155278909E+04  0.39515790689E+04  0.33989151886E+04 0.  0.
        3    1    3    3  502    0  0.25860574772E+02  0.16180958572E+03  0.29743475981E+04  0.29788579617E+04  0.10100000352E+00 0.  1.
       -3    1    3    3    0  502 -0.25860574772E+02 -0.16180958572E+03 -0.95881970723E+03  0.97272110727E+03  0.10100000352E+00 0. -1.
</event>
<event>
 5   0  0.1259875E-06  0.3261364E+04  0.7818609E-02  0.8172796E-01
       -3   -1    0    0    0  501  0.00000000000E+00  0.00000000000E+00  0.13367820729E+04  0.13367820767E+04  0.10100000352E+00 0.  1.
        3   -1    0    0  501    0  0.00000000000E+00  0.00000000000E+00 -0.19891976507E+04  0.19891976533E+04  0.10100000352E+00 0. -1.
    10030    2    1    2    0    0  0.00000000000E+00  0.00000000000E+00 -0.65241557782E+03  0.33259797300E+04  0.32613639904E+04 0.  0.
        3    1    3    3  502    0 -0.10304404435E+04  0.93620187104E+02 -0.16115565330E+04  0.19151205488E+04  0.10100000352E+00 0. -1.
       -3    1    3    3    0  502  0.10304404435E+04 -0.93620187104E+02  0.95914095519E+03  0.14108591812E+04  0.10100000352E+00 0.  1.
</event>
<event>
 5   0  0.1339825E-06  0.3379438E+04  0.7818609E-02  0.8142971E-01
       -1   -1    0    0    0  501  0.00000000000E+00  0.00000000000E+00  0.15107713510E+04  0.15107713510E+04  0.50400001928E-02 0.  1.
        1   -1    0    0  501    0  0.00000000000E+00  0.00000000000E+00 -0.18898625692E+04  0.18898625692E+04  0.50400001928E-02 0. -1.
    10030    2    1    2    0    0  0.00000000000E+00  0.00000000000E+00 -0.37909121816E+03  0.34006339202E+04  0.33794379573E+04 0.  0.
        3    1    3    3  502    0  0.57742064520E+03 -0.39474929678E+03  0.13582527679E+04  0.15277736091E+04  0.10100000352E+00 0.  1.
       -3    1    3    3    0  502 -0.57742064520E+03  0.39474929678E+03 -0.17373439861E+04  0.18728603111E+04  0.10100000352E+00 0. -1.
</event>
<event>
 5   0  0.4017247E-06  0.3373948E+04  0.7818609E-02  0.8144330E-01
        2   -1    0    0  501    0  0.00000000000E+00  0.00000000000E+00  0.25651980020E+04  0.25651980020E+04  0.25500000920E-02 0.  1.
       -2   -1    0    0    0  501  0.00000000000E+00  0.00000000000E+00 -0.11094194283E+04  0.11094194283E+04  0.25500000920E-02 0. -1.
    10030    2    1    2    0    0  0.00000000000E+00  0.00000000000E+00  0.14557785736E+04  0.36746174303E+04  0.33739475401E+04 0.  0.
        1    1    3    3  502    0  0.11318116177E+04  0.15017735867E+03  0.20804675983E+04  0.23731616474E+04  0.50400001928E-02 0.  1.
       -1    1    3    3    0  502 -0.11318116177E+04 -0.15017735867E+03 -0.62468902470E+03  0.13014557828E+04  0.50400001928E-02 0. -1.
</event>
<event>
 5   0  0.1391878E-06  0.3301985E+04  0.7818609E-02  0.8162391E-01
        1   -1    0    0  501    0  0.00000000000E+00  0.00000000000E+00  0.95730420632E+03  0.95730420633E+03  0.50400001928E-02 0.  1.
       -1   -1    0    0    0  501  0.00000000000E+00  0.00000000000E+00 -0.28473452110E+04  0.28473452110E+04  0.50400001928E-02 0. -1.
    10030    2    1    2    0    0  0.00000000000E+00  0.00000000000E+00 -0.18900410046E+04  0.38046494173E+04  0.33019845834E+04 0.  0.
        2    1    3    3  502    0 -0.14989503215E+04  0.67992879227E+03 -0.10935659248E+04  0.19761178256E+04  0.25500000920E-02 0.  1.
       -2    1    3    3    0  502  0.14989503215E+04 -0.67992879227E+03 -0.79647507980E+03  0.18285315916E+04  0.25500000920E-02 0. -1.
</event>
<event>
 5   0  0.1339825E-06  0.3350596E+04  0.7818609E-02  0.8150139E-01
        1   -1    0    0  501    0  0.00000000000E+00  0.00000000000E+00  0.20250596961E+04  0.20250596961E+04  0.50400001928E-02 0. -1.
       -1   -1    0    0    0  501  0.00000000000E+00  0.00000000000E+00 -0.13859462741E+04  0.13859462741E+04  0.50400001928E-02 0.  1.
    10030    2    1    2    0    0  0.00000000000E+00  0.00000000000E+00  0.63911342197E+03  0.34110059703E+04  0.33505963295E+04 0.  0.
        3    1    3    3  502    0 -0.90002451123E+03 -0.10705978558E+04 -0.61924096831E+03  0.15296023263E+04  0.10100000352E+00 0.  1.
       -3    1    3    3    0  502  0.90002451123E+03  0.10705978558E+04  0.12583543903E+04  0.18814036439E+04  0.10100000352E+00 0. -1.
</event>
<event>
 5   0  0.1391878E-06  0.3368756E+04  0.7818609E-02  0.8145617E-01
       -1   -1    0    0    0  501  0.00000000000E+00  0.00000000000E+00  0.14182246310E+04  0.14182246310E+04  0.50400001928E-02 0.  1.
        1   -1    0    0  501    0  0.00000000000E+00  0.00000000000E+00 -0.20004795000E+04  0.20004795000E+04  0.50400001928E-02 0. -1.
    10030    2    1    2    0    0  0.00000000000E+00  0.00000000000E+00 -0.58225486897E+03  0.34187041310E+04  0.33687560320E+04 0.  0.
        2    1    3    3  502    0  0.52239035909E+02  0.13607268574E+04  0.71494573886E+03  0.15380032206E+04  0.25500000920E-02 0.  1.
       -2    1    3    3    0  502 -0.52239035909E+02 -0.13607268574E+04 -0.12972006078E+04  0.18807009103E+04  0.25500000920E-02 0. -1.
</event>
<event>
 5   0  0.1339825E-06  0.3453310E+04  0.7818609E-02  0.8124945E-01
       -1   -1    0    0    0  501  0.00000000000E+00  0.00000000000E+00  0.13060813708E+04  0.13060813708E+04  0.50400001928E-02 0. -1.
        1   -1    0    0  501    0  0.00000000000E+00  0.00000000000E+00 -0.22826578924E+04  0.22826578924E+04  0.50400001928E-02 0.  1.
    10030    2    1    2    0    0  0.00000000000E+00  0.00000000000E+00 -0.97657652160E+03  0.35887392632E+04  0.34533096873E+04 0.  0.
        3    1    3    3  502    0 -0.14963623809E+03 -0.16337245550E+03 -0.22678262958E+04  0.22786218820E+04  0.10100000352E+00 0.  1.
       -3    1    3    3    0  502  0.14963623809E+03  0.16337245550E+03  0.12912497742E+04  0.13101173812E+04  0.10100000352E+00 0. -1.
</event>
<event>
 5   0  0.3812379E-06  0.3363117E+04  0.7818609E-02  0.8147018E-01
       -2   -1    0    0    0  501  0.00000000000E+00  0.00000000000E+00  0.19042758344E+04  0.19042758344E+04  0.25500000920E-02 0. -1.
        2   -1    0    0  501    0  0.00000000000E+00  0.00000000000E+00 -0.14848895064E+04  0.14848895064E+04  0.25500000920E-02 0.  1.
    10030    2    1    2    0    0  0.00000000000E+00  0.00000000000E+00  0.41938632799E+03  0.33891653408E+04  0.33631171278E+04 0.  0.
        5    1    3    3  502    0 -0.97499773472E+03  0.13691691381E+04  0.16060859995E+03  0.16885087870E+04  0.46999998093E+01 0. -1.
       -5    1    3    3    0  502  0.97499773472E+03 -0.13691691381E+04  0.25877772804E+03  0.17006565538E+04  0.46999998093E+01 0.  1.
</event>
<event>
 5   0  0.4017247E-06  0.3288958E+04  0.7818609E-02  0.8165711E-01
        2   -1    0    0  501    0  0.00000000000E+00  0.00000000000E+00  0.16692929110E+04  0.16692929110E+04  0.25500000920E-02 0. -1.
       -2   -1    0    0    0  501  0.00000000000E+00  0.00000000000E+00 -0.16200342571E+04  0.16200342571E+04  0.25500000920E-02 0.  1.
    10030    2    1    2    0    0  0.00000000000E+00  0.00000000000E+00  0.49258653866E+02  0.32893271680E+04  0.32889583159E+04 0.  0.
        1    1    3    3  502    0  0.14222689526E+04  0.75324275013E+03  0.36243648741E+03  0.16497223468E+04  0.50400001928E-02 0. -1.
       -1    1    3    3    0  502 -0.14222689526E+04 -0.75324275013E+03 -0.31317783354E+03  0.16396048212E+04  0.50400001928E-02 0.  1.
</event>
<event>
 5   0  0.1405389E-06  0.3222563E+04  0.7818609E-02  0.8182884E-01
        1   -1    0    0  501    0  0.00000000000E+00  0.00000000000E+00  0.24535276095E+04  0.24535276095E+04  0.50400001928E-02 0. -1.
       -1   -1    0    0    0  501  0.00000000000E+00  0.00000000000E+00 -0.10581613615E+04  0.10581613615E+04  0.50400001928E-02 0.  1.
    10030    2    1    2    0    0  0.00000000000E+00  0.00000000000E+00  0.13953662480E+04  0.35116889710E+04  0.32225630270E+04 0.  0.
        1    1    3    3  502    0 -0.70470322477E+03 -0.11363423015E+04 -0.28206336272E+03  0.13665431577E+04  0.50400001928E-02 0.  1.
       -1    1    3    3    0  502  0.70470322477E+03  0.11363423015E+04  0.16774296108E+04  0.21451458133E+04  0.50400001928E-02 0. -1.
</event>
<event>
 5   0  0.3671997E-06  0.3180108E+04  0.7818609E-02  0.8194091E-01
        2   -1    0    0  501    0  0.00000000000E+00  0.00000000000E+00  0.18465009191E+04  0.18465009191E+04  0.25500000920E-02 0.  1.
       -2   -1    0    0    0  501  0.00000000000E+00  0.00000000000E+00 -0.13692228339E+04  0.13692228339E+04  0.25500000920E-02 0. -1.
    10030    2    1    2    0    0  0.00000000000E+00  0.00000000000E+00  0.47727808523E+03  0.32157237530E+04  0.31801076845E+04 0.  0.
        2    1    3    3  502    0  0.11814002564E+04 -0.35975923872E+03  0.12514239870E+04  0.17581795332E+04  0.25500000920E-02 0.  1.
       -2    1    3    3    0  502 -0.11814002564E+04  0.35975923872E+03 -0.77414590174E+03  0.14575442199E+04  0.25500000920E-02 0. -1.
</event>
<event>
 5   0  0.3812379E-06  0.3404423E+04  0.7818609E-02  0.8136822E-01
       -2   -1    0    0    0  501  0.00000000000E+00  0.00000000000E+00  0.13688629631E+04  0.13688629631E+04  0.25500000920E-02 0.  1.
        2   -1    0    0  501    0  0.00000000000E+00  0.00000000000E+00 -0.21167376600E+04  0.21167376600E+04  0.25500000920E-02 0. -1.
    10030    2    1    2    0    0  0.00000000000E+00  0.00000000000E+00 -0.74787469694E+03  0.34856006231E+04  0.34044228793E+04 0.  0.
        5    1    3    3  502    0 -0.14866799384E+04  0.41699693576E+03 -0.11075405454E+04  0.19002031032E+04  0.46999998093E+01 0. -1.
       -5    1    3    3    0  502  0.14866799384E+04 -0.41699693576E+03  0.35966584845E+03  0.15853975199E+04  0.46999998093E+01 0.  1.
</event>
<event>
 5   0  0.1391878E-06  0.2809458E+04  0.7818609E-02  0.8300338E-01
       -1   -1    0    0    0  501  0.00000000000E+00  0.00000000000E+00  0.84830899240E+03  0.84830899241E+03  0.50400001928E-02 0. -1.
        1   -1    0    0  501    0  0.00000000000E+00  0.00000000000E+00 -0.23261145390E+04  0.23261145390E+04  0.50400001928E-02 0.  1.
    10030    2    1    2    0    0  0.00000000000E+00  0.00000000000E+00 -0.14778055466E+04  0.31744235314E+04  0.28094582259E+04 0.  0.
        2    1    3    3  502    0 -0.11020683976E+04 -0.42357506347E+03  0.12108354343E+03  0.11868579578E+04  0.25500000920E-02 0. -1.
       -2    1    3    3    0  502  0.11020683976E+04  0.42357506347E+03 -0.15988890900E+04  0.19875655737E+04  0.25500000920E-02 0.  1.
</event>
<event>
 5   0  0.3671997E-06  0.3197544E+04  0.7818609E-02  0.8189466E-01
        2   -1    0    0  501    0  0.00000000000E+00  0.00000000000E+00  0.20672984374E+04  0.20672984374E+04  0.25500000920E-02 0.  1.
       -2   -1    0    0    0  501  0.00000000000E+00  0.00000000000E+00 -0.12364311678E+04  0.12364311678E+04  0.25500000920E-02 0. -1.
    10030    2    1    2    0    0  0.00000000000E+00  0.00000000000E+00  0.83086726965E+03  0.33037296052E+04  0.31975441959E+04 0.  0.
        2    1    3    3  502    0  0.74675821227E+03 -0.11742393066E+04 -0.39784411910E+03  0.14473305496E+04  0.25500000920E-02 0. -1.
       -2    1    3    3    0  502 -0.74675821227E+03  0.11742393066E+04  0.12287113887E+04  0.18563990556E+04  0.25500000920E-02 0.  1.
</event>
<event>
 5   0  0.3896210E-06  0.3309976E+04  0.7818609E-02  0.8160362E-01
        2   -1    0    0  501    0  0.00000000000E+00  0.00000000000E+00  0.21417653431E+04  0.21417653431E+04  0.25500000920E-02 0.  1.
       -2   -1    0    0    0  501  0.00000000000E+00  0.00000000000E+00 -0.12788444393E+04  0.12788444393E+04  0.25500000920E-02 0. -1.
    10030    2    1    2    0    0  0.00000000000E+00  0.00000000000E+00  0.86292090385E+03  0.34206097824E+04  0.33099756490E+04 0.  0.
        3    1    3    3  502    0 -0.96699564173E+03 -0.19941492600E+03  0.18040635921E+04  0.20565729597E+04  0.10100000352E+00 0.  1.
       -3    1    3    3    0  502  0.96699564173E+03  0.19941492600E+03 -0.94114268826E+03  0.13640368227E+04  0.10100000352E+00 0. -1.
</event>
<event>
 5   0  0.1259875E-06  0.3281352E+04  0.7818609E-02  0.8167657E-01
       -3   -1    0    0    0  501  0.00000000000E+00  0.00000000000E+00  0.20559335606E+04  0.20559335630E+04  0.10100000352E+00 0.  1.
        3   -1    0    0  501    0  0.00000000000E+00  0.00000000000E+00 -0.13092924621E+04  0.13092924660E+04  0.10100000352E+00 0. -1.
    10030    2    1    2    0    0  0.00000000000E+00  0.00000000000E+00  0.74664109849E+03  0.33652260290E+04  0.32813523579E+04 0.  0.
        4    1    3    3  502    0 -0.56784284015E+03 -0.49962447721E+02  0.19511099345E+04  0.20326763950E+04  0.12699999809E+01 0.  1.
       -4    1    3    3    0  502  0.56784284015E+03  0.49962447721E+02 -0.12044688360E+04  0.13325496340E+04  0.12699999809E+01 0. -1.
</event>
<event>
 5   0  0.1352708E-06  0.2363672E+04  0.7818609E-02  0.8453231E-01
        1   -1    0    0  501    0  0.00000000000E+00  0.00000000000E+00  0.15850605082E+04  0.15850605083E+04  0.50400001928E-02 0. -1.
       -1   -1    0    0    0  501  0.00000000000E+00  0.00000000000E+00 -0.88118774757E+03  0.88118774758E+03  0.50400001928E-02 0.  1.
    10030    2    1    2    0    0  0.00000000000E+00  0.00000000000E+00  0.70387276067E+03  0.24662482558E+04  0.23636716346E+04 0.  0.
        5    1    3    3  502    0  0.18446444817E+03  0.75309483469E+03  0.12825711011E+04  0.14987293558E+04  0.46999998093E+01 0. -1.
       -5    1    3    3    0  502 -0.18446444817E+03 -0.75309483469E+03 -0.57869834041E+03  0.96751890001E+03  0.46999998093E+01 0.  1.
</event>
<event>
 5   0  0.4017247E-06  0.3287434E+04  0.7818609E-02  0.8166100E-01
       -2   -1    0    0    0  501  0.00000000000E+00  0.00000000000E+00  0.17170153031E+04  0.17170153031E+04  0.25500000920E-02 0.  1.
        2   -1    0    0  501    0  0.00000000000E+00  0.00000000000E+00 -0.15735478322E+04  0.15735478322E+04  0.25500000920E-02 0. -1.
    10030    2    1    2    0    0  0.00000000000E+00  0.00000000000E+00  0.14346747097E+03  0.32905631353E+04  0.32874340803E+04 0.  0.
        1    1    3    3  502    0 -0.76944213428E+03  0.14438068694E+04  0.23058650478E+03  0.16522074962E+04  0.50400001928E-02 0.  1.
       -1    1    3    3    0  502  0.76944213428E+03 -0.14438068694E+04 -0.87119033810E+02  0.16383556391E+04  0.50400001928E-02 0. -1.
</event>
<event>
 5   0  0.1282578E-06  0.2020150E+04  0.7818609E-02  0.8597258E-01
       -1   -1    0    0    0  501  0.00000000000E+00  0.00000000000E+00  0.10093984533E+04  0.10093984533E+04  0.50400001928E-02 0.  1.
        1   -1    0    0  501    0  0.00000000000E+00  0.00000000000E+00 -0.10107517318E+04  0.10107517318E+04  0.50400001928E-02 0. -1.
    10030    2    1    2    0    0  0.00000000000E+00  0.00000000000E+00 -0.13532784541E+01  0.20201501851E+04  0.20201497319E+04 0.  0.
        4    1    3    3  502    0  0.77460828091E+03 -0.64410348408E+03  0.72551342113E+02  0.10100260379E+04  0.12699999809E+01 0. -1.
       -4    1    3    3    0  502 -0.77460828091E+03  0.64410348408E+03 -0.73904620567E+02  0.10101241473E+04  0.12699999809E+01 0.  1.
</event>
<event>
 5   0  0.1391878E-06  0.3306241E+04  0.7818609E-02  0.8161309E-01
       -1   -1    0    0    0  501  0.00000000000E+00  0.00000000000E+00  0.18343496833E+04  0.18343496833E+04  0.50400001928E-02 0.  1.
        1   -1    0    0  501    0  0.00000000000E+00  0.00000000000E+00 -0.14897962342E+04  0.14897962342E+04  0.50400001928E-02 0. -1.
    10030    2    1    2    0    0  0.00000000000E+00  0.00000000000E+00  0.34455344915E+03  0.33241459175E+04  0.33062409170E+04 0.  0.
        2    1    3    3  502    0 -0.42655260535E+03 -0.11295176176E+04 -0.96301952722E+03  0.15443975471E+04  0.25500000920E-02 0. -1.
       -2    1    3    3    0  502  0.42655260535E+03  0.11295176176E+04  0.13075729764E+04  0.17797483704E+04  0.25500000920E-02 0.  1.
</event>
<event>
 5   0  0.3920487E-06  0.3249586E+04  0.7818609E-02  0.8175843E-01
       -2   -1    0    0    0  501  0.00000000000E+00  0.00000000000E+00  0.10254108706E+04  0.10254108706E+04  0.25500000920E-02 0.  1.
        2   -1    0    0  501    0  0.00000000000E+00  0.00000000000E+00 -0.25745304682E+04  0.25745304682E+04  0.25500000920E-02 0. -1.
    10030    2    1    2    0    0  0.00000000000E+00  0.00000000000E+00 -0.15491195976E+04  0.35999413388E+04  0.32495855298E+04 0.  0.
        4    1    3    3  502    0  0.38250391143E+03  0.68518202104E+03 -0.23506843853E+04  0.24782054670E+04  0.12699999809E+01 0. -1.
       -4    1    3    3    0  502 -0.38250391143E+03 -0.68518202104E+03  0.80156478777E+03  0.11217358718E+04  0.12699999809E+01 0.  1.
</event>
<event>
 5   0  0.3671997E-06  0.2879330E+04  0.7818609E-02  0.8279054E-01
       -2   -1    0    0    0  501  0.00000000000E+00  0.00000000000E+00  0.16144353843E+04  0.16144353843E+04  0.25500000920E-02 0. -1.
        2   -1    0    0  501    0  0.00000000000E+00  0.00000000000E+00 -0.12838140384E+04  0.12838140384E+04  0.25500000920E-02 0.  1.
    10030    2    1    2    0    0  0.00000000000E+00  0.00000000000E+00  0.33062134587E+03  0.28982494227E+04  0.28793296515E+04 0.  0.
        2    1    3    3  502    0  0.39825635706E+03 -0.52109706078E+02  0.15568967595E+04  0.16078715953E+04  0.25500000920E-02 0. -1.
       -2    1    3    3    0  502 -0.39825635706E+03  0.52109706078E+02 -0.12262754136E+04  0.12903778274E+04  0.25500000920E-02 0.  1.
</event>
<event>
 5   0  0.3896210E-06  0.3292312E+04  0.7818609E-02  0.8164854E-01
        2   -1    0    0  501    0  0.00000000000E+00  0.00000000000E+00  0.23834425128E+04  0.23834425128E+04  0.25500000920E-02 0. -1.
       -2   -1    0    0    0  501  0.00000000000E+00  0.00000000000E+00 -0.11369393921E+04  0.11369393921E+04  0.25500000920E-02 0.  1.
    10030    2    1    2    0    0  0.00000000000E+00  0.00000000000E+00  0.12465031207E+04  0.35203819050E+04  0.32923120640E+04 0.  0.
        3    1    3    3  502    0  0.13755578929E+04  0.31084116037E+03 -0.28471708880E+03  0.14386957894E+04  0.10100000352E+00 0.  1.
       -3    1    3    3    0  502 -0.13755578929E+04 -0.31084116037E+03  0.15312202095E+04  0.20816861156E+04  0.10100000352E+00 0. -1.
</event>
<event>
 5   0  0.1391878E-06  0.2941233E+04  0.7818609E-02  0.8260714E-01
        1   -1    0    0  501    0  0.00000000000E+00  0.00000000000E+00  0.18216380549E+04  0.18216380549E+04  0.50400001928E-02 0. -1.
       -1   -1    0    0    0  501  0.00000000000E+00  0.00000000000E+00 -0.11872349577E+04  0.11872349577E+04  0.50400001928E-02 0.  1.
    10030    2    1    2    0    0  0.00000000000E+00  0.00000000000E+00  0.63440309720E+03  0.30088730126E+04  0.29412326526E+04 0.  0.
        2    1    3    3  502    0  0.82966879676E+03  0.11738395564E+04  0.63492869929E+03  0.15714273988E+04  0.25500000920E-02 0.  1.
       -2    1    3    3    0  502 -0.82966879676E+03 -0.11738395564E+04 -0.52560209290E+00  0.14374456138E+04  0.25500000920E-02 0. -1.
</event>
<event>
 5   0  0.3920487E-06  0.3314493E+04  0.7818609E-02  0.8159217E-01
       -2   -1    0    0    0  501  0.00000000000E+00  0.00000000000E+00  0.16369137928E+04  0.16369137928E+04  0.25500000920E-02 0.  1.
        2   -1    0    0  501    0  0.00000000000E+00  0.00000000000E+00 -0.16778317110E+04  0.16778317110E+04  0.25500000920E-02 0. -1.
    10030    2    1    2    0    0  0.00000000000E+00  0.00000000000E+00 -0.40917918223E+02  0.33147455038E+04  0.33144929445E+04 0.  0.
        4    1    3    3  502    0 -0.28544770016E+03  0.12153899343E+04 -0.11104095088E+04  0.16708273316E+04  0.12699999809E+01 0. -1.
       -4    1    3    3    0  502  0.28544770016E+03 -0.12153899343E+04  0.10694915906E+04  0.16439181723E+04  0.12699999809E+01 0.  1.
</event>
<event>
 5   0  0.3896210E-06  0.3259674E+04  0.7818609E-02  0.8173233E-01
        2   -1    0    0  501    0  0.00000000000E+00  0.00000000000E+00  0.13472200530E+04  0.13472200530E+04  0.25500000920E-02 0.  1.
       -2   -1    0    0    0  501  0.00000000000E+00  0.00000000000E+00 -0.19717407459E+04  0.19717407459E+04  0.25500000920E-02 0. -1.
    10030    2    1    2    0    0  0.00000000000E+00  0.00000000000E+00 -0.62452069290E+03  0.33189607989E+04  0.32596740157E+04 0.  0.
        3    1    3    3  502    0  0.66090040800E+03 -0.12569999254E+04 -0.11265118761E+04  0.18126961077E+04  0.10100000352E+00 0. -1.
       -3    1    3    3    0  502 -0.66090040800E+03  0.12569999254E+04  0.50199118317E+03  0.15062646912E+04  0.10100000352E+00 0.  1.
</event>
<event>
 5   0  0.1339825E-06  0.3241236E+04  0.7818609E-02  0.8178011E-01
        1   -1    0    0  501    0  0.00000000000E+00  0.00000000000E+00  0.15964530203E+04  0.15964530203E+04  0.50400001928E-02 0. -1.
       -1   -1    0    0    0  501  0.00000000000E+00  0.00000000000E+00 -0.16451487971E+04  0.16451487971E+04  0.50400001928E-02 0.  1.
    10030    2    1    2    0    0  0.00000000000E+00  0.00000000000E+00 -0.48695776782E+02  0.32416018174E+04  0.32412360395E+04 0.  0.
        3    1    3    3  502    0  0.14616335959E+04  0.12633038509E+03 -0.71295345475E+03  0.16311452338E+04  0.10100000352E+00 0.  1.
       -3    1    3    3    0  502 -0.14616335959E+04 -0.12633038509E+03  0.66425767797E+03  0.16104565836E+04  0.10100000352E+00 0. -1.
</event>
<event>
 5   0  0.3896210E-06  0.3355557E+04  0.7818609E-02  0.8148901E-01
       -2   -1    0    0    0  501  0.00000000000E+00  0.00000000000E+00  0.24259601378E+04  0.24259601379E+04  0.25500000920E-02 0.  1.
        2   -1    0    0  501    0  0.00000000000E+00  0.00000000000E+00 -0.11603408121E+04  0.11603408121E+04  0.25500000920E-02 0. -1.
    10030    2    1    2    0    0  0.00000000000E+00  0.00000000000E+00  0.12656193258E+04  0.35863009499E+04  0.33555569174E+04 0.  0.
        3    1    3    3  502    0 -0.88305665896E+03  0.13302534675E+04  0.82030487164E+02  0.15987783967E+04  0.10100000352E+00 0.  1.
       -3    1    3    3    0  502  0.88305665896E+03 -0.13302534675E+04  0.11835888386E+04  0.19875225533E+04  0.10100000352E+00 0. -1.
</event>
<event>
 5   0  0.1391878E-06  0.2350697E+04  0.7818609E-02  0.8458196E-01
       -1   -1    0    0    0  501  0.00000000000E+00  0.00000000000E+00  0.85522825469E+03  0.85522825470E+03  0.50400001928E-02 0. -1.
        1   -1    0    0  501    0  0.00000000000E+00  0.00000000000E+00 -0.16152928358E+04  0.16152928358E+04  0.50400001928E-02 0.  1.
    10030    2    1    2    0    0  0.00000000000E+00  0.00000000000E+00 -0.76006458115E+03  0.24705210905E+04  0.23506969799E+04 0.  0.
        2    1    3    3  502    0  0.55026970365E+03  0.12852538156E+02 -0.14714685929E+04  0.15710447971E+04  0.25500000920E-02 0.  1.
       -2    1    3    3    0  502 -0.55026970365E+03 -0.12852538156E+02  0.71140401178E+03  0.89947629345E+03  0.25500000920E-02 0. -1.
</event>
<event>
 5   0  0.1405389E-06  0.3446549E+04  0.7818609E-02  0.8126575E-01
       -1   -1    0    0    0  501  0.00000000000E+00  0.00000000000E+00  0.20918893625E+04  0.20918893625E+04  0.50400001928E-02 0.  1.
        1   -1    0    0  501    0  0.00000000000E+00  0.00000000000E+00 -0.14196135129E+04  0.14196135129E+04  0.50400001928E-02 0. -1.
    10030    2    1    2    0    0  0.00000000000E+00  0.00000000000E+00  0.67227584954E+03  0.35115028754E+04  0.34465486542E+04 0.  0.
        1    1    3    3  502    0  0.10518137084E+03  0.17186040091E+04  0.26401149085E+03  0.17419428602E+04  0.50400001928E-02 0. -1.
       -1    1    3    3    0  502 -0.10518137084E+03 -0.17186040091E+04  0.40826435869E+03  0.17695600152E+04  0.50400001928E-02 0.  1.
</event>
<event>
 5   0  0.3920487E-06  0.2153963E+04  0.7818609E-02  0.8537838E-01
        2   -1    0    0  501    0  0.00000000000E+00  0.00000000000E+00  0.10312613477E+04  0.10312613477E+04  0.25500000920E-02 0.  1.
       -2   -1    0    0    0  501  0.00000000000E+00  0.00000000000E+00 -0.11247285843E+04  0.11247285843E+04  0.25500000920E-02 0. -1.
    10030    2    1    2    0    0  0.00000000000E+00  0.00000000000E+00 -0.93467236654E+02  0.21559899320E+04  0.21539629668E+04 0.  0.
        4    1    3    3  502    0  0.96225757334E+03  0.21093949357E+03  0.38893727538E+03  0.10591076076E+04  0.12699999809E+01 0.  1.
       -4    1    3    3    0  502 -0.96225757334E+03 -0.21093949357E+03 -0.48240451203E+03  0.10968823244E+04  0.12699999809E+01 0. -1.
</event>
<event>
 5   0  0.3920487E-06  0.3311066E+04  0.7818609E-02  0.8160085E-01
       -2   -1    0    0    0  501  0.00000000000E+00  0.00000000000E+00  0.13528220821E+04  0.13528220821E+04  0.25500000920E-02 0. -1.
        2   -1    0    0  501    0  0.00000000000E+00  0.00000000000E+00 -0.20259788170E+04  0.20259788170E+04  0.25500000920E-02 0.  1.
    10030    2    1    2    0    0  0.00000000000E+00  0.00000000000E+00 -0.67315673486E+03  0.33788008991E+04  0.33110656179E+04 0.  0.
        4    1    3    3  502    0 -0.11391150815E+04  0.11544437770E+04  0.25815638214E+01  0.16218297939E+04  0.12699999809E+01 0. -1.
       -4    1    3    3    0  502  0.11391150815E+04 -0.11544437770E+04 -0.67573829868E+03  0.17569711051E+04  0.12699999809E+01 0.  1.
</event>
<event>
 5   0  0.3920487E-06  0.3336143E+04  0.7818609E-02  0.8153759E-01
        2   -1    0    0  501    0  0.00000000000E+00  0.00000000000E+00  0.18771810352E+04  0.18771810352E+04  0.25500000920E-02 0.  1.
       -2   -1    0    0    0  501  0.00000000000E+00  0.00000000000E+00 -0.14822556001E+04  0.14822556001E+04  0.25500000920E-02 0. -1.
    10030    2    1    2    0    0  0.00000000000E+00  0.00000000000E+00  0.39492543512E+03  0.33594366353E+04  0.33361427439E+04 0.  0.
        4    1    3    3  502    0 -0.26796438400E+03  0.15748429678E+04 -0.28602009239E+03  0.16228815085E+04  0.12699999809E+01 0. -1.
       -4    1    3    3    0  502  0.26796438400E+03 -0.15748429678E+04  0.68094552751E+03  0.17365551269E+04  0.12699999809E+01 0.  1.
</event>
<event>
 5   0  0.1405389E-06  0.3306379E+04  0.7818609E-02  0.8161274E-01
        1   -1    0    0  501    0  0.00000000000E+00  0.00000000000E+00  0.10527823846E+04  0.10527823846E+04  0.50400001928E-02 0.  1.
       -1   -1    0    0    0  501  0.00000000000E+00  0.00000000000E+00 -0.25960124922E+04  0.25960124922E+04  0.50400001928E-02 0. -1.
    10030    2    1    2    0    0  0.00000000000E+00  0.00000000000E+00 -0.15432301076E+04  0.36487948769E+04  0.33063794229E+04 0.  0.
        1    1    3    3  502    0 -0.98956083167E+02  0.11983068424E+03 -0.25879335516E+04  0.25925955656E+04  0.50400001928E-02 0. -1.
       -1    1    3    3    0  502  0.98956083167E+02 -0.11983068424E+03  0.10447034440E+04  0.10561993113E+04  0.50400001928E-02 0.  1.
</event>
<event>
 5   0  0.3896210E-06  0.3323744E+04  0.7818609E-02  0.8156880E-01
       -2   -1    0    0    0  501  0.00000000000E+00  0.00000000000E+00  0.13481236703E+04  0.13481236703E+04  0.25500000920E-02 0.  1.
        2   -1    0    0  501    0  0.00000000000E+00  0.00000000000E+00 -0.20486386733E+04  0.20486386733E+04  0.25500000920E-02 0. -1.
    10030    2    1    2    0    0  0.00000000000E+00  0.00000000000E+00 -0.70051500304E+03  0.33967623436E+04  0.33237438453E+04 0.  0.
        3    1    3    3  502    0  0.11945918246E+04  0.46307458410E+03 -0.14319671693E+04  0.19214623811E+04  0.10100000352E+00 0. -1.
       -3    1    3    3    0  502 -0.11945918246E+04 -0.46307458410E+03  0.73145216621E+03  0.14752999625E+04  0.10100000352E+00 0.  1.
</event>
<event>
 5   0  0.4017247E-06  0.3330969E+04  0.7818609E-02  0.8155060E-01
        2   -1    0    0  501    0  0.00000000000E+00  0.00000000000E+00  0.18190370425E+04  0.18190370425E+04  0.25500000920E-02 0.  1.
       -2   -1    0    0    0  501  0.00000000000E+00  0.00000000000E+00 -0.15248936331E+04  0.15248936331E+04  0.25500000920E-02 0. -1.
    10030    2    1    2    0    0  0.00000000000E+00  0.00000000000E+00  0.29414340937E+03  0.33439306756E+04  0.33309686306E+04 0.  0.
        1    1    3    3  502    0 -0.11970670129E+03 -0.95714179559E+03 -0.12159258856E+04  0.15520714772E+04  0.50400001928E-02 0. -1.
       -1    1    3    3    0  502  0.11970670129E+03  0.95714179559E+03  0.15100692950E+04  0.17918591984E+04  0.50400001928E-02 0.  1.
</event>
<event>
 5   0  0.1391878E-06  0.3367311E+04  0.7818609E-02  0.8145976E-01
       -1   -1    0    0    0  501  0.00000000000E+00  0.00000000000E+00  0.93756201272E+03  0.93756201273E+03  0.50400001928E-02 0. -1.
        1   -1    0    0  501    0  0.00000000000E+00  0.00000000000E+00 -0.30234757328E+04  0.30234757328E+04  0.50400001928E-02 0.  1.
    10030    2    1    2    0    0  0.00000000000E+00  0.00000000000E+00 -0.20859137201E+04  0.39610377455E+04  0.33673110896E+04 0.  0.
        2    1    3    3  502    0  0.33385576149E+03  0.15308902555E+04 -0.31819499380E+03  0.15988535573E+04  0.25500000920E-02 0. -1.
       -2    1    3    3    0  502 -0.33385576149E+03 -0.15308902555E+04 -0.17677187263E+04  0.23621841882E+04  0.25500000920E-02 0.  1.
</event>
<event>
 5   0  0.1405389E-06  0.3319489E+04  0.7818609E-02  0.8157954E-01
       -1   -1    0    0    0  501  0.00000000000E+00  0.00000000000E+00  0.14988057024E+04  0.14988057024E+04  0.50400001928E-02 0.  1.
        1   -1    0    0  501    0  0.00000000000E+00  0.00000000000E+00 -0.18379647863E+04  0.18379647863E+04  0.50400001928E-02 0. -1.
    10030    2    1    2    0    0  0.00000000000E+00  0.00000000000E+00 -0.33915908387E+03  0.33367704888E+04  0.33194891792E+04 0.  0.
        1    1    3    3  502    0  0.81967204852E+03  0.35546141148E+03 -0.15756241958E+04  0.18112997236E+04  0.50400001928E-02 0. -1.
       -1    1    3    3    0  502 -0.81967204852E+03 -0.35546141148E+03  0.12364651120E+04  0.15254707652E+04  0.50400001928E-02 0.  1.
</event>
<event>
 5   0  0.1391878E-06  0.3308210E+04  0.7818609E-02  0.8160809E-01
        1   -1    0    0  501    0  0.00000000000E+00  0.00000000000E+00  0.16558718349E+04  0.16558718349E+04  0.50400001928E-02 0. -1.
       -1   -1    0    0    0  501  0.00000000000E+00  0.00000000000E+00 -0.16523401711E+04  0.16523401711E+04  0.50400001928E-02 0.  1.
    10030    2    1    2    0    0  0.00000000000E+00  0.00000000000E+00  0.35316638387E+01  0.33082120060E+04  0.33082101209E+04 0.  0.
        2    1    3    3  502    0  0.13501638334E+04  0.77650110202E+03  0.55869272669E+03  0.16547005473E+04  0.25500000920E-02 0. -1.
       -2    1    3    3    0  502 -0.13501638334E+04 -0.77650110202E+03 -0.55516106285E+03  0.16535114587E+04  0.25500000920E-02 0.  1.
</event>
<event>
 5   0  0.3896210E-06  0.2326618E+04  0.7818609E-02  0.8467499E-01
       -2   -1    0    0    0  501  0.00000000000E+00  0.00000000000E+00  0.67615636402E+03  0.67615636403E+03  0.25500000920E-02 0. -1.
        2   -1    0    0  501    0  0.00000000000E+00  0.00000000000E+00 -0.20014419393E+04  0.20014419393E+04  0.25500000920E-02 0.  1.
    10030    2    1    2    0    0  0.00000000000E+00  0.00000000000E+00 -0.13252855753E+04  0.26775983033E+04  0.23266178926E+04 0.  0.
        3    1    3    3  502    0  0.37832908409E+03  0.42969333952E+03 -0.18280886272E+04  0.19156401804E+04  0.10100000352E+00 0.  1.
       -3    1    3    3    0  502 -0.37832908409E+03 -0.42969333952E+03  0.50280305187E+03  0.76195812291E+03  0.10100000352E+00 0. -1.
</event>
<event>
 5   0  0.1391878E-06  0.3373873E+04  0.7818609E-02  0.8144349E-01
        1   -1    0    0  501    0  0.00000000000E+00  0.00000000000E+00  0.16572935617E+04  0.16572935617E+04  0.50400001928E-02 0. -1.
       -1   -1    0    0    0  501  0.00000000000E+00  0.00000000000E+00 -0.17171097282E+04  0.17171097282E+04  0.50400001928E-02 0.  1.
    10030    2    1    2    0    0  0.00000000000E+00  0.00000000000E+00 -0.59816166573E+02  0.33744032899E+04  0.33738730843E+04 0.  0.
        2    1    3    3  502    0  0.73578092722E+03 -0.94935717611E+03 -0.12146204144E+04  0.17082023802E+04  0.25500000920E-02 0.  1.
       -2    1    3    3    0  502 -0.73578092722E+03  0.94935717611E+03  0.11548042478E+04  0.16662009097E+04  0.25500000920E-02 0. -1.
</event>
<event>
 5   0  0.3671997E-06  0.3305291E+04  0.7818609E-02  0.8161550E-01
        2   -1    0    0  501    0  0.00000000000E+00  0.00000000000E+00  0.87725759426E+03  0.87725759426E+03  0.25500000920E-02 0. -1.
       -2   -1    0    0    0  501  0.00000000000E+00  0.00000000000E+00 -0.31133817357E+04  0.31133817357E+04  0.25500000920E-02 0.  1.
    10030    2    1    2    0    0  0.00000000000E+00  0.00000000000E+00 -0.22361241415E+04  0.39906393300E+04  0.33052913769E+04 0.  0.
        2    1    3    3  502    0 -0.68015026062E+03  0.69030269882E+03  0.49821471540E+03  0.10896513643E+04  0.25500000920E-02 0. -1.
       -2    1    3    3    0  502  0.68015026062E+03 -0.69030269882E+03 -0.27343388569E+04  0.29009879657E+04  0.25500000920E-02 0.  1.
</event>
<event>
 5   0  0.1339825E-06  0.3202456E+04  0.7818609E-02  0.8188169E-01
        1   -1    0    0  501    0  0.00000000000E+00  0.00000000000E+00  0.19911988619E+04  0.19911988619E+04  0.50400001928E-02 0. -1.
       -1   -1    0    0    0  501  0.00000000000E+00  0.00000000000E+00 -0.12876318099E+04  0.12876318099E+04  0.50400001928E-02 0.  1.
    10030    2    1    2    0    0  0.00000000000E+00  0.00000000000E+00  0.70356705198E+03  0.32788306718E+04  0.32024559291E+04 0.  0.
        3    1    3    3  502    0  0.11526635846E+04 -0.81463465912E+03  0.11259026117E+04  0.18055247626E+04  0.10100000352E+00 0. -1.
       -3    1    3    3    0  502 -0.11526635846E+04  0.81463465912E+03 -0.42233555975E+03  0.14733059093E+04  0.10100000352E+00 0.  1.
</event>
<event>
 5   0  0.1405389E-06  0.3281915E+04  0.7818609E-02  0.8167512E-01
       -1   -1    0    0    0  501  0.00000000000E+00  0.00000000000E+00  0.17826455970E+04  0.17826455970E+04  0.50400001928E-02 0.  1.
        1   -1    0    0  501    0  0.00000000000E+00  0.00000000000E+00 -0.15105312195E+04  0.15105312195E+04  0.50400001928E-02 0. -1.
    10030    2    1    2    0    0  0.00000000000E+00  0.00000000000E+00  0.27211437747E+03  0.32931768165E+04  0.32819151894E+04 0.  0.
        1    1    3    3  502    0  0.19262439828E+03  0.94136597005E+03  0.14708351425E+04  0.17568807771E+04  0.50400001928E-02 0.  1.
       -1    1    3    3    0  502 -0.19262439828E+03 -0.94136597005E+03 -0.11987207650E+04  0.15362960395E+04  0.50400001928E-02 0. -1.
</event>
<event>
 5   0  0.3920487E-06  0.3123996E+04  0.7818609E-02  0.8209183E-01
       -2   -1    0    0    0  501  0.00000000000E+00  0.00000000000E+00  0.12230192204E+04  0.12230192204E+04  0.25500000920E-02 0.  1.
        2   -1    0    0  501    0  0.00000000000E+00  0.00000000000E+00 -0.19949300136E+04  0.19949300136E+04  0.25500000920E-02 0. -1.
    10030    2    1    2    0    0  0.00000000000E+00  0.00000000000E+00 -0.77191079323E+03  0.32179492340E+04  0.31239959987E+04 0.  0.
        4    1    3    3  502    0 -0.70034929476E+02  0.14335450287E+04 -0.10208357311E+04  0.17612675673E+04  0.12699999809E+01 0. -1.
       -4    1    3    3    0  502  0.70034929476E+02 -0.14335450287E+04  0.24892493784E+03  0.14566816668E+04  0.12699999809E+01 0.  1.
</event>
<event>
 5   0  0.3812379E-06  0.2088155E+04  0.7818609E-02  0.8566479E-01
        2   -1    0    0  501    0  0.00000000000E+00  0.00000000000E+00  0.17079929019E+04  0.17079929019E+04  0.25500000920E-02 0. -1.
       -2   -1    0    0    0  501  0.00000000000E+00  0.00000000000E+00 -0.63823327342E+03  0.63823327342E+03  0.25500000920E-02 0.  1.
    10030    2    1    2    0    0  0.00000000000E+00  0.00000000000E+00  0.10697596285E+04  0.23462261753E+04  0.20881550716E+04 0.  0.
        5    1    3    3  502    0 -0.55270592484E+03 -0.50073862123E+03 -0.28607242660E+03  0.79880068189E+03  0.46999998093E+01 0.  1.
       -5    1    3    3    0  502  0.55270592484E+03  0.50073862123E+03  0.13558320551E+04  0.15474254934E+04  0.46999998093E+01 0. -1.
</event>
<event>
 5   0  0.1391878E-06  0.2650185E+04  0.7818609E-02  0.8351351E-01
       -1   -1    0    0    0  501  0.00000000000E+00  0.00000000000E+00  0.89241628615E+03  0.89241628616E+03  0.50400001928E-02 0. -1.
        1   -1    0    0  501    0  0.00000000000E+00  0.00000000000E+00 -0.19675467130E+04  0.19675467130E+04  0.50400001928E-02 0.  1.
    10030    2    1    2    0    0  0.00000000000E+00  0.00000000000E+00 -0.10751304268E+04  0.28599629991E+04  0.26501854504E+04 0.  0.
        2    1    3    3  502    0 -0.76101618456E+03 -0.91787172658E+01 -0.17081587175E+04  0.18700363863E+04  0.25500000920E-02 0.  1.
       -2    1    3    3    0  502  0.76101618456E+03  0.91787172658E+01  0.63302829065E+03  0.98992661283E+03  0.25500000920E-02 0. -1.
</event>
<event>
 5   0  0.1282578E-06  0.2519832E+04  0.7818609E-02  0.8395954E-01
       -1   -1    0    0    0  501  0.00000000000E+00  0.00000000000E+00  0.58332955505E+03  0.58332955507E+03  0.50400001928E-02 0. -1.
        1   -1    0    0  501    0  0.00000000000E+00  0.00000000000E+00 -0.27212546681E+04  0.27212546681E+04  0.50400001928E-02 0.  1.
    10030    2    1    2    0    0  0.00000000000E+00  0.00000000000E+00 -0.21379251131E+04  0.33045842232E+04  0.25198319585E+04 0.  0.
        4    1    3    3  502    0  0.42085930467E+03  0.71815711234E+03 -0.23092973611E+04  0.24547358528E+04  0.12699999809E+01 0.  1.
       -4    1    3    3    0  502 -0.42085930467E+03 -0.71815711234E+03  0.17137224801E+03  0.84984837037E+03  0.12699999809E+01 0. -1.
</event>
<event>
 5   0  0.1405389E-06  0.3378795E+04  0.7818609E-02  0.8143130E-01
       -1   -1    0    0    0  501  0.00000000000E+00  0.00000000000E+00  0.12106815192E+04  0.12106815192E+04  0.50400001928E-02 0. -1.
        1   -1    0    0  501    0  0.00000000000E+00  0.00000000000E+00 -0.23574023189E+04  0.23574023189E+04  0.50400001928E-02 0.  1.
    10030    2    1    2    0    0  0.00000000000E+00  0.00000000000E+00 -0.11467207997E+04  0.35680838382E+04  0.33787947087E+04 0.  0.
        1    1    3    3  502    0  0.10533139600E+04 -0.64189765267E+03  0.64567612166E+03  0.13922645399E+04  0.50400001928E-02 0. -1.
       -1    1    3    3    0  502 -0.10533139600E+04  0.64189765267E+03 -0.17923969214E+04  0.21758192983E+04  0.50400001928E-02 0.  1.
</event>
<event>
 5   0  0.1352708E-06  0.3221373E+04  0.7818609E-02  0.8183195E-01
       -1   -1    0    0    0  501  0.00000000000E+00  0.00000000000E+00  0.29949225024E+04  0.29949225024E+04  0.50400001928E-02 0. -1.
        1   -1    0    0  501    0  0.00000000000E+00  0.00000000000E+00 -0.86623629306E+03  0.86623629308E+03  0.50400001928E-02 0.  1.
    10030    2    1    2    0    0  0.00000000000E+00  0.00000000000E+00  0.21286862093E+04  0.38611587955E+04  0.32213727301E+04 0.  0.
        5    1    3    3  502    0  0.55933854518E+03 -0.60578935974E+03  0.27227782242E+04  0.28448872921E+04  0.46999998093E+01 0. -1.
       -5    1    3    3    0  502 -0.55933854518E+03  0.60578935974E+03 -0.59409201486E+03  0.10162715034E+04  0.46999998093E+01 0.  1.
</event>
<event>
 5   0  0.1339825E-06  0.3160522E+04  0.7818609E-02  0.8199322E-01
       -1   -1    0    0    0  501  0.00000000000E+00  0.00000000000E+00  0.13911683967E+04  0.13911683967E+04  0.50400001928E-02 0. -1.
        1   -1    0    0  501    0  0.00000000000E+00  0.00000000000E+00 -0.17950553194E+04  0.17950553194E+04  0.50400001928E-02 0.  1.
    10030    2    1    2    0    0  0.00000000000E+00  0.00000000000E+00 -0.40388692273E+03  0.31862237161E+04  0.31605216219E+04 0.  0.
        3    1    3    3  502    0 -0.12856809834E+04  0.91743747109E+03 -0.15096429549E+03  0.15866497197E+04  0.10100000352E+00 0.  1.
       -3    1    3    3    0  502  0.12856809834E+04 -0.91743747109E+03 -0.25292262723E+03  0.15995739964E+04  0.10100000352E+00 0. -1.
</event>
<event>
 5   0  0.4017247E-06  0.3267769E+04  0.7818609E-02  0.8171145E-01
       -2   -1    0    0    0  501  0.00000000000E+00  0.00000000000E+00  0.12132455115E+04  0.12132455115E+04  0.25500000920E-02 0. -1.
        2   -1    0    0  501    0  0.00000000000E+00  0.00000000000E+00 -0.22003618669E+04  0.22003618669E+04  0.25500000920E-02 0.  1.
    10030    2    1    2    0    0  0.00000000000E+00  0.00000000000E+00 -0.98711635538E+03  0.34136073784E+04  0.32677693668E+04 0.  0.
        1    1    3    3  502    0 -0.12184795125E+04  0.91833270166E+03 -0.11040649905E+04  0.18833445720E+04  0.50400001928E-02 0.  1.
       -1    1    3    3    0  502  0.12184795125E+04 -0.91833270166E+03  0.11694863515E+03  0.15302628064E+04  0.50400001928E-02 0. -1.
</event>
<event>
 5   0  0.1352708E-06  0.3238131E+04  0.7818609E-02  0.8178819E-01
        1   -1    0    0  501    0  0.00000000000E+00  0.00000000000E+00  0.22693517835E+04  0.22693517835E+04  0.50400001928E-02 0.  1.
       -1   -1    0    0    0  501  0.00000000000E+00  0.00000000000E+00 -0.11551198753E+04  0.11551198753E+04  0.50400001928E-02 0. -1.
    10030    2    1    2    0    0  0.00000000000E+00  0.00000000000E+00  0.11142319081E+04  0.34244716588E+04  0.32381311581E+04 0.  0.
        5    1    3    3  502    0 -0.16846522692E+03 -0.15502485406E+04  0.96506314588E+02  0.15623657155E+04  0.46999998093E+01 0. -1.
       -5    1    3    3    0  502  0.16846522692E+03  0.15502485406E+04  0.10177255935E+04  0.18621059433E+04  0.46999998093E+01 0.  1.
</event>
<event>
 5   0  0.1405389E-06  0.2070356E+04  0.7818609E-02  0.8574415E-01
       -1   -1    0    0    0  501  0.00000000000E+00  0.00000000000E+00  0.44503089370E+03  0.44503089372E+03  0.50400001928E-02 0.  1.
        1   -1    0    0  501    0  0.00000000000E+00  0.00000000000E+00 -0.24079079411E+04  0.24079079411E+04  0.50400001928E-02 0. -1.
    10030    2    1    2    0    0  0.00000000000E+00  0.00000000000E+00 -0.19628770474E+04  0.28529388349E+04  0.20703559337E+04 0.  0.
        1    1    3    3  502    0 -0.96652780259E+03  0.13748392193E+03 -0.50704887175E+03  0.11000801700E+04  0.50400001928E-02 0.  1.
       -1    1    3    3    0  502  0.96652780259E+03 -0.13748392193E+03 -0.14558281757E+04  0.17528586649E+04  0.50400001928E-02 0. -1.
</event>
<event>
 5   0  0.1339825E-06  0.2182631E+04  0.7818609E-02  0.8525692E-01
       -1   -1    0    0    0  501  0.00000000000E+00  0.00000000000E+00  0.67013788965E+03  0.67013788967E+03  0.50400001928E-02 0. -1.
        1   -1    0    0  501    0  0.00000000000E+00  0.00000000000E+00 -0.17772015045E+04  0.17772015045E+04  0.50400001928E-02 0.  1.
    10030    2    1    2    0    0  0.00000000000E+00  0.00000000000E+00 -0.11070636149E+04  0.24473393942E+04  0.21826314996E+04 0.  0.
        3    1    3    3  502    0  0.39636037793E+03  0.18074251962E+03  0.56842036380E+03  0.71615021314E+03  0.10100000352E+00 0. -1.
       -3    1    3    3    0  502 -0.39636037793E+03 -0.18074251962E+03 -0.16754839787E+04  0.17311891810E+04  0.10100000352E+00 0.  1.
</event>
<event>
 5   0  0.1282578E-06  0.3538952E+04  0.7818609E-02  0.8104620E-01
       -1   -1    0    0    0  501  0.00000000000E+00  0.00000000000E+00  0.23460084268E+04  0.23460084268E+04  0.50400001928E-02 0.  1.
        1   -1    0    0  501    0  0.00000000000E+00  0.00000000000E+00 -0.13346269476E+04  0.13346269476E+04  0.50400001928E-02 0. -1.
    10030    2    1    2    0    0  0.00000000000E+00  0.00000000000E+00  0.10113814792E+04  0.36806353745E+04  0.35389524246E+04 0.  0.
        4    1    3    3  502    0  0.57360351726E+03 -0.16681084292E+04  0.65069167497E+03  0.18801616939E+04  0.12699999809E+01 0.  1.
       -4    1    3    3    0  502 -0.57360351726E+03  0.16681084292E+04  0.36068980423E+03  0.18004736805E+04  0.12699999809E+01 0. -1.
</event>
<event>
 5   0  0.1339825E-06  0.3316723E+04  0.7818609E-02  0.8158653E-01
       -1   -1    0    0    0  501  0.00000000000E+00  0.00000000000E+00  0.31755486614E+04  0.31755486614E+04  0.50400001928E-02 0. -1.
        1   -1    0    0  501    0  0.00000000000E+00  0.00000000000E+00 -0.86604315525E+03  0.86604315527E+03  0.50400001928E-02 0.  1.
    10030    2    1    2    0    0  0.00000000000E+00  0.00000000000E+00  0.23095055062E+04  0.40415918167E+04  0.33167225886E+04 0.  0.
        3    1    3    3  502    0 -0.14040870216E+04 -0.81050514598E+03  0.72950990215E+03  0.17777974191E+04  0.10100000352E+00 0.  1.
       -3    1    3    3    0  502  0.14040870216E+04  0.81050514598E+03  0.15799956040E+04  0.22637943976E+04  0.10100000352E+00 0. -1.
</event>
<event>
 5   0  0.4017247E-06  0.3350403E+04  0.7818609E-02  0.8150187E-01
        2   -1    0    0  501    0  0.00000000000E+00  0.00000000000E+00  0.15563809548E+04  0.15563809548E+04  0.25500000920E-02 0.  1.
       -2   -1    0    0    0  501  0.00000000000E+00  0.00000000000E+00 -0.18030934506E+04  0.18030934506E+04  0.25500000920E-02 0. -1.
    10030    2    1    2    0    0  0.00000000000E+00  0.00000000000E+00 -0.24671249582E+03  0.33594744053E+04  0.33504031436E+04 0.  0.
        1    1    3    3  502    0 -0.13394495491E+04 -0.32468579386E+03  0.83145844260E+03  0.16096176879E+04  0.50400001928E-02 0.  1.
       -1    1    3    3    0  502  0.13394495491E+04  0.32468579386E+03 -0.10781709384E+04  0.17498567175E+04  0.50400001928E-02 0. -1.
</event>
<event>
 5   0  0.3896210E-06  0.2799431E+04  0.7818609E-02  0.8303445E-01
       -2   -1    0    0    0  501  0.00000000000E+00  0.00000000000E+00  0.92000478676E+03  0.92000478677E+03  0.25500000920E-02 0. -1.
        2   -1    0    0  501    0  0.00000000000E+00  0.00000000000E+00 -0.21295578204E+04  0.21295578204E+04  0.25500000920E-02 0.  1.
    10030    2    1    2    0    0  0.00000000000E+00  0.00000000000E+00 -0.12095530336E+04  0.30495626071E+04  0.27994309339E+04 0.  0.
        3    1    3    3  502    0 -0.11897628979E+03 -0.13875082615E+04 -0.45122500122E+03  0.14638779133E+04  0.10100000352E+00 0. -1.
       -3    1    3    3    0  502  0.11897628979E+03  0.13875082615E+04 -0.75832803238E+03  0.15856846938E+04  0.10100000352E+00 0.  1.
</event>
<event>
 5   0  0.1339825E-06  0.3285670E+04  0.7818609E-02  0.8166551E-01
        1   -1    0    0  501    0  0.00000000000E+00  0.00000000000E+00  0.19802377867E+04  0.19802377867E+04  0.50400001928E-02 0.  1.
       -1   -1    0    0    0  501  0.00000000000E+00  0.00000000000E+00 -0.13629208160E+04  0.13629208160E+04  0.50400001928E-02 0. -1.
    10030    2    1    2    0    0  0.00000000000E+00  0.00000000000E+00  0.61731697062E+03  0.33431586027E+04  0.32856702818E+04 0.  0.
        3    1    3    3  502    0  0.62404043586E+03 -0.14778138736E+04 -0.51867136754E+02  0.16050079503E+04  0.10100000352E+00 0. -1.
       -3    1    3    3    0  502 -0.62404043586E+03  0.14778138736E+04  0.66918410737E+03  0.17381506524E+04  0.10100000352E+00 0.  1.
</event>
<event>
 5   0  0.3812379E-06  0.3308299E+04  0.7818609E-02  0.8160787E-01
       -2   -1    0    0    0  501  0.00000000000E+00  0.00000000000E+00  0.13730772076E+04  0.13730772076E+04  0.25500000920E-02 0. -1.
        2   -1    0    0  501    0  0.00000000000E+00  0.00000000000E+00 -0.19927582588E+04  0.19927582588E+04  0.25500000920E-02 0.  1.
    10030    2    1    2    0    0  0.00000000000E+00  0.00000000000E+00 -0.61968105116E+03  0.33658354664E+04  0.33082992280E+04 0.  0.
        5    1    3    3  502    0  0.63283696195E+02 -0.23929619698E+03  0.13541222561E+04  0.13765669873E+04  0.46999998093E+01 0. -1.
       -5    1    3    3    0  502 -0.63283696195E+02  0.23929619698E+03 -0.19738033073E+04  0.19892684791E+04  0.46999998093E+01 0.  1.
</event>
<event>
 5   0  0.1282578E-06  0.3304944E+04  0.7818609E-02  0.8161638E-01
        1   -1    0    0  501    0  0.00000000000E+00  0.00000000000E+00  0.23323448147E+04  0.23323448147E+04  0.50400001928E-02 0.  1.
       -1   -1    0    0    0  501  0.00000000000E+00  0.00000000000E+00 -0.11707806119E+04  0.11707806119E+04  0.50400001928E-02 0. -1.
    10030    2    1    2    0    0  0.00000000000E+00  0.00000000000E+00  0.11615642028E+04  0.35031254266E+04  0.33049442291E+04 0.  0.
        4    1    3    3  502    0 -0.20722010566E+03  0.16359767121E+04  0.69347040518E+03  0.17889278327E+04  0.12699999809E+01 0.  1.
       -4    1    3    3    0  502  0.20722010566E+03 -0.16359767121E+04  0.46809379766E+03  0.17141975940E+04  0.12699999809E+01 0. -1.
</event>
<event>
 5   0  0.1391878E-06  0.3295673E+04  0.7818609E-02  0.8163997E-01
        1   -1    0    0  501    0  0.00000000000E+00  0.00000000000E+00  0.16853514253E+04  0.16853514253E+04  0.50400001928E-02 0. -1.
       -1   -1    0    0    0  501  0.00000000000E+00  0.00000000000E+00 -0.16111563442E+04  0.16111563442E+04  0.50400001928E-02 0.  1.
    10030    2    1    2    0    0  0.00000000000E+00  0.00000000000E+00  0.74195081103E+02  0.32965077695E+04  0.32956727029E+04 0.  0.
        2    1    3    3  502    0 -0.27405796947E+03  0.10774233573E+03 -0.15846239943E+04  0.16117535125E+04  0.25500000920E-02 0.  1.
       -2    1    3    3    0  502  0.27405796947E+03 -0.10774233573E+03  0.16588190754E+04  0.16847542570E+04  0.25500000920E-02 0. -1.
</event>
<event>
 5   0  0.1405389E-06  0.3273292E+04  0.7818609E-02  0.8169725E-01
       -1   -1    0    0    0  501  0.00000000000E+00  0.00000000000E+00  0.10438368231E+04  0.10438368231E+04  0.50400001928E-02 0.  1.
        1   -1    0    0  501    0  0.00000000000E+00  0.00000000000E+00 -0.25661203248E+04  0.25661203248E+04  0.50400001928E-02 0. -1.
    10030    2    1    2    0    0  0.00000000000E+00  0.00000000000E+00 -0.15222835016E+04  0.36099571479E+04  0.32732924633E+04 0.  0.
        1    1    3    3  502    0 -0.20883724910E+03  0.13475404481E+03 -0.25451865580E+04  0.25572927608E+04  0.50400001928E-02 0. -1.
       -1    1    3    3    0  502  0.20883724910E+03 -0.13475404481E+03  0.10229030564E+04  0.10526643871E+04  0.50400001928E-02 0.  1.
</event>
<event>
 5   0  0.1352708E-06  0.3008878E+04  0.7818609E-02  0.8241200E-01
        1   -1    0    0  501    0  0.00000000000E+00  0.00000000000E+00  0.27754539808E+04  0.27754539808E+04  0.50400001928E-02 0.  1.
       -1   -1    0    0    0  501  0.00000000000E+00  0.00000000000E+00 -0.81548337020E+03  0.81548337021E+03  0.50400001928E-02 0. -1.
    10030    2    1    2    0    0  0.00000000000E+00  0.00000000000E+00  0.19599706106E+04  0.35909373510E+04  0.30088779079E+04 0.  0.
        5    1    3    3  502    0  0.13632139578E+04  0.43704029857E+03  0.42794919674E+03  0.14941616788E+04  0.46999998093E+01 0. -1.
       -5    1    3    3    0  502 -0.13632139578E+04 -0.43704029857E+03  0.15320214139E+04  0.20967756723E+04  0.46999998093E+01 0.  1.
</event>
<event>
 5   0  0.3812379E-06  0.3300814E+04  0.7818609E-02  0.8162688E-01
        2   -1    0    0  501    0  0.00000000000E+00  0.00000000000E+00  0.11701898026E+04  0.11701898026E+04  0.25500000920E-02 0. -1.
       -2   -1    0    0    0  501  0.00000000000E+00  0.00000000000E+00 -0.23276932587E+04  0.23276932587E+04  0.25500000920E-02 0.  1.
    10030    2    1    2    0    0  0.00000000000E+00  0.00000000000E+00 -0.11575034561E+04  0.34978830613E+04  0.33008137874E+04 0.  0.
        5    1    3    3  502    0 -0.16898081316E+03  0.64527900232E+03  0.10209724761E+04  0.12195681174E+04  0.46999998093E+01 0. -1.
       -5    1    3    3    0  502  0.16898081316E+03 -0.64527900232E+03 -0.21784759322E+04  0.22783149439E+04  0.46999998093E+01 0.  1.
</event>
<event>
 5   0  0.3920487E-06  0.3289453E+04  0.7818609E-02  0.8165584E-01
       -2   -1    0    0    0  501  0.00000000000E+00  0.00000000000E+00  0.90296056148E+03  0.90296056149E+03  0.25500000920E-02 0. -1.
        2   -1    0    0  501    0  0.00000000000E+00  0.00000000000E+00 -0.29958399813E+04  0.29958399813E+04  0.25500000920E-02 0.  1.
    10030    2    1    2    0    0  0.00000000000E+00  0.00000000000E+00 -0.20928794198E+04  0.38988005427E+04  0.32894530558E+04 0.  0.
        4    1    3    3  502    0  0.16764072998E+03  0.83392321166E+03 -0.27148946765E+04  0.28450283047E+04  0.12699999809E+01 0.  1.
       -4    1    3    3    0  502 -0.16764072998E+03 -0.83392321166E+03  0.62201525668E+03  0.10537722381E+04  0.12699999809E+01 0. -1.
</event>
<event>
 5   0  0.1352708E-06  0.2132823E+04  0.7818609E-02  0.8546921E-01
        1   -1    0    0  501    0  0.00000000000E+00  0.00000000000E+00  0.15182846739E+04  0.15182846739E+04  0.50400001928E-02 0.  1.
       -1   -1    0    0    0  501  0.00000000000E+00  0.00000000000E+00 -0.74902540097E+03  0.74902540098E+03  0.50400001928E-02 0. -1.
    10030    2    1    2    0    0  0.00000000000E+00  0.00000000000E+00  0.76925927291E+03  0.22673100749E+04  0.21328232807E+04 0.  0.
        5    1    3    3  502    0 -0.22931691722E+03  0.85729032740E+03 -0.24399393426E+03  0.92037388268E+03  0.46999998093E+01 0. -1.
       -5    1    3    3    0  502  0.22931691722E+03 -0.85729032740E+03  0.10132532072E+04  0.13469361922E+04  0.46999998093E+01 0.  1.
</event>
<event>
 5   0  0.1259875E-06  0.3181851E+04  0.7818609E-02  0.8193627E-01
        3   -1    0    0  501    0  0.00000000000E+00  0.00000000000E+00  0.19477300149E+04  0.19477300176E+04  0.10100000352E+00 0. -1.
       -3   -1    0    0    0  501  0.00000000000E+00  0.00000000000E+00 -0.12994839136E+04  0.12994839175E+04  0.10100000352E+00 0.  1.
    10030    2    1    2    0    0  0.00000000000E+00  0.00000000000E+00  0.64824610134E+03  0.32472139351E+04  0.31818509287E+04 0.  0.
        3    1    3    3  502    0  0.59220922197E+03  0.10252726868E+04 -0.76031938493E+03  0.14071181266E+04  0.10100000352E+00 0.  1.
       -3    1    3    3    0  502 -0.59220922197E+03 -0.10252726868E+04  0.14085654863E+04  0.18400958085E+04  0.10100000352E+00 0. -1.
</event>
<event>
 5   0  0.4017247E-06  0.3268018E+04  0.7818609E-02  0.8171081E-01
        2   -1    0    0  501    0  0.00000000000E+00  0.00000000000E+00  0.22818689479E+04  0.22818689479E+04  0.25500000920E-02 0. -1.
       -2   -1    0    0    0  501  0.00000000000E+00  0.00000000000E+00 -0.11700867706E+04  0.11700867706E+04  0.25500000920E-02 0.  1.
    10030    2    1    2    0    0  0.00000000000E+00  0.00000000000E+00  0.11117821772E+04  0.34519557185E+04  0.32680175448E+04 0.  0.
        1    1    3    3  502    0  0.12111625144E+04 -0.10527617590E+04  0.23072924729E+03  0.16212519678E+04  0.50400001928E-02 0.  1.
       -1    1    3    3    0  502 -0.12111625144E+04  0.10527617590E+04  0.88105292993E+03  0.18307037507E+04  0.50400001928E-02 0. -1.
</event>
<event>
 5   0  0.3920487E-06  0.3346445E+04  0.7818609E-02  0.8151177E-01
        2   -1    0    0  501    0  0.00000000000E+00  0.00000000000E+00  0.19147265779E+04  0.19147265779E+04  0.25500000920E-02 0.  1.
       -2   -1    0    0    0  501  0.00000000000E+00  0.00000000000E+00 -0.14621796347E+04  0.14621796347E+04  0.25500000920E-02 0. -1.
    10030    2    1    2    0    0  0.00000000000E+00  0.00000000000E+00  0.45254694316E+03  0.33769062126E+04  0.33464454027E+04 0.  0.
        4    1    3    3  502    0 -0.43003540720E+03  0.16167609891E+04  0.25527613838E+03  0.16923398202E+04  0.12699999809E+01 0.  1.
       -4    1    3    3    0  502  0.43003540720E+03 -0.16167609891E+04  0.19727080478E+03  0.16845663924E+04  0.12699999809E+01 0. -1.
</event>
<event>
 5   0  0.3920487E-06  0.2268316E+04  0.7818609E-02  0.8490520E-01
       -2   -1    0    0    0  501  0.00000000000E+00  0.00000000000E+00  0.10308197212E+04  0.10308197212E+04  0.25500000920E-02 0.  1.
        2   -1    0    0  501    0  0.00000000000E+00  0.00000000000E+00 -0.12478556326E+04  0.12478556326E+04  0.25500000920E-02 0. -1.
    10030    2    1    2    0    0  0.00000000000E+00  0.00000000000E+00 -0.21703591148E+03  0.22786753538E+04  0.22683158469E+04 0.  0.
        4    1    3    3  502    0  0.13306948314E+03  0.18084098809E+02 -0.12398397876E+04  0.12470921512E+04  0.12699999809E+01 0. -1.
       -4    1    3    3    0  502 -0.13306948314E+03 -0.18084098809E+02  0.10228038761E+04  0.10315832026E+04  0.12699999809E+01 0.  1.
</event>
<event>
 5   0  0.1282578E-06  0.3251677E+04  0.7818609E-02  0.8175301E-01
       -1   -1    0    0    0  501  0.00000000000E+00  0.00000000000E+00  0.14202851461E+04  0.14202851461E+04  0.50400001928E-02 0. -1.
        1   -1    0    0  501    0  0.00000000000E+00  0.00000000000E+00 -0.18611413578E+04  0.18611413578E+04  0.50400001928E-02 0.  1.
    10030    2    1    2    0    0  0.00000000000E+00  0.00000000000E+00 -0.44085621171E+03  0.32814265039E+04  0.32516773673E+04 0.  0.
        4    1    3    3  502    0 -0.96963856768E+02  0.13396169771E+04  0.70412749857E+03  0.15165001754E+04  0.12699999809E+01 0.  1.
       -4    1    3    3    0  502  0.96963856768E+02 -0.13396169771E+04 -0.11449837103E+04  0.17649263284E+04  0.12699999809E+01 0. -1.
</event>
<event>
 5   0  0.1339825E-06  0.3283197E+04  0.7818609E-02  0.8167184E-01
        1   -1    0    0  501    0  0.00000000000E+00  0.00000000000E+00  0.86177637637E+03  0.86177637638E+03  0.50400001928E-02 0.  1.
       -1   -1    0    0    0  501  0.00000000000E+00  0.00000000000E+00 -0.31270819370E+04  0.31270819370E+04  0.50400001928E-02 0. -1.
    10030    2    1    2    0    0  0.00000000000E+00  0.00000000000E+00 -0.22653055607E+04  0.39888583134E+04  0.32831968204E+04 0.  0.
        3    1    3    3  502    0 -0.46046187557E+03  0.84972980565E+03  0.47949248445E+03  0.10788785540E+04  0.10100000352E+00 0.  1.
       -3    1    3    3    0  502  0.46046187557E+03 -0.84972980565E+03 -0.27447980451E+04  0.29099797594E+04  0.10100000352E+00 0. -1.
</event>
<event>
 5   0  0.1339825E-06  0.2222790E+04  0.7818609E-02  0.8509002E-01
        1   -1    0    0  501    0  0.00000000000E+00  0.00000000000E+00  0.19786332749E+04  0.19786332749E+04  0.50400001928E-02 0. -1.
       -1   -1    0    0    0  501  0.00000000000E+00  0.00000000000E+00 -0.62426865210E+03  0.62426865212E+03  0.50400001928E-02 0.  1.
    10030    2    1    2    0    0  0.00000000000E+00  0.00000000000E+00  0.13543646228E+04  0.26029019270E+04  0.22227898934E+04 0.  0.
        3    1    3    3  502    0  0.24677556196E+03  0.52898308700E+03  0.17846832055E+04  0.18777154839E+04  0.10100000352E+00 0. -1.
       -3    1    3    3    0  502 -0.24677556196E+03 -0.52898308700E+03 -0.43031858277E+03  0.72518644306E+03  0.10100000352E+00 0.  1.
</event>
<event>
 5   0  0.3920487E-06  0.3089060E+04  0.7818609E-02  0.8218747E-01
        2   -1    0    0  501    0  0.00000000000E+00  0.00000000000E+00  0.26963470838E+04  0.26963470838E+04  0.25500000920E-02 0. -1.
       -2   -1    0    0    0  501  0.00000000000E+00  0.00000000000E+00 -0.88474241149E+03  0.88474241149E+03  0.25500000920E-02 0.  1.
    10030    2    1    2    0    0  0.00000000000E+00  0.00000000000E+00  0.18116046723E+04  0.35810894953E+04  0.30890598059E+04 0.  0.
        4    1    3    3  502    0  0.95603711057E+03  0.52227639604E+03  0.21750917870E+04  0.24326540004E+04  0.12699999809E+01 0. -1.
       -4    1    3    3    0  502 -0.95603711057E+03 -0.52227639604E+03 -0.36348711467E+03  0.11484354950E+04  0.12699999809E+01 0.  1.
</event>
<event>
 5   0  0.1282578E-06  0.3323140E+04  0.7818609E-02  0.8157032E-01
       -1   -1    0    0    0  501  0.00000000000E+00  0.00000000000E+00  0.29568558706E+04  0.29568558706E+04  0.50400001928E-02 0. -1.
        1   -1    0    0  501    0  0.00000000000E+00  0.00000000000E+00 -0.93369978522E+03  0.93369978524E+03  0.50400001928E-02 0.  1.
    10030    2    1    2    0    0  0.00000000000E+00  0.00000000000E+00  0.20231560854E+04  0.38905556559E+04  0.33231404974E+04 0.  0.
        4    1    3    3  502    0  0.15613281967E+04 -0.39122310512E+03  0.52884862202E+03  0.16942501981E+04  0.12699999809E+01 0.  1.
       -4    1    3    3    0  502 -0.15613281967E+04  0.39122310512E+03  0.14943074634E+04  0.21963054578E+04  0.12699999809E+01 0. -1.
</event>
<event>
 5   0  0.4017247E-06  0.3315545E+04  0.7818609E-02  0.8158951E-01
        2   -1    0    0  501    0  0.00000000000E+00  0.00000000000E+00  0.15295979981E+04  0.15295979981E+04  0.25500000920E-02 0. -1.
       -2   -1    0    0    0  501  0.00000000000E+00  0.00000000000E+00 -0.17966880459E+04  0.17966880459E+04  0.25500000920E-02 0.  1.
    10030    2    1    2    0    0  0.00000000000E+00  0.00000000000E+00 -0.26709004773E+03  0.33262860440E+04  0.33155454684E+04 0.  0.
        1    1    3    3  502    0 -0.97403079018E+03  0.87591431471E+03  0.88574259939E+03  0.15812975113E+04  0.50400001928E-02 0. -1.
       -1    1    3    3    0  502  0.97403079018E+03 -0.87591431471E+03 -0.11528326471E+04  0.17449885327E+04  0.50400001928E-02 0.  1.
</event>
<event>
 5   0  0.1352708E-06  0.3317364E+04  0.7818609E-02  0.8158491E-01
       -1   -1    0    0    0  501  0.00000000000E+00  0.00000000000E+00  0.25820273713E+04  0.25820273713E+04  0.50400001928E-02 0.  1.
        1   -1    0    0  501    0  0.00000000000E+00  0.00000000000E+00 -0.10655296410E+04  0.10655296410E+04  0.50400001928E-02 0. -1.
    10030    2    1    2    0    0  0.00000000000E+00  0.00000000000E+00  0.15164977303E+04  0.36475570124E+04  0.33173644347E+04 0.  0.
        5    1    3    3  502    0 -0.20079735595E+02  0.11062687418E+04 -0.60045334673E+03  0.12588884130E+04  0.46999998093E+01 0. -1.
       -5    1    3    3    0  502  0.20079735595E+02 -0.11062687418E+04  0.21169510770E+04  0.23886685993E+04  0.46999998093E+01 0.  1.
</event>
<event>
 5   0  0.3896210E-06  0.2552084E+04  0.7818609E-02  0.8384662E-01
        2   -1    0    0  501    0  0.00000000000E+00  0.00000000000E+00  0.12537376855E+04  0.12537376855E+04  0.25500000920E-02 0. -1.
       -2   -1    0    0    0  501  0.00000000000E+00  0.00000000000E+00 -0.12987430344E+04  0.12987430344E+04  0.25500000920E-02 0.  1.
    10030    2    1    2    0    0  0.00000000000E+00  0.00000000000E+00 -0.45005348885E+02  0.25524807199E+04  0.25520839218E+04 0.  0.
        3    1    3    3  502    0  0.10940170471E+04  0.57239255513E+03  0.29969107482E+03  0.12705594386E+04  0.10100000352E+00 0. -1.
       -3    1    3    3    0  502 -0.10940170471E+04 -0.57239255513E+03 -0.34469642371E+03  0.12819212812E+04  0.10100000352E+00 0.  1.
</event>
<event>
 5   0  0.4017247E-06  0.3538955E+04  0.7818609E-02  0.8104620E-01
       -2   -1    0    0    0  501  0.00000000000E+00  0.00000000000E+00  0.18054276072E+04  0.18054276072E+04  0.25500000920E-02 0. -1.
        2   -1    0    0  501    0  0.00000000000E+00  0.00000000000E+00 -0.17342430168E+04  0.17342430168E+04  0.25500000920E-02 0.  1.
    10030    2    1    2    0    0  0.00000000000E+00  0.00000000000E+00  0.71184590377E+02  0.35396706240E+04  0.35389547723E+04 0.  0.
        1    1    3    3  502    0 -0.10865278924E+04 -0.94593732517E+03  0.10632775935E+04  0.17905025901E+04  0.50400001928E-02 0. -1.
       -1    1    3    3    0  502  0.10865278924E+04  0.94593732517E+03 -0.99209300315E+03  0.17491680340E+04  0.50400001928E-02 0.  1.
</event>
<event>
 5   0  0.1352708E-06  0.3341125E+04  0.7818609E-02  0.8152509E-01
        1   -1    0    0  501    0  0.00000000000E+00  0.00000000000E+00  0.18464576239E+04  0.18464576239E+04  0.50400001928E-02 0.  1.
       -1   -1    0    0    0  501  0.00000000000E+00  0.00000000000E+00 -0.15114234046E+04  0.15114234046E+04  0.50400001928E-02 0. -1.
    10030    2    1    2    0    0  0.00000000000E+00  0.00000000000E+00  0.33503421932E+03  0.33578810285E+04  0.33411251209E+04 0.  0.
        5    1    3    3  502    0  0.81389245106E+03  0.20652077543E+03 -0.12839158076E+04  0.15341230862E+04  0.46999998093E+01 0. -1.
       -5    1    3    3    0  502 -0.81389245106E+03 -0.20652077543E+03  0.16189500269E+04  0.18237579423E+04  0.46999998093E+01 0.  1.
</event>
<event>
 5   0  0.1391878E-06  0.3335265E+04  0.7818609E-02  0.8153980E-01
        1   -1    0    0  501    0  0.00000000000E+00  0.00000000000E+00  0.16871302542E+04  0.16871302542E+04  0.50400001928E-02 0.  1.
       -1   -1    0    0    0  501  0.00000000000E+00  0.00000000000E+00 -0.16483603281E+04  0.16483603281E+04  0.50400001928E-02 0. -1.
    10030    2    1    2    0    0  0.00000000000E+00  0.00000000000E+00  0.38769926101E+02  0.33354905823E+04  0.33352652544E+04 0.  0.
        2    1    3    3  502    0 -0.75258149499E+03 -0.26630405751E+03  0.14836224728E+04  0.16847647906E+04  0.25500000920E-02 0.  1.
       -2    1    3    3    0  502  0.75258149499E+03  0.26630405751E+03 -0.14448525467E+04  0.16507257917E+04  0.25500000920E-02 0. -1.
</event>
<event>
 5   0  0.3671997E-06  0.3309962E+04  0.7818609E-02  0.8160365E-01
        2   -1    0    0  501    0  0.00000000000E+00  0.00000000000E+00  0.18169518198E+04  0.18169518198E+04  0.25500000920E-02 0.  1.
       -2   -1    0    0    0  501  0.00000000000E+00  0.00000000000E+00 -0.15074490907E+04  0.15074490907E+04  0.25500000920E-02 0. -1.
    10030    2    1    2    0    0  0.00000000000E+00  0.00000000000E+00  0.30950272912E+03  0.33244009104E+04  0.33099621560E+04 0.  0.
        2    1    3    3  502    0 -0.16144810614E+04  0.34905525431E+03  0.25802842375E+03  0.16718155806E+04  0.25500000920E-02 0. -1.
       -2    1    3    3    0  502  0.16144810614E+04 -0.34905525431E+03  0.51474305373E+02  0.16525853298E+04  0.25500000920E-02 0.  1.
</event>
<event>
 5   0  0.3671997E-06  0.2849255E+04  0.7818609E-02  0.8288138E-01
       -2   -1    0    0    0  501  0.00000000000E+00  0.00000000000E+00  0.20170006234E+04  0.20170006234E+04  0.25500000920E-02 0. -1.
        2   -1    0    0  501    0  0.00000000000E+00  0.00000000000E+00 -0.10062282992E+04  0.10062282992E+04  0.25500000920E-02 0.  1.
    10030    2    1    2    0    0  0.00000000000E+00  0.00000000000E+00  0.10107723242E+04  0.30232289226E+04  0.28492547143E+04 0.  0.
        2    1    3    3  502    0  0.81033264125E+03  0.10546385080E+04 -0.36338239792E+02  0.13304968394E+04  0.25500000920E-02 0.  1.
       -2    1    3    3    0  502 -0.81033264125E+03 -0.10546385080E+04  0.10471105640E+04  0.16927320832E+04  0.25500000920E-02 0. -1.
</event>
<event>
 5   0  0.1339825E-06  0.3116209E+04  0.7818609E-02  0.8211303E-01
       -1   -1    0    0    0  501  0.00000000000E+00  0.00000000000E+00  0.12412854644E+04  0.12412854644E+04  0.50400001928E-02 0. -1.
        1   -1    0    0  501    0  0.00000000000E+00  0.00000000000E+00 -0.19557873070E+04  0.19557873070E+04  0.50400001928E-02 0.  1.
    10030    2    1    2    0    0  0.00000000000E+00  0.00000000000E+00 -0.71450184260E+03  0.31970727714E+04  0.31162094638E+04 0.  0.
        3    1    3    3  502    0  0.14146256160E+04  0.19317098008E+03 -0.99730651666E+03  0.17415800181E+04  0.10100000352E+00 0.  1.
       -3    1    3    3    0  502 -0.14146256160E+04 -0.19317098008E+03  0.28280467406E+03  0.14554927533E+04  0.10100000352E+00 0. -1.
</event>
<event>
 5   0  0.1391878E-06  0.2091998E+04  0.7818609E-02  0.8564777E-01
       -1   -1    0    0    0  501  0.00000000000E+00  0.00000000000E+00  0.10600967581E+04  0.10600967581E+04  0.50400001928E-02 0.  1.
        1   -1    0    0  501    0  0.00000000000E+00  0.00000000000E+00 -0.10320886480E+04  0.10320886480E+04  0.50400001928E-02 0. -1.
    10030    2    1    2    0    0  0.00000000000E+00  0.00000000000E+00  0.28008110059E+02  0.20921854061E+04  0.20919979253E+04 0.  0.
        2    1    3    3  502    0  0.56504339923E+03 -0.68331127395E+03 -0.54095601885E+03  0.10386634462E+04  0.25500000920E-02 0. -1.
       -2    1    3    3    0  502 -0.56504339923E+03  0.68331127395E+03  0.56896412891E+03  0.10535219600E+04  0.25500000920E-02 0.  1.
</event>
<event>
 5   0  0.4017247E-06  0.3399949E+04  0.7818609E-02  0.8137919E-01
        2   -1    0    0  501    0  0.00000000000E+00  0.00000000000E+00  0.20237479709E+04  0.20237479709E+04  0.25500000920E-02 0. -1.
       -2   -1    0    0    0  501  0.00000000000E+00  0.00000000000E+00 -0.14280002305E+04  0.14280002305E+04  0.25500000920E-02 0.  1.
    10030    2    1    2    0    0  0.00000000000E+00  0.00000000000E+00  0.59574774045E+03  0.34517482014E+04  0.33999485695E+04 0.  0.
        1    1    3    3  502    0  0.15964780157E+04  0.43447036268E+03  0.69421379070E+03  0.17942796153E+04  0.50400001928E-02 0. -1.
       -1    1    3    3    0  502 -0.15964780157E+04 -0.43447036268E+03 -0.98466050255E+02  0.16574685861E+04  0.50400001928E-02 0.  1.
</event>
<event>
 5   0  0.1282578E-06  0.2739962E+04  0.7818609E-02  0.8322154E-01
        1   -1    0    0  501    0  0.00000000000E+00  0.00000000000E+00  0.20583549693E+04  0.20583549693E+04  0.50400001928E-02 0.  1.
       -1   -1    0    0    0  501  0.00000000000E+00  0.00000000000E+00 -0.91181906103E+03  0.91181906104E+03  0.50400001928E-02 0. -1.
    10030    2    1    2    0    0  0.00000000000E+00  0.00000000000E+00  0.11465359082E+04  0.29701740303E+04  0.27399615292E+04 0.  0.
        4    1    3    3  502    0  0.35187690986E+03  0.12289774189E+04  0.11072432433E+04  0.16912102379E+04  0.12699999809E+01 0.  1.
       -4    1    3    3    0  502 -0.35187690986E+03 -0.12289774189E+04  0.39292664880E+02  0.12789637924E+04  0.12699999809E+01 0. -1.
</event>
<event>
 5   0  0.4017247E-06  0.2053901E+04  0.7818609E-02  0.8581827E-01
        2   -1    0    0  501    0  0.00000000000E+00  0.00000000000E+00  0.95181451233E+03  0.95181451233E+03  0.25500000920E-02 0.  1.
       -2   -1    0    0    0  501  0.00000000000E+00  0.00000000000E+00 -0.11080175762E+04  0.11080175762E+04  0.25500000920E-02 0. -1.
    10030    2    1    2    0    0  0.00000000000E+00  0.00000000000E+00 -0.15620306387E+03  0.20598320885E+04  0.20539008827E+04 0.  0.
        1    1    3    3  502    0  0.48944365960E+03  0.63079190711E+03  0.56965349137E+03  0.98079489510E+03  0.50400001928E-02 0. -1.
       -1    1    3    3    0  502 -0.48944365960E+03 -0.63079190711E+03 -0.72585655523E+03  0.10790371934E+04  0.50400001928E-02 0.  1.
</event>
<event>
 5   0  0.1405389E-06  0.3362423E+04  0.7818609E-02  0.8147191E-01
        1   -1    0    0  501    0  0.00000000000E+00  0.00000000000E+00  0.23417067140E+04  0.23417067140E+04  0.50400001928E-02 0. -1.
       -1   -1    0    0    0  501  0.00000000000E+00  0.00000000000E+00 -0.12070134560E+04  0.12070134561E+04  0.50400001928E-02 0.  1.
    10030    2    1    2    0    0  0.00000000000E+00  0.00000000000E+00  0.11346932579E+04  0.35487201700E+04  0.33624226468E+04 0.  0.
        1    1    3    3  502    0 -0.24915355915E+02 -0.14685254387E+04 -0.29607833507E+03  0.14982823898E+04  0.50400001928E-02 0.  1.
       -1    1    3    3    0  502  0.24915355915E+02  0.14685254387E+04  0.14307715930E+04  0.20504377802E+04  0.50400001928E-02 0. -1.
</event>
<event>
 5   0  0.3920487E-06  0.3321670E+04  0.7818609E-02  0.8157403E-01
       -2   -1    0    0    0  501  0.00000000000E+00  0.00000000000E+00  0.18207563295E+04  0.18207563295E+04  0.25500000920E-02 0.  1.
        2   -1    0    0  501    0  0.00000000000E+00  0.00000000000E+00 -0.15149602130E+04  0.15149602130E+04  0.25500000920E-02 0. -1.
    10030    2    1    2    0    0  0.00000000000E+00  0.00000000000E+00  0.30579611641E+03  0.33357165425E+04  0.33216703008E+04 0.  0.
        4    1    3    3  502    0 -0.77020700265E+03 -0.14685185617E+04  0.59736208185E+02  0.16593178178E+04  0.12699999809E+01 0.  1.
       -4    1    3    3    0  502  0.77020700265E+03  0.14685185617E+04  0.24605990823E+03  0.16763987247E+04  0.12699999809E+01 0. -1.
</event>
<event>
 5   0  0.1259875E-06  0.3299343E+04  0.7818609E-02  0.8163063E-01
        3   -1    0    0  501    0  0.00000000000E+00  0.00000000000E+00  0.10655667561E+04  0.10655667609E+04  0.10100000352E+00 0. -1.
       -3   -1    0    0    0  501  0.00000000000E+00  0.00000000000E+00 -0.25539612718E+04  0.25539612738E+04  0.10100000352E+00 0.  1.
    10030    2    1    2    0    0  0.00000000000E+00  0.00000000000E+00 -0.14883945156E+04  0.36195280347E+04  0.32993431103E+04 0.  0.
        1    1    3    3  502    0  0.63203475946E+03 -0.11107425197E+04  0.40020497289E+03  0.13391717226E+04  0.50400001928E-02 0. -1.
       -1    1    3    3    0  502 -0.63203475946E+03  0.11107425197E+04 -0.18885994885E+04  0.22803563121E+04  0.50400001928E-02 0.  1.
</event>
<event>
 5   0  0.3896210E-06  0.3453011E+04  0.7818609E-02  0.8125017E-01
       -2   -1    0    0    0  501  0.00000000000E+00  0.00000000000E+00  0.20217463165E+04  0.20217463165E+04  0.25500000920E-02 0. -1.
        2   -1    0    0  501    0  0.00000000000E+00  0.00000000000E+00 -0.14743794805E+04  0.14743794805E+04  0.25500000920E-02 0.  1.
    10030    2    1    2    0    0  0.00000000000E+00  0.00000000000E+00  0.54736683598E+03  0.34961257970E+04  0.34530110245E+04 0.  0.
        3    1    3    3  502    0 -0.17160527161E+04 -0.17530871413E+03  0.34705341962E+03  0.17595499868E+04  0.10100000352E+00 0.  1.
       -3    1    3    3    0  502  0.17160527161E+04  0.17530871413E+03  0.20031341635E+03  0.17365758102E+04  0.10100000352E+00 0. -1.
</event>
<event>
 5   0  0.3671997E-06  0.3190338E+04  0.7818609E-02  0.8191373E-01
       -2   -1    0    0    0  501  0.00000000000E+00  0.00000000000E+00  0.11809067400E+04  0.11809067400E+04  0.25500000920E-02 0.  1.
        2   -1    0    0  501    0  0.00000000000E+00  0.00000000000E+00 -0.21547550271E+04  0.21547550271E+04  0.25500000920E-02 0. -1.
    10030    2    1    2    0    0  0.00000000000E+00  0.00000000000E+00 -0.97384828709E+03  0.33356617672E+04  0.31903383737E+04 0.  0.
        2    1    3    3  502    0  0.11556356795E+03 -0.15393853331E+04 -0.66744499656E+02  0.15451592055E+04  0.25500000920E-02 0.  1.
       -2    1    3    3    0  502 -0.11556356795E+03  0.15393853331E+04 -0.90710378744E+03  0.17905025617E+04  0.25500000920E-02 0. -1.
</event>
<event>
 5   0  0.4017247E-06  0.3276138E+04  0.7818609E-02  0.8168994E-01
        2   -1    0    0  501    0  0.00000000000E+00  0.00000000000E+00  0.15429828939E+04  0.15429828939E+04  0.25500000920E-02 0. -1.
       -2   -1    0    0    0  501  0.00000000000E+00  0.00000000000E+00 -0.17390148357E+04  0.17390148357E+04  0.25500000920E-02 0.  1.
    10030    2    1    2    0    0  0.00000000000E+00  0.00000000000E+00 -0.19603194175E+03  0.32819977296E+04  0.32761380580E+04 0.  0.
        1    1    3    3  502    0 -0.66965707198E+03  0.50715001714E+03  0.13107810599E+04  0.15568521834E+04  0.50400001928E-02 0. -1.
       -1    1    3    3    0  502  0.66965707198E+03 -0.50715001714E+03 -0.15068130016E+04  0.17251455463E+04  0.50400001928E-02 0.  1.
</event>
<event>
 5   0  0.1282578E-06  0.3218852E+04  0.7818609E-02  0.8183856E-01
       -1   -1    0    0    0  501  0.00000000000E+00  0.00000000000E+00  0.12805412739E+04  0.12805412740E+04  0.50400001928E-02 0. -1.
        1   -1    0    0  501    0  0.00000000000E+00  0.00000000000E+00 -0.20227795554E+04  0.20227795554E+04  0.50400001928E-02 0.  1.
    10030    2    1    2    0    0  0.00000000000E+00  0.00000000000E+00 -0.74223828147E+03  0.33033208294E+04  0.32188524097E+04 0.  0.
        4    1    3    3  502    0  0.82362138267E+03 -0.13202619949E+04 -0.79276238655E+03  0.17464013661E+04  0.12699999809E+01 0.  1.
       -4    1    3    3    0  502 -0.82362138267E+03  0.13202619949E+04  0.50524105080E+02  0.15569194633E+04  0.12699999809E+01 0. -1.
</event>
<event>
 5   0  0.3671997E-06  0.3180936E+04  0.7818609E-02  0.8193870E-01
       -2   -1    0    0    0  501  0.00000000000E+00  0.00000000000E+00  0.15070628771E+04  0.15070628771E+04  0.25500000920E-02 0. -1.
        2   -1    0    0  501    0  0.00000000000E+00  0.00000000000E+00 -0.16784886736E+04  0.16784886736E+04  0.25500000920E-02 0.  1.
    10030    2    1    2    0    0  0.00000000000E+00  0.00000000000E+00 -0.17142579652E+03  0.31855515507E+04  0.31809356922E+04 0.  0.
        2    1    3    3  502    0 -0.33114143434E+03 -0.13036722325E+04  0.76426604977E+03  0.15470354017E+04  0.25500000920E-02 0. -1.
       -2    1    3    3    0  502  0.33114143434E+03  0.13036722325E+04 -0.93569184629E+03  0.16385161490E+04  0.25500000920E-02 0.  1.
</event>
<event>
 5   0  0.1339825E-06  0.2361953E+04  0.7818609E-02  0.8453887E-01
        1   -1    0    0  501    0  0.00000000000E+00  0.00000000000E+00  0.14668976691E+04  0.14668976691E+04  0.50400001928E-02 0.  1.
       -1   -1    0    0    0  501  0.00000000000E+00  0.00000000000E+00 -0.95078603570E+03  0.95078603571E+03  0.50400001928E-02 0. -1.
    10030    2    1    2    0    0  0.00000000000E+00  0.00000000000E+00  0.51611163338E+03  0.24176837048E+04  0.23619532761E+04 0.  0.
        3    1    3    3  502    0 -0.91523245495E+03  0.61259060544E+03 -0.17837049099E+03  0.11156763593E+04  0.10100000352E+00 0. -1.
       -3    1    3    3    0  502  0.91523245495E+03 -0.61259060544E+03  0.69448212437E+03  0.13020073455E+04  0.10100000352E+00 0.  1.
</event>
<event>
 5   0  0.1282578E-06  0.3277386E+04  0.7818609E-02  0.8168673E-01
       -1   -1    0    0    0  501  0.00000000000E+00  0.00000000000E+00  0.11421492457E+04  0.11421492457E+04  0.50400001928E-02 0.  1.
        1   -1    0    0  501    0  0.00000000000E+00  0.00000000000E+00 -0.23511067686E+04  0.23511067686E+04  0.50400001928E-02 0. -1.
    10030    2    1    2    0    0  0.00000000000E+00  0.00000000000E+00 -0.12089575230E+04  0.34932560143E+04  0.32773860452E+04 0.  0.
        4    1    3    3  502    0  0.62831901949E+03 -0.36123263960E+03  0.96203297006E+03  0.12044844783E+04  0.12699999809E+01 0.  1.
       -4    1    3    3    0  502 -0.62831901949E+03  0.36123263960E+03 -0.21709904930E+04  0.22887715360E+04  0.12699999809E+01 0. -1.
</event>
<event>
 5   0  0.1391878E-06  0.3641908E+04  0.7818609E-02  0.8080959E-01
        1   -1    0    0  501    0  0.00000000000E+00  0.00000000000E+00  0.15082636524E+04  0.15082636524E+04  0.50400001928E-02 0.  1.
       -1   -1    0    0    0  501  0.00000000000E+00  0.00000000000E+00 -0.21984704333E+04  0.21984704333E+04  0.50400001928E-02 0. -1.
    10030    2    1    2    0    0  0.00000000000E+00  0.00000000000E+00 -0.69020678087E+03  0.37067340857E+04  0.36419077668E+04 0.  0.
        2    1    3    3  502    0  0.33389667552E+03  0.69958128562E+03 -0.20221501535E+04  0.21656389839E+04  0.25500000920E-02 0. -1.
       -2    1    3    3    0  502 -0.33389667552E+03 -0.69958128562E+03  0.13319433726E+04  0.15410951019E+04  0.25500000920E-02 0.  1.
</event>
<event>
 5   0  0.1352708E-06  0.3196836E+04  0.7818609E-02  0.8189653E-01
        1   -1    0    0  501    0  0.00000000000E+00  0.00000000000E+00  0.11373040239E+04  0.11373040239E+04  0.50400001928E-02 0.  1.
       -1   -1    0    0    0  501  0.00000000000E+00  0.00000000000E+00 -0.22464886263E+04  0.22464886263E+04  0.50400001928E-02 0. -1.
    10030    2    1    2    0    0  0.00000000000E+00  0.00000000000E+00 -0.11091846025E+04  0.33837926502E+04  0.31968362825E+04 0.  0.
        5    1    3    3  502    0  0.63864629545E+03 -0.13947356738E+04 -0.79144557246E+02  0.15360477341E+04  0.46999998093E+01 0.  1.
       -5    1    3    3    0  502 -0.63864629545E+03  0.13947356738E+04 -0.10300400452E+04  0.18477449161E+04  0.46999998093E+01 0. -1.
</event>
<event>
 5   0  0.4017247E-06  0.3380228E+04  0.7818609E-02  0.8142776E-01
        2   -1    0    0  501    0  0.00000000000E+00  0.00000000000E+00  0.22516090111E+04  0.22516090111E+04  0.25500000920E-02 0.  1.
       -2   -1    0    0    0  501  0.00000000000E+00  0.00000000000E+00 -0.12686420012E+04  0.12686420012E+04  0.25500000920E-02 0. -1.
    10030    2    1    2    0    0  0.00000000000E+00  0.00000000000E+00  0.98296700986E+03  0.35202510123E+04  0.33802282537E+04 0.  0.
        1    1    3    3  502    0  0.58336768333E+03  0.15627754678E+04  0.20837558912E+03  0.16810726941E+04  0.50400001928E-02 0. -1.
       -1    1    3    3    0  502 -0.58336768333E+03 -0.15627754678E+04  0.77459142074E+03  0.18391783181E+04  0.50400001928E-02 0.  1.
</event>
<event>
 5   0  0.3920487E-06  0.3264385E+04  0.7818609E-02  0.8172017E-01
       -2   -1    0    0    0  501  0.00000000000E+00  0.00000000000E+00  0.13912148975E+04  0.13912148975E+04  0.25500000920E-02 0. -1.
        2   -1    0    0  501    0  0.00000000000E+00  0.00000000000E+00 -0.19149102907E+04  0.19149102907E+04  0.25500000920E-02 0.  1.
    10030    2    1    2    0    0  0.00000000000E+00  0.00000000000E+00 -0.52369539316E+03  0.33061251881E+04  0.32643846120E+04 0.  0.
        4    1    3    3  502    0 -0.42560270096E+03  0.37812272444E+03  0.12873966859E+04  0.14076598643E+04  0.12699999809E+01 0. -1.
       -4    1    3    3    0  502  0.42560270096E+03 -0.37812272444E+03 -0.18110920791E+04  0.18984653238E+04  0.12699999809E+01 0.  1.
</event>
<event>
 5   0  0.3896210E-06  0.3273709E+04  0.7818609E-02  0.8169617E-01
       -2   -1    0    0    0  501  0.00000000000E+00  0.00000000000E+00  0.92883360174E+03  0.92883360174E+03  0.25500000920E-02 0. -1.
        2   -1    0    0  501    0  0.00000000000E+00  0.00000000000E+00 -0.28845782112E+04  0.28845782112E+04  0.25500000920E-02 0.  1.
    10030    2    1    2    0    0  0.00000000000E+00  0.00000000000E+00 -0.19557446094E+04  0.38134118129E+04  0.32737093148E+04 0.  0.
        3    1    3    3  502    0 -0.45460882934E+03 -0.11379019409E+04 -0.22420553113E+04  0.25550542155E+04  0.10100000352E+00 0.  1.
       -3    1    3    3    0  502  0.45460882934E+03  0.11379019409E+04  0.28631070190E+03  0.12583575974E+04  0.10100000352E+00 0. -1.
</event>
<event>
 5   0  0.1391878E-06  0.3372956E+04  0.7818609E-02  0.8144576E-01
        1   -1    0    0  501    0  0.00000000000E+00  0.00000000000E+00  0.14801191251E+04  0.14801191251E+04  0.50400001928E-02 0. -1.
       -1   -1    0    0    0  501  0.00000000000E+00  0.00000000000E+00 -0.19216075369E+04  0.19216075369E+04  0.50400001928E-02 0.  1.
    10030    2    1    2    0    0  0.00000000000E+00  0.00000000000E+00 -0.44148841181E+03  0.34017266620E+04  0.33729560129E+04 0.  0.
        2    1    3    3  502    0 -0.39414258839E+03  0.16189926842E+04  0.41710778788E+02  0.16668009721E+04  0.25500000920E-02 0.  1.
       -2    1    3    3    0  502  0.39414258839E+03 -0.16189926842E+04 -0.48319919060E+03  0.17349256899E+04  0.25500000920E-02 0. -1.
</event>
<event>
 5   0  0.1391878E-06  0.3417615E+04  0.7818609E-02  0.8133596E-01
       -1   -1    0    0    0  501  0.00000000000E+00  0.00000000000E+00  0.11748511646E+04  0.11748511646E+04  0.50400001928E-02 0. -1.
        1   -1    0    0  501    0  0.00000000000E+00  0.00000000000E+00 -0.24854413443E+04  0.24854413443E+04  0.50400001928E-02 0.  1.
    10030    2    1    2    0    0  0.00000000000E+00  0.00000000000E+00 -0.13105901798E+04  0.36602925089E+04  0.34176153428E+04 0.  0.
        2    1    3    3  502    0 -0.14426053625E+04  0.56005077197E+03 -0.14315035186E+04  0.21080724425E+04  0.25500000920E-02 0.  1.
       -2    1    3    3    0  502  0.14426053625E+04 -0.56005077197E+03  0.12091333889E+03  0.15522200664E+04  0.25500000920E-02 0. -1.
</event>
<event>
 5   0  0.1259875E-06  0.3184424E+04  0.7818609E-02  0.8192943E-01
       -3   -1    0    0    0  501  0.00000000000E+00  0.00000000000E+00  0.13785209449E+04  0.13785209486E+04  0.10100000352E+00 0. -1.
        3   -1    0    0  501    0  0.00000000000E+00  0.00000000000E+00 -0.18390282953E+04  0.18390282981E+04  0.10100000352E+00 0.  1.
    10030    2    1    2    0    0  0.00000000000E+00  0.00000000000E+00 -0.46050735041E+03  0.32175492467E+04  0.31844239880E+04 0.  0.
        5    1    3    3  502    0 -0.51053021078E+03  0.12477239811E+04 -0.10862145279E+04  0.17312828537E+04  0.46999998093E+01 0.  1.
       -5    1    3    3    0  502  0.51053021078E+03 -0.12477239811E+04  0.62570717747E+03  0.14862663930E+04  0.46999998093E+01 0. -1.
</event>
<event>
 5   0  0.1259875E-06  0.3316287E+04  0.7818609E-02  0.8158763E-01
        3   -1    0    0  501    0  0.00000000000E+00  0.00000000000E+00  0.24299860310E+04  0.24299860331E+04  0.10100000352E+00 0. -1.
       -3   -1    0    0    0  501  0.00000000000E+00  0.00000000000E+00 -0.11314632589E+04  0.11314632634E+04  0.10100000352E+00 0.  1.
    10030    2    1    2    0    0  0.00000000000E+00  0.00000000000E+00  0.12985227720E+04  0.35614492965E+04  0.33162870355E+04 0.  0.
        1    1    3    3  502    0 -0.16157529663E+04  0.22894177120E+02  0.10485804074E+04  0.19263184218E+04  0.50400001928E-02 0.  1.
       -1    1    3    3    0  502  0.16157529663E+04 -0.22894177120E+02  0.24994236462E+03  0.16351308746E+04  0.50400001928E-02 0. -1.
</event>
<event>
 5   0  0.1282578E-06  0.3366792E+04  0.7818609E-02  0.8146105E-01
        1   -1    0    0  501    0  0.00000000000E+00  0.00000000000E+00  0.18733561550E+04  0.18733561550E+04  0.50400001928E-02 0. -1.
       -1   -1    0    0    0  501  0.00000000000E+00  0.00000000000E+00 -0.15126983094E+04  0.15126983094E+04  0.50400001928E-02 0.  1.
    10030    2    1    2    0    0  0.00000000000E+00  0.00000000000E+00  0.36065784562E+03  0.33860544645E+04  0.33667923540E+04 0.  0.
        4    1    3    3  502    0 -0.42000437917E+03  0.64286549722E+03  0.16869453944E+04  0.18535010393E+04  0.12699999809E+01 0. -1.
       -4    1    3    3    0  502  0.42000437917E+03 -0.64286549722E+03 -0.13262875488E+04  0.15325534252E+04  0.12699999809E+01 0.  1.
</event>
<event>
 5   0  0.1405389E-06  0.3290458E+04  0.7818609E-02  0.8165328E-01
       -1   -1    0    0    0  501  0.00000000000E+00  0.00000000000E+00  0.11870786091E+04  0.11870786091E+04  0.50400001928E-02 0. -1.
        1   -1    0    0  501    0  0.00000000000E+00  0.00000000000E+00 -0.22802018229E+04  0.22802018229E+04  0.50400001928E-02 0.  1.
    10030    2    1    2    0    0  0.00000000000E+00  0.00000000000E+00 -0.10931232138E+04  0.34672804320E+04  0.32904582102E+04 0.  0.
        1    1    3    3  502    0  0.86803050793E+03  0.10955279791E+03 -0.20147403089E+04  0.21965102528E+04  0.50400001928E-02 0.  1.
       -1    1    3    3    0  502 -0.86803050793E+03 -0.10955279791E+03  0.92161709512E+03  0.12707701792E+04  0.50400001928E-02 0. -1.
</event>
<event>
 5   0  0.3920487E-06  0.3307974E+04  0.7818609E-02  0.8160869E-01
       -2   -1    0    0    0  501  0.00000000000E+00  0.00000000000E+00  0.13005943863E+04  0.13005943863E+04  0.25500000920E-02 0. -1.
        2   -1    0    0  501    0  0.00000000000E+00  0.00000000000E+00 -0.21034021487E+04  0.21034021487E+04  0.25500000920E-02 0.  1.
    10030    2    1    2    0    0  0.00000000000E+00  0.00000000000E+00 -0.80280776238E+03  0.34039965350E+04  0.33079740185E+04 0.  0.
        4    1    3    3  502    0  0.10173831499E+04 -0.35737714466E+03  0.88914791059E+03  0.13976310375E+04  0.12699999809E+01 0. -1.
       -4    1    3    3    0  502 -0.10173831499E+04  0.35737714466E+03 -0.16919556730E+04  0.20063654975E+04  0.12699999809E+01 0.  1.
</event>
<event>
 5   0  0.3812379E-06  0.3229190E+04  0.7818609E-02  0.8181150E-01
       -2   -1    0    0    0  501  0.00000000000E+00  0.00000000000E+00  0.16089850822E+04  0.16089850822E+04  0.25500000920E-02 0. -1.
        2   -1    0    0  501    0  0.00000000000E+00  0.00000000000E+00 -0.16202248506E+04  0.16202248506E+04  0.25500000920E-02 0.  1.
    10030    2    1    2    0    0  0.00000000000E+00  0.00000000000E+00 -0.11239768416E+02  0.32292099329E+04  0.32291903719E+04 0.  0.
        5    1    3    3  502    0 -0.10895024206E+03 -0.14867196645E+04 -0.62585747501E+03  0.16167638000E+04  0.46999998093E+01 0.  1.
       -5    1    3    3    0  502  0.10895024206E+03  0.14867196645E+04  0.61461770659E+03  0.16124461328E+04  0.46999998093E+01 0. -1.
</event>
<event>
 5   0  0.1352708E-06  0.2569596E+04  0.7818609E-02  0.8378603E-01
        1   -1    0    0  501    0  0.00000000000E+00  0.00000000000E+00  0.19018788098E+04  0.19018788099E+04  0.50400001928E-02 0.  1.
       -1   -1    0    0    0  501  0.00000000000E+00  0.00000000000E+00 -0.86793453623E+03  0.86793453624E+03  0.50400001928E-02 0. -1.
    10030    2    1    2    0    0  0.00000000000E+00  0.00000000000E+00  0.10339442736E+04  0.27698133461E+04  0.25695963129E+04 0.  0.
        5    1    3    3  502    0 -0.66165320608E+03 -0.10292114306E+04  0.93945960906E+03  0.15426171207E+04  0.46999998093E+01 0. -1.
       -5    1    3    3    0  502  0.66165320608E+03  0.10292114306E+04  0.94484664557E+02  0.12271962254E+04  0.46999998093E+01 0.  1.
</event>
<event>
 5   0  0.4017247E-06  0.3242618E+04  0.7818609E-02  0.8177652E-01
       -2   -1    0    0    0  501  0.00000000000E+00  0.00000000000E+00  0.18388088016E+04  0.18388088016E+04  0.25500000920E-02 0.  1.
        2   -1    0    0  501    0  0.00000000000E+00  0.00000000000E+00 -0.14295358623E+04  0.14295358623E+04  0.25500000920E-02 0. -1.
    10030    2    1    2    0    0  0.00000000000E+00  0.00000000000E+00  0.40927293933E+03  0.32683446638E+04  0.32426181556E+04 0.  0.
        1    1    3    3  502    0  0.11939593292E+04 -0.10547570255E+04  0.50800926582E+03  0.16721616778E+04  0.50400001928E-02 0. -1.
       -1    1    3    3    0  502 -0.11939593292E+04  0.10547570255E+04 -0.98736326491E+02  0.15961829860E+04  0.50400001928E-02 0.  1.
</event>
<event>
 5   0  0.3671997E-06  0.3264820E+04  0.7818609E-02  0.8171905E-01
        2   -1    0    0  501    0  0.00000000000E+00  0.00000000000E+00  0.15938049501E+04  0.15938049501E+04  0.25500000920E-02 0. -1.
       -2   -1    0    0    0  501  0.00000000000E+00  0.00000000000E+00 -0.16719499354E+04  0.16719499354E+04  0.25500000920E-02 0.  1.
    10030    2    1    2    0    0  0.00000000000E+00  0.00000000000E+00 -0.78144985251E+02  0.32657548855E+04  0.32648198011E+04 0.  0.
        2    1    3    3  502    0 -0.10321295593E+04  0.78387633263E+03 -0.10318327201E+04  0.16566328182E+04  0.25500000920E-02 0.  1.
       -2    1    3    3    0  502  0.10321295593E+04 -0.78387633263E+03  0.95368773484E+03  0.16091220673E+04  0.25500000920E-02 0. -1.
</event>
<event>
 5   0  0.3671997E-06  0.3177699E+04  0.7818609E-02  0.8194732E-01
       -2   -1    0    0    0  501  0.00000000000E+00  0.00000000000E+00  0.15360084132E+04  0.15360084132E+04  0.25500000920E-02 0.  1.
        2   -1    0    0  501    0  0.00000000000E+00  0.00000000000E+00 -0.16435079148E+04  0.16435079148E+04  0.25500000920E-02 0. -1.
    10030    2    1    2    0    0  0.00000000000E+00  0.00000000000E+00 -0.10749950166E+03  0.31795163280E+04  0.31776985284E+04 0.  0.
        2    1    3    3  502    0 -0.76999451527E+03 -0.52332650817E+03 -0.13419954136E+04  0.16333137720E+04  0.25500000920E-02 0. -1.
       -2    1    3    3    0  502  0.76999451527E+03  0.52332650817E+03  0.12344959119E+04  0.15462025560E+04  0.25500000920E-02 0.  1.
</event>
<event>
 5   0  0.1282578E-06  0.2043793E+04  0.7818609E-02  0.8586415E-01
       -1   -1    0    0    0  501  0.00000000000E+00  0.00000000000E+00  0.29130549705E+04  0.29130549705E+04  0.50400001928E-02 0.  1.
        1   -1    0    0  501    0  0.00000000000E+00  0.00000000000E+00 -0.35848015215E+03  0.35848015219E+03  0.50400001928E-02 0. -1.
    10030    2    1    2    0    0  0.00000000000E+00  0.00000000000E+00  0.25545748184E+04  0.32715351227E+04  0.20437929339E+04 0.  0.
        4    1    3    3  502    0 -0.64400371357E+02 -0.21121562193E+03  0.28744083254E+04  0.28828777776E+04  0.12699999809E+01 0.  1.
       -4    1    3    3    0  502  0.64400371357E+02  0.21121562193E+03 -0.31983350702E+03  0.38865734509E+03  0.12699999809E+01 0. -1.
</event>
<event>
 5   0  0.1405389E-06  0.3139930E+04  0.7818609E-02  0.8204864E-01
       -1   -1    0    0    0  501  0.00000000000E+00  0.00000000000E+00  0.13932115802E+04  0.13932115802E+04  0.50400001928E-02 0. -1.
        1   -1    0    0  501    0  0.00000000000E+00  0.00000000000E+00 -0.17691423210E+04  0.17691423210E+04  0.50400001928E-02 0.  1.
    10030    2    1    2    0    0  0.00000000000E+00  0.00000000000E+00 -0.37593074076E+03  0.31623539012E+04  0.31399296608E+04 0.  0.
        1    1    3    3  502    0  0.89474948160E+03  0.87734153140E+03  0.76456104135E+03  0.14679435900E+04  0.50400001928E-02 0. -1.
       -1    1    3    3    0  502 -0.89474948160E+03 -0.87734153140E+03 -0.11404917821E+04  0.16944103112E+04  0.50400001928E-02 0.  1.
</event>
<event>
 5   0  0.3812379E-06  0.3277006E+04  0.7818609E-02  0.8168771E-01
       -2   -1    0    0    0  501  0.00000000000E+00  0.00000000000E+00  0.11877556752E+04  0.11877556752E+04  0.25500000920E-02 0. -1.
        2   -1    0    0  501    0  0.00000000000E+00  0.00000000000E+00 -0.22603070108E+04  0.22603070108E+04  0.25500000920E-02 0.  1.
    10030    2    1    2    0    0  0.00000000000E+00  0.00000000000E+00 -0.10725513356E+04  0.34480626860E+04  0.32770062433E+04 0.  0.
        5    1    3    3  502    0 -0.19592674942E+03  0.94859566499E+03 -0.19267913237E+04  0.21565639155E+04  0.46999998093E+01 0.  1.
       -5    1    3    3    0  502  0.19592674942E+03 -0.94859566499E+03  0.85423998807E+03  0.12914987704E+04  0.46999998093E+01 0. -1.
</event>
<event>
 5   0  0.1352708E-06  0.2068020E+04  0.7818609E-02  0.8575463E-01
        1   -1    0    0  501    0  0.00000000000E+00  0.00000000000E+00  0.11540255964E+04  0.11540255964E+04  0.50400001928E-02 0.  1.
       -1   -1    0    0    0  501  0.00000000000E+00  0.00000000000E+00 -0.92647532666E+03  0.92647532667E+03  0.50400001928E-02 0. -1.
    10030    2    1    2    0    0  0.00000000000E+00  0.00000000000E+00  0.22755026971E+03  0.20805009230E+04  0.20680195757E+04 0.  0.
        5    1    3    3  502    0  0.84291177733E+02 -0.10239059369E+04  0.23138141104E+03  0.10531133925E+04  0.46999998093E+01 0.  1.
       -5    1    3    3    0  502 -0.84291177733E+02  0.10239059369E+04 -0.38311413304E+01  0.10273875305E+04  0.46999998093E+01 0. -1.
</event>
<event>
 5   0  0.3671997E-06  0.3269861E+04  0.7818609E-02  0.8170607E-01
       -2   -1    0    0    0  501  0.00000000000E+00  0.00000000000E+00  0.12719891766E+04  0.12719891766E+04  0.25500000920E-02 0. -1.
        2   -1    0    0  501    0  0.00000000000E+00  0.00000000000E+00 -0.21014311658E+04  0.21014311658E+04  0.25500000920E-02 0.  1.
    10030    2    1    2    0    0  0.00000000000E+00  0.00000000000E+00 -0.82944198921E+03  0.33734203425E+04  0.32698609747E+04 0.  0.
        2    1    3    3  502    0 -0.10943068027E+04 -0.36682461323E+02 -0.16673176035E+04  0.19946932025E+04  0.25500000920E-02 0.  1.
       -2    1    3    3    0  502  0.10943068027E+04  0.36682461323E+02  0.83787561425E+03  0.13787271399E+04  0.25500000920E-02 0. -1.
</event>
<event>
 5   0  0.3920487E-06  0.3301236E+04  0.7818609E-02  0.8162581E-01
        2   -1    0    0  501    0  0.00000000000E+00  0.00000000000E+00  0.19086613784E+04  0.19086613784E+04  0.25500000920E-02 0.  1.
       -2   -1    0    0    0  501  0.00000000000E+00  0.00000000000E+00 -0.14274612013E+04  0.14274612013E+04  0.25500000920E-02 0. -1.
    10030    2    1    2    0    0  0.00000000000E+00  0.00000000000E+00  0.48120017711E+03  0.33361225797E+04  0.33012361710E+04 0.  0.
        4    1    3    3  502    0  0.15014803062E+04  0.45806493844E+02 -0.45073243508E+03  0.15683439309E+04  0.12699999809E+01 0. -1.
       -4    1    3    3    0  502 -0.15014803062E+04 -0.45806493844E+02  0.93193261218E+03  0.17677786488E+04  0.12699999809E+01 0.  1.
</event>
<event>
 5   0  0.1282578E-06  0.3241340E+04  0.7818609E-02  0.8177984E-01
        1   -1    0    0  501    0  0.00000000000E+00  0.00000000000E+00  0.27565714706E+04  0.27565714706E+04  0.50400001928E-02 0. -1.
       -1   -1    0    0    0  501  0.00000000000E+00  0.00000000000E+00 -0.95283968203E+03  0.95283968204E+03  0.50400001928E-02 0.  1.
    10030    2    1    2    0    0  0.00000000000E+00  0.00000000000E+00  0.18037317886E+04  0.37094111527E+04  0.32413396512E+04 0.  0.
        4    1    3    3  502    0  0.15648786532E+04 -0.27810322065E+03  0.12644505076E+04  0.20310153372E+04  0.12699999809E+01 0. -1.
       -4    1    3    3    0  502 -0.15648786532E+04  0.27810322065E+03  0.53928128100E+03  0.16783958155E+04  0.12699999809E+01 0.  1.
</event>
<event>
 5   0  0.3812379E-06  0.3279278E+04  0.7818609E-02  0.8168188E-01
       -2   -1    0    0    0  501  0.00000000000E+00  0.00000000000E+00  0.17681972357E+04  0.17681972357E+04  0.25500000920E-02 0. -1.
        2   -1    0    0  501    0  0.00000000000E+00  0.00000000000E+00 -0.15204278350E+04  0.15204278350E+04  0.25500000920E-02 0.  1.
    10030    2    1    2    0    0  0.00000000000E+00  0.00000000000E+00  0.24776940063E+03  0.32886250707E+04  0.32792781492E+04 0.  0.
        5    1    3    3  502    0 -0.11767810655E+04 -0.10099791456E+04 -0.41010144747E+03  0.16040813065E+04  0.46999998093E+01 0.  1.
       -5    1    3    3    0  502  0.11767810655E+04  0.10099791456E+04  0.65787084810E+03  0.16845437642E+04  0.46999998093E+01 0. -1.
</event>
<event>
 5   0  0.3896210E-06  0.2961868E+04  0.7818609E-02  0.8254704E-01
       -2   -1    0    0    0  501  0.00000000000E+00  0.00000000000E+00  0.19128061118E+04  0.19128061118E+04  0.25500000920E-02 0.  1.
        2   -1    0    0  501    0  0.00000000000E+00  0.00000000000E+00 -0.11465693775E+04  0.11465693775E+04  0.25500000920E-02 0. -1.
    10030    2    1    2    0    0  0.00000000000E+00  0.00000000000E+00  0.76623673433E+03  0.30593754893E+04  0.29618675952E+04 0.  0.
        3    1    3    3  502    0 -0.11304394033E+04 -0.93182922138E+03  0.60696921604E+03  0.15857523709E+04  0.10100000352E+00 0.  1.
       -3    1    3    3    0  502  0.11304394033E+04  0.93182922138E+03  0.15926751829E+03  0.14736231184E+04  0.10100000352E+00 0. -1.
</event>
<event>
 5   0  0.3920487E-06  0.3313098E+04  0.7818609E-02  0.8159571E-01
       -2   -1    0    0    0  501  0.00000000000E+00  0.00000000000E+00  0.12254437692E+04  0.12254437692E+04  0.25500000920E-02 0.  1.
        2   -1    0    0  501    0  0.00000000000E+00  0.00000000000E+00 -0.22393143485E+04  0.22393143485E+04  0.25500000920E-02 0. -1.
    10030    2    1    2    0    0  0.00000000000E+00  0.00000000000E+00 -0.10138705792E+04  0.34647581177E+04  0.33130975330E+04 0.  0.
        4    1    3    3  502    0  0.11172477979E+03 -0.12140153328E+03 -0.22307002163E+04  0.22367936487E+04  0.12699999809E+01 0. -1.
       -4    1    3    3    0  502 -0.11172477979E+03  0.12140153328E+03  0.12168296371E+04  0.12279644691E+04  0.12699999809E+01 0.  1.
</event>
<event>
 5   0  0.1391878E-06  0.3362681E+04  0.7818609E-02  0.8147127E-01
       -1   -1    0    0    0  501  0.00000000000E+00  0.00000000000E+00  0.14770300145E+04  0.14770300146E+04  0.50400001928E-02 0. -1.
        1   -1    0    0  501    0  0.00000000000E+00  0.00000000000E+00 -0.19139117409E+04  0.19139117409E+04  0.50400001928E-02 0.  1.
    10030    2    1    2    0    0  0.00000000000E+00  0.00000000000E+00 -0.43688172632E+03  0.33909417554E+04  0.33626805299E+04 0.  0.
        2    1    3    3  502    0 -0.30487432843E+03 -0.15984924008E+04 -0.64481681247E+03  0.17504042485E+04  0.25500000920E-02 0.  1.
       -2    1    3    3    0  502  0.30487432843E+03  0.15984924008E+04  0.20793508615E+03  0.16405375069E+04  0.25500000920E-02 0. -1.
</event>
<event>
 5   0  0.3896210E-06  0.3079533E+04  0.7818609E-02  0.8221377E-01
        2   -1    0    0  501    0  0.00000000000E+00  0.00000000000E+00  0.21910594008E+04  0.21910594008E+04  0.25500000920E-02 0.  1.
       -2   -1    0    0    0  501  0.00000000000E+00  0.00000000000E+00 -0.10820704425E+04  0.10820704425E+04  0.25500000920E-02 0. -1.
    10030    2    1    2    0    0  0.00000000000E+00  0.00000000000E+00  0.11089889583E+04  0.32731298432E+04  0.30795328316E+04 0.  0.
        3    1    3    3  502    0  0.21481995667E+03  0.10623504009E+04  0.17169336618E+04  0.20304179858E+04  0.10100000352E+00 0.  1.
       -3    1    3    3    0  502 -0.21481995667E+03 -0.10623504009E+04 -0.60794470343E+03  0.12427118574E+04  0.10100000352E+00 0. -1.
</event>
<event>
 5   0  0.1352708E-06  0.3290701E+04  0.7818609E-02  0.8165266E-01
       -1   -1    0    0    0  501  0.00000000000E+00  0.00000000000E+00  0.18322538153E+04  0.18322538153E+04  0.50400001928E-02 0.  1.
        1   -1    0    0  501    0  0.00000000000E+00  0.00000000000E+00 -0.14775123686E+04  0.14775123686E+04  0.50400001928E-02 0. -1.
    10030    2    1    2    0    0  0.00000000000E+00  0.00000000000E+00  0.35474144664E+03  0.33097661839E+04  0.32907006394E+04 0.  0.
        5    1    3    3  502    0  0.98460115454E+03  0.98891069145E+03  0.10540697462E+04  0.17488478805E+04  0.46999998093E+01 0.  1.
       -5    1    3    3    0  502 -0.98460115454E+03 -0.98891069145E+03 -0.69932829960E+03  0.15609183034E+04  0.46999998093E+01 0. -1.
</event>
<event>
 5   0  0.3920487E-06  0.2845611E+04  0.7818609E-02  0.8289246E-01
       -2   -1    0    0    0  501  0.00000000000E+00  0.00000000000E+00  0.96217836114E+03  0.96217836114E+03  0.25500000920E-02 0.  1.
        2   -1    0    0  501    0  0.00000000000E+00  0.00000000000E+00 -0.21039509844E+04  0.21039509844E+04  0.25500000920E-02 0. -1.
    10030    2    1    2    0    0  0.00000000000E+00  0.00000000000E+00 -0.11417726233E+04  0.30661293455E+04  0.28456114352E+04 0.  0.
        4    1    3    3  502    0  0.90905294808E+03 -0.70179826947E+03  0.33412941621E+03  0.11960527384E+04  0.12699999809E+01 0.  1.
       -4    1    3    3    0  502 -0.90905294808E+03  0.70179826947E+03 -0.14759020395E+04  0.18700766071E+04  0.12699999809E+01 0. -1.
</event>
<event>
 5   0  0.1405389E-06  0.3242080E+04  0.7818609E-02  0.8177792E-01
       -1   -1    0    0    0  501  0.00000000000E+00  0.00000000000E+00  0.20735474035E+04  0.20735474035E+04  0.50400001928E-02 0.  1.
        1   -1    0    0  501    0  0.00000000000E+00  0.00000000000E+00 -0.12672824063E+04  0.12672824063E+04  0.50400001928E-02 0. -1.
    10030    2    1    2    0    0  0.00000000000E+00  0.00000000000E+00  0.80626499718E+03  0.33408298098E+04  0.32420796678E+04 0.  0.
        1    1    3    3  502    0 -0.96379207807E+03 -0.12810044936E+04  0.65109110078E+03  0.17302564272E+04  0.50400001928E-02 0. -1.
       -1    1    3    3    0  502  0.96379207807E+03  0.12810044936E+04  0.15517389641E+03  0.16105733826E+04  0.50400001928E-02 0.  1.
</event>
<event>
 5   0  0.3812379E-06  0.3258296E+04  0.7818609E-02  0.8173589E-01
        2   -1    0    0  501    0  0.00000000000E+00  0.00000000000E+00  0.20037874841E+04  0.20037874841E+04  0.25500000920E-02 0.  1.
       -2   -1    0    0    0  501  0.00000000000E+00  0.00000000000E+00 -0.13245535497E+04  0.13245535497E+04  0.25500000920E-02 0. -1.
    10030    2    1    2    0    0  0.00000000000E+00  0.00000000000E+00  0.67923393443E+03  0.33283410338E+04  0.32582963800E+04 0.  0.
        5    1    3    3  502    0  0.83928564603E+03  0.44800238507E+03  0.16905429119E+04  0.19398618404E+04  0.46999998093E+01 0.  1.
       -5    1    3    3    0  502 -0.83928564603E+03 -0.44800238507E+03 -0.10113089775E+04  0.13884791934E+04  0.46999998093E+01 0. -1.
</event>
<event>
 5   0  0.1352708E-06  0.3290391E+04  0.7818609E-02  0.8165345E-01
       -1   -1    0    0    0  501  0.00000000000E+00  0.00000000000E+00  0.14592667375E+04  0.14592667375E+04  0.50400001928E-02 0. -1.
        1   -1    0    0  501    0  0.00000000000E+00  0.00000000000E+00 -0.18548137266E+04  0.18548137266E+04  0.50400001928E-02 0.  1.
    10030    2    1    2    0    0  0.00000000000E+00  0.00000000000E+00 -0.39554698907E+03  0.33140804640E+04  0.32903908433E+04 0.  0.
        5    1    3    3  502    0  0.11887571936E+04  0.10759361905E+04 -0.56902396637E+03  0.17013502625E+04  0.46999998093E+01 0.  1.
       -5    1    3    3    0  502 -0.11887571936E+04 -0.10759361905E+04  0.17347697730E+03  0.16127302016E+04  0.46999998093E+01 0. -1.
</event>
<event>
 5   0  0.1352708E-06  0.3208557E+04  0.7818609E-02  0.8186561E-01
        1   -1    0    0  501    0  0.00000000000E+00  0.00000000000E+00  0.18558294830E+04  0.18558294830E+04  0.50400001928E-02 0.  1.
       -1   -1    0    0    0  501  0.00000000000E+00  0.00000000000E+00 -0.13868241006E+04  0.13868241006E+04  0.50400001928E-02 0. -1.
    10030    2    1    2    0    0  0.00000000000E+00  0.00000000000E+00  0.46900538232E+03  0.32426535836E+04  0.32085567183E+04 0.  0.
        5    1    3    3  502    0 -0.78903852782E+02 -0.58517279310E+03  0.17420090576E+04  0.18393669190E+04  0.46999998093E+01 0.  1.
       -5    1    3    3    0  502  0.78903852782E+02  0.58517279310E+03 -0.12730036753E+04  0.14032866646E+04  0.46999998093E+01 0. -1.
</event>
<event>
 5   0  0.3812379E-06  0.2982291E+04  0.7818609E-02  0.8248806E-01
       -2   -1    0    0    0  501  0.00000000000E+00  0.00000000000E+00  0.87426848153E+03  0.87426848153E+03  0.25500000920E-02 0.  1.
        2   -1    0    0  501    0  0.00000000000E+00  0.00000000000E+00 -0.25432868989E+04  0.25432868989E+04  0.25500000920E-02 0. -1.
    10030    2    1    2    0    0  0.00000000000E+00  0.00000000000E+00 -0.16690184174E+04  0.34175553805E+04  0.29822914514E+04 0.  0.
        5    1    3    3  502    0 -0.42006059349E+03  0.25705044214E+03  0.77837863750E+03  0.92109783700E+03  0.46999998093E+01 0.  1.
       -5    1    3    3    0  502  0.42006059349E+03 -0.25705044214E+03 -0.24473970549E+04  0.24964575435E+04  0.46999998093E+01 0. -1.
</event>
<event>
 5   0  0.1282578E-06  0.3133244E+04  0.7818609E-02  0.8206673E-01
        1   -1    0    0  501    0  0.00000000000E+00  0.00000000000E+00  0.25910737718E+04  0.25910737718E+04  0.50400001928E-02 0. -1.
       -1   -1    0    0    0  501  0.00000000000E+00  0.00000000000E+00 -0.94721496848E+03  0.94721496849E+03  0.50400001928E-02 0.  1.
    10030    2    1    2    0    0  0.00000000000E+00  0.00000000000E+00  0.16438588034E+04  0.35382887403E+04  0.31332435980E+04 0.  0.
        4    1    3    3  502    0 -0.31900784314E+02 -0.11777673024E+04 -0.34409600783E+03  0.12274188992E+04  0.12699999809E+01 0.  1.
       -4    1    3    3    0  502  0.31900784314E+02  0.11777673024E+04  0.19879548112E+04  0.23108698412E+04  0.12699999809E+01 0. -1.
</event>
<event>
 5   0  0.1282578E-06  0.3299581E+04  0.7818609E-02  0.8163002E-01
       -1   -1    0    0    0  501  0.00000000000E+00  0.00000000000E+00  0.78797313331E+03  0.78797313333E+03  0.50400001928E-02 0.  1.
        1   -1    0    0  501    0  0.00000000000E+00  0.00000000000E+00 -0.34541896407E+04  0.34541896407E+04  0.50400001928E-02 0. -1.
    10030    2    1    2    0    0  0.00000000000E+00  0.00000000000E+00 -0.26662165074E+04  0.42421627740E+04  0.32995809639E+04 0.  0.
        4    1    3    3  502    0 -0.17781579652E+03  0.16148579351E+03 -0.34315875516E+04  0.34399841360E+04  0.12699999809E+01 0. -1.
       -4    1    3    3    0  502  0.17781579652E+03 -0.16148579351E+03  0.76537104422E+03  0.80217863798E+03  0.12699999809E+01 0.  1.
</event>
<event>
 5   0  0.1352708E-06  0.2461423E+04  0.7818609E-02  0.8416859E-01
       -1   -1    0    0    0  501  0.00000000000E+00  0.00000000000E+00  0.97124736274E+03  0.97124736276E+03  0.50400001928E-02 0.  1.
        1   -1    0    0  501    0  0.00000000000E+00  0.00000000000E+00 -0.15594898490E+04  0.15594898490E+04  0.50400001928E-02 0. -1.
    10030    2    1    2    0    0  0.00000000000E+00  0.00000000000E+00 -0.58824248628E+03  0.25307372118E+04  0.24614226806E+04 0.  0.
        5    1    3    3  502    0  0.73633656222E+03 -0.88362883041E+03  0.15596981786E+03  0.11607498080E+04  0.46999998093E+01 0.  1.
       -5    1    3    3    0  502 -0.73633656222E+03  0.88362883041E+03 -0.74421230414E+03  0.13699874037E+04  0.46999998093E+01 0. -1.
</event>
<event>
 5   0  0.1282578E-06  0.3290356E+04  0.7818609E-02  0.8165354E-01
        1   -1    0    0  501    0  0.00000000000E+00  0.00000000000E+00  0.19567531249E+04  0.19567531249E+04  0.50400001928E-02 0.  1.
       -1   -1    0    0    0  501  0.00000000000E+00  0.00000000000E+00 -0.13832150446E+04  0.13832150446E+04  0.50400001928E-02 0. -1.
    10030    2    1    2    0    0  0.00000000000E+00  0.00000000000E+00  0.57353808029E+03  0.33399681696E+04  0.32903558233E+04 0.  0.
        4    1    3    3  502    0  0.11060058246E+04  0.12079724045E+04  0.44455585271E+03  0.16970791770E+04  0.12699999809E+01 0. -1.
       -4    1    3    3    0  502 -0.11060058246E+04 -0.12079724045E+04  0.12898222758E+03  0.16428889926E+04  0.12699999809E+01 0.  1.
</event>
<event>
 5   0  0.1282578E-06  0.3046653E+04  0.7818609E-02  0.8230533E-01
       -1   -1    0    0    0  501  0.00000000000E+00  0.00000000000E+00  0.10494566417E+04  0.10494566417E+04  0.50400001928E-02 0. -1.
        1   -1    0    0  501    0  0.00000000000E+00  0.00000000000E+00 -0.22111665502E+04  0.22111665502E+04  0.50400001928E-02 0.  1.
    10030    2    1    2    0    0  0.00000000000E+00  0.00000000000E+00 -0.11617099085E+04  0.32606231919E+04  0.30466528664E+04 0.  0.
        4    1    3    3  502    0 -0.37433558598E+02 -0.83603557955E+03  0.78139646422E+03  0.11449623613E+04  0.12699999809E+01 0. -1.
       -4    1    3    3    0  502  0.37433558598E+02  0.83603557955E+03 -0.19431063728E+04  0.21156608306E+04  0.12699999809E+01 0.  1.
</event>
<event>
 5   0  0.1282578E-06  0.3296104E+04  0.7818609E-02  0.8163887E-01
       -1   -1    0    0    0  501  0.00000000000E+00  0.00000000000E+00  0.21903107966E+04  0.21903107966E+04  0.50400001928E-02 0. -1.
        1   -1    0    0  501    0  0.00000000000E+00  0.00000000000E+00 -0.12400413326E+04  0.12400413326E+04  0.50400001928E-02 0.  1.
    10030    2    1    2    0    0  0.00000000000E+00  0.00000000000E+00  0.95026946402E+03  0.34303521292E+04  0.32961043181E+04 0.  0.
        4    1    3    3  502    0  0.38248106224E+03 -0.15195014073E+04 -0.56450788950E+02  0.15679172792E+04  0.12699999809E+01 0.  1.
       -4    1    3    3    0  502 -0.38248106224E+03  0.15195014073E+04  0.10067202530E+04  0.18624348500E+04  0.12699999809E+01 0. -1.
</event>
<event>
 5   0  0.1405389E-06  0.3244682E+04  0.7818609E-02  0.8177116E-01
        1   -1    0    0  501    0  0.00000000000E+00  0.00000000000E+00  0.14836248214E+04  0.14836248214E+04  0.50400001928E-02 0. -1.
       -1   -1    0    0    0  501  0.00000000000E+00  0.00000000000E+00 -0.17740264420E+04  0.17740264420E+04  0.50400001928E-02 0.  1.
    10030    2    1    2    0    0  0.00000000000E+00  0.00000000000E+00 -0.29040162059E+03  0.32576512634E+04  0.32446815950E+04 0.  0.
        1    1    3    3  502    0 -0.48652201223E+03 -0.74291488737E+03 -0.15083330612E+04  0.17503413443E+04  0.50400001928E-02 0.  1.
       -1    1    3    3    0  502  0.48652201223E+03  0.74291488737E+03  0.12179314406E+04  0.15073099191E+04  0.50400001928E-02 0. -1.
</event>
<event>
 5   0  0.3671997E-06  0.2423425E+04  0.7818609E-02  0.8430785E-01
       -2   -1    0    0    0  501  0.00000000000E+00  0.00000000000E+00  0.94153190895E+03  0.94153190896E+03  0.25500000920E-02 0.  1.
        2   -1    0    0  501    0  0.00000000000E+00  0.00000000000E+00 -0.15594236803E+04  0.15594236803E+04  0.25500000920E-02 0. -1.
    10030    2    1    2    0    0  0.00000000000E+00  0.00000000000E+00 -0.61789177139E+03  0.25009555893E+04  0.24234249769E+04 0.  0.
        2    1    3    3  502    0  0.21887639199E+03  0.10625958864E+04  0.24797646892E+03  0.11128832921E+04  0.25500000920E-02 0.  1.
       -2    1    3    3    0  502 -0.21887639199E+03 -0.10625958864E+04 -0.86586824031E+03  0.13880722972E+04  0.25500000920E-02 0. -1.
</event>
<event>
 5   0  0.1405389E-06  0.3247724E+04  0.7818609E-02  0.8176326E-01
        1   -1    0    0  501    0  0.00000000000E+00  0.00000000000E+00  0.19364359358E+04  0.19364359358E+04  0.50400001928E-02 0. -1.
       -1   -1    0    0    0  501  0.00000000000E+00  0.00000000000E+00 -0.13617427907E+04  0.13617427908E+04  0.50400001928E-02 0.  1.
    10030    2    1    2    0    0  0.00000000000E+00  0.00000000000E+00  0.57469314506E+03  0.32981787266E+04  0.32477239263E+04 0.  0.
        1    1    3    3  502    0  0.11260667419E+04  0.10709091141E+04  0.76589445214E+03  0.17324742277E+04  0.50400001928E-02 0. -1.
       -1    1    3    3    0  502 -0.11260667419E+04 -0.10709091141E+04 -0.19120130708E+03  0.15657044988E+04  0.50400001928E-02 0.  1.
</event>
<event>
 5   0  0.1405389E-06  0.3101822E+04  0.7818609E-02  0.8215238E-01
       -1   -1    0    0    0  501  0.00000000000E+00  0.00000000000E+00  0.15423231714E+04  0.15423231714E+04  0.50400001928E-02 0.  1.
        1   -1    0    0  501    0  0.00000000000E+00  0.00000000000E+00 -0.15595466298E+04  0.15595466298E+04  0.50400001928E-02 0. -1.
    10030    2    1    2    0    0  0.00000000000E+00  0.00000000000E+00 -0.17223458477E+02  0.31018698012E+04  0.31018219833E+04 0.  0.
        1    1    3    3  502    0 -0.11281885103E+04  0.55308187732E+03 -0.91781000946E+03  0.15559833197E+04  0.50400001928E-02 0. -1.
       -1    1    3    3    0  502  0.11281885103E+04 -0.55308187732E+03  0.90058655098E+03  0.15458864815E+04  0.50400001928E-02 0.  1.
</event>
<event>
 5   0  0.3812379E-06  0.3282457E+04  0.7818609E-02  0.8167374E-01
       -2   -1    0    0    0  501  0.00000000000E+00  0.00000000000E+00  0.35367108319E+04  0.35367108319E+04  0.25500000920E-02 0.  1.
        2   -1    0    0  501    0  0.00000000000E+00  0.00000000000E+00 -0.76162013471E+03  0.76162013472E+03  0.25500000920E-02 0. -1.
    10030    2    1    2    0    0  0.00000000000E+00  0.00000000000E+00  0.27750906972E+04  0.42983309666E+04  0.32824565071E+04 0.  0.
        5    1    3    3  502    0  0.36233845206E+03 -0.15421119897E+04  0.82551865855E+03  0.17863095164E+04  0.46999998093E+01 0. -1.
       -5    1    3    3    0  502 -0.36233845206E+03  0.15421119897E+04  0.19495720386E+04  0.25120214502E+04  0.46999998093E+01 0.  1.
</event>
<event>
 5   0  0.1259875E-06  0.2538963E+04  0.7818609E-02  0.8389235E-01
       -4   -1    0    0    0  501  0.00000000000E+00  0.00000000000E+00  0.98333704228E+03  0.98333786239E+03  0.12699999809E+01 0.  1.
        4   -1    0    0  501    0  0.00000000000E+00  0.00000000000E+00 -0.16388909175E+04  0.16388914096E+04  0.12699999809E+01 0. -1.
    10030    2    1    2    0    0  0.00000000000E+00  0.00000000000E+00 -0.65555387520E+03  0.26222292719E+04  0.25389634640E+04 0.  0.
        2    1    3    3  502    0  0.12530929214E+04 -0.18106679701E+03 -0.42331363745E+03  0.13349986855E+04  0.25500000920E-02 0.  1.
       -2    1    3    3    0  502 -0.12530929214E+04  0.18106679701E+03 -0.23224023775E+03  0.12872305864E+04  0.25500000920E-02 0. -1.
</event>
<event>
 5   0  0.1339825E-06  0.3422714E+04  0.7818609E-02  0.8132354E-01
        1   -1    0    0  501    0  0.00000000000E+00  0.00000000000E+00  0.15676601760E+04  0.15676601760E+04  0.50400001928E-02 0.  1.
       -1   -1    0    0    0  501  0.00000000000E+00  0.00000000000E+00 -0.18682258554E+04  0.18682258554E+04  0.50400001928E-02 0. -1.
    10030    2    1    2    0    0  0.00000000000E+00  0.00000000000E+00 -0.30056567937E+03  0.34358860314E+04  0.34227142874E+04 0.  0.
        3    1    3    3  502    0  0.12177518799E+04 -0.61531124814E+02 -0.13557527811E+04  0.18233955507E+04  0.10100000352E+00 0. -1.
       -3    1    3    3    0  502 -0.12177518799E+04  0.61531124814E+02  0.10551871018E+04  0.16124904807E+04  0.10100000352E+00 0.  1.
</event>
<event>
 5   0  0.1282578E-06  0.3131333E+04  0.7818609E-02  0.8207191E-01
        1   -1    0    0  501    0  0.00000000000E+00  0.00000000000E+00  0.13664652850E+04  0.13664652850E+04  0.50400001928E-02 0. -1.
       -1   -1    0    0    0  501  0.00000000000E+00  0.00000000000E+00 -0.17939072545E+04  0.17939072545E+04  0.50400001928E-02 0.  1.
    10030    2    1    2    0    0  0.00000000000E+00  0.00000000000E+00 -0.42744196955E+03  0.31603725395E+04  0.31313332545E+04 0.  0.
        4    1    3    3  502    0 -0.12790925726E+04  0.10875755757E+03  0.69091962858E+03  0.14578331735E+04  0.12699999809E+01 0. -1.
       -4    1    3    3    0  502  0.12790925726E+04 -0.10875755757E+03 -0.11183615981E+04  0.17025393660E+04  0.12699999809E+01 0.  1.
</event>
<event>
 5   0  0.1282578E-06  0.3369724E+04  0.7818609E-02  0.8145377E-01
        1   -1    0    0  501    0  0.00000000000E+00  0.00000000000E+00  0.19945395810E+04  0.19945395810E+04  0.50400001928E-02 0.  1.
       -1   -1    0    0    0  501  0.00000000000E+00  0.00000000000E+00 -0.14232659085E+04  0.14232659085E+04  0.50400001928E-02 0. -1.
    10030    2    1    2    0    0  0.00000000000E+00  0.00000000000E+00  0.57127367244E+03  0.34178054895E+04  0.33697241364E+04 0.  0.
        4    1    3    3  502    0 -0.16393775119E+03 -0.15431574324E+04  0.95116102880E+03  0.18201426766E+04  0.12699999809E+01 0. -1.
       -4    1    3    3    0  502  0.16393775119E+03  0.15431574324E+04 -0.37988735636E+03  0.15976628129E+04  0.12699999809E+01 0.  1.
</event>
<event>
 5   0  0.3920487E-06  0.2768487E+04  0.7818609E-02  0.8313119E-01
       -2   -1    0    0    0  501  0.00000000000E+00  0.00000000000E+00  0.12651285866E+04  0.12651285866E+04  0.25500000920E-02 0. -1.
        2   -1    0    0  501    0  0.00000000000E+00  0.00000000000E+00 -0.15145729255E+04  0.15145729255E+04  0.25500000920E-02 0.  1.
    10030    2    1    2    0    0  0.00000000000E+00  0.00000000000E+00 -0.24944433887E+03  0.27797015121E+04  0.27684865935E+04 0.  0.
        4    1    3    3  502    0 -0.74996062883E+03  0.41273100203E+03  0.96749883296E+03  0.12918372303E+04  0.12699999809E+01 0. -1.
       -4    1    3    3    0  502  0.74996062883E+03 -0.41273100203E+03 -0.12169431718E+04  0.14878642818E+04  0.12699999809E+01 0.  1.
</event>
<event>
 5   0  0.1259875E-06  0.3193040E+04  0.7818609E-02  0.8190658E-01
       -3   -1    0    0    0  501  0.00000000000E+00  0.00000000000E+00  0.97898947662E+03  0.97898948183E+03  0.10100000352E+00 0. -1.
        3   -1    0    0  501    0  0.00000000000E+00  0.00000000000E+00 -0.26035792367E+04  0.26035792386E+04  0.10100000352E+00 0.  1.
    10030    2    1    2    0    0  0.00000000000E+00  0.00000000000E+00 -0.16245897600E+04  0.35825687205E+04  0.31930403612E+04 0.  0.
        5    1    3    3  502    0  0.12849894863E+04 -0.86316431393E+03 -0.12505964819E+04  0.19900412718E+04  0.46999998093E+01 0. -1.
       -5    1    3    3    0  502 -0.12849894863E+04  0.86316431393E+03 -0.37399327811E+03  0.15925274487E+04  0.46999998093E+01 0.  1.
</event>
<event>
 5   0  0.1339825E-06  0.3379955E+04  0.7818609E-02  0.8142844E-01
       -1   -1    0    0    0  501  0.00000000000E+00  0.00000000000E+00  0.14428500218E+04  0.14428500218E+04  0.50400001928E-02 0. -1.
        1   -1    0    0  501    0  0.00000000000E+00  0.00000000000E+00 -0.19794325321E+04  0.19794325321E+04  0.50400001928E-02 0.  1.
    10030    2    1    2    0    0  0.00000000000E+00  0.00000000000E+00 -0.53658251033E+03  0.34222825538E+04  0.33799551902E+04 0.  0.
        3    1    3    3  502    0 -0.13373720183E+04  0.55167985798E+03  0.61620989540E+03  0.15724596104E+04  0.10100000352E+00 0. -1.
       -3    1    3    3    0  502  0.13373720183E+04 -0.55167985798E+03 -0.11527924057E+04  0.18498229434E+04  0.10100000352E+00 0.  1.
</event>
<event>
 5   0  0.3671997E-06  0.3315892E+04  0.7818609E-02  0.8158863E-01
        2   -1    0    0  501    0  0.00000000000E+00  0.00000000000E+00  0.19026686967E+04  0.19026686967E+04  0.25500000920E-02 0. -1.
       -2   -1    0    0    0  501  0.00000000000E+00  0.00000000000E+00 -0.14447001075E+04  0.14447001075E+04  0.25500000920E-02 0.  1.
    10030    2    1    2    0    0  0.00000000000E+00  0.00000000000E+00  0.45796858928E+03  0.33473688042E+04  0.33158924414E+04 0.  0.
        2    1    3    3  502    0  0.16045336542E+04  0.41140565632E+03  0.30038624938E+03  0.16834532248E+04  0.25500000920E-02 0. -1.
       -2    1    3    3    0  502 -0.16045336542E+04 -0.41140565632E+03  0.15758233990E+03  0.16639155794E+04  0.25500000920E-02 0.  1.
</event>
<event>
 5   0  0.3812379E-06  0.3309831E+04  0.7818609E-02  0.8160398E-01
       -2   -1    0    0    0  501  0.00000000000E+00  0.00000000000E+00  0.12015105767E+04  0.12015105767E+04  0.25500000920E-02 0. -1.
        2   -1    0    0  501    0  0.00000000000E+00  0.00000000000E+00 -0.22794178019E+04  0.22794178019E+04  0.25500000920E-02 0.  1.
    10030    2    1    2    0    0  0.00000000000E+00  0.00000000000E+00 -0.10779072252E+04  0.34809283785E+04  0.33098305682E+04 0.  0.
        5    1    3    3  502    0  0.13067508871E+04 -0.99947119217E+03 -0.72762045847E+03  0.17988869243E+04  0.46999998093E+01 0.  1.
       -5    1    3    3    0  502 -0.13067508871E+04  0.99947119217E+03 -0.35028676670E+03  0.16820414542E+04  0.46999998093E+01 0. -1.
</event>
<event>
 5   0  0.3896210E-06  0.3155945E+04  0.7818609E-02  0.8200550E-01
       -2   -1    0    0    0  501  0.00000000000E+00  0.00000000000E+00  0.11841502155E+04  0.11841502155E+04  0.25500000920E-02 0. -1.
        2   -1    0    0  501    0  0.00000000000E+00  0.00000000000E+00 -0.21027713517E+04  0.21027713517E+04  0.25500000920E-02 0.  1.
    10030    2    1    2    0    0  0.00000000000E+00  0.00000000000E+00 -0.91862113625E+03  0.32869215672E+04  0.31559449610E+04 0.  0.
        3    1    3    3  502    0 -0.11635217265E+04  0.18618238751E+02 -0.15693126514E+04  0.19536815644E+04  0.10100000352E+00 0.  1.
       -3    1    3    3    0  502  0.11635217265E+04 -0.18618238751E+02  0.65069151519E+03  0.13332400028E+04  0.10100000352E+00 0. -1.
</event>
<event>
 5   0  0.1391878E-06  0.2171038E+04  0.7818609E-02  0.8530580E-01
        1   -1    0    0  501    0  0.00000000000E+00  0.00000000000E+00  0.11259446158E+04  0.11259446158E+04  0.50400001928E-02 0. -1.
       -1   -1    0    0    0  501  0.00000000000E+00  0.00000000000E+00 -0.10465444590E+04  0.10465444590E+04  0.50400001928E-02 0.  1.
    10030    2    1    2    0    0  0.00000000000E+00  0.00000000000E+00  0.79400156788E+02  0.21724890748E+04  0.21710376310E+04 0.  0.
        2    1    3    3  502    0 -0.51405719066E+03  0.44507764980E+03 -0.80703475227E+03  0.10552980626E+04  0.25500000920E-02 0.  1.
       -2    1    3    3    0  502  0.51405719066E+03 -0.44507764980E+03  0.88643490905E+03  0.11171910121E+04  0.25500000920E-02 0. -1.
</event>
<event>
 5   0  0.3896210E-06  0.3287791E+04  0.7818609E-02  0.8166009E-01
       -2   -1    0    0    0  501  0.00000000000E+00  0.00000000000E+00  0.16157793082E+04  0.16157793082E+04  0.25500000920E-02 0.  1.
        2   -1    0    0  501    0  0.00000000000E+00  0.00000000000E+00 -0.16725009985E+04  0.16725009985E+04  0.25500000920E-02 0. -1.
    10030    2    1    2    0    0  0.00000000000E+00  0.00000000000E+00 -0.56721690236E+02  0.32882803067E+04  0.32877910556E+04 0.  0.
        3    1    3    3  502    0 -0.48349995323E+02  0.16155372084E+04  0.27184095012E+03  0.16389617769E+04  0.10100000352E+00 0.  1.
       -3    1    3    3    0  502  0.48349995323E+02 -0.16155372084E+04 -0.32856264036E+03  0.16493185298E+04  0.10100000352E+00 0. -1.
</event>
<event>
 5   0  0.1352708E-06  0.3178878E+04  0.7818609E-02  0.8194418E-01
       -1   -1    0    0    0  501  0.00000000000E+00  0.00000000000E+00  0.16446228790E+04  0.16446228791E+04  0.50400001928E-02 0. -1.
        1   -1    0    0  501    0  0.00000000000E+00  0.00000000000E+00 -0.15361064017E+04  0.15361064017E+04  0.50400001928E-02 0.  1.
    10030    2    1    2    0    0  0.00000000000E+00  0.00000000000E+00  0.10851647735E+03  0.31807292807E+04  0.31788776214E+04 0.  0.
        5    1    3    3  502    0 -0.85206754252E+03 -0.13416753958E+04  0.67744891751E+02  0.15908247626E+04  0.46999998093E+01 0. -1.
       -5    1    3    3    0  502  0.85206754252E+03  0.13416753958E+04  0.40771585600E+02  0.15899045182E+04  0.46999998093E+01 0.  1.
</event>
<event>
 5   0  0.1339825E-06  0.3351439E+04  0.7818609E-02  0.8149929E-01
        1   -1    0    0  501    0  0.00000000000E+00  0.00000000000E+00  0.20624189231E+04  0.20624189231E+04  0.50400001928E-02 0. -1.
       -1   -1    0    0    0  501  0.00000000000E+00  0.00000000000E+00 -0.13615251868E+04  0.13615251868E+04  0.50400001928E-02 0.  1.
    10030    2    1    2    0    0  0.00000000000E+00  0.00000000000E+00  0.70089373636E+03  0.34239441099E+04  0.33514386818E+04 0.  0.
        3    1    3    3  502    0 -0.66709392321E+03 -0.70641166410E+03 -0.10443750315E+04  0.14264469700E+04  0.10100000352E+00 0.  1.
       -3    1    3    3    0  502  0.66709392321E+03  0.70641166410E+03  0.17452687679E+04  0.19974971399E+04  0.10100000352E+00 0. -1.
</event>
<event>
 5   0  0.1282578E-06  0.3327496E+04  0.7818609E-02  0.8155934E-01
        1   -1    0    0  501    0  0.00000000000E+00  0.00000000000E+00  0.24462362773E+04  0.24462362773E+04  0.50400001928E-02 0. -1.
       -1   -1    0    0    0  501  0.00000000000E+00  0.00000000000E+00 -0.11315579904E+04  0.11315579904E+04  0.50400001928E-02 0.  1.
    10030    2    1    2    0    0  0.00000000000E+00  0.00000000000E+00  0.13146782869E+04  0.35777942677E+04  0.33274964799E+04 0.  0.
        4    1    3    3  502    0 -0.72774178373E+02 -0.13015396857E+04 -0.45423089074E+03  0.13804451997E+04  0.12699999809E+01 0.  1.
       -4    1    3    3    0  502  0.72774178373E+02  0.13015396857E+04  0.17689091777E+04  0.21973490679E+04  0.12699999809E+01 0. -1.
</event>
<event>
 5   0  0.3920487E-06  0.3280820E+04  0.7818609E-02  0.8167793E-01
       -2   -1    0    0    0  501  0.00000000000E+00  0.00000000000E+00  0.16842955596E+04  0.16842955596E+04  0.25500000920E-02 0.  1.
        2   -1    0    0  501    0  0.00000000000E+00  0.00000000000E+00 -0.15976682992E+04  0.15976682992E+04  0.25500000920E-02 0. -1.
    10030    2    1    2    0    0  0.00000000000E+00  0.00000000000E+00  0.86627260366E+02  0.32819638588E+04  0.32808203986E+04 0.  0.
        4    1    3    3  502    0  0.53347422556E+03  0.90894260354E+03  0.13008009129E+04  0.16741732389E+04  0.12699999809E+01 0.  1.
       -4    1    3    3    0  502 -0.53347422556E+03 -0.90894260354E+03 -0.12141736526E+04  0.16077906199E+04  0.12699999809E+01 0. -1.
</event>
<event>
 5   0  0.1282578E-06  0.3307150E+04  0.7818609E-02  0.8161078E-01
        1   -1    0    0  501    0  0.00000000000E+00  0.00000000000E+00  0.21793670972E+04  0.21793670972E+04  0.50400001928E-02 0.  1.
       -1   -1    0    0    0  501  0.00000000000E+00  0.00000000000E+00 -0.12546353287E+04  0.12546353287E+04  0.50400001928E-02 0. -1.
    10030    2    1    2    0    0  0.00000000000E+00  0.00000000000E+00  0.92473176850E+03  0.34340024259E+04  0.33071504074E+04 0.  0.
        4    1    3    3  502    0  0.13241684722E+04 -0.65586241334E+03  0.12329440262E+04  0.19245077897E+04  0.12699999809E+01 0. -1.
       -4    1    3    3    0  502 -0.13241684722E+04  0.65586241334E+03 -0.30821225770E+03  0.15094946362E+04  0.12699999809E+01 0.  1.
</event>
<event>
 5   0  0.3812379E-06  0.3264038E+04  0.7818609E-02  0.8172107E-01
        2   -1    0    0  501    0  0.00000000000E+00  0.00000000000E+00  0.15572652669E+04  0.15572652669E+04  0.25500000920E-02 0. -1.
       -2   -1    0    0    0  501  0.00000000000E+00  0.00000000000E+00 -0.17103612053E+04  0.17103612053E+04  0.25500000920E-02 0.  1.
    10030    2    1    2    0    0  0.00000000000E+00  0.00000000000E+00 -0.15309593837E+03  0.32676264722E+04  0.32640380505E+04 0.  0.
        5    1    3    3  502    0  0.81168335198E+03  0.82933152619E+03 -0.12253475085E+04  0.16876371798E+04  0.46999998093E+01 0.  1.
       -5    1    3    3    0  502 -0.81168335198E+03 -0.82933152619E+03  0.10722515701E+04  0.15799892923E+04  0.46999998093E+01 0. -1.
</event>
<event>
 5   0  0.1339825E-06  0.3391368E+04  0.7818609E-02  0.8140028E-01
        1   -1    0    0  501    0  0.00000000000E+00  0.00000000000E+00  0.25668875667E+04  0.25668875667E+04  0.50400001928E-02 0. -1.
       -1   -1    0    0    0  501  0.00000000000E+00  0.00000000000E+00 -0.11201674989E+04  0.11201674989E+04  0.50400001928E-02 0.  1.
    10030    2    1    2    0    0  0.00000000000E+00  0.00000000000E+00  0.14467200678E+04  0.36870550656E+04  0.33913678807E+04 0.  0.
        3    1    3    3  502    0  0.42748717771E+03  0.69345374561E+02 -0.10590285166E+04  0.11441571034E+04  0.10100000352E+00 0.  1.
       -3    1    3    3    0  502 -0.42748717771E+03 -0.69345374561E+02  0.25057485844E+04  0.25428979622E+04  0.10100000352E+00 0. -1.
</event>
<event>
 5   0  0.3671997E-06  0.3298593E+04  0.7818609E-02  0.8163254E-01
        2   -1    0    0  501    0  0.00000000000E+00  0.00000000000E+00  0.21939809658E+04  0.21939809658E+04  0.25500000920E-02 0.  1.
       -2   -1    0    0    0  501  0.00000000000E+00  0.00000000000E+00 -0.12398367453E+04  0.12398367453E+04  0.25500000920E-02 0. -1.
    10030    2    1    2    0    0  0.00000000000E+00  0.00000000000E+00  0.95414422054E+03  0.34338177111E+04  0.32985925604E+04 0.  0.
        2    1    3    3  502    0  0.80611579790E+03 -0.10120345186E+04 -0.58766848456E+03  0.14210527064E+04  0.25500000920E-02 0. -1.
       -2    1    3    3    0  502 -0.80611579790E+03  0.10120345186E+04  0.15418127051E+04  0.20127650047E+04  0.25500000920E-02 0.  1.
</event>
<event>
 5   0  0.3920487E-06  0.2120404E+04  0.7818609E-02  0.8552308E-01
       -2   -1    0    0    0  501  0.00000000000E+00  0.00000000000E+00  0.38597745568E+03  0.38597745569E+03  0.25500000920E-02 0.  1.
        2   -1    0    0  501    0  0.00000000000E+00  0.00000000000E+00 -0.29121600191E+04  0.29121600191E+04  0.25500000920E-02 0. -1.
    10030    2    1    2    0    0  0.00000000000E+00  0.00000000000E+00 -0.25261825634E+04  0.32981374748E+04  0.21204038434E+04 0.  0.
        4    1    3    3  502    0 -0.74145036301E+03  0.96824963900E+02 -0.24321518985E+04  0.25445015592E+04  0.12699999809E+01 0. -1.
       -4    1    3    3    0  502  0.74145036301E+03 -0.96824963900E+02 -0.94030664918E+02  0.75363591560E+03  0.12699999809E+01 0.  1.
</event>
<event>
 5   0  0.3671997E-06  0.2485670E+04  0.7818609E-02  0.8408108E-01
       -2   -1    0    0    0  501  0.00000000000E+00  0.00000000000E+00  0.28985821257E+04  0.28985821257E+04  0.25500000920E-02 0.  1.
        2   -1    0    0  501    0  0.00000000000E+00  0.00000000000E+00 -0.53289479207E+03  0.53289479207E+03  0.25500000920E-02 0. -1.
    10030    2    1    2    0    0  0.00000000000E+00  0.00000000000E+00  0.23656873336E+04  0.34314769178E+04  0.24856703878E+04 0.  0.
        2    1    3    3  502    0 -0.54267623955E+03  0.35050493615E+03 -0.28288980682E+03  0.70525020670E+03  0.25500000920E-02 0. -1.
       -2    1    3    3    0  502  0.54267623955E+03 -0.35050493615E+03  0.26485771404E+04  0.27262267111E+04  0.25500000920E-02 0.  1.
</event>
<event>
 5   0  0.1282578E-06  0.3327232E+04  0.7818609E-02  0.8156001E-01
        1   -1    0    0  501    0  0.00000000000E+00  0.00000000000E+00  0.16725910459E+04  0.16725910459E+04  0.50400001928E-02 0.  1.
       -1   -1    0    0    0  501  0.00000000000E+00  0.00000000000E+00 -0.16546889962E+04  0.16546889963E+04  0.50400001928E-02 0. -1.
    10030    2    1    2    0    0  0.00000000000E+00  0.00000000000E+00  0.17902049611E+02  0.33272800421E+04  0.33272318818E+04 0.  0.
        4    1    3    3  502    0 -0.13259722621E+04  0.33426965708E+02  0.10131052826E+04  0.16690427582E+04  0.12699999809E+01 0.  1.
       -4    1    3    3    0  502  0.13259722621E+04 -0.33426965708E+02 -0.99520323300E+03  0.16582372840E+04  0.12699999809E+01 0. -1.
</event>
<event>
 5   0  0.3812379E-06  0.3267597E+04  0.7818609E-02  0.8171190E-01
       -2   -1    0    0    0  501  0.00000000000E+00  0.00000000000E+00  0.15175719077E+04  0.15175719077E+04  0.25500000920E-02 0. -1.
        2   -1    0    0  501    0  0.00000000000E+00  0.00000000000E+00 -0.17589262404E+04  0.17589262404E+04  0.25500000920E-02 0.  1.
    10030    2    1    2    0    0  0.00000000000E+00  0.00000000000E+00 -0.24135433269E+03  0.32764981481E+04  0.32675967011E+04 0.  0.
        5    1    3    3  502    0 -0.31307791589E+03 -0.84926754084E+03  0.12431758108E+04  0.15377845506E+04  0.46999998093E+01 0. -1.
       -5    1    3    3    0  502  0.31307791589E+03  0.84926754084E+03 -0.14845301435E+04  0.17387135976E+04  0.46999998093E+01 0.  1.
</event>
<event>
 5   0  0.1391878E-06  0.3344498E+04  0.7818609E-02  0.8151664E-01
        1   -1    0    0  501    0  0.00000000000E+00  0.00000000000E+00  0.22809424744E+04  0.22809424744E+04  0.50400001928E-02 0.  1.
       -1   -1    0    0    0  501  0.00000000000E+00  0.00000000000E+00 -0.12259918482E+04  0.12259918482E+04  0.50400001928E-02 0. -1.
    10030    2    1    2    0    0  0.00000000000E+00  0.00000000000E+00  0.10549506263E+04  0.35069343226E+04  0.33444980967E+04 0.  0.
        2    1    3    3  502    0 -0.13434363290E+04  0.75555982856E+03  0.12076114768E+04  0.19580646832E+04  0.25500000920E-02 0.  1.
       -2    1    3    3    0  502  0.13434363290E+04 -0.75555982856E+03 -0.15266085051E+03  0.15488696394E+04  0.25500000920E-02 0. -1.
</event>
<event>
 5   0  0.1405389E-06  0.3471662E+04  0.7818609E-02  0.8120539E-01
        1   -1    0    0  501    0  0.00000000000E+00  0.00000000000E+00  0.21543760292E+04  0.21543760292E+04  0.50400001928E-02 0. -1.
       -1   -1    0    0    0  501  0.00000000000E+00  0.00000000000E+00 -0.13985995879E+04  0.13985995879E+04  0.50400001928E-02 0.  1.
    10030    2    1    2    0    0  0.00000000000E+00  0.00000000000E+00  0.75577644133E+03  0.35529756171E+04  0.34716620956E+04 0.  0.
        1    1    3    3  502    0  0.99670941079E+03  0.74196994146E+03  0.16183671269E+04  0.20403581061E+04  0.50400001928E-02 0. -1.
       -1    1    3    3    0  502 -0.99670941079E+03 -0.74196994146E+03 -0.86259068560E+03  0.15126175110E+04  0.50400001928E-02 0.  1.
</event>
<event>
 5   0  0.1352708E-06  0.3317659E+04  0.7818609E-02  0.8158417E-01
       -1   -1    0    0    0  501  0.00000000000E+00  0.00000000000E+00  0.11890090676E+04  0.11890090676E+04  0.50400001928E-02 0. -1.
        1   -1    0    0  501    0  0.00000000000E+00  0.00000000000E+00 -0.23142923036E+04  0.23142923036E+04  0.50400001928E-02 0.  1.
    10030    2    1    2    0    0  0.00000000000E+00  0.00000000000E+00 -0.11252832360E+04  0.35033013713E+04  0.33176585323E+04 0.  0.
        5    1    3    3  502    0 -0.15908821452E+04  0.34177848844E+03 -0.22214876455E+03  0.16422821617E+04  0.46999998093E+01 0. -1.
       -5    1    3    3    0  502  0.15908821452E+04 -0.34177848844E+03 -0.90313447147E+03  0.18610192096E+04  0.46999998093E+01 0.  1.
</event>
<event>
 5   0  0.1282578E-06  0.3276422E+04  0.7818609E-02  0.8168921E-01
       -1   -1    0    0    0  501  0.00000000000E+00  0.00000000000E+00  0.20236838435E+04  0.20236838435E+04  0.50400001928E-02 0. -1.
        1   -1    0    0  501    0  0.00000000000E+00  0.00000000000E+00 -0.13261632692E+04  0.13261632692E+04  0.50400001928E-02 0.  1.
    10030    2    1    2    0    0  0.00000000000E+00  0.00000000000E+00  0.69752057438E+03  0.33498471127E+04  0.32764219397E+04 0.  0.
        4    1    3    3  502    0  0.10617859800E+02 -0.16261460919E+04  0.55136710281E+03  0.17171112795E+04  0.12699999809E+01 0. -1.
       -4    1    3    3    0  502 -0.10617859800E+02  0.16261460919E+04  0.14615347157E+03  0.16327358333E+04  0.12699999809E+01 0.  1.
</event>
<event>
 5   0  0.4017247E-06  0.3176125E+04  0.7818609E-02  0.8195151E-01
        2   -1    0    0  501    0  0.00000000000E+00  0.00000000000E+00  0.21574410490E+04  0.21574410490E+04  0.25500000920E-02 0. -1.
       -2   -1    0    0    0  501  0.00000000000E+00  0.00000000000E+00 -0.11689508497E+04  0.11689508497E+04  0.25500000920E-02 0.  1.
    10030    2    1    2    0    0  0.00000000000E+00  0.00000000000E+00  0.98849019927E+03  0.33263918987E+04  0.31761250274E+04 0.  0.
        1    1    3    3  502    0  0.53060482178E+03  0.14165875162E+04  0.10005211850E+04  0.18136439313E+04  0.50400001928E-02 0. -1.
       -1    1    3    3    0  502 -0.53060482178E+03 -0.14165875162E+04 -0.12030985759E+02  0.15127479673E+04  0.50400001928E-02 0.  1.
</event>
<event>
 5   0  0.1405389E-06  0.3246518E+04  0.7818609E-02  0.8176639E-01
        1   -1    0    0  501    0  0.00000000000E+00  0.00000000000E+00  0.22371554914E+04  0.22371554914E+04  0.50400001928E-02 0.  1.
       -1   -1    0    0    0  501  0.00000000000E+00  0.00000000000E+00 -0.11778211210E+04  0.11778211210E+04  0.50400001928E-02 0. -1.
    10030    2    1    2    0    0  0.00000000000E+00  0.00000000000E+00  0.10593343704E+04  0.34149766124E+04  0.32465175119E+04 0.  0.
        1    1    3    3  502    0 -0.56770670365E+03 -0.13334608720E+04  0.12987414702E+04  0.19460570919E+04  0.50400001928E-02 0.  1.
       -1    1    3    3    0  502  0.56770670365E+03  0.13334608720E+04 -0.23940709974E+03  0.14689195205E+04  0.50400001928E-02 0. -1.
</event>
<event>
 5   0  0.3896210E-06  0.3222535E+04  0.7818609E-02  0.8182891E-01
       -2   -1    0    0    0  501  0.00000000000E+00  0.00000000000E+00  0.16325179199E+04  0.16325179199E+04  0.25500000920E-02 0.  1.
        2   -1    0    0  501    0  0.00000000000E+00  0.00000000000E+00 -0.15902940284E+04  0.15902940284E+04  0.25500000920E-02 0. -1.
    10030    2    1    2    0    0  0.00000000000E+00  0.00000000000E+00  0.42223891420E+02  0.32228119483E+04  0.32225353368E+04 0.  0.
        3    1    3    3  502    0  0.11440998603E+04  0.98286711697E+03 -0.54567405565E+03  0.16039801885E+04  0.10100000352E+00 0. -1.
       -3    1    3    3    0  502 -0.11440998603E+04 -0.98286711697E+03  0.58789794707E+03  0.16188317598E+04  0.10100000352E+00 0.  1.
</event>
<event>
 5   0  0.4017247E-06  0.3320587E+04  0.7818609E-02  0.8157677E-01
       -2   -1    0    0    0  501  0.00000000000E+00  0.00000000000E+00  0.13629596222E+04  0.13629596222E+04  0.25500000920E-02 0. -1.
        2   -1    0    0  501    0  0.00000000000E+00  0.00000000000E+00 -0.20224914250E+04  0.20224914250E+04  0.25500000920E-02 0.  1.
    10030    2    1    2    0    0  0.00000000000E+00  0.00000000000E+00 -0.65953180282E+03  0.33854510471E+04  0.33205867845E+04 0.  0.
        1    1    3    3  502    0 -0.44257608420E+03  0.45123139174E+03 -0.18950380531E+04  0.19976617787E+04  0.50400001928E-02 0.  1.
       -1    1    3    3    0  502  0.44257608420E+03 -0.45123139174E+03  0.12355062503E+04  0.13877892685E+04  0.50400001928E-02 0. -1.
</event>
<event>
 5   0  0.4017247E-06  0.3240177E+04  0.7818609E-02  0.8178286E-01
       -2   -1    0    0    0  501  0.00000000000E+00  0.00000000000E+00  0.11552580308E+04  0.11552580308E+04  0.25500000920E-02 0.  1.
        2   -1    0    0  501    0  0.00000000000E+00  0.00000000000E+00 -0.22719481544E+04  0.22719481544E+04  0.25500000920E-02 0. -1.
    10030    2    1    2    0    0  0.00000000000E+00  0.00000000000E+00 -0.11166901236E+04  0.34272061851E+04  0.32401767549E+04 0.  0.
        1    1    3    3  502    0 -0.10903766946E+04  0.55850025664E+03  0.56296121295E+03  0.13482467134E+04  0.50400001928E-02 0.  1.
       -1    1    3    3    0  502  0.10903766946E+04 -0.55850025664E+03 -0.16796513366E+04  0.20789594718E+04  0.50400001928E-02 0. -1.
</event>
<event>
 5   0  0.3812379E-06  0.3552346E+04  0.7818609E-02  0.8101495E-01
       -2   -1    0    0    0  501  0.00000000000E+00  0.00000000000E+00  0.25333867591E+04  0.25333867591E+04  0.25500000920E-02 0.  1.
        2   -1    0    0  501    0  0.00000000000E+00  0.00000000000E+00 -0.12452857397E+04  0.12452857397E+04  0.25500000920E-02 0. -1.
    10030    2    1    2    0    0  0.00000000000E+00  0.00000000000E+00  0.12881010195E+04  0.37786724988E+04  0.35523459314E+04 0.  0.
        5    1    3    3  502    0  0.10382944303E+04 -0.11703211367E+04  0.15384933136E+04  0.21942403362E+04  0.46999998093E+01 0.  1.
       -5    1    3    3    0  502 -0.10382944303E+04  0.11703211367E+04 -0.25039229412E+03  0.15844321626E+04  0.46999998093E+01 0. -1.
</event>
<event>
 5   0  0.1352708E-06  0.2419315E+04  0.7818609E-02  0.8432307E-01
        1   -1    0    0  501    0  0.00000000000E+00  0.00000000000E+00  0.14267794469E+04  0.14267794469E+04  0.50400001928E-02 0. -1.
       -1   -1    0    0    0  501  0.00000000000E+00  0.00000000000E+00 -0.10255765668E+04  0.10255765668E+04  0.50400001928E-02 0.  1.
    10030    2    1    2    0    0  0.00000000000E+00  0.00000000000E+00  0.40120288004E+03  0.24523560137E+04  0.24193152475E+04 0.  0.
        5    1    3    3  502    0  0.10612696500E+04 -0.55819974262E+03  0.39148891574E+02  0.11997645387E+04  0.46999998093E+01 0. -1.
       -5    1    3    3    0  502 -0.10612696500E+04  0.55819974262E+03  0.36205398847E+03  0.12525914750E+04  0.46999998093E+01 0.  1.
</event>
<event>
 5   0  0.3896210E-06  0.3094505E+04  0.7818609E-02  0.8217248E-01
       -2   -1    0    0    0  501  0.00000000000E+00  0.00000000000E+00  0.13811120401E+04  0.13811120401E+04  0.25500000920E-02 0. -1.
        2   -1    0    0  501    0  0.00000000000E+00  0.00000000000E+00 -0.17333784663E+04  0.17333784663E+04  0.25500000920E-02 0.  1.
    10030    2    1    2    0    0  0.00000000000E+00  0.00000000000E+00 -0.35226642616E+03  0.31144905064E+04  0.30945047228E+04 0.  0.
        3    1    3    3  502    0  0.32209109718E+03  0.45094821360E+03 -0.16300713946E+04  0.17216938543E+04  0.10100000352E+00 0.  1.
       -3    1    3    3    0  502 -0.32209109718E+03 -0.45094821360E+03  0.12778049685E+04  0.13927966520E+04  0.10100000352E+00 0. -1.
</event>
<event>
 5   0  0.1391878E-06  0.3273850E+04  0.7818609E-02  0.8169581E-01
       -1   -1    0    0    0  501  0.00000000000E+00  0.00000000000E+00  0.16781877479E+04  0.16781877479E+04  0.50400001928E-02 0.  1.
        1   -1    0    0  501    0  0.00000000000E+00  0.00000000000E+00 -0.15966765526E+04  0.15966765526E+04  0.50400001928E-02 0. -1.
    10030    2    1    2    0    0  0.00000000000E+00  0.00000000000E+00  0.81511195321E+02  0.32748643005E+04  0.32738497387E+04 0.  0.
        2    1    3    3  502    0 -0.81486759918E+03 -0.83027574796E+03 -0.11111897489E+04  0.16087602929E+04  0.25500000920E-02 0. -1.
       -2    1    3    3    0  502  0.81486759918E+03  0.83027574796E+03  0.11927009443E+04  0.16661040076E+04  0.25500000920E-02 0.  1.
</event>
<event>
 5   0  0.1405389E-06  0.3265598E+04  0.7818609E-02  0.8171704E-01
        1   -1    0    0  501    0  0.00000000000E+00  0.00000000000E+00  0.14549035380E+04  0.14549035380E+04  0.50400001928E-02 0. -1.
       -1   -1    0    0    0  501  0.00000000000E+00  0.00000000000E+00 -0.18324467212E+04  0.18324467212E+04  0.50400001928E-02 0.  1.
    10030    2    1    2    0    0  0.00000000000E+00  0.00000000000E+00 -0.37754318324E+03  0.32873502593E+04  0.32655983942E+04 0.  0.
        1    1    3    3  502    0 -0.13471797273E+04  0.14402937762E+03  0.72855864634E+03  0.15383222616E+04  0.50400001928E-02 0. -1.
       -1    1    3    3    0  502  0.13471797273E+04 -0.14402937762E+03 -0.11061018296E+04  0.17490279977E+04  0.50400001928E-02 0.  1.
</event>
<event>
 5   0  0.1339825E-06  0.3253212E+04  0.7818609E-02  0.8174904E-01
        1   -1    0    0  501    0  0.00000000000E+00  0.00000000000E+00  0.15548370593E+04  0.15548370593E+04  0.50400001928E-02 0.  1.
       -1   -1    0    0    0  501  0.00000000000E+00  0.00000000000E+00 -0.17016879795E+04  0.17016879795E+04  0.50400001928E-02 0. -1.
    10030    2    1    2    0    0  0.00000000000E+00  0.00000000000E+00 -0.14685092026E+03  0.32565250388E+04  0.32532122795E+04 0.  0.
        3    1    3    3  502    0  0.10237134950E+04 -0.11623497745E+04  0.42387133139E+03  0.16058372377E+04  0.10100000352E+00 0.  1.
       -3    1    3    3    0  502 -0.10237134950E+04  0.11623497745E+04 -0.57072225165E+03  0.16506878011E+04  0.10100000352E+00 0. -1.
</event>
<event>
 5   0  0.1339825E-06  0.3311359E+04  0.7818609E-02  0.8160011E-01
       -1   -1    0    0    0  501  0.00000000000E+00  0.00000000000E+00  0.12700974587E+04  0.12700974587E+04  0.50400001928E-02 0.  1.
        1   -1    0    0  501    0  0.00000000000E+00  0.00000000000E+00 -0.21583186742E+04  0.21583186742E+04  0.50400001928E-02 0. -1.
    10030    2    1    2    0    0  0.00000000000E+00  0.00000000000E+00 -0.88822121558E+03  0.34284161329E+04  0.33113592757E+04 0.  0.
        3    1    3    3  502    0  0.86538468311E+03  0.14087732442E+04 -0.53521170584E+03  0.17378101978E+04  0.10100000352E+00 0. -1.
       -3    1    3    3    0  502 -0.86538468311E+03 -0.14087732442E+04 -0.35300950974E+03  0.16906059351E+04  0.10100000352E+00 0.  1.
</event>
<event>
 5   0  0.3671997E-06  0.3115296E+04  0.7818609E-02  0.8211552E-01
       -2   -1    0    0    0  501  0.00000000000E+00  0.00000000000E+00  0.12510532404E+04  0.12510532404E+04  0.25500000920E-02 0. -1.
        2   -1    0    0  501    0  0.00000000000E+00  0.00000000000E+00 -0.19393801790E+04  0.19393801790E+04  0.25500000920E-02 0.  1.
    10030    2    1    2    0    0  0.00000000000E+00  0.00000000000E+00 -0.68832693853E+03  0.31904334194E+04  0.31152963630E+04 0.  0.
        2    1    3    3  502    0 -0.74795560812E+03 -0.55345641103E+03 -0.16234990182E+04  0.18712297167E+04  0.25500000920E-02 0.  1.
       -2    1    3    3    0  502  0.74795560812E+03  0.55345641103E+03  0.93517207967E+03  0.13192037027E+04  0.25500000920E-02 0. -1.
</event>
<event>
 5   0  0.1352708E-06  0.3093622E+04  0.7818609E-02  0.8217491E-01
       -1   -1    0    0    0  501  0.00000000000E+00  0.00000000000E+00  0.25643243324E+04  0.25643243324E+04  0.50400001928E-02 0. -1.
        1   -1    0    0  501    0  0.00000000000E+00  0.00000000000E+00 -0.93304261723E+03  0.93304261724E+03  0.50400001928E-02 0.  1.
    10030    2    1    2    0    0  0.00000000000E+00  0.00000000000E+00  0.16312817151E+04  0.34973669496E+04  0.30936217523E+04 0.  0.
        5    1    3    3  502    0 -0.10321471705E+04  0.39799725950E+03  0.20378837010E+04  0.23187758988E+04  0.46999998093E+01 0. -1.
       -5    1    3    3    0  502  0.10321471705E+04 -0.39799725950E+03 -0.40660198581E+03  0.11785910508E+04  0.46999998093E+01 0.  1.
</event>
<event>
 5   0  0.3812379E-06  0.3307127E+04  0.7818609E-02  0.8161084E-01
       -2   -1    0    0    0  501  0.00000000000E+00  0.00000000000E+00  0.18190979665E+04  0.18190979665E+04  0.25500000920E-02 0.  1.
        2   -1    0    0  501    0  0.00000000000E+00  0.00000000000E+00 -0.15030924332E+04  0.15030924332E+04  0.25500000920E-02 0. -1.
    10030    2    1    2    0    0  0.00000000000E+00  0.00000000000E+00  0.31600553326E+03  0.33221903997E+04  0.33071270848E+04 0.  0.
        5    1    3    3  502    0  0.79136081578E+03  0.80545826964E+03  0.13714930504E+04  0.17765219509E+04  0.46999998093E+01 0.  1.
       -5    1    3    3    0  502 -0.79136081578E+03 -0.80545826964E+03 -0.10554875171E+04  0.15456684488E+04  0.46999998093E+01 0. -1.
</event>
<event>
 5   0  0.1391878E-06  0.3268636E+04  0.7818609E-02  0.8170922E-01
       -1   -1    0    0    0  501  0.00000000000E+00  0.00000000000E+00  0.11500371419E+04  0.11500371419E+04  0.50400001928E-02 0. -1.
        1   -1    0    0  501    0  0.00000000000E+00  0.00000000000E+00 -0.23225302635E+04  0.23225302635E+04  0.50400001928E-02 0.  1.
    10030    2    1    2    0    0  0.00000000000E+00  0.00000000000E+00 -0.11724931216E+04  0.34725674054E+04  0.32686364535E+04 0.  0.
        2    1    3    3  502    0 -0.13990041294E+04 -0.76779103878E+03 -0.21171756748E+03  0.16098260657E+04  0.25500000920E-02 0.  1.
       -2    1    3    3    0  502  0.13990041294E+04  0.76779103878E+03 -0.96077555410E+03  0.18627413397E+04  0.25500000920E-02 0. -1.
</event>
<event>
 5   0  0.1259875E-06  0.3298664E+04  0.7818609E-02  0.8163235E-01
        4   -1    0    0  501    0  0.00000000000E+00  0.00000000000E+00  0.17788645661E+04  0.17788650194E+04  0.12699999809E+01 0.  1.
       -4   -1    0    0    0  501  0.00000000000E+00  0.00000000000E+00 -0.15292310087E+04  0.15292315361E+04  0.12699999809E+01 0. -1.
    10030    2    1    2    0    0  0.00000000000E+00  0.00000000000E+00  0.24963355736E+03  0.33080965555E+04  0.32986642611E+04 0.  0.
        5    1    3    3  502    0 -0.16224202277E+04  0.29646314149E+03  0.11309587142E+03  0.16531638018E+04  0.46999998093E+01 0.  1.
       -5    1    3    3    0  502  0.16224202277E+04 -0.29646314149E+03  0.13653768594E+03  0.16549327537E+04  0.46999998093E+01 0. -1.
</event>
<event>
 5   0  0.1405389E-06  0.2402930E+04  0.7818609E-02  0.8438407E-01
       -1   -1    0    0    0  501  0.00000000000E+00  0.00000000000E+00  0.99130199806E+03  0.99130199807E+03  0.50400001928E-02 0. -1.
        1   -1    0    0  501    0  0.00000000000E+00  0.00000000000E+00 -0.14561841952E+04  0.14561841952E+04  0.50400001928E-02 0.  1.
    10030    2    1    2    0    0  0.00000000000E+00  0.00000000000E+00 -0.46488219713E+03  0.24474861933E+04  0.24029301299E+04 0.  0.
        1    1    3    3  502    0  0.74818746100E+03  0.63440855288E+03  0.47415106487E+03  0.10895310556E+04  0.50400001928E-02 0.  1.
       -1    1    3    3    0  502 -0.74818746100E+03 -0.63440855288E+03 -0.93903326200E+03  0.13579551377E+04  0.50400001928E-02 0. -1.
</event>
<event>
 5   0  0.1391878E-06  0.2015324E+04  0.7818609E-02  0.8599490E-01
        1   -1    0    0  501    0  0.00000000000E+00  0.00000000000E+00  0.14351706779E+04  0.14351706779E+04  0.50400001928E-02 0. -1.
       -1   -1    0    0    0  501  0.00000000000E+00  0.00000000000E+00 -0.70749965243E+03  0.70749965244E+03  0.50400001928E-02 0.  1.
    10030    2    1    2    0    0  0.00000000000E+00  0.00000000000E+00  0.72767102545E+03  0.21426703303E+04  0.20153240492E+04 0.  0.
        2    1    3    3  502    0 -0.38367553525E+03  0.82959690453E+03 -0.87168221408E+02  0.91817004916E+03  0.25500000920E-02 0.  1.
       -2    1    3    3    0  502  0.38367553525E+03 -0.82959690453E+03  0.81483924686E+03  0.12245002812E+04  0.25500000920E-02 0. -1.
</event>
<event>
 5   0  0.4017247E-06  0.3286017E+04  0.7818609E-02  0.8166463E-01
       -2   -1    0    0    0  501  0.00000000000E+00  0.00000000000E+00  0.14384805908E+04  0.14384805908E+04  0.25500000920E-02 0.  1.
        2   -1    0    0  501    0  0.00000000000E+00  0.00000000000E+00 -0.18766165295E+04  0.18766165295E+04  0.25500000920E-02 0. -1.
    10030    2    1    2    0    0  0.00000000000E+00  0.00000000000E+00 -0.43813593869E+03  0.33150971203E+04  0.32860167096E+04 0.  0.
        1    1    3    3  502    0  0.13814274196E+04 -0.20811271534E+03 -0.10914890288E+04  0.17728510704E+04  0.50400001928E-02 0. -1.
       -1    1    3    3    0  502 -0.13814274196E+04  0.20811271534E+03  0.65335309016E+03  0.15422460498E+04  0.50400001928E-02 0.  1.
</event>
<event>
 5   0  0.4017247E-06  0.3149382E+04  0.7818609E-02  0.8202315E-01
        2   -1    0    0  501    0  0.00000000000E+00  0.00000000000E+00  0.12171143064E+04  0.12171143064E+04  0.25500000920E-02 0.  1.
       -2   -1    0    0    0  501  0.00000000000E+00  0.00000000000E+00 -0.20373208217E+04  0.20373208217E+04  0.25500000920E-02 0. -1.
    10030    2    1    2    0    0  0.00000000000E+00  0.00000000000E+00 -0.82020651535E+03  0.32544351281E+04  0.31493823641E+04 0.  0.
        1    1    3    3  502    0  0.15305084428E+03 -0.10515144850E+04 -0.16109975062E+04  0.19298757054E+04  0.50400001928E-02 0. -1.
       -1    1    3    3    0  502 -0.15305084428E+03  0.10515144850E+04  0.79079099087E+03  0.13245594227E+04  0.50400001928E-02 0.  1.
</event>
<event>
 5   0  0.1259875E-06  0.2569668E+04  0.7818609E-02  0.8378578E-01
       -3   -1    0    0    0  501  0.00000000000E+00  0.00000000000E+00  0.12302547794E+04  0.12302547835E+04  0.10100000352E+00 0.  1.
        3   -1    0    0  501    0  0.00000000000E+00  0.00000000000E+00 -0.13418349311E+04  0.13418349349E+04  0.10100000352E+00 0. -1.
    10030    2    1    2    0    0  0.00000000000E+00  0.00000000000E+00 -0.11158015179E+03  0.25720897184E+04  0.25696683423E+04 0.  0.
        5    1    3    3  502    0 -0.89151591108E+03  0.25915621851E+03  0.83319894426E+03  0.12474795133E+04  0.46999998093E+01 0.  1.
       -5    1    3    3    0  502  0.89151591108E+03 -0.25915621851E+03 -0.94477909605E+03  0.13246102052E+04  0.46999998093E+01 0. -1.
</event>
<event>
 5   0  0.1282578E-06  0.2557888E+04  0.7818609E-02  0.8382648E-01
       -1   -1    0    0    0  501  0.00000000000E+00  0.00000000000E+00  0.71609573259E+03  0.71609573260E+03  0.50400001928E-02 0.  1.
        1   -1    0    0  501    0  0.00000000000E+00  0.00000000000E+00 -0.22841884096E+04  0.22841884097E+04  0.50400001928E-02 0. -1.
    10030    2    1    2    0    0  0.00000000000E+00  0.00000000000E+00 -0.15680926771E+04  0.30002841423E+04  0.25578878573E+04 0.  0.
        4    1    3    3  502    0 -0.12636543998E+04 -0.74533781300E+02 -0.99814890196E+03  0.16120423599E+04  0.12699999809E+01 0. -1.
       -4    1    3    3    0  502  0.12636543998E+04  0.74533781300E+02 -0.56994377510E+03  0.13882417824E+04  0.12699999809E+01 0.  1.
</event>
<event>
 5   0  0.3812379E-06  0.3326365E+04  0.7818609E-02  0.8156219E-01
        2   -1    0    0  501    0  0.00000000000E+00  0.00000000000E+00  0.19623757303E+04  0.19623757303E+04  0.25500000920E-02 0.  1.
       -2   -1    0    0    0  501  0.00000000000E+00  0.00000000000E+00 -0.14096059474E+04  0.14096059474E+04  0.25500000920E-02 0. -1.
    10030    2    1    2    0    0  0.00000000000E+00  0.00000000000E+00  0.55276978294E+03  0.33719816777E+04  0.33263652839E+04 0.  0.
        5    1    3    3  502    0 -0.37657510355E+03 -0.16026160265E+04  0.36566150871E+02  0.16466772939E+04  0.46999998093E+01 0. -1.
       -5    1    3    3    0  502  0.37657510355E+03  0.16026160265E+04  0.51620363207E+03  0.17253043838E+04  0.46999998093E+01 0.  1.
</event>
<event>
 5   0  0.1352708E-06  0.3239601E+04  0.7818609E-02  0.8178436E-01
        1   -1    0    0  501    0  0.00000000000E+00  0.00000000000E+00  0.19866532208E+04  0.19866532208E+04  0.50400001928E-02 0. -1.
       -1   -1    0    0    0  501  0.00000000000E+00  0.00000000000E+00 -0.13206899948E+04  0.13206899948E+04  0.50400001928E-02 0.  1.
    10030    2    1    2    0    0  0.00000000000E+00  0.00000000000E+00  0.66596322600E+03  0.33073432156E+04  0.32396006123E+04 0.  0.
        5    1    3    3  502    0  0.12038877371E+04  0.10817932297E+04  0.26754237341E+03  0.16404948299E+04  0.46999998093E+01 0.  1.
       -5    1    3    3    0  502 -0.12038877371E+04 -0.10817932297E+04  0.39842085258E+03  0.16668483857E+04  0.46999998093E+01 0. -1.
</event>
<event>
 5   0  0.1391878E-06  0.3455882E+04  0.7818609E-02  0.8124326E-01
        1   -1    0    0  501    0  0.00000000000E+00  0.00000000000E+00  0.10807603224E+04  0.10807603224E+04  0.50400001928E-02 0. -1.
       -1   -1    0    0    0  501  0.00000000000E+00  0.00000000000E+00 -0.27626663458E+04  0.27626663458E+04  0.50400001928E-02 0.  1.
    10030    2    1    2    0    0  0.00000000000E+00  0.00000000000E+00 -0.16819060234E+04  0.38434266683E+04  0.34558820412E+04 0.  0.
        2    1    3    3  502    0  0.45547758163E+03 -0.64109403922E+03 -0.25521029273E+04  0.26705225605E+04  0.25500000920E-02 0.  1.
       -2    1    3    3    0  502 -0.45547758163E+03  0.64109403922E+03  0.87019690391E+03  0.11729041078E+04  0.25500000920E-02 0. -1.
</event>
<event>
 5   0  0.3812379E-06  0.3291191E+04  0.7818609E-02  0.8165141E-01
       -2   -1    0    0    0  501  0.00000000000E+00  0.00000000000E+00  0.21304420153E+04  0.21304420153E+04  0.25500000920E-02 0. -1.
        2   -1    0    0  501    0  0.00000000000E+00  0.00000000000E+00 -0.12710901913E+04  0.12710901913E+04  0.25500000920E-02 0.  1.
    10030    2    1    2    0    0  0.00000000000E+00  0.00000000000E+00  0.85935182400E+03  0.34015322067E+04  0.32911906350E+04 0.  0.
        5    1    3    3  502    0 -0.13888556993E+04  0.76087187204E+03 -0.32664791633E+02  0.15839618802E+04  0.46999998093E+01 0.  1.
       -5    1    3    3    0  502  0.13888556993E+04 -0.76087187204E+03  0.89201661564E+03  0.18175703265E+04  0.46999998093E+01 0. -1.
</event>
<event>
 5   0  0.4017247E-06  0.3331065E+04  0.7818609E-02  0.8155036E-01
       -2   -1    0    0    0  501  0.00000000000E+00  0.00000000000E+00  0.10469097442E+04  0.10469097442E+04  0.25500000920E-02 0.  1.
        2   -1    0    0  501    0  0.00000000000E+00  0.00000000000E+00 -0.26497011450E+04  0.26497011450E+04  0.25500000920E-02 0. -1.
    10030    2    1    2    0    0  0.00000000000E+00  0.00000000000E+00 -0.16027914008E+04  0.36966108892E+04  0.33310646634E+04 0.  0.
        1    1    3    3  502    0  0.12531207029E+04 -0.67935861039E+03  0.15462865935E+03  0.14337885618E+04  0.50400001928E-02 0.  1.
       -1    1    3    3    0  502 -0.12531207029E+04  0.67935861039E+03 -0.17574200601E+04  0.22628223274E+04  0.50400001928E-02 0. -1.
</event>
<event>
 5   0  0.1282578E-06  0.3301995E+04  0.7818609E-02  0.8162388E-01
        1   -1    0    0  501    0  0.00000000000E+00  0.00000000000E+00  0.30928453760E+04  0.30928453760E+04  0.50400001928E-02 0.  1.
       -1   -1    0    0    0  501  0.00000000000E+00  0.00000000000E+00 -0.88132218878E+03  0.88132218879E+03  0.50400001928E-02 0. -1.
    10030    2    1    2    0    0  0.00000000000E+00  0.00000000000E+00  0.22115231872E+04  0.39741675648E+04  0.33019953097E+04 0.  0.
        4    1    3    3  502    0 -0.95268628089E+03  0.11575233303E+04  0.19381558957E+04  0.24502900439E+04  0.12699999809E+01 0. -1.
       -4    1    3    3    0  502  0.95268628089E+03 -0.11575233303E+04  0.27336729149E+03  0.15238775209E+04  0.12699999809E+01 0.  1.
</event>
<event>
 5   0  0.1352708E-06  0.3423722E+04  0.7818609E-02  0.8132109E-01
       -1   -1    0    0    0  501  0.00000000000E+00  0.00000000000E+00  0.12799459635E+04  0.12799459636E+04  0.50400001928E-02 0. -1.
        1   -1    0    0  501    0  0.00000000000E+00  0.00000000000E+00 -0.22895251743E+04  0.22895251743E+04  0.50400001928E-02 0.  1.
    10030    2    1    2    0    0  0.00000000000E+00  0.00000000000E+00 -0.10095792107E+04  0.35694711378E+04  0.34237222465E+04 0.  0.
        5    1    3    3  502    0 -0.28830997578E+03 -0.16830431111E+04 -0.37842914172E+03  0.17489961296E+04  0.46999998093E+01 0. -1.
       -5    1    3    3    0  502  0.28830997578E+03  0.16830431111E+04 -0.63115006901E+03  0.18204750082E+04  0.46999998093E+01 0.  1.
</event>
<event>
 5   0  0.1339825E-06  0.3250311E+04  0.7818609E-02  0.8175655E-01
        1   -1    0    0  501    0  0.00000000000E+00  0.00000000000E+00  0.15895585015E+04  0.15895585015E+04  0.50400001928E-02 0.  1.
       -1   -1    0    0    0  501  0.00000000000E+00  0.00000000000E+00 -0.16615494142E+04  0.16615494142E+04  0.50400001928E-02 0. -1.
    10030    2    1    2    0    0  0.00000000000E+00  0.00000000000E+00 -0.71990912669E+02  0.32511079157E+04  0.32503107525E+04 0.  0.
        3    1    3    3  502    0 -0.39702269633E+03  0.13496498254E+04 -0.84979705966E+03  0.16435743748E+04  0.10100000352E+00 0. -1.
       -3    1    3    3    0  502  0.39702269633E+03 -0.13496498254E+04  0.77780614699E+03  0.16075335409E+04  0.10100000352E+00 0.  1.
</event>
<event>
 5   0  0.1339825E-06  0.3355504E+04  0.7818609E-02  0.8148914E-01
        1   -1    0    0  501    0  0.00000000000E+00  0.00000000000E+00  0.24857645067E+04  0.24857645067E+04  0.50400001928E-02 0.  1.
       -1   -1    0    0    0  501  0.00000000000E+00  0.00000000000E+00 -0.11323886816E+04  0.11323886816E+04  0.50400001928E-02 0. -1.
    10030    2    1    2    0    0  0.00000000000E+00  0.00000000000E+00  0.13533758252E+04  0.36181531883E+04  0.33555038921E+04 0.  0.
        3    1    3    3  502    0  0.16276720810E+04  0.30820485494E+03  0.39029507164E+03  0.17019509068E+04  0.10100000352E+00 0. -1.
       -3    1    3    3    0  502 -0.16276720810E+04 -0.30820485494E+03  0.96308075353E+03  0.19162022816E+04  0.10100000352E+00 0.  1.
</event>
<event>
 5   0  0.1352708E-06  0.2977655E+04  0.7818609E-02  0.8250141E-01
        1   -1    0    0  501    0  0.00000000000E+00  0.00000000000E+00  0.18002118056E+04  0.18002118056E+04  0.50400001928E-02 0.  1.
       -1   -1    0    0    0  501  0.00000000000E+00  0.00000000000E+00 -0.12313034173E+04  0.12313034173E+04  0.50400001928E-02 0. -1.
    10030    2    1    2    0    0  0.00000000000E+00  0.00000000000E+00  0.56890838828E+03  0.30315152228E+04  0.29776547470E+04 0.  0.
        5    1    3    3  502    0 -0.28696850865E+03  0.63590229363E+03  0.16234868476E+04  0.17670467697E+04  0.46999998093E+01 0.  1.
       -5    1    3    3    0  502  0.28696850865E+03 -0.63590229363E+03 -0.10545784593E+04  0.12644684531E+04  0.46999998093E+01 0. -1.
</event>
<event>
 5   0  0.1282578E-06  0.3285833E+04  0.7818609E-02  0.8166510E-01
       -1   -1    0    0    0  501  0.00000000000E+00  0.00000000000E+00  0.15282902304E+04  0.15282902304E+04  0.50400001928E-02 0.  1.
        1   -1    0    0  501    0  0.00000000000E+00  0.00000000000E+00 -0.17661402053E+04  0.17661402053E+04  0.50400001928E-02 0. -1.
    10030    2    1    2    0    0  0.00000000000E+00  0.00000000000E+00 -0.23784997491E+03  0.32944304356E+04  0.32858331188E+04 0.  0.
        4    1    3    3  502    0 -0.15509331031E+04 -0.51672892024E+03  0.45121395070E+02  0.16353714625E+04  0.12699999809E+01 0.  1.
       -4    1    3    3    0  502  0.15509331031E+04  0.51672892024E+03 -0.28297136998E+03  0.16590589731E+04  0.12699999809E+01 0. -1.
</event>
<event>
 5   0  0.1352708E-06  0.3346644E+04  0.7818609E-02  0.8151127E-01
       -1   -1    0    0    0  501  0.00000000000E+00  0.00000000000E+00  0.20805490963E+04  0.20805490963E+04  0.50400001928E-02 0.  1.
        1   -1    0    0  501    0  0.00000000000E+00  0.00000000000E+00 -0.13458015668E+04  0.13458015668E+04  0.50400001928E-02 0. -1.
    10030    2    1    2    0    0  0.00000000000E+00  0.00000000000E+00  0.73474752948E+03  0.34263506631E+04  0.33466438314E+04 0.  0.
        5    1    3    3  502    0 -0.68594115349E+03 -0.15094094992E+04  0.13581941239E+03  0.16635207559E+04  0.46999998093E+01 0.  1.
       -5    1    3    3    0  502  0.68594115349E+03  0.15094094992E+04  0.59892811708E+03  0.17628299072E+04  0.46999998093E+01 0. -1.
</event>
<event>
 5   0  0.3920487E-06  0.3306951E+04  0.7818609E-02  0.8161129E-01
        2   -1    0    0  501    0  0.00000000000E+00  0.00000000000E+00  0.27490806806E+04  0.27490806806E+04  0.25500000920E-02 0.  1.
       -2   -1    0    0    0  501  0.00000000000E+00  0.00000000000E+00 -0.99450745306E+03  0.99450745307E+03  0.25500000920E-02 0. -1.
    10030    2    1    2    0    0  0.00000000000E+00  0.00000000000E+00  0.17545732275E+04  0.37435881336E+04  0.33069509981E+04 0.  0.
        4    1    3    3  502    0 -0.16513801988E+04 -0.35060372774E+02  0.96270714282E+03  0.19118296071E+04  0.12699999809E+01 0.  1.
       -4    1    3    3    0  502  0.16513801988E+04  0.35060372774E+02  0.79186608469E+03  0.18317585266E+04  0.12699999809E+01 0. -1.
</event>
<event>
 5   0  0.1352708E-06  0.3242120E+04  0.7818609E-02  0.8177781E-01
        1   -1    0    0  501    0  0.00000000000E+00  0.00000000000E+00  0.16583632954E+04  0.16583632954E+04  0.50400001928E-02 0.  1.
       -1   -1    0    0    0  501  0.00000000000E+00  0.00000000000E+00 -0.15845955325E+04  0.15845955325E+04  0.50400001928E-02 0. -1.
    10030    2    1    2    0    0  0.00000000000E+00  0.00000000000E+00  0.73767762858E+02  0.32429588279E+04  0.32421197197E+04 0.  0.
        5    1    3    3  502    0  0.95703578176E+03 -0.11262694613E+04  0.70294855196E+03  0.16366304237E+04  0.46999998093E+01 0. -1.
       -5    1    3    3    0  502 -0.95703578176E+03  0.11262694613E+04 -0.62918078910E+03  0.16063284043E+04  0.46999998093E+01 0.  1.
</event>
<event>
 5   0  0.3896210E-06  0.3266904E+04  0.7818609E-02  0.8171368E-01
        2   -1    0    0  501    0  0.00000000000E+00  0.00000000000E+00  0.24671113048E+04  0.24671113048E+04  0.25500000920E-02 0.  1.
       -2   -1    0    0    0  501  0.00000000000E+00  0.00000000000E+00 -0.10814935910E+04  0.10814935910E+04  0.25500000920E-02 0. -1.
    10030    2    1    2    0    0  0.00000000000E+00  0.00000000000E+00  0.13856177138E+04  0.35486048958E+04  0.32669037723E+04 0.  0.
        3    1    3    3  502    0 -0.40956896843E+03  0.12683921437E+04 -0.33285784866E+03  0.13738121151E+04  0.10100000352E+00 0. -1.
       -3    1    3    3    0  502  0.40956896843E+03 -0.12683921437E+04  0.17184755624E+04  0.21747927807E+04  0.10100000352E+00 0.  1.
</event>
<event>
 5   0  0.3896210E-06  0.3301072E+04  0.7818609E-02  0.8162623E-01
        2   -1    0    0  501    0  0.00000000000E+00  0.00000000000E+00  0.14056653691E+04  0.14056653691E+04  0.25500000920E-02 0.  1.
       -2   -1    0    0    0  501  0.00000000000E+00  0.00000000000E+00 -0.19380633826E+04  0.19380633826E+04  0.25500000920E-02 0. -1.
    10030    2    1    2    0    0  0.00000000000E+00  0.00000000000E+00 -0.53239801342E+03  0.33437287517E+04  0.33010716927E+04 0.  0.
        3    1    3    3  502    0  0.16360762756E+03 -0.55560595937E+03  0.12993485438E+04  0.14225934368E+04  0.10100000352E+00 0.  1.
       -3    1    3    3    0  502 -0.16360762756E+03  0.55560595937E+03 -0.18317465573E+04  0.19211353149E+04  0.10100000352E+00 0. -1.
</event>
<event>
 5   0  0.1391878E-06  0.3269700E+04  0.7818609E-02  0.8170648E-01
        1   -1    0    0  501    0  0.00000000000E+00  0.00000000000E+00  0.17217417849E+04  0.17217417849E+04  0.50400001928E-02 0. -1.
       -1   -1    0    0    0  501  0.00000000000E+00  0.00000000000E+00 -0.15523438573E+04  0.15523438573E+04  0.50400001928E-02 0.  1.
    10030    2    1    2    0    0  0.00000000000E+00  0.00000000000E+00  0.16939792761E+03  0.32740856422E+04  0.32697004656E+04 0.  0.
        2    1    3    3  502    0 -0.14816676294E+04  0.48228695400E+03 -0.41073283959E+03  0.16114096734E+04  0.25500000920E-02 0.  1.
       -2    1    3    3    0  502  0.14816676294E+04 -0.48228695400E+03  0.58013076720E+03  0.16626759688E+04  0.25500000920E-02 0. -1.
</event>
<event>
 5   0  0.3812379E-06  0.3178850E+04  0.7818609E-02  0.8194425E-01
       -2   -1    0    0    0  501  0.00000000000E+00  0.00000000000E+00  0.11916897650E+04  0.11916897650E+04  0.25500000920E-02 0.  1.
        2   -1    0    0  501    0  0.00000000000E+00  0.00000000000E+00 -0.21199078040E+04  0.21199078040E+04  0.25500000920E-02 0. -1.
    10030    2    1    2    0    0  0.00000000000E+00  0.00000000000E+00 -0.92821803907E+03  0.33115975690E+04  0.31788503788E+04 0.  0.
        5    1    3    3  502    0 -0.62735855530E+02 -0.12717452800E+04 -0.14551385559E+04  0.19335775525E+04  0.46999998093E+01 0. -1.
       -5    1    3    3    0  502  0.62735855530E+02  0.12717452800E+04  0.52692051682E+03  0.13780200165E+04  0.46999998093E+01 0.  1.
</event>
<event>
 5   0  0.1352708E-06  0.2263335E+04  0.7818609E-02  0.8492519E-01
        1   -1    0    0  501    0  0.00000000000E+00  0.00000000000E+00  0.20364390814E+04  0.20364390814E+04  0.50400001928E-02 0. -1.
       -1   -1    0    0    0  501  0.00000000000E+00  0.00000000000E+00 -0.62887788838E+03  0.62887788840E+03  0.50400001928E-02 0.  1.
    10030    2    1    2    0    0  0.00000000000E+00  0.00000000000E+00  0.14075611930E+04  0.26653169698E+04  0.22633351580E+04 0.  0.
        5    1    3    3  502    0  0.17576977474E+03 -0.20736357616E+02  0.20200282420E+04  0.20277724722E+04  0.46999998093E+01 0. -1.
       -5    1    3    3    0  502 -0.17576977474E+03  0.20736357616E+02 -0.61246704906E+03  0.63754449760E+03  0.46999998093E+01 0.  1.
</event>
<event>
 5   0  0.1391878E-06  0.3213082E+04  0.7818609E-02  0.8185371E-01
       -1   -1    0    0    0  501  0.00000000000E+00  0.00000000000E+00  0.18411727243E+04  0.18411727243E+04  0.50400001928E-02 0.  1.
        1   -1    0    0  501    0  0.00000000000E+00  0.00000000000E+00 -0.14018101917E+04  0.14018101917E+04  0.50400001928E-02 0. -1.
    10030    2    1    2    0    0  0.00000000000E+00  0.00000000000E+00  0.43936253268E+03  0.32429829160E+04  0.32130824388E+04 0.  0.
        2    1    3    3  502    0 -0.10795936644E+04  0.68134466782E+03  0.12040632491E+04  0.17548565026E+04  0.25500000920E-02 0.  1.
       -2    1    3    3    0  502  0.10795936644E+04 -0.68134466782E+03 -0.76470071647E+03  0.14881264135E+04  0.25500000920E-02 0. -1.
</event>
<event>
 5   0  0.3812379E-06  0.3317708E+04  0.7818609E-02  0.8158404E-01
        2   -1    0    0  501    0  0.00000000000E+00  0.00000000000E+00  0.16912646368E+04  0.16912646368E+04  0.25500000920E-02 0.  1.
       -2   -1    0    0    0  501  0.00000000000E+00  0.00000000000E+00 -0.16270644753E+04  0.16270644753E+04  0.25500000920E-02 0. -1.
    10030    2    1    2    0    0  0.00000000000E+00  0.00000000000E+00  0.64200161481E+02  0.33183291121E+04  0.33177080094E+04 0.  0.
        5    1    3    3  502    0 -0.13597211002E+04  0.15958179995E+03  0.96900736893E+03  0.16772910279E+04  0.46999998093E+01 0.  1.
       -5    1    3    3    0  502  0.13597211002E+04 -0.15958179995E+03 -0.90480720745E+03  0.16410380842E+04  0.46999998093E+01 0. -1.
</event>
<event>
 5   0  0.4017247E-06  0.2164352E+04  0.7818609E-02  0.8533414E-01
        2   -1    0    0  501    0  0.00000000000E+00  0.00000000000E+00  0.16919640465E+04  0.16919640465E+04  0.25500000920E-02 0. -1.
       -2   -1    0    0    0  501  0.00000000000E+00  0.00000000000E+00 -0.69215694493E+03  0.69215694494E+03  0.25500000920E-02 0.  1.
    10030    2    1    2    0    0  0.00000000000E+00  0.00000000000E+00  0.99980710155E+03  0.23841209914E+04  0.21643517878E+04 0.  0.
        1    1    3    3  502    0 -0.21763378989E+03  0.95527492106E+02 -0.66305121565E+03  0.70436274948E+03  0.50400001928E-02 0.  1.
       -1    1    3    3    0  502  0.21763378989E+03 -0.95527492106E+02  0.16628583172E+04  0.16797582419E+04  0.50400001928E-02 0. -1.
</event>
<event>
 5   0  0.1391878E-06  0.3325785E+04  0.7818609E-02  0.8156365E-01
        1   -1    0    0  501    0  0.00000000000E+00  0.00000000000E+00  0.23558502085E+04  0.23558502085E+04  0.50400001928E-02 0. -1.
       -1   -1    0    0    0  501  0.00000000000E+00  0.00000000000E+00 -0.11737634715E+04  0.11737634715E+04  0.50400001928E-02 0.  1.
    10030    2    1    2    0    0  0.00000000000E+00  0.00000000000E+00  0.11820867370E+04  0.35296136800E+04  0.33257846708E+04 0.  0.
        2    1    3    3  502    0 -0.30782185040E+03  0.49896726013E+02  0.23245410654E+04  0.23453646069E+04  0.25500000920E-02 0. -1.
       -2    1    3    3    0  502  0.30782185040E+03 -0.49896726013E+02 -0.11424543283E+04  0.11842490731E+04  0.25500000920E-02 0.  1.
</event>
<event>
 5   0  0.4017247E-06  0.3310799E+04  0.7818609E-02  0.8160153E-01
        2   -1    0    0  501    0  0.00000000000E+00  0.00000000000E+00  0.20854774748E+04  0.20854774748E+04  0.25500000920E-02 0.  1.
       -2   -1    0    0    0  501  0.00000000000E+00  0.00000000000E+00 -0.13140147991E+04  0.13140147991E+04  0.25500000920E-02 0. -1.
    10030    2    1    2    0    0  0.00000000000E+00  0.00000000000E+00  0.77146267568E+03  0.33994922738E+04  0.33107994593E+04 0.  0.
        1    1    3    3  502    0  0.11209216154E+04  0.50005207160E+03  0.15262673645E+04  0.19585733099E+04  0.50400001928E-02 0.  1.
       -1    1    3    3    0  502 -0.11209216154E+04 -0.50005207160E+03 -0.75480468886E+03  0.14409189639E+04  0.50400001928E-02 0. -1.
</event>
<event>
 5   0  0.1282578E-06  0.3239182E+04  0.7818609E-02  0.8178545E-01
       -1   -1    0    0    0  501  0.00000000000E+00  0.00000000000E+00  0.13057512748E+04  0.13057512748E+04  0.50400001928E-02 0.  1.
        1   -1    0    0  501    0  0.00000000000E+00  0.00000000000E+00 -0.20088625890E+04  0.20088625890E+04  0.50400001928E-02 0. -1.
    10030    2    1    2    0    0  0.00000000000E+00  0.00000000000E+00 -0.70311131425E+03  0.33146138638E+04  0.32391819254E+04 0.  0.
        4    1    3    3  502    0  0.14296615474E+04 -0.65292751418E+03 -0.75159007128E+03  0.17421640930E+04  0.12699999809E+01 0. -1.
       -4    1    3    3    0  502 -0.14296615474E+04  0.65292751418E+03  0.48478757033E+02  0.15724497708E+04  0.12699999809E+01 0.  1.
</event>
<event>
 5   0  0.3896210E-06  0.3278359E+04  0.7818609E-02  0.8168424E-01
        2   -1    0    0  501    0  0.00000000000E+00  0.00000000000E+00  0.17213411011E+04  0.17213411011E+04  0.25500000920E-02 0. -1.
       -2   -1    0    0    0  501  0.00000000000E+00  0.00000000000E+00 -0.15609393914E+04  0.15609393914E+04  0.25500000920E-02 0.  1.
    10030    2    1    2    0    0  0.00000000000E+00  0.00000000000E+00  0.16040170969E+03  0.32822804925E+04  0.32783588155E+04 0.  0.
        3    1    3    3  502    0  0.61655650064E+03 -0.93784192189E+03  0.12762929689E+04  0.16995920515E+04  0.10100000352E+00 0. -1.
       -3    1    3    3    0  502 -0.61655650064E+03  0.93784192189E+03 -0.11158912592E+04  0.15826884410E+04  0.10100000352E+00 0.  1.
</event>
<event>
 5   0  0.1282578E-06  0.3292458E+04  0.7818609E-02  0.8164817E-01
       -1   -1    0    0    0  501  0.00000000000E+00  0.00000000000E+00  0.13646779637E+04  0.13646779637E+04  0.50400001928E-02 0. -1.
        1   -1    0    0  501    0  0.00000000000E+00  0.00000000000E+00 -0.19858675367E+04  0.19858675367E+04  0.50400001928E-02 0.  1.
    10030    2    1    2    0    0  0.00000000000E+00  0.00000000000E+00 -0.62118957302E+03  0.33505455004E+04  0.32924578455E+04 0.  0.
        4    1    3    3  502    0 -0.74505609199E+02 -0.14947769819E+04  0.38718366647E+03  0.15459049505E+04  0.12699999809E+01 0. -1.
       -4    1    3    3    0  502  0.74505609199E+02  0.14947769819E+04 -0.10083732395E+04  0.18046405499E+04  0.12699999809E+01 0.  1.
</event>
<event>
 5   0  0.3896210E-06  0.3334927E+04  0.7818609E-02  0.8154065E-01
       -2   -1    0    0    0  501  0.00000000000E+00  0.00000000000E+00  0.82805770845E+03  0.82805770846E+03  0.25500000920E-02 0. -1.
        2   -1    0    0  501    0  0.00000000000E+00  0.00000000000E+00 -0.33577780295E+04  0.33577780295E+04  0.25500000920E-02 0.  1.
    10030    2    1    2    0    0  0.00000000000E+00  0.00000000000E+00 -0.25297203210E+04  0.41858357379E+04  0.33349266742E+04 0.  0.
        3    1    3    3  502    0 -0.90517736896E+03  0.78052588707E+03  0.19450143843E+03  0.12109490284E+04  0.10100000352E+00 0.  1.
       -3    1    3    3    0  502  0.90517736896E+03 -0.78052588707E+03 -0.27242217594E+04  0.29748867095E+04  0.10100000352E+00 0. -1.
</event>
<event>
 5   0  0.3920487E-06  0.3358703E+04  0.7818609E-02  0.8148117E-01
        2   -1    0    0  501    0  0.00000000000E+00  0.00000000000E+00  0.21674833874E+04  0.21674833874E+04  0.25500000920E-02 0. -1.
       -2   -1    0    0    0  501  0.00000000000E+00  0.00000000000E+00 -0.13011504258E+04  0.13011504258E+04  0.25500000920E-02 0.  1.
    10030    2    1    2    0    0  0.00000000000E+00  0.00000000000E+00  0.86633296162E+03  0.34686338132E+04  0.33587032809E+04 0.  0.
        4    1    3    3  502    0 -0.48919013139E+03  0.14491747916E+04  0.11492631357E+04  0.19131706482E+04  0.12699999809E+01 0. -1.
       -4    1    3    3    0  502  0.48919013139E+03 -0.14491747916E+04 -0.28293017410E+03  0.15554631649E+04  0.12699999809E+01 0.  1.
</event>
<event>
 5   0  0.3671997E-06  0.3392209E+04  0.7818609E-02  0.8139821E-01
       -2   -1    0    0    0  501  0.00000000000E+00  0.00000000000E+00  0.13226961930E+04  0.13226961930E+04  0.25500000920E-02 0. -1.
        2   -1    0    0  501    0  0.00000000000E+00  0.00000000000E+00 -0.21749292571E+04  0.21749292571E+04  0.25500000920E-02 0.  1.
    10030    2    1    2    0    0  0.00000000000E+00  0.00000000000E+00 -0.85223306407E+03  0.34976254501E+04  0.33922091023E+04 0.  0.
        2    1    3    3  502    0  0.37264080427E+03 -0.16667066352E+03  0.12712896386E+04  0.13352219382E+04  0.25500000920E-02 0. -1.
       -2    1    3    3    0  502 -0.37264080427E+03  0.16667066352E+03 -0.21235227027E+04  0.21624035118E+04  0.25500000920E-02 0.  1.
</event>
<event>
 5   0  0.3671997E-06  0.3584804E+04  0.7818609E-02  0.8093981E-01
       -2   -1    0    0    0  501  0.00000000000E+00  0.00000000000E+00  0.14091597177E+04  0.14091597177E+04  0.25500000920E-02 0. -1.
        2   -1    0    0  501    0  0.00000000000E+00  0.00000000000E+00 -0.22798727951E+04  0.22798727951E+04  0.25500000920E-02 0.  1.
    10030    2    1    2    0    0  0.00000000000E+00  0.00000000000E+00 -0.87071307741E+03  0.36890325128E+04  0.35848039859E+04 0.  0.
        2    1    3    3  502    0  0.25793723916E+03  0.15393233033E+04  0.47154829011E+03  0.16304617877E+04  0.25500000920E-02 0. -1.
       -2    1    3    3    0  502 -0.25793723916E+03 -0.15393233033E+04 -0.13422613675E+04  0.20585707251E+04  0.25500000920E-02 0.  1.
</event>
<event>
 5   0  0.1282578E-06  0.3064750E+04  0.7818609E-02  0.8225479E-01
        1   -1    0    0  501    0  0.00000000000E+00  0.00000000000E+00  0.20382930788E+04  0.20382930788E+04  0.50400001928E-02 0.  1.
       -1   -1    0    0    0  501  0.00000000000E+00  0.00000000000E+00 -0.11520292794E+04  0.11520292794E+04  0.50400001928E-02 0. -1.
    10030    2    1    2    0    0  0.00000000000E+00  0.00000000000E+00  0.88626379944E+03  0.31903223582E+04  0.30647501084E+04 0.  0.
        4    1    3    3  502    0  0.70736071255E+03  0.28714120300E+02  0.18578553003E+04  0.19881679024E+04  0.12699999809E+01 0.  1.
       -4    1    3    3    0  502 -0.70736071255E+03 -0.28714120300E+02 -0.97159150081E+03  0.12021544558E+04  0.12699999809E+01 0. -1.
</event>
<event>
 5   0  0.3671997E-06  0.3351895E+04  0.7818609E-02  0.8149815E-01
       -2   -1    0    0    0  501  0.00000000000E+00  0.00000000000E+00  0.16572488007E+04  0.16572488007E+04  0.25500000920E-02 0. -1.
        2   -1    0    0  501    0  0.00000000000E+00  0.00000000000E+00 -0.16948567525E+04  0.16948567525E+04  0.25500000920E-02 0.  1.
    10030    2    1    2    0    0  0.00000000000E+00  0.00000000000E+00 -0.37607951755E+02  0.33521055532E+04  0.33518945809E+04 0.  0.
        2    1    3    3  502    0 -0.67592492230E+03  0.14671186023E+04  0.42786473742E+03  0.16710415097E+04  0.25500000920E-02 0. -1.
       -2    1    3    3    0  502  0.67592492230E+03 -0.14671186023E+04 -0.46547268918E+03  0.16810640434E+04  0.25500000920E-02 0.  1.
</event>
<event>
 5   0  0.3812379E-06  0.3259130E+04  0.7818609E-02  0.8173373E-01
       -2   -1    0    0    0  501  0.00000000000E+00  0.00000000000E+00  0.13771259029E+04  0.13771259029E+04  0.25500000920E-02 0. -1.
        2   -1    0    0  501    0  0.00000000000E+00  0.00000000000E+00 -0.19282786522E+04  0.19282786522E+04  0.25500000920E-02 0.  1.
    10030    2    1    2    0    0  0.00000000000E+00  0.00000000000E+00 -0.55115274927E+03  0.33054045551E+04  0.32591302398E+04 0.  0.
        5    1    3    3  502    0  0.79521808928E+03 -0.13601083358E+04  0.14649820388E+03  0.15823243373E+04  0.46999998093E+01 0. -1.
       -5    1    3    3    0  502 -0.79521808928E+03  0.13601083358E+04 -0.69765095315E+03  0.17230802178E+04  0.46999998093E+01 0.  1.
</event>
<event>
 5   0  0.3812379E-06  0.3214587E+04  0.7818609E-02  0.8184975E-01
        2   -1    0    0  501    0  0.00000000000E+00  0.00000000000E+00  0.13666635744E+04  0.13666635744E+04  0.25500000920E-02 0.  1.
       -2   -1    0    0    0  501  0.00000000000E+00  0.00000000000E+00 -0.18902912679E+04  0.18902912679E+04  0.25500000920E-02 0. -1.
    10030    2    1    2    0    0  0.00000000000E+00  0.00000000000E+00 -0.52362769350E+03  0.32569548423E+04  0.32145868916E+04 0.  0.
        5    1    3    3  502    0  0.14897686775E+04 -0.46421343521E+03  0.12857648635E+03  0.15657135207E+04  0.46999998093E+01 0. -1.
       -5    1    3    3    0  502 -0.14897686775E+04  0.46421343521E+03 -0.65220417985E+03  0.16912413217E+04  0.46999998093E+01 0.  1.
</event>
<event>
 5   0  0.3896210E-06  0.3250618E+04  0.7818609E-02  0.8175576E-01
       -2   -1    0    0    0  501  0.00000000000E+00  0.00000000000E+00  0.12841462418E+04  0.12841462418E+04  0.25500000920E-02 0.  1.
        2   -1    0    0  501    0  0.00000000000E+00  0.00000000000E+00 -0.20571095259E+04  0.20571095259E+04  0.25500000920E-02 0. -1.
    10030    2    1    2    0    0  0.00000000000E+00  0.00000000000E+00 -0.77296328407E+03  0.33412557677E+04  0.32506180746E+04 0.  0.
        3    1    3    3  502    0  0.93047898047E+03 -0.12951406798E+04 -0.70899618591E+03  0.17452381257E+04  0.10100000352E+00 0. -1.
       -3    1    3    3    0  502 -0.93047898047E+03  0.12951406798E+04 -0.63967098163E+02  0.15960176420E+04  0.10100000352E+00 0.  1.
</event>
<event>
 5   0  0.1352708E-06  0.3305506E+04  0.7818609E-02  0.8161496E-01
        1   -1    0    0  501    0  0.00000000000E+00  0.00000000000E+00  0.24419804173E+04  0.24419804173E+04  0.50400001928E-02 0. -1.
       -1   -1    0    0    0  501  0.00000000000E+00  0.00000000000E+00 -0.11185969529E+04  0.11185969529E+04  0.50400001928E-02 0.  1.
    10030    2    1    2    0    0  0.00000000000E+00  0.00000000000E+00  0.13233834644E+04  0.35605773702E+04  0.33055056217E+04 0.  0.
        5    1    3    3  502    0  0.40809931250E+03  0.10854579653E+04 -0.60680788173E+03  0.13088169997E+04  0.46999998093E+01 0.  1.
       -5    1    3    3    0  502 -0.40809931250E+03 -0.10854579653E+04  0.19301913461E+04  0.22517603705E+04  0.46999998093E+01 0. -1.
</event>
<event>
 5   0  0.1405389E-06  0.3361490E+04  0.7818609E-02  0.8147423E-01
        1   -1    0    0  501    0  0.00000000000E+00  0.00000000000E+00  0.20760934645E+04  0.20760934645E+04  0.50400001928E-02 0. -1.
       -1   -1    0    0    0  501  0.00000000000E+00  0.00000000000E+00 -0.13606821766E+04  0.13606821766E+04  0.50400001928E-02 0.  1.
    10030    2    1    2    0    0  0.00000000000E+00  0.00000000000E+00  0.71541128796E+03  0.34367756411E+04  0.33614897733E+04 0.  0.
        1    1    3    3  502    0 -0.61440382071E+03  0.11081132552E+04 -0.77133515679E+03  0.14833627221E+04  0.50400001928E-02 0.  1.
       -1    1    3    3    0  502  0.61440382071E+03 -0.11081132552E+04  0.14867464448E+04  0.19534129190E+04  0.50400001928E-02 0. -1.
</event>
<event>
 5   0  0.3896210E-06  0.3220915E+04  0.7818609E-02  0.8183315E-01
        2   -1    0    0  501    0  0.00000000000E+00  0.00000000000E+00  0.12456295491E+04  0.12456295491E+04  0.25500000920E-02 0. -1.
       -2   -1    0    0    0  501  0.00000000000E+00  0.00000000000E+00 -0.20821383400E+04  0.20821383400E+04  0.25500000920E-02 0.  1.
    10030    2    1    2    0    0  0.00000000000E+00  0.00000000000E+00 -0.83650879093E+03  0.33277678891E+04  0.32209148028E+04 0.  0.
        3    1    3    3  502    0  0.40502655310E+03  0.56583650288E+03 -0.19187982307E+04  0.20410791550E+04  0.10100000352E+00 0.  1.
       -3    1    3    3    0  502 -0.40502655310E+03 -0.56583650288E+03  0.10822894398E+04  0.12866887341E+04  0.10100000352E+00 0. -1.
</event>
<event>
 5   0  0.1391878E-06  0.3343005E+04  0.7818609E-02  0.8152038E-01
        1   -1    0    0  501    0  0.00000000000E+00  0.00000000000E+00  0.10635179435E+04  0.10635179435E+04  0.50400001928E-02 0. -1.
       -1   -1    0    0    0  501  0.00000000000E+00  0.00000000000E+00 -0.26270561727E+04  0.26270561727E+04  0.50400001928E-02 0.  1.
    10030    2    1    2    0    0  0.00000000000E+00  0.00000000000E+00 -0.15635382292E+04  0.36905741161E+04  0.33430054611E+04 0.  0.
        2    1    3    3  502    0  0.13764079458E+04 -0.84519322146E+03 -0.30684306825E+03  0.16440812277E+04  0.25500000920E-02 0. -1.
       -2    1    3    3    0  502 -0.13764079458E+04  0.84519322146E+03 -0.12566951610E+04  0.20464928884E+04  0.25500000920E-02 0.  1.
</event>
<event>
 5   0  0.3920487E-06  0.3148209E+04  0.7818609E-02  0.8202630E-01
       -2   -1    0    0    0  501  0.00000000000E+00  0.00000000000E+00  0.14869777022E+04  0.14869777022E+04  0.25500000920E-02 0. -1.
        2   -1    0    0  501    0  0.00000000000E+00  0.00000000000E+00 -0.16663365200E+04  0.16663365200E+04  0.25500000920E-02 0.  1.
    10030    2    1    2    0    0  0.00000000000E+00  0.00000000000E+00 -0.17935881776E+03  0.31533142222E+04  0.31482091733E+04 0.  0.
        4    1    3    3  502    0  0.66570296033E+03 -0.45722625971E+03  0.12636545474E+04  0.14996802032E+04  0.12699999809E+01 0. -1.
       -4    1    3    3    0  502 -0.66570296033E+03  0.45722625971E+03 -0.14430133651E+04  0.16536340190E+04  0.12699999809E+01 0.  1.
</event>
<event>
 5   0  0.1282578E-06  0.2161548E+04  0.7818609E-02  0.8534605E-01
        1   -1    0    0  501    0  0.00000000000E+00  0.00000000000E+00  0.14300717571E+04  0.14300717571E+04  0.50400001928E-02 0. -1.
       -1   -1    0    0    0  501  0.00000000000E+00  0.00000000000E+00 -0.81679320246E+03  0.81679320247E+03  0.50400001928E-02 0.  1.
    10030    2    1    2    0    0  0.00000000000E+00  0.00000000000E+00  0.61327855462E+03  0.22468649596E+04  0.21615484174E+04 0.  0.
        4    1    3    3  502    0  0.83042406882E+03 -0.18999783140E+02 -0.41210461831E+03  0.92725236865E+03  0.12699999809E+01 0.  1.
       -4    1    3    3    0  502 -0.83042406882E+03  0.18999783140E+02  0.10253831729E+04  0.13196125909E+04  0.12699999809E+01 0. -1.
</event>
<event>
 5   0  0.3920487E-06  0.2136815E+04  0.7818609E-02  0.8545197E-01
       -2   -1    0    0    0  501  0.00000000000E+00  0.00000000000E+00  0.39012556693E+03  0.39012556694E+03  0.25500000920E-02 0. -1.
        2   -1    0    0  501    0  0.00000000000E+00  0.00000000000E+00 -0.29259672487E+04  0.29259672487E+04  0.25500000920E-02 0.  1.
    10030    2    1    2    0    0  0.00000000000E+00  0.00000000000E+00 -0.25358416818E+04  0.33160928156E+04  0.21368150427E+04 0.  0.
        4    1    3    3  502    0  0.18718994907E+03 -0.10466168146E+04 -0.11048163550E+04  0.15333191530E+04  0.12699999809E+01 0. -1.
       -4    1    3    3    0  502 -0.18718994907E+03  0.10466168146E+04 -0.14310253267E+04  0.17827736626E+04  0.12699999809E+01 0.  1.
</event>
<event>
 5   0  0.4017247E-06  0.2410930E+04  0.7818609E-02  0.8435423E-01
        2   -1    0    0  501    0  0.00000000000E+00  0.00000000000E+00  0.22426673028E+04  0.22426673028E+04  0.25500000920E-02 0.  1.
       -2   -1    0    0    0  501  0.00000000000E+00  0.00000000000E+00 -0.64795429752E+03  0.64795429752E+03  0.25500000920E-02 0. -1.
    10030    2    1    2    0    0  0.00000000000E+00  0.00000000000E+00  0.15947130053E+04  0.28906216003E+04  0.24109300419E+04 0.  0.
        1    1    3    3  502    0 -0.33760156945E+03 -0.96204661965E+03  0.15684668558E+04  0.18707209294E+04  0.50400001928E-02 0.  1.
       -1    1    3    3    0  502  0.33760156945E+03  0.96204661965E+03  0.26246149471E+02  0.10199006709E+04  0.50400001928E-02 0. -1.
</event>
<event>
 5   0  0.3671997E-06  0.2324229E+04  0.7818609E-02  0.8468429E-01
       -2   -1    0    0    0  501  0.00000000000E+00  0.00000000000E+00  0.93320432025E+03  0.93320432025E+03  0.25500000920E-02 0.  1.
        2   -1    0    0  501    0  0.00000000000E+00  0.00000000000E+00 -0.14471749694E+04  0.14471749694E+04  0.25500000920E-02 0. -1.
    10030    2    1    2    0    0  0.00000000000E+00  0.00000000000E+00 -0.51397064918E+03  0.23803792897E+04  0.23242288473E+04 0.  0.
        2    1    3    3  502    0  0.45917667325E+03  0.67584049836E+03 -0.11033311323E+04  0.13729323305E+04  0.25500000920E-02 0. -1.
       -2    1    3    3    0  502 -0.45917667325E+03 -0.67584049836E+03  0.58936048316E+03  0.10074469592E+04  0.25500000920E-02 0.  1.
</event>
<event>
 5   0  0.1339825E-06  0.2475545E+04  0.7818609E-02  0.8411750E-01
        1   -1    0    0  501    0  0.00000000000E+00  0.00000000000E+00  0.20526792967E+04  0.20526792967E+04  0.50400001928E-02 0.  1.
       -1   -1    0    0    0  501  0.00000000000E+00  0.00000000000E+00 -0.74638086377E+03  0.74638086379E+03  0.50400001928E-02 0. -1.
    10030    2    1    2    0    0  0.00000000000E+00  0.00000000000E+00  0.13062984329E+04  0.27990601605E+04  0.24755448261E+04 0.  0.
        3    1    3    3  502    0  0.72725686370E+03 -0.98748221274E+03  0.84254096273E+03  0.14879176558E+04  0.10100000352E+00 0. -1.
       -3    1    3    3    0  502 -0.72725686370E+03  0.98748221274E+03  0.46375747018E+03  0.13111425047E+04  0.10100000352E+00 0.  1.
</event>
<event>
 5   0  0.1405389E-06  0.3334084E+04  0.7818609E-02  0.8154276E-01
       -1   -1    0    0    0  501  0.00000000000E+00  0.00000000000E+00  0.14958270936E+04  0.14958270936E+04  0.50400001928E-02 0.  1.
        1   -1    0    0  501    0  0.00000000000E+00  0.00000000000E+00 -0.18578548707E+04  0.18578548707E+04  0.50400001928E-02 0. -1.
    10030    2    1    2    0    0  0.00000000000E+00  0.00000000000E+00 -0.36202777710E+03  0.33536819642E+04  0.33340843729E+04 0.  0.
        1    1    3    3  502    0  0.39106138489E+02  0.10479983145E+04 -0.14844702274E+04  0.18175482424E+04  0.50400001928E-02 0.  1.
       -1    1    3    3    0  502 -0.39106138489E+02 -0.10479983145E+04  0.11224424503E+04  0.15361337219E+04  0.50400001928E-02 0. -1.
</event>
<event>
 5   0  0.1391878E-06  0.3281674E+04  0.7818609E-02  0.8167574E-01
        1   -1    0    0  501    0  0.00000000000E+00  0.00000000000E+00  0.22896658852E+04  0.22896658852E+04  0.50400001928E-02 0. -1.
       -1   -1    0    0    0  501  0.00000000000E+00  0.00000000000E+00 -0.11758683872E+04  0.11758683873E+04  0.50400001928E-02 0.  1.
    10030    2    1    2    0    0  0.00000000000E+00  0.00000000000E+00  0.11137974980E+04  0.34655342725E+04  0.32816737997E+04 0.  0.
        2    1    3    3  502    0 -0.17528064477E+01 -0.12715303164E+04 -0.53829450449E+03  0.13807799938E+04  0.25500000920E-02 0.  1.
       -2    1    3    3    0  502  0.17528064477E+01  0.12715303164E+04  0.16520920025E+04  0.20847542787E+04  0.25500000920E-02 0. -1.
</event>
<event>
 5   0  0.3671997E-06  0.3274683E+04  0.7818609E-02  0.8169367E-01
       -2   -1    0    0    0  501  0.00000000000E+00  0.00000000000E+00  0.18714670157E+04  0.18714670157E+04  0.25500000920E-02 0. -1.
        2   -1    0    0  501    0  0.00000000000E+00  0.00000000000E+00 -0.14325059696E+04  0.14325059696E+04  0.25500000920E-02 0.  1.
    10030    2    1    2    0    0  0.00000000000E+00  0.00000000000E+00  0.43896104614E+03  0.33039729853E+04  0.32746832958E+04 0.  0.
        2    1    3    3  502    0 -0.12818469217E+04  0.45656553130E+03 -0.69932601780E+03  0.15299151918E+04  0.25500000920E-02 0.  1.
       -2    1    3    3    0  502  0.12818469217E+04 -0.45656553130E+03  0.11382870639E+04  0.17740577935E+04  0.25500000920E-02 0. -1.
</event>
<event>
 5   0  0.3812379E-06  0.3315280E+04  0.7818609E-02  0.8159018E-01
       -2   -1    0    0    0  501  0.00000000000E+00  0.00000000000E+00  0.14513171232E+04  0.14513171232E+04  0.25500000920E-02 0.  1.
        2   -1    0    0  501    0  0.00000000000E+00  0.00000000000E+00 -0.18932941862E+04  0.18932941862E+04  0.25500000920E-02 0. -1.
    10030    2    1    2    0    0  0.00000000000E+00  0.00000000000E+00 -0.44197706302E+03  0.33446113094E+04  0.33152799410E+04 0.  0.
        5    1    3    3  502    0  0.70472967165E+03 -0.35136940657E+03 -0.16925381495E+04  0.18667650756E+04  0.46999998093E+01 0. -1.
       -5    1    3    3    0  502 -0.70472967165E+03  0.35136940657E+03  0.12505610865E+04  0.14778462339E+04  0.46999998093E+01 0.  1.
</event>
<event>
 5   0  0.1405389E-06  0.3316207E+04  0.7818609E-02  0.8158784E-01
        1   -1    0    0  501    0  0.00000000000E+00  0.00000000000E+00  0.19377687461E+04  0.19377687461E+04  0.50400001928E-02 0. -1.
       -1   -1    0    0    0  501  0.00000000000E+00  0.00000000000E+00 -0.14188001306E+04  0.14188001306E+04  0.50400001928E-02 0.  1.
    10030    2    1    2    0    0  0.00000000000E+00  0.00000000000E+00  0.51896861552E+03  0.33565688767E+04  0.33162065980E+04 0.  0.
        1    1    3    3  502    0 -0.80506540381E+02  0.98933831442E+03 -0.10848509115E+04  0.14704329647E+04  0.50400001928E-02 0.  1.
       -1    1    3    3    0  502  0.80506540381E+02 -0.98933831442E+03  0.16038195270E+04  0.18861359120E+04  0.50400001928E-02 0. -1.
</event>
<event>
 5   0  0.4017247E-06  0.3438062E+04  0.7818609E-02  0.8128627E-01
        2   -1    0    0  501    0  0.00000000000E+00  0.00000000000E+00  0.21104134141E+04  0.21104134141E+04  0.25500000920E-02 0. -1.
       -2   -1    0    0    0  501  0.00000000000E+00  0.00000000000E+00 -0.14002313935E+04  0.14002313935E+04  0.25500000920E-02 0.  1.
    10030    2    1    2    0    0  0.00000000000E+00  0.00000000000E+00  0.71018202067E+03  0.35106448076E+04  0.34380617305E+04 0.  0.
        1    1    3    3  502    0 -0.50496095783E+03 -0.14862495791E+04 -0.36052084350E+03  0.16105584928E+04  0.50400001928E-02 0.  1.
       -1    1    3    3    0  502  0.50496095783E+03  0.14862495791E+04  0.10707028642E+04  0.19000863148E+04  0.50400001928E-02 0. -1.
</event>
<event>
 5   0  0.1405389E-06  0.3318475E+04  0.7818609E-02  0.8158210E-01
       -1   -1    0    0    0  501  0.00000000000E+00  0.00000000000E+00  0.10387026056E+04  0.10387026056E+04  0.50400001928E-02 0.  1.
        1   -1    0    0  501    0  0.00000000000E+00  0.00000000000E+00 -0.26504878173E+04  0.26504878173E+04  0.50400001928E-02 0. -1.
    10030    2    1    2    0    0  0.00000000000E+00  0.00000000000E+00 -0.16117852117E+04  0.36891904229E+04  0.33184747111E+04 0.  0.
        1    1    3    3  502    0 -0.13986387432E+04  0.85854658286E+03 -0.53408844194E+03  0.17258455993E+04  0.50400001928E-02 0.  1.
       -1    1    3    3    0  502  0.13986387432E+04 -0.85854658286E+03 -0.10776967697E+04  0.19633448236E+04  0.50400001928E-02 0. -1.
</event>
<event>
 5   0  0.3812379E-06  0.3319707E+04  0.7818609E-02  0.8157899E-01
        2   -1    0    0  501    0  0.00000000000E+00  0.00000000000E+00  0.16007956235E+04  0.16007956235E+04  0.25500000920E-02 0.  1.
       -2   -1    0    0    0  501  0.00000000000E+00  0.00000000000E+00 -0.17210897979E+04  0.17210897979E+04  0.25500000920E-02 0. -1.
    10030    2    1    2    0    0  0.00000000000E+00  0.00000000000E+00 -0.12029417438E+03  0.33218854215E+04  0.33197066233E+04 0.  0.
        5    1    3    3  502    0 -0.16534833005E+03 -0.15880444406E+04  0.39387496950E+03  0.16445013825E+04  0.46999998093E+01 0. -1.
       -5    1    3    3    0  502  0.16534833005E+03  0.15880444406E+04 -0.51416914387E+03  0.16773840389E+04  0.46999998093E+01 0.  1.
</event>
<event>
 5   0  0.3920487E-06  0.3353631E+04  0.7818609E-02  0.8149381E-01
       -2   -1    0    0    0  501  0.00000000000E+00  0.00000000000E+00  0.11012592165E+04  0.11012592165E+04  0.25500000920E-02 0.  1.
        2   -1    0    0  501    0  0.00000000000E+00  0.00000000000E+00 -0.25531781222E+04  0.25531781222E+04  0.25500000920E-02 0. -1.
    10030    2    1    2    0    0  0.00000000000E+00  0.00000000000E+00 -0.14519189056E+04  0.36544373387E+04  0.33536314279E+04 0.  0.
        4    1    3    3  502    0  0.78814050628E+03 -0.12881037317E+04 -0.15202665414E+04  0.21427992559E+04  0.12699999809E+01 0. -1.
       -4    1    3    3    0  502 -0.78814050628E+03  0.12881037317E+04  0.68347635740E+02  0.15116380828E+04  0.12699999809E+01 0.  1.
</event>
<event>
 5   0  0.3812379E-06  0.3086793E+04  0.7818609E-02  0.8219372E-01
       -2   -1    0    0    0  501  0.00000000000E+00  0.00000000000E+00  0.97984159409E+03  0.97984159410E+03  0.25500000920E-02 0. -1.
        2   -1    0    0  501    0  0.00000000000E+00  0.00000000000E+00 -0.24310797749E+04  0.24310797749E+04  0.25500000920E-02 0.  1.
    10030    2    1    2    0    0  0.00000000000E+00  0.00000000000E+00 -0.14512381808E+04  0.34109213690E+04  0.30867932111E+04 0.  0.
        5    1    3    3  502    0  0.64642172948E+03 -0.17049564178E+03  0.81153800518E+03  0.10514493997E+04  0.46999998093E+01 0. -1.
       -5    1    3    3    0  502 -0.64642172948E+03  0.17049564178E+03 -0.22627761859E+04  0.23594719693E+04  0.46999998093E+01 0.  1.
</event>
<event>
 5   0  0.3812379E-06  0.3106740E+04  0.7818609E-02  0.8213891E-01
       -2   -1    0    0    0  501  0.00000000000E+00  0.00000000000E+00  0.16860171283E+04  0.16860171283E+04  0.25500000920E-02 0.  1.
        2   -1    0    0  501    0  0.00000000000E+00  0.00000000000E+00 -0.14311590751E+04  0.14311590751E+04  0.25500000920E-02 0. -1.
    10030    2    1    2    0    0  0.00000000000E+00  0.00000000000E+00  0.25485805323E+03  0.31171762034E+04  0.31067402298E+04 0.  0.
        5    1    3    3  502    0  0.27895271240E+03 -0.12530123755E+04 -0.75019883435E+03  0.14868338878E+04  0.46999998093E+01 0. -1.
       -5    1    3    3    0  502 -0.27895271240E+03  0.12530123755E+04  0.10050568876E+04  0.16303423156E+04  0.46999998093E+01 0.  1.
</event>
<event>
 5   0  0.1391878E-06  0.3331860E+04  0.7818609E-02  0.8154836E-01
        1   -1    0    0  501    0  0.00000000000E+00  0.00000000000E+00  0.90422396339E+03  0.90422396341E+03  0.50400001928E-02 0.  1.
       -1   -1    0    0    0  501  0.00000000000E+00  0.00000000000E+00 -0.30692868380E+04  0.30692868380E+04  0.50400001928E-02 0. -1.
    10030    2    1    2    0    0  0.00000000000E+00  0.00000000000E+00 -0.21650628746E+04  0.39735108014E+04  0.33318599668E+04 0.  0.
        2    1    3    3  502    0  0.14527974996E+04 -0.81131696110E+03 -0.11784353922E+04  0.20390109759E+04  0.25500000920E-02 0.  1.
       -2    1    3    3    0  502 -0.14527974996E+04  0.81131696110E+03 -0.98662748244E+03  0.19344998256E+04  0.25500000920E-02 0. -1.
</event>
<event>
 5   0  0.4017247E-06  0.3269114E+04  0.7818609E-02  0.8170799E-01
       -2   -1    0    0    0  501  0.00000000000E+00  0.00000000000E+00  0.11481205061E+04  0.11481205061E+04  0.25500000920E-02 0. -1.
        2   -1    0    0  501    0  0.00000000000E+00  0.00000000000E+00 -0.23270865446E+04  0.23270865446E+04  0.25500000920E-02 0.  1.
    10030    2    1    2    0    0  0.00000000000E+00  0.00000000000E+00 -0.11789660385E+04  0.34752070507E+04  0.32691135076E+04 0.  0.
        1    1    3    3  502    0  0.40238805532E+03 -0.14730934463E+04 -0.12092061825E+04  0.19478449735E+04  0.50400001928E-02 0.  1.
       -1    1    3    3    0  502 -0.40238805532E+03  0.14730934463E+04  0.30240144048E+02  0.15273620773E+04  0.50400001928E-02 0. -1.
</event>
<event>
 5   0  0.1391878E-06  0.2429777E+04  0.7818609E-02  0.8428439E-01
        1   -1    0    0  501    0  0.00000000000E+00  0.00000000000E+00  0.17113323721E+04  0.17113323721E+04  0.50400001928E-02 0.  1.
       -1   -1    0    0    0  501  0.00000000000E+00  0.00000000000E+00 -0.86245882975E+03  0.86245882976E+03  0.50400001928E-02 0. -1.
    10030    2    1    2    0    0  0.00000000000E+00  0.00000000000E+00  0.84887354233E+03  0.25737912018E+04  0.24297767099E+04 0.  0.
        2    1    3    3  502    0  0.64092586446E+03 -0.10207915061E+04  0.58561465403E+03  0.13400543965E+04  0.25500000920E-02 0.  1.
       -2    1    3    3    0  502 -0.64092586446E+03  0.10207915061E+04  0.26325888831E+03  0.12337368053E+04  0.25500000920E-02 0. -1.
</event>
<event>
 5   0  0.3920487E-06  0.2273593E+04  0.7818609E-02  0.8488407E-01
       -2   -1    0    0    0  501  0.00000000000E+00  0.00000000000E+00  0.13122920175E+04  0.13122920175E+04  0.25500000920E-02 0.  1.
        2   -1    0    0  501    0  0.00000000000E+00  0.00000000000E+00 -0.98476993054E+03  0.98476993055E+03  0.25500000920E-02 0. -1.
    10030    2    1    2    0    0  0.00000000000E+00  0.00000000000E+00  0.32752208700E+03  0.22970619481E+04  0.22735925044E+04 0.  0.
        4    1    3    3  502    0  0.85456519883E+03  0.74513985983E+03  0.24700706837E+03  0.11604004457E+04  0.12699999809E+01 0.  1.
       -4    1    3    3    0  502 -0.85456519883E+03 -0.74513985983E+03  0.80515018625E+02  0.11366615023E+04  0.12699999809E+01 0. -1.
</event>
<event>
 5   0  0.1339825E-06  0.3171374E+04  0.7818609E-02  0.8196419E-01
       -1   -1    0    0    0  501  0.00000000000E+00  0.00000000000E+00  0.10991760947E+04  0.10991760947E+04  0.50400001928E-02 0. -1.
        1   -1    0    0  501    0  0.00000000000E+00  0.00000000000E+00 -0.22875338610E+04  0.22875338610E+04  0.50400001928E-02 0.  1.
    10030    2    1    2    0    0  0.00000000000E+00  0.00000000000E+00 -0.11883577663E+04  0.33867099557E+04  0.31713735421E+04 0.  0.
        3    1    3    3  502    0 -0.20044870354E+03 -0.11028805213E+04  0.60352584139E+03  0.12730940965E+04  0.10100000352E+00 0. -1.
       -3    1    3    3    0  502  0.20044870354E+03  0.11028805213E+04 -0.17918836076E+04  0.21136158593E+04  0.10100000352E+00 0.  1.
</event>
<event>
 5   0  0.3896210E-06  0.3261352E+04  0.7818609E-02  0.8172800E-01
        2   -1    0    0  501    0  0.00000000000E+00  0.00000000000E+00  0.14022284071E+04  0.14022284071E+04  0.25500000920E-02 0. -1.
       -2   -1    0    0    0  501  0.00000000000E+00  0.00000000000E+00 -0.18963412138E+04  0.18963412139E+04  0.25500000920E-02 0.  1.
    10030    2    1    2    0    0  0.00000000000E+00  0.00000000000E+00 -0.49411280679E+03  0.32985696209E+04  0.32613515723E+04 0.  0.
        3    1    3    3  502    0  0.91117057292E+01 -0.11318440974E+04  0.94020042431E+03  0.14714383888E+04  0.10100000352E+00 0. -1.
       -3    1    3    3    0  502 -0.91117057292E+01  0.11318440974E+04 -0.14343132311E+04  0.18271312321E+04  0.10100000352E+00 0.  1.
</event>
<event>
 5   0  0.1282578E-06  0.3315490E+04  0.7818609E-02  0.8158965E-01
       -1   -1    0    0    0  501  0.00000000000E+00  0.00000000000E+00  0.13417751986E+04  0.13417751986E+04  0.50400001928E-02 0. -1.
        1   -1    0    0  501    0  0.00000000000E+00  0.00000000000E+00 -0.20481215245E+04  0.20481215246E+04  0.50400001928E-02 0.  1.
    10030    2    1    2    0    0  0.00000000000E+00  0.00000000000E+00 -0.70634632597E+03  0.33898967231E+04  0.33154901088E+04 0.  0.
        4    1    3    3  502    0 -0.80735207157E+03  0.10742920362E+04 -0.13456249753E+04  0.19017436561E+04  0.12699999809E+01 0.  1.
       -4    1    3    3    0  502  0.80735207157E+03 -0.10742920362E+04  0.63927864928E+03  0.14881530670E+04  0.12699999809E+01 0. -1.
</event>
<event>
 5   0  0.4017247E-06  0.3265885E+04  0.7818609E-02  0.8171631E-01
       -2   -1    0    0    0  501  0.00000000000E+00  0.00000000000E+00  0.13235307866E+04  0.13235307866E+04  0.25500000920E-02 0. -1.
        2   -1    0    0  501    0  0.00000000000E+00  0.00000000000E+00 -0.20146875196E+04  0.20146875196E+04  0.25500000920E-02 0.  1.
    10030    2    1    2    0    0  0.00000000000E+00  0.00000000000E+00 -0.69115673299E+03  0.33382183062E+04  0.32658848464E+04 0.  0.
        1    1    3    3  502    0  0.21868150341E+03  0.15985928439E+04 -0.60250233962E+03  0.17223036172E+04  0.50400001928E-02 0.  1.
       -1    1    3    3    0  502 -0.21868150341E+03 -0.15985928439E+04 -0.88654393369E+02  0.16159146890E+04  0.50400001928E-02 0. -1.
</event>
<event>
 5   0  0.1352708E-06  0.2776949E+04  0.7818609E-02  0.8310461E-01
       -1   -1    0    0    0  501  0.00000000000E+00  0.00000000000E+00  0.11885809262E+04  0.11885809262E+04  0.50400001928E-02 0.  1.
        1   -1    0    0  501    0  0.00000000000E+00  0.00000000000E+00 -0.16219861539E+04  0.16219861539E+04  0.50400001928E-02 0. -1.
    10030    2    1    2    0    0  0.00000000000E+00  0.00000000000E+00 -0.43340522768E+03  0.28105670802E+04  0.27769492651E+04 0.  0.
        5    1    3    3  502    0 -0.25287912168E+03  0.12110482561E+04 -0.85461368845E+03  0.15036530102E+04  0.46999998093E+01 0. -1.
       -5    1    3    3    0  502  0.25287912168E+03 -0.12110482561E+04  0.42120846077E+03  0.13069140699E+04  0.46999998093E+01 0.  1.
</event>
<event>
 5   0  0.1282578E-06  0.3281061E+04  0.7818609E-02  0.8167731E-01
        1   -1    0    0  501    0  0.00000000000E+00  0.00000000000E+00  0.19462471678E+04  0.19462471678E+04  0.50400001928E-02 0.  1.
       -1   -1    0    0    0  501  0.00000000000E+00  0.00000000000E+00 -0.13828360441E+04  0.13828360441E+04  0.50400001928E-02 0. -1.
    10030    2    1    2    0    0  0.00000000000E+00  0.00000000000E+00  0.56341112375E+03  0.33290832119E+04  0.32810612517E+04 0.  0.
        4    1    3    3  502    0  0.68002806387E+03  0.37198627798E+02 -0.12326255581E+04  0.14082575350E+04  0.12699999809E+01 0. -1.
       -4    1    3    3    0  502 -0.68002806387E+03 -0.37198627798E+02  0.17960366818E+04  0.19208256769E+04  0.12699999809E+01 0.  1.
</event>
<event>
 5   0  0.3896210E-06  0.3251375E+04  0.7818609E-02  0.8175380E-01
       -2   -1    0    0    0  501  0.00000000000E+00  0.00000000000E+00  0.18571244253E+04  0.18571244253E+04  0.25500000920E-02 0.  1.
        2   -1    0    0  501    0  0.00000000000E+00  0.00000000000E+00 -0.14230921204E+04  0.14230921204E+04  0.25500000920E-02 0. -1.
    10030    2    1    2    0    0  0.00000000000E+00  0.00000000000E+00  0.43403230490E+03  0.32802165456E+04  0.32513745623E+04 0.  0.
        3    1    3    3  502    0 -0.86704590701E+03  0.12167768964E+04  0.86343741532E+03  0.17256415621E+04  0.10100000352E+00 0.  1.
       -3    1    3    3    0  502  0.86704590701E+03 -0.12167768964E+04 -0.42940511041E+03  0.15545749836E+04  0.10100000352E+00 0. -1.
</event>
<event>
 5   0  0.1352708E-06  0.3432117E+04  0.7818609E-02  0.8130068E-01
        1   -1    0    0  501    0  0.00000000000E+00  0.00000000000E+00  0.20260439705E+04  0.20260439705E+04  0.50400001928E-02 0. -1.
       -1   -1    0    0    0  501  0.00000000000E+00  0.00000000000E+00 -0.14535010097E+04  0.14535010097E+04  0.50400001928E-02 0.  1.
    10030    2    1    2    0    0  0.00000000000E+00  0.00000000000E+00  0.57254296085E+03  0.34795449802E+04  0.34321171057E+04 0.  0.
        5    1    3    3  502    0  0.11600357229E+04 -0.29979904028E+02  0.15679619285E+04  0.19506686987E+04  0.46999998093E+01 0. -1.
       -5    1    3    3    0  502 -0.11600357229E+04  0.29979904028E+02 -0.99541896761E+03  0.15288762815E+04  0.46999998093E+01 0.  1.
</event>
<event>
 5   0  0.1339825E-06  0.3101045E+04  0.7818609E-02  0.8215451E-01
        1   -1    0    0  501    0  0.00000000000E+00  0.00000000000E+00  0.13381166900E+04  0.13381166900E+04  0.50400001928E-02 0. -1.
       -1   -1    0    0    0  501  0.00000000000E+00  0.00000000000E+00 -0.17966449218E+04  0.17966449218E+04  0.50400001928E-02 0.  1.
    10030    2    1    2    0    0  0.00000000000E+00  0.00000000000E+00 -0.45852823183E+03  0.31347616118E+04  0.31010453437E+04 0.  0.
        3    1    3    3  502    0  0.12924975487E+04  0.31016566781E+02  0.63596756078E+03  0.14408215328E+04  0.10100000352E+00 0. -1.
       -3    1    3    3    0  502 -0.12924975487E+04 -0.31016566781E+02 -0.10944957926E+04  0.16939400790E+04  0.10100000352E+00 0.  1.
</event>
<event>
 5   0  0.1391878E-06  0.3372456E+04  0.7818609E-02  0.8144700E-01
       -1   -1    0    0    0  501  0.00000000000E+00  0.00000000000E+00  0.11325069512E+04  0.11325069512E+04  0.50400001928E-02 0. -1.
        1   -1    0    0  501    0  0.00000000000E+00  0.00000000000E+00 -0.25106821333E+04  0.25106821333E+04  0.50400001928E-02 0.  1.
    10030    2    1    2    0    0  0.00000000000E+00  0.00000000000E+00 -0.13781751822E+04  0.36431890845E+04  0.33724560595E+04 0.  0.
        2    1    3    3  502    0 -0.75508294184E+03  0.61012384061E+03 -0.21785251967E+04  0.23850311073E+04  0.25500000920E-02 0.  1.
       -2    1    3    3    0  502  0.75508294184E+03 -0.61012384061E+03  0.80035001455E+03  0.12581579773E+04  0.25500000920E-02 0. -1.
</event>
<event>
 5   0  0.3671997E-06  0.3299430E+04  0.7818609E-02  0.8163040E-01
       -2   -1    0    0    0  501  0.00000000000E+00  0.00000000000E+00  0.14433890842E+04  0.14433890842E+04  0.25500000920E-02 0.  1.
        2   -1    0    0  501    0  0.00000000000E+00  0.00000000000E+00 -0.18855341901E+04  0.18855341901E+04  0.25500000920E-02 0. -1.
    10030    2    1    2    0    0  0.00000000000E+00  0.00000000000E+00 -0.44214510597E+03  0.33289232743E+04  0.32994299313E+04 0.  0.
        2    1    3    3  502    0 -0.98816016416E+03 -0.12332187330E+04  0.25673274977E+03  0.16009998933E+04  0.25500000920E-02 0. -1.
       -2    1    3    3    0  502  0.98816016416E+03  0.12332187330E+04 -0.69887785573E+03  0.17279233810E+04  0.25500000920E-02 0.  1.
</event>
<event>
 5   0  0.1282578E-06  0.3296287E+04  0.7818609E-02  0.8163841E-01
       -1   -1    0    0    0  501  0.00000000000E+00  0.00000000000E+00  0.28756937269E+04  0.28756937269E+04  0.50400001928E-02 0.  1.
        1   -1    0    0  501    0  0.00000000000E+00  0.00000000000E+00 -0.94459893760E+03  0.94459893762E+03  0.50400001928E-02 0. -1.
    10030    2    1    2    0    0  0.00000000000E+00  0.00000000000E+00  0.19310947893E+04  0.38202926645E+04  0.32962871473E+04 0.  0.
        4    1    3    3  502    0  0.24308878809E+03 -0.13171399187E+04  0.20786554925E+04  0.24728040751E+04  0.12699999809E+01 0.  1.
       -4    1    3    3    0  502 -0.24308878809E+03  0.13171399187E+04 -0.14756070326E+03  0.13474885894E+04  0.12699999809E+01 0. -1.
</event>
<event>
 5   0  0.1391878E-06  0.2931398E+04  0.7818609E-02  0.8263597E-01
        1   -1    0    0  501    0  0.00000000000E+00  0.00000000000E+00  0.16341329293E+04  0.16341329293E+04  0.50400001928E-02 0.  1.
       -1   -1    0    0    0  501  0.00000000000E+00  0.00000000000E+00 -0.13146257239E+04  0.13146257239E+04  0.50400001928E-02 0. -1.
    10030    2    1    2    0    0  0.00000000000E+00  0.00000000000E+00  0.31950720540E+03  0.29487586532E+04  0.29313977452E+04 0.  0.
        2    1    3    3  502    0 -0.68422852026E+03  0.42050919159E+03 -0.10735895255E+04  0.13407427485E+04  0.25500000920E-02 0. -1.
       -2    1    3    3    0  502  0.68422852026E+03 -0.42050919159E+03  0.13930967309E+04  0.16080159047E+04  0.25500000920E-02 0.  1.
</event>
<event>
 5   0  0.1339825E-06  0.3176492E+04  0.7818609E-02  0.8195053E-01
       -1   -1    0    0    0  501  0.00000000000E+00  0.00000000000E+00  0.14445627121E+04  0.14445627121E+04  0.50400001928E-02 0.  1.
        1   -1    0    0  501    0  0.00000000000E+00  0.00000000000E+00 -0.17462208512E+04  0.17462208512E+04  0.50400001928E-02 0. -1.
    10030    2    1    2    0    0  0.00000000000E+00  0.00000000000E+00 -0.30165813905E+03  0.31907835633E+04  0.31764921084E+04 0.  0.
        3    1    3    3  502    0 -0.90445534678E+02  0.14377723948E+04 -0.82253461520E+03  0.16588951315E+04  0.10100000352E+00 0. -1.
       -3    1    3    3    0  502  0.90445534678E+02 -0.14377723948E+04  0.52087647615E+03  0.15318884318E+04  0.10100000352E+00 0.  1.
</event>
<event>
 5   0  0.4017247E-06  0.3311185E+04  0.7818609E-02  0.8160055E-01
       -2   -1    0    0    0  501  0.00000000000E+00  0.00000000000E+00  0.17757882912E+04  0.17757882912E+04  0.25500000920E-02 0.  1.
        2   -1    0    0  501    0  0.00000000000E+00  0.00000000000E+00 -0.15435323338E+04  0.15435323338E+04  0.25500000920E-02 0. -1.
    10030    2    1    2    0    0  0.00000000000E+00  0.00000000000E+00  0.23225595741E+03  0.33193206250E+04  0.33111850721E+04 0.  0.
        1    1    3    3  502    0 -0.28220103991E+03  0.56012998098E+03 -0.14198257570E+04  0.15521881982E+04  0.50400001928E-02 0. -1.
       -1    1    3    3    0  502  0.28220103991E+03 -0.56012998098E+03  0.16520817144E+04  0.17671324267E+04  0.50400001928E-02 0.  1.
</event>
<event>
 5   0  0.3920487E-06  0.2947357E+04  0.7818609E-02  0.8258925E-01
        2   -1    0    0  501    0  0.00000000000E+00  0.00000000000E+00  0.13424442895E+04  0.13424442895E+04  0.25500000920E-02 0.  1.
       -2   -1    0    0    0  501  0.00000000000E+00  0.00000000000E+00 -0.16177414782E+04  0.16177414782E+04  0.25500000920E-02 0. -1.
    10030    2    1    2    0    0  0.00000000000E+00  0.00000000000E+00 -0.27529718871E+03  0.29601857677E+04  0.29473566525E+04 0.  0.
        4    1    3    3  502    0  0.66067415026E+03  0.48057373893E+03 -0.13694800785E+04  0.15946531754E+04  0.12699999809E+01 0. -1.
       -4    1    3    3    0  502 -0.66067415026E+03 -0.48057373893E+03  0.10941828898E+04  0.13655325923E+04  0.12699999809E+01 0.  1.
</event>
<event>
 5   0  0.1405389E-06  0.3210336E+04  0.7818609E-02  0.8186093E-01
        1   -1    0    0  501    0  0.00000000000E+00  0.00000000000E+00  0.21975755790E+04  0.21975755790E+04  0.50400001928E-02 0.  1.
       -1   -1    0    0    0  501  0.00000000000E+00  0.00000000000E+00 -0.11724579102E+04  0.11724579102E+04  0.50400001928E-02 0. -1.
    10030    2    1    2    0    0  0.00000000000E+00  0.00000000000E+00  0.10251176688E+04  0.33700334892E+04  0.32103363505E+04 0.  0.
        1    1    3    3  502    0 -0.87966729665E+03  0.49336542840E+03  0.18234124960E+04  0.20837603339E+04  0.50400001928E-02 0.  1.
       -1    1    3    3    0  502  0.87966729665E+03 -0.49336542840E+03 -0.79829482719E+03  0.12862731552E+04  0.50400001928E-02 0. -1.
</event>
<event>
 5   0  0.4017247E-06  0.3439918E+04  0.7818609E-02  0.8128178E-01
        2   -1    0    0  501    0  0.00000000000E+00  0.00000000000E+00  0.18239793529E+04  0.18239793529E+04  0.25500000920E-02 0. -1.
       -2   -1    0    0    0  501  0.00000000000E+00  0.00000000000E+00 -0.16218708088E+04  0.16218708088E+04  0.25500000920E-02 0.  1.
    10030    2    1    2    0    0  0.00000000000E+00  0.00000000000E+00  0.20210854416E+03  0.34458501617E+04  0.34399179457E+04 0.  0.
        1    1    3    3  502    0 -0.23802342253E+03  0.16622945836E+04 -0.27158245163E+03  0.17010689170E+04  0.50400001928E-02 0.  1.
       -1    1    3    3    0  502  0.23802342253E+03 -0.16622945836E+04  0.47369099579E+03  0.17447812447E+04  0.50400001928E-02 0. -1.
</event>
<event>
 5   0  0.3920487E-06  0.3363189E+04  0.7818609E-02  0.8147000E-01
       -2   -1    0    0    0  501  0.00000000000E+00  0.00000000000E+00  0.15113025527E+04  0.15113025527E+04  0.25500000920E-02 0.  1.
        2   -1    0    0  501    0  0.00000000000E+00  0.00000000000E+00 -0.18710749045E+04  0.18710749045E+04  0.25500000920E-02 0. -1.
    10030    2    1    2    0    0  0.00000000000E+00  0.00000000000E+00 -0.35977235180E+03  0.33823774572E+04  0.33631891291E+04 0.  0.
        4    1    3    3  502    0  0.13818590573E+04  0.93475344043E+03 -0.39194510998E+03  0.17137447391E+04  0.12699999809E+01 0.  1.
       -4    1    3    3    0  502 -0.13818590573E+04 -0.93475344043E+03  0.32172758182E+02  0.16686327181E+04  0.12699999809E+01 0. -1.
</event>
<event>
 5   0  0.3812379E-06  0.3166825E+04  0.7818609E-02  0.8197634E-01
        2   -1    0    0  501    0  0.00000000000E+00  0.00000000000E+00  0.26260760309E+04  0.26260760309E+04  0.25500000920E-02 0.  1.
       -2   -1    0    0    0  501  0.00000000000E+00  0.00000000000E+00 -0.95473054576E+03  0.95473054577E+03  0.25500000920E-02 0. -1.
    10030    2    1    2    0    0  0.00000000000E+00  0.00000000000E+00  0.16713454852E+04  0.35808065767E+04  0.31668249097E+04 0.  0.
        5    1    3    3  502    0 -0.95967194988E+02 -0.42233821518E+03 -0.88644469760E+03  0.98660304197E+03  0.46999998093E+01 0. -1.
       -5    1    3    3    0  502  0.95967194988E+02  0.42233821518E+03  0.25577901828E+04  0.25942035347E+04  0.46999998093E+01 0.  1.
</event>
<event>
 5   0  0.4017247E-06  0.3277361E+04  0.7818609E-02  0.8168680E-01
       -2   -1    0    0    0  501  0.00000000000E+00  0.00000000000E+00  0.15084942886E+04  0.15084942886E+04  0.25500000920E-02 0. -1.
        2   -1    0    0  501    0  0.00000000000E+00  0.00000000000E+00 -0.17801020375E+04  0.17801020375E+04  0.25500000920E-02 0.  1.
    10030    2    1    2    0    0  0.00000000000E+00  0.00000000000E+00 -0.27160774894E+03  0.32885963261E+04  0.32773609851E+04 0.  0.
        1    1    3    3  502    0 -0.76400226049E+03  0.26746144109E+03  0.12938748172E+04  0.15262198790E+04  0.50400001928E-02 0. -1.
       -1    1    3    3    0  502  0.76400226049E+03 -0.26746144109E+03 -0.15654825661E+04  0.17623764471E+04  0.50400001928E-02 0.  1.
</event>
<event>
 5   0  0.3812379E-06  0.3073898E+04  0.7818609E-02  0.8222938E-01
       -2   -1    0    0    0  501  0.00000000000E+00  0.00000000000E+00  0.11501685173E+04  0.11501685173E+04  0.25500000920E-02 0.  1.
        2   -1    0    0  501    0  0.00000000000E+00  0.00000000000E+00 -0.20537970327E+04  0.20537970327E+04  0.25500000920E-02 0. -1.
    10030    2    1    2    0    0  0.00000000000E+00  0.00000000000E+00 -0.90362851546E+03  0.32039655500E+04  0.30738982988E+04 0.  0.
        5    1    3    3  502    0  0.20400381513E+03 -0.14546716011E+04 -0.92316999155E+03  0.17349213086E+04  0.46999998093E+01 0. -1.
       -5    1    3    3    0  502 -0.20400381513E+03  0.14546716011E+04  0.19541476093E+02  0.14690442414E+04  0.46999998093E+01 0.  1.
</event>
<event>
 5   0  0.4017247E-06  0.3355594E+04  0.7818609E-02  0.8148892E-01
       -2   -1    0    0    0  501  0.00000000000E+00  0.00000000000E+00  0.14734861208E+04  0.14734861208E+04  0.25500000920E-02 0. -1.
        2   -1    0    0  501    0  0.00000000000E+00  0.00000000000E+00 -0.19104376836E+04  0.19104376836E+04  0.25500000920E-02 0.  1.
    10030    2    1    2    0    0  0.00000000000E+00  0.00000000000E+00 -0.43695156273E+03  0.33839238044E+04  0.33555943804E+04 0.  0.
        1    1    3    3  502    0  0.16157313476E+04  0.32782059352E+03 -0.53247127549E+03  0.17325067932E+04  0.50400001928E-02 0. -1.
       -1    1    3    3    0  502 -0.16157313476E+04 -0.32782059352E+03  0.95519712753E+02  0.16514170112E+04  0.50400001928E-02 0.  1.
</event>
<event>
 5   0  0.1282578E-06  0.2733049E+04  0.7818609E-02  0.8324361E-01
        1   -1    0    0  501    0  0.00000000000E+00  0.00000000000E+00  0.10510088559E+04  0.10510088559E+04  0.50400001928E-02 0.  1.
       -1   -1    0    0    0  501  0.00000000000E+00  0.00000000000E+00 -0.17767588407E+04  0.17767588407E+04  0.50400001928E-02 0. -1.
    10030    2    1    2    0    0  0.00000000000E+00  0.00000000000E+00 -0.72574998480E+03  0.28277676967E+04  0.27330490493E+04 0.  0.
        4    1    3    3  502    0  0.47078022770E+03 -0.78689260056E+03  0.68542874531E+03  0.11448354316E+04  0.12699999809E+01 0.  1.
       -4    1    3    3    0  502 -0.47078022770E+03  0.78689260056E+03 -0.14111787301E+04  0.16829322651E+04  0.12699999809E+01 0. -1.
</event>
<event>
 5   0  0.1339825E-06  0.3326871E+04  0.7818609E-02  0.8156092E-01
        1   -1    0    0  501    0  0.00000000000E+00  0.00000000000E+00  0.25724517151E+04  0.25724517151E+04  0.50400001928E-02 0.  1.
       -1   -1    0    0    0  501  0.00000000000E+00  0.00000000000E+00 -0.10756341831E+04  0.10756341832E+04  0.50400001928E-02 0. -1.
    10030    2    1    2    0    0  0.00000000000E+00  0.00000000000E+00  0.14968175320E+04  0.36480858983E+04  0.33268706012E+04 0.  0.
        3    1    3    3  502    0 -0.14738916984E+03 -0.15605080589E+04  0.13590493228E+04  0.20745900899E+04  0.10100000352E+00 0.  1.
       -3    1    3    3    0  502  0.14738916984E+03  0.15605080589E+04  0.13776820919E+03  0.15734958084E+04  0.10100000352E+00 0. -1.
</event>
<event>
 5   0  0.4017247E-06  0.3344490E+04  0.7818609E-02  0.8151666E-01
        2   -1    0    0  501    0  0.00000000000E+00  0.00000000000E+00  0.26968683309E+04  0.26968683309E+04  0.25500000920E-02 0.  1.
       -2   -1    0    0    0  501  0.00000000000E+00  0.00000000000E+00 -0.10369078819E+04  0.10369078819E+04  0.25500000920E-02 0. -1.
    10030    2    1    2    0    0  0.00000000000E+00  0.00000000000E+00  0.16599604490E+04  0.37337762128E+04  0.33444904119E+04 0.  0.
        1    1    3    3  502    0  0.44508773189E+03 -0.85300971555E+02  0.26270051646E+04  0.26658085977E+04  0.50400001928E-02 0.  1.
       -1    1    3    3    0  502 -0.44508773189E+03  0.85300971555E+02 -0.96704471560E+03  0.10679676151E+04  0.50400001928E-02 0. -1.
</event>
<event>
 5   0  0.1391878E-06  0.3348936E+04  0.7818609E-02  0.8150554E-01
        1   -1    0    0  501    0  0.00000000000E+00  0.00000000000E+00  0.25587887168E+04  0.25587887168E+04  0.50400001928E-02 0. -1.
       -1   -1    0    0    0  501  0.00000000000E+00  0.00000000000E+00 -0.10957699674E+04  0.10957699674E+04  0.50400001928E-02 0.  1.
    10030    2    1    2    0    0  0.00000000000E+00  0.00000000000E+00  0.14630187494E+04  0.36545586841E+04  0.33489364453E+04 0.  0.
        2    1    3    3  502    0 -0.14299108903E+04 -0.49389737720E+03  0.15148361252E+04  0.21408662405E+04  0.25500000920E-02 0. -1.
       -2    1    3    3    0  502  0.14299108903E+04  0.49389737720E+03 -0.51817375767E+02  0.15136924437E+04  0.25500000920E-02 0.  1.
</event>
<event>
 5   0  0.3671997E-06  0.2782495E+04  0.7818609E-02  0.8308724E-01
        2   -1    0    0  501    0  0.00000000000E+00  0.00000000000E+00  0.21213093105E+04  0.21213093106E+04  0.25500000920E-02 0. -1.
       -2   -1    0    0    0  501  0.00000000000E+00  0.00000000000E+00 -0.91244124265E+03  0.91244124265E+03  0.25500000920E-02 0.  1.
    10030    2    1    2    0    0  0.00000000000E+00  0.00000000000E+00  0.12088680679E+04  0.30337505532E+04  0.27824953573E+04 0.  0.
        2    1    3    3  502    0 -0.13063247908E+04 -0.24670826254E+03  0.10516168525E+04  0.16950656124E+04  0.25500000920E-02 0. -1.
       -2    1    3    3    0  502  0.13063247908E+04  0.24670826254E+03  0.15725121541E+03  0.13386849408E+04  0.25500000920E-02 0.  1.
</event>
<event>
 5   0  0.1282578E-06  0.3067406E+04  0.7818609E-02  0.8224741E-01
       -1   -1    0    0    0  501  0.00000000000E+00  0.00000000000E+00  0.15052065396E+04  0.15052065396E+04  0.50400001928E-02 0.  1.
        1   -1    0    0  501    0  0.00000000000E+00  0.00000000000E+00 -0.15627384835E+04  0.15627384835E+04  0.50400001928E-02 0. -1.
    10030    2    1    2    0    0  0.00000000000E+00  0.00000000000E+00 -0.57531943911E+02  0.30679450231E+04  0.30674055390E+04 0.  0.
        4    1    3    3  502    0 -0.11216070303E+04 -0.18206541225E+03  0.10015086042E+04  0.15146521852E+04  0.12699999809E+01 0.  1.
       -4    1    3    3    0  502  0.11216070303E+04  0.18206541225E+03 -0.10590405482E+04  0.15532928379E+04  0.12699999809E+01 0. -1.
</event>
<event>
 5   0  0.3812379E-06  0.2797765E+04  0.7818609E-02  0.8303962E-01
       -2   -1    0    0    0  501  0.00000000000E+00  0.00000000000E+00  0.16208674562E+04  0.16208674562E+04  0.25500000920E-02 0. -1.
        2   -1    0    0  501    0  0.00000000000E+00  0.00000000000E+00 -0.12072996820E+04  0.12072996820E+04  0.25500000920E-02 0.  1.
    10030    2    1    2    0    0  0.00000000000E+00  0.00000000000E+00  0.41356777423E+03  0.28281671382E+04  0.27977653686E+04 0.  0.
        5    1    3    3  502    0  0.95229539767E+03 -0.91974472205E+03  0.66341565395E+03  0.14808576225E+04  0.46999998093E+01 0. -1.
       -5    1    3    3    0  502 -0.95229539767E+03  0.91974472205E+03 -0.24984787972E+03  0.13473095157E+04  0.46999998093E+01 0.  1.
</event>
<event>
 5   0  0.1282578E-06  0.3305388E+04  0.7818609E-02  0.8161526E-01
        1   -1    0    0  501    0  0.00000000000E+00  0.00000000000E+00  0.16470286911E+04  0.16470286911E+04  0.50400001928E-02 0.  1.
       -1   -1    0    0    0  501  0.00000000000E+00  0.00000000000E+00 -0.16583783003E+04  0.16583783003E+04  0.50400001928E-02 0. -1.
    10030    2    1    2    0    0  0.00000000000E+00  0.00000000000E+00 -0.11349609162E+02  0.33054069915E+04  0.33053875061E+04 0.  0.
        4    1    3    3  502    0 -0.52838293494E+03 -0.96162986968E+03 -0.12415924820E+04  0.16569472039E+04  0.12699999809E+01 0. -1.
       -4    1    3    3    0  502  0.52838293494E+03  0.96162986968E+03  0.12302428728E+04  0.16484597876E+04  0.12699999809E+01 0.  1.
</event>
<event>
 5   0  0.4017247E-06  0.3351267E+04  0.7818609E-02  0.8149972E-01
        2   -1    0    0  501    0  0.00000000000E+00  0.00000000000E+00  0.15675163871E+04  0.15675163871E+04  0.25500000920E-02 0.  1.
       -2   -1    0    0    0  501  0.00000000000E+00  0.00000000000E+00 -0.17912081872E+04  0.17912081872E+04  0.25500000920E-02 0. -1.
    10030    2    1    2    0    0  0.00000000000E+00  0.00000000000E+00 -0.22369180009E+03  0.33587245744E+04  0.33512673342E+04 0.  0.
        1    1    3    3  502    0  0.14998029986E+04 -0.10092828775E+02 -0.86066125094E+03  0.17292335553E+04  0.50400001928E-02 0. -1.
       -1    1    3    3    0  502 -0.14998029986E+04  0.10092828775E+02  0.63696945086E+03  0.16294910191E+04  0.50400001928E-02 0.  1.
</event>
<event>
 5   0  0.1391878E-06  0.3339636E+04  0.7818609E-02  0.8152883E-01
        1   -1    0    0  501    0  0.00000000000E+00  0.00000000000E+00  0.21062346881E+04  0.21062346881E+04  0.50400001928E-02 0.  1.
       -1   -1    0    0    0  501  0.00000000000E+00  0.00000000000E+00 -0.13238281257E+04  0.13238281257E+04  0.50400001928E-02 0. -1.
    10030    2    1    2    0    0  0.00000000000E+00  0.00000000000E+00  0.78240656243E+03  0.34300628138E+04  0.33396363391E+04 0.  0.
        2    1    3    3  502    0  0.20654193371E+03  0.35801211646E+03 -0.12704597633E+04  0.13360015928E+04  0.25500000920E-02 0. -1.
       -2    1    3    3    0  502 -0.20654193371E+03 -0.35801211646E+03  0.20528663257E+04  0.20940612210E+04  0.25500000920E-02 0.  1.
</event>
<event>
 5   0  0.1391878E-06  0.3141789E+04  0.7818609E-02  0.8204362E-01
        1   -1    0    0  501    0  0.00000000000E+00  0.00000000000E+00  0.22651430613E+04  0.22651430613E+04  0.50400001928E-02 0.  1.
       -1   -1    0    0    0  501  0.00000000000E+00  0.00000000000E+00 -0.10894275650E+04  0.10894275650E+04  0.50400001928E-02 0. -1.
    10030    2    1    2    0    0  0.00000000000E+00  0.00000000000E+00  0.11757154963E+04  0.33545706263E+04  0.31417888469E+04 0.  0.
        2    1    3    3  502    0 -0.19949189290E+03 -0.14157695961E+03  0.22446814748E+04  0.22579716504E+04  0.25500000920E-02 0.  1.
       -2    1    3    3    0  502  0.19949189290E+03  0.14157695961E+03 -0.10689659784E+04  0.10965989759E+04  0.25500000920E-02 0. -1.
</event>
<event>
 5   0  0.1339825E-06  0.3267235E+04  0.7818609E-02  0.8171283E-01
       -1   -1    0    0    0  501  0.00000000000E+00  0.00000000000E+00  0.14902737721E+04  0.14902737721E+04  0.50400001928E-02 0.  1.
        1   -1    0    0  501    0  0.00000000000E+00  0.00000000000E+00 -0.17907483794E+04  0.17907483794E+04  0.50400001928E-02 0. -1.
    10030    2    1    2    0    0  0.00000000000E+00  0.00000000000E+00 -0.30047460731E+03  0.32810221516E+04  0.32672345140E+04 0.  0.
        3    1    3    3  502    0  0.76403573528E+03 -0.12002070515E+04  0.65593167660E+03  0.15666824649E+04  0.10100000352E+00 0.  1.
       -3    1    3    3    0  502 -0.76403573528E+03  0.12002070515E+04 -0.95640628391E+03  0.17143396867E+04  0.10100000352E+00 0. -1.
</event>
<event>
 5   0  0.1352708E-06  0.3349966E+04  0.7818609E-02  0.8150297E-01
       -1   -1    0    0    0  501  0.00000000000E+00  0.00000000000E+00  0.15590534025E+04  0.15590534025E+04  0.50400001928E-02 0. -1.
        1   -1    0    0  501    0  0.00000000000E+00  0.00000000000E+00 -0.17995333892E+04  0.17995333892E+04  0.50400001928E-02 0.  1.
    10030    2    1    2    0    0  0.00000000000E+00  0.00000000000E+00 -0.24047998664E+03  0.33585867917E+04  0.33499663601E+04 0.  0.
        5    1    3    3  502    0  0.61748815502E+03  0.96048582598E+03  0.11083610783E+04  0.15913236671E+04  0.46999998093E+01 0. -1.
       -5    1    3    3    0  502 -0.61748815502E+03 -0.96048582598E+03 -0.13488410649E+04  0.17672631247E+04  0.46999998093E+01 0.  1.
</event>
<event>
 5   0  0.1282578E-06  0.2265709E+04  0.7818609E-02  0.8491565E-01
        1   -1    0    0  501    0  0.00000000000E+00  0.00000000000E+00  0.14024396752E+04  0.14024396752E+04  0.50400001928E-02 0.  1.
       -1   -1    0    0    0  501  0.00000000000E+00  0.00000000000E+00 -0.91509082374E+03  0.91509082375E+03  0.50400001928E-02 0. -1.
    10030    2    1    2    0    0  0.00000000000E+00  0.00000000000E+00  0.48734885146E+03  0.23175304990E+04  0.22657093173E+04 0.  0.
        4    1    3    3  502    0 -0.10731416366E+04  0.90398044473E+02  0.60321542239E+03  0.12343724063E+04  0.12699999809E+01 0.  1.
       -4    1    3    3    0  502  0.10731416366E+04 -0.90398044473E+02 -0.11586657093E+03  0.10831580927E+04  0.12699999809E+01 0. -1.
</event>
<event>
 5   0  0.3920487E-06  0.3279979E+04  0.7818609E-02  0.8168008E-01
       -2   -1    0    0    0  501  0.00000000000E+00  0.00000000000E+00  0.11364632855E+04  0.11364632855E+04  0.25500000920E-02 0. -1.
        2   -1    0    0  501    0  0.00000000000E+00  0.00000000000E+00 -0.23666107056E+04  0.23666107056E+04  0.25500000920E-02 0.  1.
    10030    2    1    2    0    0  0.00000000000E+00  0.00000000000E+00 -0.12301474201E+04  0.35030739911E+04  0.32799793767E+04 0.  0.
        4    1    3    3  502    0  0.10026498491E+04  0.54226090353E+03  0.64419540250E+03  0.13093291935E+04  0.12699999809E+01 0. -1.
       -4    1    3    3    0  502 -0.10026498491E+04 -0.54226090353E+03 -0.18743428226E+04  0.21937447976E+04  0.12699999809E+01 0.  1.
</event>
<event>
 5   0  0.4017247E-06  0.2202945E+04  0.7818609E-02  0.8517203E-01
       -2   -1    0    0    0  501  0.00000000000E+00  0.00000000000E+00  0.69214130820E+03  0.69214130820E+03  0.25500000920E-02 0.  1.
        2   -1    0    0  501    0  0.00000000000E+00  0.00000000000E+00 -0.17528814395E+04  0.17528814395E+04  0.25500000920E-02 0. -1.
    10030    2    1    2    0    0  0.00000000000E+00  0.00000000000E+00 -0.10607401313E+04  0.24450227477E+04  0.22029449858E+04 0.  0.
        1    1    3    3  502    0 -0.49750017838E+03 -0.45149625141E+03  0.43840812128E+03  0.80222002802E+03  0.50400001928E-02 0.  1.
       -1    1    3    3    0  502  0.49750017838E+03  0.45149625141E+03 -0.14991482526E+04  0.16428027197E+04  0.50400001928E-02 0. -1.
</event>
<event>
 5   0  0.3812379E-06  0.3381659E+04  0.7818609E-02  0.8142422E-01
        2   -1    0    0  501    0  0.00000000000E+00  0.00000000000E+00  0.22602321374E+04  0.22602321374E+04  0.25500000920E-02 0. -1.
       -2   -1    0    0    0  501  0.00000000000E+00  0.00000000000E+00 -0.12648721982E+04  0.12648721982E+04  0.25500000920E-02 0.  1.
    10030    2    1    2    0    0  0.00000000000E+00  0.00000000000E+00  0.99535993921E+03  0.35251043356E+04  0.33816592331E+04 0.  0.
        5    1    3    3  502    0 -0.39582151953E+02  0.53906900945E+03  0.21677374856E+04  0.22341150464E+04  0.46999998093E+01 0. -1.
       -5    1    3    3    0  502  0.39582151953E+02 -0.53906900945E+03 -0.11723775464E+04  0.12909892893E+04  0.46999998093E+01 0.  1.
</event>
<event>
 5   0  0.3671997E-06  0.3344141E+04  0.7818609E-02  0.8151754E-01
       -2   -1    0    0    0  501  0.00000000000E+00  0.00000000000E+00  0.18514303229E+04  0.18514303229E+04  0.25500000920E-02 0. -1.
        2   -1    0    0  501    0  0.00000000000E+00  0.00000000000E+00 -0.15100862925E+04  0.15100862925E+04  0.25500000920E-02 0.  1.
    10030    2    1    2    0    0  0.00000000000E+00  0.00000000000E+00  0.34134403032E+03  0.33615166154E+04  0.33441408775E+04 0.  0.
        2    1    3    3  502    0  0.15205571587E+04 -0.62404049652E+03 -0.13800486221E+03  0.16494138220E+04  0.25500000920E-02 0.  1.
       -2    1    3    3    0  502 -0.15205571587E+04  0.62404049652E+03  0.47934889254E+03  0.17121027934E+04  0.25500000920E-02 0. -1.
</event>
<event>
 5   0  0.1391878E-06  0.3175609E+04  0.7818609E-02  0.8195289E-01
        1   -1    0    0  501    0  0.00000000000E+00  0.00000000000E+00  0.81750537158E+03  0.81750537159E+03  0.50400001928E-02 0. -1.
       -1   -1    0    0    0  501  0.00000000000E+00  0.00000000000E+00 -0.30839228269E+04  0.30839228269E+04  0.50400001928E-02 0.  1.
    10030    2    1    2    0    0  0.00000000000E+00  0.00000000000E+00 -0.22664174553E+04  0.39014281985E+04  0.31756092181E+04 0.  0.
        2    1    3    3  502    0 -0.11418747028E+03  0.13432173611E+04 -0.10249708123E+03  0.13519531461E+04  0.25500000920E-02 0. -1.
       -2    1    3    3    0  502  0.11418747028E+03 -0.13432173611E+04 -0.21639203741E+04  0.25494750524E+04  0.25500000920E-02 0.  1.
</event>
<event>
 5   0  0.1405389E-06  0.3328327E+04  0.7818609E-02  0.8155725E-01
       -1   -1    0    0    0  501  0.00000000000E+00  0.00000000000E+00  0.11425140088E+04  0.11425140088E+04  0.50400001928E-02 0. -1.
        1   -1    0    0  501    0  0.00000000000E+00  0.00000000000E+00 -0.24239882054E+04  0.24239882054E+04  0.50400001928E-02 0.  1.
    10030    2    1    2    0    0  0.00000000000E+00  0.00000000000E+00 -0.12814741966E+04  0.35665022143E+04  0.33283271966E+04 0.  0.
        1    1    3    3  502    0 -0.14218713035E+04  0.45666649284E+03 -0.14275702385E+04  0.20659668621E+04  0.50400001928E-02 0. -1.
       -1    1    3    3    0  502  0.14218713035E+04 -0.45666649284E+03  0.14609604185E+03  0.15005353521E+04  0.50400001928E-02 0.  1.
</event>
<event>
 5   0  0.3812379E-06  0.3306011E+04  0.7818609E-02  0.8161367E-01
       -2   -1    0    0    0  501  0.00000000000E+00  0.00000000000E+00  0.17060682363E+04  0.17060682363E+04  0.25500000920E-02 0.  1.
        2   -1    0    0  501    0  0.00000000000E+00  0.00000000000E+00 -0.16015935476E+04  0.16015935476E+04  0.25500000920E-02 0. -1.
    10030    2    1    2    0    0  0.00000000000E+00  0.00000000000E+00  0.10447468873E+03  0.33076617838E+04  0.33060114210E+04 0.  0.
        5    1    3    3  502    0  0.10491471468E+04  0.12177181425E+04 -0.33377721014E+03  0.16416383665E+04  0.46999998093E+01 0. -1.
       -5    1    3    3    0  502 -0.10491471468E+04 -0.12177181425E+04  0.43825189886E+03  0.16660234174E+04  0.46999998093E+01 0.  1.
</event>
<event>
 5   0  0.4017247E-06  0.3228424E+04  0.7818609E-02  0.8181351E-01
       -2   -1    0    0    0  501  0.00000000000E+00  0.00000000000E+00  0.14633722721E+04  0.14633722721E+04  0.25500000920E-02 0.  1.
        2   -1    0    0  501    0  0.00000000000E+00  0.00000000000E+00 -0.17805994655E+04  0.17805994655E+04  0.25500000920E-02 0. -1.
    10030    2    1    2    0    0  0.00000000000E+00  0.00000000000E+00 -0.31722719335E+03  0.32439717376E+04  0.32284236931E+04 0.  0.
        1    1    3    3  502    0  0.21873612726E+03 -0.68136856903E+03 -0.16124997835E+04  0.17641610392E+04  0.50400001928E-02 0. -1.
       -1    1    3    3    0  502 -0.21873612726E+03  0.68136856903E+03  0.12952725902E+04  0.14798106984E+04  0.50400001928E-02 0.  1.
</event>
<event>
 5   0  0.1352708E-06  0.3249145E+04  0.7818609E-02  0.8175957E-01
        1   -1    0    0  501    0  0.00000000000E+00  0.00000000000E+00  0.24163088081E+04  0.24163088081E+04  0.50400001928E-02 0. -1.
       -1   -1    0    0    0  501  0.00000000000E+00  0.00000000000E+00 -0.10922590661E+04  0.10922590662E+04  0.50400001928E-02 0.  1.
    10030    2    1    2    0    0  0.00000000000E+00  0.00000000000E+00  0.13240497420E+04  0.35085678743E+04  0.32491446273E+04 0.  0.
        5    1    3    3  502    0 -0.57115141400E+02  0.10453211276E+04  0.20034907952E+04  0.22605211469E+04  0.46999998093E+01 0. -1.
       -5    1    3    3    0  502  0.57115141400E+02 -0.10453211276E+04 -0.67944105316E+03  0.12480467274E+04  0.46999998093E+01 0.  1.
</event>
<event>
 5   0  0.1339825E-06  0.3357229E+04  0.7818609E-02  0.8148484E-01
       -1   -1    0    0    0  501  0.00000000000E+00  0.00000000000E+00  0.16339260298E+04  0.16339260298E+04  0.50400001928E-02 0.  1.
        1   -1    0    0  501    0  0.00000000000E+00  0.00000000000E+00 -0.17245251634E+04  0.17245251634E+04  0.50400001928E-02 0. -1.
    10030    2    1    2    0    0  0.00000000000E+00  0.00000000000E+00 -0.90599133587E+02  0.33584511932E+04  0.33572289487E+04 0.  0.
        3    1    3    3  502    0  0.41885324302E+03 -0.98467546086E+03 -0.13391082532E+04  0.17141279784E+04  0.10100000352E+00 0. -1.
       -3    1    3    3    0  502 -0.41885324302E+03  0.98467546086E+03  0.12485091196E+04  0.16443232147E+04  0.10100000352E+00 0.  1.
</event>
<event>
 5   0  0.3812379E-06  0.3189303E+04  0.7818609E-02  0.8191648E-01
        2   -1    0    0  501    0  0.00000000000E+00  0.00000000000E+00  0.18670219011E+04  0.18670219011E+04  0.25500000920E-02 0.  1.
       -2   -1    0    0    0  501  0.00000000000E+00  0.00000000000E+00 -0.13620156358E+04  0.13620156358E+04  0.25500000920E-02 0. -1.
    10030    2    1    2    0    0  0.00000000000E+00  0.00000000000E+00  0.50500626539E+03  0.32290375369E+04  0.31893027587E+04 0.  0.
        5    1    3    3  502    0 -0.81107093193E+02  0.56318823048E+03 -0.12557313743E+04  0.13786379938E+04  0.46999998093E+01 0. -1.
       -5    1    3    3    0  502  0.81107093193E+02 -0.56318823048E+03  0.17607376397E+04  0.18503995431E+04  0.46999998093E+01 0.  1.
</event>
<event>
 5   0  0.1339825E-06  0.3638439E+04  0.7818609E-02  0.8081743E-01
       -1   -1    0    0    0  501  0.00000000000E+00  0.00000000000E+00  0.11855773141E+04  0.11855773141E+04  0.50400001928E-02 0.  1.
        1   -1    0    0  501    0  0.00000000000E+00  0.00000000000E+00 -0.27915170574E+04  0.27915170574E+04  0.50400001928E-02 0. -1.
    10030    2    1    2    0    0  0.00000000000E+00  0.00000000000E+00 -0.16059397433E+04  0.39770943715E+04  0.36384388384E+04 0.  0.
        3    1    3    3  502    0  0.15789604863E+04  0.90342638915E+03 -0.82072445169E+03  0.19957164362E+04  0.10100000352E+00 0. -1.
       -3    1    3    3    0  502 -0.15789604863E+04 -0.90342638915E+03 -0.78521529156E+03  0.19813779353E+04  0.10100000352E+00 0.  1.
</event>
<event>
 5   0  0.3812379E-06  0.3286835E+04  0.7818609E-02  0.8166253E-01
       -2   -1    0    0    0  501  0.00000000000E+00  0.00000000000E+00  0.15542813264E+04  0.15542813264E+04  0.25500000920E-02 0.  1.
        2   -1    0    0  501    0  0.00000000000E+00  0.00000000000E+00 -0.17376651522E+04  0.17376651522E+04  0.25500000920E-02 0. -1.
    10030    2    1    2    0    0  0.00000000000E+00  0.00000000000E+00 -0.18338382582E+03  0.32919464787E+04  0.32868346461E+04 0.  0.
        5    1    3    3  502    0  0.64733282575E+03 -0.54151359456E+03  0.13206507272E+04  0.15672961410E+04  0.46999998093E+01 0.  1.
       -5    1    3    3    0  502 -0.64733282575E+03  0.54151359456E+03 -0.15040345530E+04  0.17246503376E+04  0.46999998093E+01 0. -1.
</event>
<event>
 5   0  0.1391878E-06  0.3261095E+04  0.7818609E-02  0.8172866E-01
        1   -1    0    0  501    0  0.00000000000E+00  0.00000000000E+00  0.15497064113E+04  0.15497064113E+04  0.50400001928E-02 0. -1.
       -1   -1    0    0    0  501  0.00000000000E+00  0.00000000000E+00 -0.17156053733E+04  0.17156053733E+04  0.50400001928E-02 0.  1.
    10030    2    1    2    0    0  0.00000000000E+00  0.00000000000E+00 -0.16589896202E+03  0.32653117846E+04  0.32610946912E+04 0.  0.
        2    1    3    3  502    0 -0.10640700986E+04  0.90642367031E+03  0.75768105629E+03  0.15899464230E+04  0.25500000920E-02 0. -1.
       -2    1    3    3    0  502  0.10640700986E+04 -0.90642367031E+03 -0.92358001831E+03  0.16753653617E+04  0.25500000920E-02 0.  1.
</event>
<event>
 5   0  0.4017247E-06  0.3277731E+04  0.7818609E-02  0.8168585E-01
       -2   -1    0    0    0  501  0.00000000000E+00  0.00000000000E+00  0.22652726178E+04  0.22652726178E+04  0.25500000920E-02 0.  1.
        2   -1    0    0  501    0  0.00000000000E+00  0.00000000000E+00 -0.11856764002E+04  0.11856764002E+04  0.25500000920E-02 0. -1.
    10030    2    1    2    0    0  0.00000000000E+00  0.00000000000E+00  0.10795962176E+04  0.34509490180E+04  0.32777310951E+04 0.  0.
        1    1    3    3  502    0 -0.47048881059E+03 -0.23123889936E+03  0.21746117486E+04  0.22369102366E+04  0.50400001928E-02 0.  1.
       -1    1    3    3    0  502  0.47048881059E+03  0.23123889936E+03 -0.10950155310E+04  0.12140387813E+04  0.50400001928E-02 0. -1.
</event>
<event>
 5   0  0.1391878E-06  0.3128163E+04  0.7818609E-02  0.8208051E-01
        1   -1    0    0  501    0  0.00000000000E+00  0.00000000000E+00  0.16547801928E+04  0.16547801928E+04  0.50400001928E-02 0. -1.
       -1   -1    0    0    0  501  0.00000000000E+00  0.00000000000E+00 -0.14783544151E+04  0.14783544151E+04  0.50400001928E-02 0.  1.
    10030    2    1    2    0    0  0.00000000000E+00  0.00000000000E+00  0.17642577768E+03  0.31331346079E+04  0.31281634254E+04 0.  0.
        2    1    3    3  502    0  0.48353282442E+03 -0.13982556240E+04  0.59639363223E+03  0.15951827942E+04  0.25500000920E-02 0.  1.
       -2    1    3    3    0  502 -0.48353282442E+03  0.13982556240E+04 -0.41996785455E+03  0.15379518137E+04  0.25500000920E-02 0. -1.
</event>
<event>
 5   0  0.3920487E-06  0.3247313E+04  0.7818609E-02  0.8176433E-01
       -2   -1    0    0    0  501  0.00000000000E+00  0.00000000000E+00  0.15416963918E+04  0.15416963918E+04  0.25500000920E-02 0. -1.
        2   -1    0    0  501    0  0.00000000000E+00  0.00000000000E+00 -0.17099734432E+04  0.17099734432E+04  0.25500000920E-02 0.  1.
    10030    2    1    2    0    0  0.00000000000E+00  0.00000000000E+00 -0.16827705144E+03  0.32516698350E+04  0.32473126658E+04 0.  0.
        4    1    3    3  502    0  0.11533242691E+04  0.10240000498E+04  0.42401189443E+03  0.15995376429E+04  0.12699999809E+01 0.  1.
       -4    1    3    3    0  502 -0.11533242691E+04 -0.10240000498E+04 -0.59228894587E+03  0.16521321920E+04  0.12699999809E+01 0. -1.
</event>
<event>
 5   0  0.1282578E-06  0.2809352E+04  0.7818609E-02  0.8300371E-01
        1   -1    0    0  501    0  0.00000000000E+00  0.00000000000E+00  0.16806855648E+04  0.16806855648E+04  0.50400001928E-02 0. -1.
       -1   -1    0    0    0  501  0.00000000000E+00  0.00000000000E+00 -0.11739941348E+04  0.11739941349E+04  0.50400001928E-02 0.  1.
    10030    2    1    2    0    0  0.00000000000E+00  0.00000000000E+00  0.50669142999E+03  0.28546796997E+04  0.28093522354E+04 0.  0.
        4    1    3    3  502    0  0.13411757555E+04  0.30309122171E+03 -0.38510836009E+02  0.13755367655E+04  0.12699999809E+01 0. -1.
       -4    1    3    3    0  502 -0.13411757555E+04 -0.30309122171E+03  0.54520226600E+03  0.14791429342E+04  0.12699999809E+01 0.  1.
</event>
<event>
 5   0  0.1391878E-06  0.3247209E+04  0.7818609E-02  0.8176460E-01
        1   -1    0    0  501    0  0.00000000000E+00  0.00000000000E+00  0.19023078350E+04  0.19023078350E+04  0.50400001928E-02 0.  1.
       -1   -1    0    0    0  501  0.00000000000E+00  0.00000000000E+00 -0.13857333130E+04  0.13857333130E+04  0.50400001928E-02 0. -1.
    10030    2    1    2    0    0  0.00000000000E+00  0.00000000000E+00  0.51657452193E+03  0.32880411480E+04  0.32472088560E+04 0.  0.
        2    1    3    3  502    0 -0.10461775223E+04 -0.92090934053E+03 -0.58496909080E+03  0.15115390365E+04  0.25500000920E-02 0. -1.
       -2    1    3    3    0  502  0.10461775223E+04  0.92090934053E+03  0.11015436127E+04  0.17765021115E+04  0.25500000920E-02 0.  1.
</event>
<event>
 5   0  0.1352708E-06  0.3278314E+04  0.7818609E-02  0.8168435E-01
       -1   -1    0    0    0  501  0.00000000000E+00  0.00000000000E+00  0.13148132290E+04  0.13148132290E+04  0.50400001928E-02 0. -1.
        1   -1    0    0  501    0  0.00000000000E+00  0.00000000000E+00 -0.20435112474E+04  0.20435112474E+04  0.50400001928E-02 0.  1.
    10030    2    1    2    0    0  0.00000000000E+00  0.00000000000E+00 -0.72869801843E+03  0.33583244764E+04  0.32783139702E+04 0.  0.
        5    1    3    3  502    0 -0.51907524948E+03 -0.13013567038E+04 -0.12359043003E+04  0.18682745822E+04  0.46999998093E+01 0.  1.
       -5    1    3    3    0  502  0.51907524948E+03  0.13013567038E+04  0.50720628185E+03  0.14900498943E+04  0.46999998093E+01 0. -1.
</event>
<event>
 5   0  0.1391878E-06  0.2079563E+04  0.7818609E-02  0.8570300E-01
        1   -1    0    0  501    0  0.00000000000E+00  0.00000000000E+00  0.17811365475E+04  0.17811365475E+04  0.50400001928E-02 0.  1.
       -1   -1    0    0    0  501  0.00000000000E+00  0.00000000000E+00 -0.60699772534E+03  0.60699772536E+03  0.50400001928E-02 0. -1.
    10030    2    1    2    0    0  0.00000000000E+00  0.00000000000E+00  0.11741388222E+04  0.23881342729E+04  0.20795632550E+04 0.  0.
        2    1    3    3  502    0 -0.82352818198E+03 -0.46477814689E+03  0.10835751786E+04  0.14381768181E+04  0.25500000920E-02 0.  1.
       -2    1    3    3    0  502  0.82352818198E+03  0.46477814689E+03  0.90563643523E+02  0.94995745477E+03  0.25500000920E-02 0. -1.
</event>
<event>
 5   0  0.1339825E-06  0.3202843E+04  0.7818609E-02  0.8188067E-01
       -1   -1    0    0    0  501  0.00000000000E+00  0.00000000000E+00  0.10816575196E+04  0.10816575196E+04  0.50400001928E-02 0.  1.
        1   -1    0    0  501    0  0.00000000000E+00  0.00000000000E+00 -0.23709456709E+04  0.23709456709E+04  0.50400001928E-02 0. -1.
    10030    2    1    2    0    0  0.00000000000E+00  0.00000000000E+00 -0.12892881513E+04  0.34526031905E+04  0.32028432453E+04 0.  0.
        3    1    3    3  502    0 -0.58593217110E+03  0.74385011921E+03  0.74754689421E+03  0.12064227610E+04  0.10100000352E+00 0.  1.
       -3    1    3    3    0  502  0.58593217110E+03 -0.74385011921E+03 -0.20368350455E+04  0.22461804295E+04  0.10100000352E+00 0. -1.
</event>
<event>
 5   0  0.1352708E-06  0.3273545E+04  0.7818609E-02  0.8169660E-01
        1   -1    0    0  501    0  0.00000000000E+00  0.00000000000E+00  0.15090055350E+04  0.15090055350E+04  0.50400001928E-02 0. -1.
       -1   -1    0    0    0  501  0.00000000000E+00  0.00000000000E+00 -0.17753569264E+04  0.17753569264E+04  0.50400001928E-02 0.  1.
    10030    2    1    2    0    0  0.00000000000E+00  0.00000000000E+00 -0.26635139143E+03  0.32843624614E+04  0.32735445185E+04 0.  0.
        5    1    3    3  502    0  0.37057855352E+02  0.16363277009E+04 -0.12542297826E+03  0.16415525099E+04  0.46999998093E+01 0.  1.
       -5    1    3    3    0  502 -0.37057855352E+02 -0.16363277009E+04 -0.14092841317E+03  0.16428099515E+04  0.46999998093E+01 0. -1.
</event>
<event>
 5   0  0.1352708E-06  0.3249525E+04  0.7818609E-02  0.8175859E-01
       -1   -1    0    0    0  501  0.00000000000E+00  0.00000000000E+00  0.29609838918E+04  0.29609838918E+04  0.50400001928E-02 0.  1.
        1   -1    0    0  501    0  0.00000000000E+00  0.00000000000E+00 -0.89154578401E+03  0.89154578403E+03  0.50400001928E-02 0. -1.
    10030    2    1    2    0    0  0.00000000000E+00  0.00000000000E+00  0.20694381078E+04  0.38525296758E+04  0.32495247070E+04 0.  0.
        5    1    3    3  502    0  0.11519904244E+04 -0.14331715491E+03  0.23824168196E+04  0.26501988109E+04  0.46999998093E+01 0.  1.
       -5    1    3    3    0  502 -0.11519904244E+04  0.14331715491E+03 -0.31297871187E+03  0.12023308649E+04  0.46999998093E+01 0. -1.
</event>
<event>
 5   0  0.1352708E-06  0.3165647E+04  0.7818609E-02  0.8197949E-01
       -1   -1    0    0    0  501  0.00000000000E+00  0.00000000000E+00  0.95458406447E+03  0.95458406448E+03  0.50400001928E-02 0.  1.
        1   -1    0    0  501    0  0.00000000000E+00  0.00000000000E+00 -0.26245258391E+04  0.26245258391E+04  0.50400001928E-02 0. -1.
    10030    2    1    2    0    0  0.00000000000E+00  0.00000000000E+00 -0.16699417746E+04  0.35791099036E+04  0.31656471963E+04 0.  0.
        5    1    3    3  502    0 -0.29447280436E+03 -0.97945770019E+03 -0.22007434701E+04  0.24267973813E+04  0.46999998093E+01 0. -1.
       -5    1    3    3    0  502  0.29447280436E+03  0.97945770019E+03  0.53080169547E+03  0.11523125222E+04  0.46999998093E+01 0.  1.
</event>
<event>
 5   0  0.3920487E-06  0.3330991E+04  0.7818609E-02  0.8155054E-01
       -2   -1    0    0    0  501  0.00000000000E+00  0.00000000000E+00  0.13608630893E+04  0.13608630893E+04  0.25500000920E-02 0. -1.
        2   -1    0    0  501    0  0.00000000000E+00  0.00000000000E+00 -0.20383206843E+04  0.20383206844E+04  0.25500000920E-02 0.  1.
    10030    2    1    2    0    0  0.00000000000E+00  0.00000000000E+00 -0.67745759507E+03  0.33991837736E+04  0.33309910738E+04 0.  0.
        4    1    3    3  502    0  0.82144710511E+03  0.12108610549E+04 -0.11505745132E+04  0.18613928022E+04  0.12699999809E+01 0.  1.
       -4    1    3    3    0  502 -0.82144710511E+03 -0.12108610549E+04  0.47311691817E+03  0.15377909714E+04  0.12699999809E+01 0. -1.
</event>
<event>
 5   0  0.1282578E-06  0.3249113E+04  0.7818609E-02  0.8175966E-01
       -1   -1    0    0    0  501  0.00000000000E+00  0.00000000000E+00  0.89847110852E+03  0.89847110853E+03  0.50400001928E-02 0. -1.
        1   -1    0    0  501    0  0.00000000000E+00  0.00000000000E+00 -0.29374158011E+04  0.29374158011E+04  0.50400001928E-02 0.  1.
    10030    2    1    2    0    0  0.00000000000E+00  0.00000000000E+00 -0.20389446926E+04  0.38358869096E+04  0.32491126364E+04 0.  0.
        4    1    3    3  502    0  0.48776220844E+03  0.87013571166E+03  0.49433136389E+03  0.11132893779E+04  0.12699999809E+01 0. -1.
       -4    1    3    3    0  502 -0.48776220844E+03 -0.87013571166E+03 -0.25332760565E+04  0.27225975317E+04  0.12699999809E+01 0.  1.
</event>
<event>
 5   0  0.3896210E-06  0.3281202E+04  0.7818609E-02  0.8167695E-01
        2   -1    0    0  501    0  0.00000000000E+00  0.00000000000E+00  0.18384182446E+04  0.18384182446E+04  0.25500000920E-02 0. -1.
       -2   -1    0    0    0  501  0.00000000000E+00  0.00000000000E+00 -0.14640695357E+04  0.14640695357E+04  0.25500000920E-02 0.  1.
    10030    2    1    2    0    0  0.00000000000E+00  0.00000000000E+00  0.37434870893E+03  0.33024877803E+04  0.32812023076E+04 0.  0.
        3    1    3    3  502    0 -0.26220213808E+03  0.16183046959E+04  0.12422193909E+03  0.16441080105E+04  0.10100000352E+00 0. -1.
       -3    1    3    3    0  502  0.26220213808E+03 -0.16183046959E+04  0.25012676985E+03  0.16583797698E+04  0.10100000352E+00 0.  1.
</event>
<event>
 5   0  0.4017247E-06  0.3533474E+04  0.7818609E-02  0.8105903E-01
        2   -1    0    0  501    0  0.00000000000E+00  0.00000000000E+00  0.16810281708E+04  0.16810281708E+04  0.25500000920E-02 0. -1.
       -2   -1    0    0    0  501  0.00000000000E+00  0.00000000000E+00 -0.18568159629E+04  0.18568159629E+04  0.25500000920E-02 0.  1.
    10030    2    1    2    0    0  0.00000000000E+00  0.00000000000E+00 -0.17578779211E+03  0.35378441336E+04  0.35334741779E+04 0.  0.
        1    1    3    3  502    0  0.73321114289E+03 -0.33524376116E+03  0.14861104265E+04  0.16907132102E+04  0.50400001928E-02 0. -1.
       -1    1    3    3    0  502 -0.73321114289E+03  0.33524376116E+03 -0.16618982186E+04  0.18471309234E+04  0.50400001928E-02 0.  1.
</event>
<event>
 5   0  0.1282578E-06  0.3269562E+04  0.7818609E-02  0.8170684E-01
       -1   -1    0    0    0  501  0.00000000000E+00  0.00000000000E+00  0.21745045657E+04  0.21745045657E+04  0.50400001928E-02 0. -1.
        1   -1    0    0  501    0  0.00000000000E+00  0.00000000000E+00 -0.12290194905E+04  0.12290194905E+04  0.50400001928E-02 0.  1.
    10030    2    1    2    0    0  0.00000000000E+00  0.00000000000E+00  0.94548507515E+03  0.34035240562E+04  0.32695617403E+04 0.  0.
        4    1    3    3  502    0 -0.13532028479E+04 -0.42381590531E+03 -0.37405457691E+03  0.14665252499E+04  0.12699999809E+01 0. -1.
       -4    1    3    3    0  502  0.13532028479E+04  0.42381590531E+03  0.13195396521E+04  0.19369988063E+04  0.12699999809E+01 0.  1.
</event>
<event>
 5   0  0.4017247E-06  0.2092262E+04  0.7818609E-02  0.8564660E-01
        2   -1    0    0  501    0  0.00000000000E+00  0.00000000000E+00  0.12480510612E+04  0.12480510612E+04  0.25500000920E-02 0.  1.
       -2   -1    0    0    0  501  0.00000000000E+00  0.00000000000E+00 -0.87687923483E+03  0.87687923483E+03  0.25500000920E-02 0. -1.
    10030    2    1    2    0    0  0.00000000000E+00  0.00000000000E+00  0.37117182637E+03  0.21249302960E+04  0.20922619908E+04 0.  0.
        1    1    3    3  502    0 -0.65203577088E+03  0.41464855511E+03  0.90179605682E+03  0.11875690291E+04  0.50400001928E-02 0.  1.
       -1    1    3    3    0  502  0.65203577088E+03 -0.41464855511E+03 -0.53062423045E+03  0.93736126693E+03  0.50400001928E-02 0. -1.
</event>
<event>
 5   0  0.3896210E-06  0.3343268E+04  0.7818609E-02  0.8151972E-01
       -2   -1    0    0    0  501  0.00000000000E+00  0.00000000000E+00  0.12077734774E+04  0.12077734774E+04  0.25500000920E-02 0. -1.
        2   -1    0    0  501    0  0.00000000000E+00  0.00000000000E+00 -0.23136458814E+04  0.23136458814E+04  0.25500000920E-02 0.  1.
    10030    2    1    2    0    0  0.00000000000E+00  0.00000000000E+00 -0.11058724040E+04  0.35214193588E+04  0.33432679412E+04 0.  0.
        3    1    3    3  502    0  0.96569845109E+03  0.13632646816E+04 -0.49246589001E+03  0.17417194819E+04  0.10100000352E+00 0.  1.
       -3    1    3    3    0  502 -0.96569845109E+03 -0.13632646816E+04 -0.61340651397E+03  0.17796998770E+04  0.10100000352E+00 0. -1.
</event>
<event>
 5   0  0.1391878E-06  0.3269858E+04  0.7818609E-02  0.8170608E-01
       -1   -1    0    0    0  501  0.00000000000E+00  0.00000000000E+00  0.16681776684E+04  0.16681776684E+04  0.50400001928E-02 0.  1.
        1   -1    0    0  501    0  0.00000000000E+00  0.00000000000E+00 -0.16023432562E+04  0.16023432562E+04  0.50400001928E-02 0. -1.
    10030    2    1    2    0    0  0.00000000000E+00  0.00000000000E+00  0.65834412178E+02  0.32705209246E+04  0.32698582459E+04 0.  0.
        2    1    3    3  502    0 -0.48731377392E+03  0.13810271641E+04 -0.69406053967E+03  0.16206266612E+04  0.25500000920E-02 0. -1.
       -2    1    3    3    0  502  0.48731377392E+03 -0.13810271641E+04  0.75989495185E+03  0.16498942633E+04  0.25500000920E-02 0.  1.
</event>
<event>
 5   0  0.3896210E-06  0.3145303E+04  0.7818609E-02  0.8203414E-01
       -2   -1    0    0    0  501  0.00000000000E+00  0.00000000000E+00  0.14587789233E+04  0.14587789233E+04  0.25500000920E-02 0. -1.
        2   -1    0    0  501    0  0.00000000000E+00  0.00000000000E+00 -0.16954134823E+04  0.16954134823E+04  0.25500000920E-02 0.  1.
    10030    2    1    2    0    0  0.00000000000E+00  0.00000000000E+00 -0.23663455907E+03  0.31541924056E+04  0.31453034539E+04 0.  0.
        3    1    3    3  502    0 -0.91167428537E+03 -0.31852970937E+03 -0.13630431470E+04  0.16704783174E+04  0.10100000352E+00 0.  1.
       -3    1    3    3    0  502  0.91167428537E+03  0.31852970937E+03  0.11264085879E+04  0.14837140882E+04  0.10100000352E+00 0. -1.
</event>
<event>
 5   0  0.1282578E-06  0.2384310E+04  0.7818609E-02  0.8445401E-01
       -1   -1    0    0    0  501  0.00000000000E+00  0.00000000000E+00  0.11449475617E+04  0.11449475617E+04  0.50400001928E-02 0.  1.
        1   -1    0    0  501    0  0.00000000000E+00  0.00000000000E+00 -0.12413092203E+04  0.12413092204E+04  0.50400001928E-02 0. -1.
    10030    2    1    2    0    0  0.00000000000E+00  0.00000000000E+00 -0.96361658693E+02  0.23862567820E+04  0.23843103532E+04 0.  0.
        4    1    3    3  502    0 -0.13493098189E+03 -0.78514318826E+03 -0.93579612970E+03  0.12289720116E+04  0.12699999809E+01 0. -1.
       -4    1    3    3    0  502  0.13493098189E+03  0.78514318826E+03  0.83943447100E+03  0.11572847705E+04  0.12699999809E+01 0.  1.
</event>
<event>
 5   0  0.1391878E-06  0.3258634E+04  0.7818609E-02  0.8173501E-01
        1   -1    0    0  501    0  0.00000000000E+00  0.00000000000E+00  0.16363264617E+04  0.16363264618E+04  0.50400001928E-02 0. -1.
       -1   -1    0    0    0  501  0.00000000000E+00  0.00000000000E+00 -0.16223378539E+04  0.16223378539E+04  0.50400001928E-02 0.  1.
    10030    2    1    2    0    0  0.00000000000E+00  0.00000000000E+00  0.13988607885E+02  0.32586643156E+04  0.32586342907E+04 0.  0.
        2    1    3    3  502    0  0.36292462673E+03  0.24064577304E+03 -0.15630678328E+04  0.16225922848E+04  0.25500000920E-02 0.  1.
       -2    1    3    3    0  502 -0.36292462673E+03 -0.24064577304E+03  0.15770564407E+04  0.16360720308E+04  0.25500000920E-02 0. -1.
</event>
<event>
 5   0  0.1405389E-06  0.3491833E+04  0.7818609E-02  0.8115728E-01
       -1   -1    0    0    0  501  0.00000000000E+00  0.00000000000E+00  0.11112287046E+04  0.11112287046E+04  0.50400001928E-02 0. -1.
        1   -1    0    0  501    0  0.00000000000E+00  0.00000000000E+00 -0.27431117944E+04  0.27431117944E+04  0.50400001928E-02 0.  1.
    10030    2    1    2    0    0  0.00000000000E+00  0.00000000000E+00 -0.16318830899E+04  0.38543404990E+04  0.34918330807E+04 0.  0.
        1    1    3    3  502    0  0.10065817899E+04  0.14195978505E+04 -0.66077939924E+03  0.18614763956E+04  0.50400001928E-02 0. -1.
       -1    1    3    3    0  502 -0.10065817899E+04 -0.14195978505E+04 -0.97110369061E+03  0.19928641034E+04  0.50400001928E-02 0.  1.
</event>
<event>
 5   0  0.4017247E-06  0.3355816E+04  0.7818609E-02  0.8148836E-01
        2   -1    0    0  501    0  0.00000000000E+00  0.00000000000E+00  0.10370124775E+04  0.10370124775E+04  0.25500000920E-02 0.  1.
       -2   -1    0    0    0  501  0.00000000000E+00  0.00000000000E+00 -0.27148904211E+04  0.27148904211E+04  0.25500000920E-02 0. -1.
    10030    2    1    2    0    0  0.00000000000E+00  0.00000000000E+00 -0.16778779436E+04  0.37519028986E+04  0.33558159912E+04 0.  0.
        1    1    3    3  502    0  0.77684026295E+03  0.53921792205E+03  0.71070805128E+03  0.11829381623E+04  0.50400001928E-02 0.  1.
       -1    1    3    3    0  502 -0.77684026295E+03 -0.53921792205E+03 -0.23885859949E+04  0.25689647363E+04  0.50400001928E-02 0. -1.
</event>
<event>
 5   0  0.1405389E-06  0.3295518E+04  0.7818609E-02  0.8164037E-01
        1   -1    0    0  501    0  0.00000000000E+00  0.00000000000E+00  0.14971559669E+04  0.14971559670E+04  0.50400001928E-02 0.  1.
       -1   -1    0    0    0  501  0.00000000000E+00  0.00000000000E+00 -0.18135114757E+04  0.18135114757E+04  0.50400001928E-02 0. -1.
    10030    2    1    2    0    0  0.00000000000E+00  0.00000000000E+00 -0.31635550877E+03  0.33106674427E+04  0.32955178816E+04 0.  0.
        1    1    3    3  502    0  0.14930404158E+04  0.47685991496E+03 -0.66898789229E+03  0.17041449063E+04  0.50400001928E-02 0. -1.
       -1    1    3    3    0  502 -0.14930404158E+04 -0.47685991496E+03  0.35263238352E+03  0.16065225363E+04  0.50400001928E-02 0.  1.
</event>
<event>
 5   0  0.1282578E-06  0.3303259E+04  0.7818609E-02  0.8162067E-01
        1   -1    0    0  501    0  0.00000000000E+00  0.00000000000E+00  0.76034738250E+03  0.76034738251E+03  0.50400001928E-02 0.  1.
       -1   -1    0    0    0  501  0.00000000000E+00  0.00000000000E+00 -0.35876758695E+04  0.35876758695E+04  0.50400001928E-02 0. -1.
    10030    2    1    2    0    0  0.00000000000E+00  0.00000000000E+00 -0.28273284870E+04  0.43480232520E+04  0.33032589706E+04 0.  0.
        4    1    3    3  502    0  0.15371148328E+04 -0.48454872924E+02 -0.62081989028E+03  0.16584597773E+04  0.12699999809E+01 0.  1.
       -4    1    3    3    0  502 -0.15371148328E+04  0.48454872924E+02 -0.22065085967E+04  0.26895634746E+04  0.12699999809E+01 0. -1.
</event>
<event>
 5   0  0.3671997E-06  0.3307178E+04  0.7818609E-02  0.8161071E-01
       -2   -1    0    0    0  501  0.00000000000E+00  0.00000000000E+00  0.11653704771E+04  0.11653704771E+04  0.25500000920E-02 0. -1.
        2   -1    0    0  501    0  0.00000000000E+00  0.00000000000E+00 -0.23463410344E+04  0.23463410344E+04  0.25500000920E-02 0.  1.
    10030    2    1    2    0    0  0.00000000000E+00  0.00000000000E+00 -0.11809705573E+04  0.35117115115E+04  0.33071779938E+04 0.  0.
        2    1    3    3  502    0 -0.10149811318E+04  0.37738236697E+02 -0.19760798006E+04  0.22218240819E+04  0.25500000920E-02 0.  1.
       -2    1    3    3    0  502  0.10149811318E+04 -0.37738236697E+02  0.79510924329E+03  0.12898874296E+04  0.25500000920E-02 0. -1.
</event>
<event>
 5   0  0.3671997E-06  0.2095766E+04  0.7818609E-02  0.8563111E-01
       -2   -1    0    0    0  501  0.00000000000E+00  0.00000000000E+00  0.43603662536E+03  0.43603662537E+03  0.25500000920E-02 0. -1.
        2   -1    0    0  501    0  0.00000000000E+00  0.00000000000E+00 -0.25182722119E+04  0.25182722119E+04  0.25500000920E-02 0.  1.
    10030    2    1    2    0    0  0.00000000000E+00  0.00000000000E+00 -0.20822355866E+04  0.29543088373E+04  0.20957661292E+04 0.  0.
        2    1    3    3  502    0 -0.31035217183E+03 -0.23902450418E+03 -0.24111753885E+04  0.24427889672E+04  0.25500000920E-02 0.  1.
       -2    1    3    3    0  502  0.31035217183E+03  0.23902450418E+03  0.32893980196E+03  0.51151987007E+03  0.25500000920E-02 0. -1.
</event>
<event>
 5   0  0.3812379E-06  0.3469211E+04  0.7818609E-02  0.8121126E-01
       -2   -1    0    0    0  501  0.00000000000E+00  0.00000000000E+00  0.10211234719E+04  0.10211234719E+04  0.25500000920E-02 0.  1.
        2   -1    0    0  501    0  0.00000000000E+00  0.00000000000E+00 -0.29466130184E+04  0.29466130184E+04  0.25500000920E-02 0. -1.
    10030    2    1    2    0    0  0.00000000000E+00  0.00000000000E+00 -0.19254895464E+04  0.39677364903E+04  0.34692106974E+04 0.  0.
        5    1    3    3  502    0 -0.50503525111E+03 -0.33959342225E+03  0.89500203442E+03  0.10823285217E+04  0.46999998093E+01 0.  1.
       -5    1    3    3    0  502  0.50503525111E+03  0.33959342225E+03 -0.28204915809E+04  0.28854079686E+04  0.46999998093E+01 0. -1.
</event>
<event>
 5   0  0.4017247E-06  0.3366182E+04  0.7818609E-02  0.8146257E-01
       -2   -1    0    0    0  501  0.00000000000E+00  0.00000000000E+00  0.11002279091E+04  0.11002279091E+04  0.25500000920E-02 0.  1.
        2   -1    0    0  501    0  0.00000000000E+00  0.00000000000E+00 -0.25747353653E+04  0.25747353653E+04  0.25500000920E-02 0. -1.
    10030    2    1    2    0    0  0.00000000000E+00  0.00000000000E+00 -0.14745074563E+04  0.36749632744E+04  0.33661822336E+04 0.  0.
        1    1    3    3  502    0  0.16338308272E+04  0.15791016183E+03 -0.11434843965E+04  0.20004737829E+04  0.50400001928E-02 0. -1.
       -1    1    3    3    0  502 -0.16338308272E+04 -0.15791016183E+03 -0.33102305981E+03  0.16744894915E+04  0.50400001928E-02 0.  1.
</event>
<event>
 5   0  0.1339825E-06  0.3148632E+04  0.7818609E-02  0.8202516E-01
       -1   -1    0    0    0  501  0.00000000000E+00  0.00000000000E+00  0.12984632717E+04  0.12984632717E+04  0.50400001928E-02 0.  1.
        1   -1    0    0  501    0  0.00000000000E+00  0.00000000000E+00 -0.19087728927E+04  0.19087728927E+04  0.50400001928E-02 0. -1.
    10030    2    1    2    0    0  0.00000000000E+00  0.00000000000E+00 -0.61030962098E+03  0.32072361644E+04  0.31486323985E+04 0.  0.
        3    1    3    3  502    0 -0.74425560666E+03 -0.43056907251E+03  0.10381649942E+04  0.13479958085E+04  0.10100000352E+00 0.  1.
       -3    1    3    3    0  502  0.74425560666E+03  0.43056907251E+03 -0.16484746152E+04  0.18592403560E+04  0.10100000352E+00 0. -1.
</event>
<event>
 5   0  0.3920487E-06  0.3272963E+04  0.7818609E-02  0.8169809E-01
       -2   -1    0    0    0  501  0.00000000000E+00  0.00000000000E+00  0.12261834697E+04  0.12261834697E+04  0.25500000920E-02 0.  1.
        2   -1    0    0  501    0  0.00000000000E+00  0.00000000000E+00 -0.21840711702E+04  0.21840711702E+04  0.25500000920E-02 0. -1.
    10030    2    1    2    0    0  0.00000000000E+00  0.00000000000E+00 -0.95788770046E+03  0.34102546399E+04  0.32729631623E+04 0.  0.
        4    1    3    3  502    0  0.11220108502E+04  0.28270077943E+02 -0.17198512047E+04  0.20536789730E+04  0.12699999809E+01 0. -1.
       -4    1    3    3    0  502 -0.11220108502E+04 -0.28270077943E+02  0.76196350420E+03  0.13565756668E+04  0.12699999809E+01 0.  1.
</event>
<event>
 5   0  0.3812379E-06  0.3226400E+04  0.7818609E-02  0.8181880E-01
        2   -1    0    0  501    0  0.00000000000E+00  0.00000000000E+00  0.25916289333E+04  0.25916289333E+04  0.25500000920E-02 0. -1.
       -2   -1    0    0    0  501  0.00000000000E+00  0.00000000000E+00 -0.10041617629E+04  0.10041617629E+04  0.25500000920E-02 0.  1.
    10030    2    1    2    0    0  0.00000000000E+00  0.00000000000E+00  0.15874671705E+04  0.35957906962E+04  0.32264002717E+04 0.  0.
        5    1    3    3  502    0  0.95004207312E+03  0.67189352805E+03  0.20389594195E+04  0.23476367815E+04  0.46999998093E+01 0. -1.
       -5    1    3    3    0  502 -0.95004207312E+03 -0.67189352805E+03 -0.45149224902E+03  0.12481539147E+04  0.46999998093E+01 0.  1.
</event>
<event>
 5   0  0.3896210E-06  0.3353144E+04  0.7818609E-02  0.8149503E-01
        2   -1    0    0  501    0  0.00000000000E+00  0.00000000000E+00  0.14194560723E+04  0.14194560723E+04  0.25500000920E-02 0. -1.
       -2   -1    0    0    0  501  0.00000000000E+00  0.00000000000E+00 -0.19802616855E+04  0.19802616855E+04  0.25500000920E-02 0.  1.
    10030    2    1    2    0    0  0.00000000000E+00  0.00000000000E+00 -0.56080561324E+03  0.33997177579E+04  0.33531444790E+04 0.  0.
        3    1    3    3  502    0 -0.16423153493E+04 -0.27246264496E+03 -0.48180439397E+03  0.17330813841E+04  0.10100000352E+00 0. -1.
       -3    1    3    3    0  502  0.16423153493E+04  0.27246264496E+03 -0.79001219266E+02  0.16666363738E+04  0.10100000352E+00 0.  1.
</event>
<event>
 5   0  0.1405389E-06  0.3535746E+04  0.7818609E-02  0.8105371E-01
       -1   -1    0    0    0  501  0.00000000000E+00  0.00000000000E+00  0.22388157395E+04  0.22388157396E+04  0.50400001928E-02 0.  1.
        1   -1    0    0  501    0  0.00000000000E+00  0.00000000000E+00 -0.13959944131E+04  0.13959944131E+04  0.50400001928E-02 0. -1.
    10030    2    1    2    0    0  0.00000000000E+00  0.00000000000E+00  0.84282132649E+03  0.36348101526E+04  0.35357456154E+04 0.  0.
        1    1    3    3  502    0 -0.47574159689E+03  0.14647057187E+04  0.13138826778E+04  0.20243469565E+04  0.50400001928E-02 0.  1.
       -1    1    3    3    0  502  0.47574159689E+03 -0.14647057187E+04 -0.47106135131E+03  0.16104631961E+04  0.50400001928E-02 0. -1.
</event>
<event>
 5   0  0.1391878E-06  0.2329369E+04  0.7818609E-02  0.8466431E-01
       -1   -1    0    0    0  501  0.00000000000E+00  0.00000000000E+00  0.60814276093E+03  0.60814276095E+03  0.50400001928E-02 0.  1.
        1   -1    0    0  501    0  0.00000000000E+00  0.00000000000E+00 -0.22305449518E+04  0.22305449518E+04  0.50400001928E-02 0. -1.
    10030    2    1    2    0    0  0.00000000000E+00  0.00000000000E+00 -0.16224021909E+04  0.28386877128E+04  0.23293688119E+04 0.  0.
        2    1    3    3  502    0 -0.86282777701E+03  0.67041802638E+03 -0.31986000599E+03  0.11385264715E+04  0.25500000920E-02 0.  1.
       -2    1    3    3    0  502  0.86282777701E+03 -0.67041802638E+03 -0.13025421849E+04  0.17001612413E+04  0.25500000920E-02 0. -1.
</event>
<event>
 5   0  0.1391878E-06  0.3218178E+04  0.7818609E-02  0.8184033E-01
       -1   -1    0    0    0  501  0.00000000000E+00  0.00000000000E+00  0.12206575220E+04  0.12206575220E+04  0.50400001928E-02 0.  1.
        1   -1    0    0  501    0  0.00000000000E+00  0.00000000000E+00 -0.21211248095E+04  0.21211248095E+04  0.50400001928E-02 0. -1.
    10030    2    1    2    0    0  0.00000000000E+00  0.00000000000E+00 -0.90046728756E+03  0.33417823315E+04  0.32181777166E+04 0.  0.
        2    1    3    3  502    0  0.50670246533E+03  0.61516236410E+03  0.10013091380E+04  0.12797625219E+04  0.25500000920E-02 0.  1.
       -2    1    3    3    0  502 -0.50670246533E+03 -0.61516236410E+03 -0.19017764256E+04  0.20620198097E+04  0.25500000920E-02 0. -1.
</event>
<event>
 5   0  0.3671997E-06  0.3262433E+04  0.7818609E-02  0.8172521E-01
       -2   -1    0    0    0  501  0.00000000000E+00  0.00000000000E+00  0.14005983159E+04  0.14005983159E+04  0.25500000920E-02 0. -1.
        2   -1    0    0  501    0  0.00000000000E+00  0.00000000000E+00 -0.18998077521E+04  0.18998077521E+04  0.25500000920E-02 0.  1.
    10030    2    1    2    0    0  0.00000000000E+00  0.00000000000E+00 -0.49920943621E+03  0.33004060680E+04  0.32624331644E+04 0.  0.
        2    1    3    3  502    0  0.12723658592E+04 -0.91162248612E+03  0.21497586943E+03  0.15799319799E+04  0.25500000920E-02 0.  1.
       -2    1    3    3    0  502 -0.12723658592E+04  0.91162248612E+03 -0.71418530564E+03  0.17204740880E+04  0.25500000920E-02 0. -1.
</event>
<event>
 5   0  0.3920487E-06  0.3021874E+04  0.7818609E-02  0.8237512E-01
        2   -1    0    0  501    0  0.00000000000E+00  0.00000000000E+00  0.18630212107E+04  0.18630212107E+04  0.25500000920E-02 0.  1.
       -2   -1    0    0    0  501  0.00000000000E+00  0.00000000000E+00 -0.12253916642E+04  0.12253916642E+04  0.25500000920E-02 0. -1.
    10030    2    1    2    0    0  0.00000000000E+00  0.00000000000E+00  0.63762954649E+03  0.30884128750E+04  0.30218740291E+04 0.  0.
        4    1    3    3  502    0  0.14216507599E+03 -0.86323379888E+03  0.15778267620E+04  0.18041403504E+04  0.12699999809E+01 0.  1.
       -4    1    3    3    0  502 -0.14216507599E+03  0.86323379888E+03 -0.94019721548E+03  0.12842725245E+04  0.12699999809E+01 0. -1.
</event>
<event>
 5   0  0.3812379E-06  0.3286144E+04  0.7818609E-02  0.8166430E-01
       -2   -1    0    0    0  501  0.00000000000E+00  0.00000000000E+00  0.17631649892E+04  0.17631649893E+04  0.25500000920E-02 0. -1.
        2   -1    0    0  501    0  0.00000000000E+00  0.00000000000E+00 -0.15311585488E+04  0.15311585488E+04  0.25500000920E-02 0.  1.
    10030    2    1    2    0    0  0.00000000000E+00  0.00000000000E+00  0.23200644049E+03  0.32943235380E+04  0.32861437255E+04 0.  0.
        5    1    3    3  502    0  0.48916296020E+03 -0.74497370023E+03 -0.12677938778E+04  0.15497063019E+04  0.46999998093E+01 0.  1.
       -5    1    3    3    0  502 -0.48916296020E+03  0.74497370023E+03  0.14998003183E+04  0.17446172361E+04  0.46999998093E+01 0. -1.
</event>
<event>
 5   0  0.1405389E-06  0.3286482E+04  0.7818609E-02  0.8166344E-01
       -1   -1    0    0    0  501  0.00000000000E+00  0.00000000000E+00  0.27216379940E+04  0.27216379940E+04  0.50400001928E-02 0.  1.
        1   -1    0    0  501    0  0.00000000000E+00  0.00000000000E+00 -0.99213822446E+03  0.99213822448E+03  0.50400001928E-02 0. -1.
    10030    2    1    2    0    0  0.00000000000E+00  0.00000000000E+00  0.17294997696E+04  0.37137762185E+04  0.32864820627E+04 0.  0.
        1    1    3    3  502    0 -0.27134581683E+03 -0.15630549538E+03  0.26876095105E+04  0.27057909825E+04  0.50400001928E-02 0.  1.
       -1    1    3    3    0  502  0.27134581683E+03  0.15630549538E+03 -0.95810974095E+03  0.10079852360E+04  0.50400001928E-02 0. -1.
</event>
<event>
 5   0  0.1282578E-06  0.3410489E+04  0.7818609E-02  0.8135337E-01
        1   -1    0    0  501    0  0.00000000000E+00  0.00000000000E+00  0.17727786075E+04  0.17727786075E+04  0.50400001928E-02 0. -1.
       -1   -1    0    0    0  501  0.00000000000E+00  0.00000000000E+00 -0.16402830295E+04  0.16402830295E+04  0.50400001928E-02 0.  1.
    10030    2    1    2    0    0  0.00000000000E+00  0.00000000000E+00  0.13249557794E+03  0.34130616370E+04  0.34104889180E+04 0.  0.
        4    1    3    3  502    0  0.53089834200E+02  0.14882425751E+04 -0.76514515189E+03  0.16742560166E+04  0.12699999809E+01 0.  1.
       -4    1    3    3    0  502 -0.53089834200E+02 -0.14882425751E+04  0.89764072983E+03  0.17388056204E+04  0.12699999809E+01 0. -1.
</event>
<event>
 5   0  0.3671997E-06  0.3291808E+04  0.7818609E-02  0.8164983E-01
        2   -1    0    0  501    0  0.00000000000E+00  0.00000000000E+00  0.10315576641E+04  0.10315576641E+04  0.25500000920E-02 0. -1.
       -2   -1    0    0    0  501  0.00000000000E+00  0.00000000000E+00 -0.26261250268E+04  0.26261250268E+04  0.25500000920E-02 0.  1.
    10030    2    1    2    0    0  0.00000000000E+00  0.00000000000E+00 -0.15945673627E+04  0.36576826909E+04  0.32918076482E+04 0.  0.
        2    1    3    3  502    0 -0.13732747941E+04  0.11125097307E+03  0.20320481318E+03  0.13926782239E+04  0.25500000920E-02 0. -1.
       -2    1    3    3    0  502  0.13732747941E+04 -0.11125097307E+03 -0.17977721759E+04  0.22650044670E+04  0.25500000920E-02 0.  1.
</event>
<event>
 5   0  0.4017247E-06  0.3150695E+04  0.7818609E-02  0.8201961E-01
       -2   -1    0    0    0  501  0.00000000000E+00  0.00000000000E+00  0.20746271610E+04  0.20746271610E+04  0.25500000920E-02 0.  1.
        2   -1    0    0  501    0  0.00000000000E+00  0.00000000000E+00 -0.11962245823E+04  0.11962245823E+04  0.25500000920E-02 0. -1.
    10030    2    1    2    0    0  0.00000000000E+00  0.00000000000E+00  0.87840257870E+03  0.32708517433E+04  0.31506951672E+04 0.  0.
        1    1    3    3  502    0  0.95187319889E+03 -0.12552179096E+04  0.42960642635E+03  0.16328491262E+04  0.50400001928E-02 0. -1.
       -1    1    3    3    0  502 -0.95187319889E+03  0.12552179096E+04  0.44879615235E+03  0.16380026171E+04  0.50400001928E-02 0.  1.
</event>
<event>
 5   0  0.4017247E-06  0.3206427E+04  0.7818609E-02  0.8187122E-01
        2   -1    0    0  501    0  0.00000000000E+00  0.00000000000E+00  0.22544442146E+04  0.22544442146E+04  0.25500000920E-02 0. -1.
       -2   -1    0    0    0  501  0.00000000000E+00  0.00000000000E+00 -0.11401004218E+04  0.11401004218E+04  0.25500000920E-02 0.  1.
    10030    2    1    2    0    0  0.00000000000E+00  0.00000000000E+00  0.11143437927E+04  0.33945446364E+04  0.32064265468E+04 0.  0.
        1    1    3    3  502    0  0.10558104096E+03  0.28299278550E+03 -0.11097060222E+04  0.11500781402E+04  0.50400001928E-02 0.  1.
       -1    1    3    3    0  502 -0.10558104096E+03 -0.28299278550E+03  0.22240498150E+04  0.22444664961E+04  0.50400001928E-02 0. -1.
</event>
<event>
 5   0  0.1391878E-06  0.3327033E+04  0.7818609E-02  0.8156051E-01
       -1   -1    0    0    0  501  0.00000000000E+00  0.00000000000E+00  0.20641104521E+04  0.20641104521E+04  0.50400001928E-02 0.  1.
        1   -1    0    0  501    0  0.00000000000E+00  0.00000000000E+00 -0.13406680676E+04  0.13406680676E+04  0.50400001928E-02 0. -1.
    10030    2    1    2    0    0  0.00000000000E+00  0.00000000000E+00  0.72344238444E+03  0.34047785197E+04  0.33270328951E+04 0.  0.
        2    1    3    3  502    0  0.10768722048E+04  0.12662157873E+04  0.42906786186E+03  0.17166989822E+04  0.25500000920E-02 0.  1.
       -2    1    3    3    0  502 -0.10768722048E+04 -0.12662157873E+04  0.29437452258E+03  0.16880795375E+04  0.25500000920E-02 0. -1.
</event>
<event>
 5   0  0.3812379E-06  0.2867387E+04  0.7818609E-02  0.8282647E-01
       -2   -1    0    0    0  501  0.00000000000E+00  0.00000000000E+00  0.70038261950E+03  0.70038261950E+03  0.25500000920E-02 0.  1.
        2   -1    0    0  501    0  0.00000000000E+00  0.00000000000E+00 -0.29347919257E+04  0.29347919257E+04  0.25500000920E-02 0. -1.
    10030    2    1    2    0    0  0.00000000000E+00  0.00000000000E+00 -0.22344093062E+04  0.36351745452E+04  0.28673871427E+04 0.  0.
        5    1    3    3  502    0 -0.11140861946E+04 -0.29087389614E+03 -0.22001313342E+04  0.24832228353E+04  0.46999998093E+01 0. -1.
       -5    1    3    3    0  502  0.11140861946E+04  0.29087389614E+03 -0.34277971991E+02  0.11519517098E+04  0.46999998093E+01 0.  1.
</event>
<event>
 5   0  0.1282578E-06  0.3324523E+04  0.7818609E-02  0.8156683E-01
       -1   -1    0    0    0  501  0.00000000000E+00  0.00000000000E+00  0.13951043997E+04  0.13951043997E+04  0.50400001928E-02 0.  1.
        1   -1    0    0  501    0  0.00000000000E+00  0.00000000000E+00 -0.19805785155E+04  0.19805785155E+04  0.50400001928E-02 0. -1.
    10030    2    1    2    0    0  0.00000000000E+00  0.00000000000E+00 -0.58547411587E+03  0.33756829152E+04  0.33245233047E+04 0.  0.
        4    1    3    3  502    0  0.32134236906E+03  0.14489288058E+04  0.46741986027E+03  0.15560008165E+04  0.12699999809E+01 0.  1.
       -4    1    3    3    0  502 -0.32134236906E+03 -0.14489288058E+04 -0.10528939761E+04  0.18196820987E+04  0.12699999809E+01 0. -1.
</event>
<event>
 5   0  0.1405389E-06  0.3268164E+04  0.7818609E-02  0.8171044E-01
       -1   -1    0    0    0  501  0.00000000000E+00  0.00000000000E+00  0.12902651473E+04  0.12902651473E+04  0.50400001928E-02 0.  1.
        1   -1    0    0  501    0  0.00000000000E+00  0.00000000000E+00 -0.20695155891E+04  0.20695155891E+04  0.50400001928E-02 0. -1.
    10030    2    1    2    0    0  0.00000000000E+00  0.00000000000E+00 -0.77925044173E+03  0.33597807364E+04  0.32681639105E+04 0.  0.
        1    1    3    3  502    0 -0.75855276363E+02 -0.81837149715E+01 -0.20676835384E+04  0.20690906726E+04  0.50400001928E-02 0. -1.
       -1    1    3    3    0  502  0.75855276363E+02  0.81837149715E+01  0.12884330967E+04  0.12906900638E+04  0.50400001928E-02 0.  1.
</event>
<event>
 5   0  0.1405389E-06  0.3023064E+04  0.7818609E-02  0.8237175E-01
        1   -1    0    0  501    0  0.00000000000E+00  0.00000000000E+00  0.10428193755E+04  0.10428193755E+04  0.50400001928E-02 0.  1.
       -1   -1    0    0    0  501  0.00000000000E+00  0.00000000000E+00 -0.21909159133E+04  0.21909159133E+04  0.50400001928E-02 0. -1.
    10030    2    1    2    0    0  0.00000000000E+00  0.00000000000E+00 -0.11480965378E+04  0.32337352889E+04  0.30230643821E+04 0.  0.
        1    1    3    3  502    0 -0.93249725658E+03 -0.11855720166E+04 -0.67884178772E+03  0.16540732489E+04  0.50400001928E-02 0. -1.
       -1    1    3    3    0  502  0.93249725658E+03  0.11855720166E+04 -0.46925475007E+03  0.15796620400E+04  0.50400001928E-02 0.  1.
</event>
<event>
 5   0  0.1391878E-06  0.3362110E+04  0.7818609E-02  0.8147269E-01
        1   -1    0    0  501    0  0.00000000000E+00  0.00000000000E+00  0.21694097769E+04  0.21694097769E+04  0.50400001928E-02 0.  1.
       -1   -1    0    0    0  501  0.00000000000E+00  0.00000000000E+00 -0.13026333884E+04  0.13026333884E+04  0.50400001928E-02 0. -1.
    10030    2    1    2    0    0  0.00000000000E+00  0.00000000000E+00  0.86677638847E+03  0.34720431653E+04  0.33621098189E+04 0.  0.
        2    1    3    3  502    0  0.95923614614E+03  0.12710405032E+04 -0.12299313737E+03  0.15971240580E+04  0.25500000920E-02 0. -1.
       -2    1    3    3    0  502 -0.95923614614E+03 -0.12710405032E+04  0.98976952584E+03  0.18749191073E+04  0.25500000920E-02 0.  1.
</event>
<event>
 5   0  0.1339825E-06  0.3290972E+04  0.7818609E-02  0.8165196E-01
       -1   -1    0    0    0  501  0.00000000000E+00  0.00000000000E+00  0.13175332891E+04  0.13175332891E+04  0.50400001928E-02 0.  1.
        1   -1    0    0  501    0  0.00000000000E+00  0.00000000000E+00 -0.20550709970E+04  0.20550709970E+04  0.50400001928E-02 0. -1.
    10030    2    1    2    0    0  0.00000000000E+00  0.00000000000E+00 -0.73753770795E+03  0.33726042861E+04  0.32909721664E+04 0.  0.
        3    1    3    3  502    0 -0.11300168956E+04  0.11960726739E+04 -0.35870621231E+03  0.16841015950E+04  0.10100000352E+00 0. -1.
       -3    1    3    3    0  502  0.11300168956E+04 -0.11960726739E+04 -0.37883149564E+03  0.16885026911E+04  0.10100000352E+00 0.  1.
</event>
<event>
 5   0  0.3896210E-06  0.3288368E+04  0.7818609E-02  0.8165861E-01
       -2   -1    0    0    0  501  0.00000000000E+00  0.00000000000E+00  0.14962748091E+04  0.14962748091E+04  0.25500000920E-02 0. -1.
        2   -1    0    0  501    0  0.00000000000E+00  0.00000000000E+00 -0.18067144482E+04  0.18067144482E+04  0.25500000920E-02 0.  1.
    10030    2    1    2    0    0  0.00000000000E+00  0.00000000000E+00 -0.31043963911E+03  0.33029892574E+04  0.32883681766E+04 0.  0.
        3    1    3    3  502    0  0.43652904944E+03  0.36722684849E+03  0.13936898372E+04  0.15059165122E+04  0.10100000352E+00 0. -1.
       -3    1    3    3    0  502 -0.43652904944E+03 -0.36722684849E+03 -0.17041294763E+04  0.17970727452E+04  0.10100000352E+00 0.  1.
</event>
<event>
 5   0  0.1339825E-06  0.3208784E+04  0.7818609E-02  0.8186501E-01
        1   -1    0    0  501    0  0.00000000000E+00  0.00000000000E+00  0.28896813218E+04  0.28896813218E+04  0.50400001928E-02 0. -1.
       -1   -1    0    0    0  501  0.00000000000E+00  0.00000000000E+00 -0.89078143441E+03  0.89078143443E+03  0.50400001928E-02 0.  1.
    10030    2    1    2    0    0  0.00000000000E+00  0.00000000000E+00  0.19988998874E+04  0.37804627563E+04  0.32087844882E+04 0.  0.
        3    1    3    3  502    0 -0.13243883130E+04  0.11830819025E+03 -0.58321075053E+02  0.13309404906E+04  0.10100000352E+00 0.  1.
       -3    1    3    3    0  502  0.13243883130E+04 -0.11830819025E+03  0.20572209625E+04  0.24495222657E+04  0.10100000352E+00 0. -1.
</event>
<event>
 5   0  0.3920487E-06  0.2342756E+04  0.7818609E-02  0.8461251E-01
        2   -1    0    0  501    0  0.00000000000E+00  0.00000000000E+00  0.15140693588E+04  0.15140693588E+04  0.25500000920E-02 0.  1.
       -2   -1    0    0    0  501  0.00000000000E+00  0.00000000000E+00 -0.90625092349E+03  0.90625092350E+03  0.25500000920E-02 0. -1.
    10030    2    1    2    0    0  0.00000000000E+00  0.00000000000E+00  0.60781843532E+03  0.24203202823E+04  0.23427562867E+04 0.  0.
        4    1    3    3  502    0 -0.11510806253E+04  0.15102644054E+03  0.14276572699E+03  0.11696919498E+04  0.12699999809E+01 0.  1.
       -4    1    3    3    0  502  0.11510806253E+04 -0.15102644054E+03  0.46505270833E+03  0.12506283325E+04  0.12699999809E+01 0. -1.
</event>
<event>
 5   0  0.3896210E-06  0.3492961E+04  0.7818609E-02  0.8115460E-01
        2   -1    0    0  501    0  0.00000000000E+00  0.00000000000E+00  0.18321725134E+04  0.18321725135E+04  0.25500000920E-02 0. -1.
       -2   -1    0    0    0  501  0.00000000000E+00  0.00000000000E+00 -0.16647962913E+04  0.16647962913E+04  0.25500000920E-02 0.  1.
    10030    2    1    2    0    0  0.00000000000E+00  0.00000000000E+00  0.16737622216E+03  0.34969688047E+04  0.34929609247E+04 0.  0.
        3    1    3    3  502    0 -0.68963555275E+03 -0.91396240428E+03 -0.12366387974E+04  0.16852892919E+04  0.10100000352E+00 0.  1.
       -3    1    3    3    0  502  0.68963555275E+03  0.91396240428E+03  0.14040150195E+04  0.18116795128E+04  0.10100000352E+00 0. -1.
</event>
<event>
 5   0  0.3671997E-06  0.3307353E+04  0.7818609E-02  0.8161027E-01
        2   -1    0    0  501    0  0.00000000000E+00  0.00000000000E+00  0.17936572783E+04  0.17936572783E+04  0.25500000920E-02 0. -1.
       -2   -1    0    0    0  501  0.00000000000E+00  0.00000000000E+00 -0.15246199587E+04  0.15246199587E+04  0.25500000920E-02 0.  1.
    10030    2    1    2    0    0  0.00000000000E+00  0.00000000000E+00  0.26903731961E+03  0.33182772370E+04  0.33073528301E+04 0.  0.
        2    1    3    3  502    0  0.12736069108E+04  0.44025683068E+02  0.11918653237E+04  0.17448655461E+04  0.25500000920E-02 0. -1.
       -2    1    3    3    0  502 -0.12736069108E+04 -0.44025683068E+02 -0.92282800408E+03  0.15734116909E+04  0.25500000920E-02 0.  1.
</event>
<event>
 5   0  0.1352708E-06  0.2716210E+04  0.7818609E-02  0.8329764E-01
       -1   -1    0    0    0  501  0.00000000000E+00  0.00000000000E+00  0.97636321399E+03  0.97636321400E+03  0.50400001928E-02 0. -1.
        1   -1    0    0  501    0  0.00000000000E+00  0.00000000000E+00 -0.18891021277E+04  0.18891021277E+04  0.50400001928E-02 0.  1.
    10030    2    1    2    0    0  0.00000000000E+00  0.00000000000E+00 -0.91273891370E+03  0.28654653417E+04  0.27162104668E+04 0.  0.
        5    1    3    3  502    0 -0.51343434430E+03  0.12032955689E+04 -0.84094554392E+03  0.15552319923E+04  0.46999998093E+01 0.  1.
       -5    1    3    3    0  502  0.51343434430E+03 -0.12032955689E+04 -0.71793369783E+02  0.13102333494E+04  0.46999998093E+01 0. -1.
</event>
<event>
 5   0  0.1405389E-06  0.2401755E+04  0.7818609E-02  0.8438847E-01
       -1   -1    0    0    0  501  0.00000000000E+00  0.00000000000E+00  0.60322456069E+03  0.60322456072E+03  0.50400001928E-02 0. -1.
        1   -1    0    0  501    0  0.00000000000E+00  0.00000000000E+00 -0.23906637751E+04  0.23906637751E+04  0.50400001928E-02 0.  1.
    10030    2    1    2    0    0  0.00000000000E+00  0.00000000000E+00 -0.17874392144E+04  0.29938883358E+04  0.24017552794E+04 0.  0.
        1    1    3    3  502    0  0.24287224811E+03  0.10009413470E+04 -0.16633888577E+04  0.19564593021E+04  0.50400001928E-02 0.  1.
       -1    1    3    3    0  502 -0.24287224811E+03 -0.10009413470E+04 -0.12405035675E+03  0.10374290337E+04  0.50400001928E-02 0. -1.
</event>
<event>
 5   0  0.3920487E-06  0.2301897E+04  0.7818609E-02  0.8477174E-01
        2   -1    0    0  501    0  0.00000000000E+00  0.00000000000E+00  0.87330438760E+03  0.87330438760E+03  0.25500000920E-02 0.  1.
       -2   -1    0    0    0  501  0.00000000000E+00  0.00000000000E+00 -0.15168622502E+04  0.15168622502E+04  0.25500000920E-02 0. -1.
    10030    2    1    2    0    0  0.00000000000E+00  0.00000000000E+00 -0.64355786257E+03  0.23901666378E+04  0.23018970076E+04 0.  0.
        4    1    3    3  502    0 -0.17815721163E+03 -0.76939076596E+03  0.54757115886E+03  0.96100880834E+03  0.12699999809E+01 0.  1.
       -4    1    3    3    0  502  0.17815721163E+03  0.76939076596E+03 -0.11911290214E+04  0.14291578294E+04  0.12699999809E+01 0. -1.
</event>
<event>
 5   0  0.3920487E-06  0.2198883E+04  0.7818609E-02  0.8518893E-01
        2   -1    0    0  501    0  0.00000000000E+00  0.00000000000E+00  0.10901326873E+04  0.10901326873E+04  0.25500000920E-02 0.  1.
       -2   -1    0    0    0  501  0.00000000000E+00  0.00000000000E+00 -0.11088301724E+04  0.11088301724E+04  0.25500000920E-02 0. -1.
    10030    2    1    2    0    0  0.00000000000E+00  0.00000000000E+00 -0.18697485113E+02  0.21989628597E+04  0.21988833672E+04 0.  0.
        4    1    3    3  502    0 -0.85099076486E+03 -0.61265998326E+03 -0.33986464793E+03  0.11022917621E+04  0.12699999809E+01 0.  1.
       -4    1    3    3    0  502  0.85099076486E+03  0.61265998326E+03  0.32116716282E+03  0.10966710976E+04  0.12699999809E+01 0. -1.
</event>
<event>
 5   0  0.3812379E-06  0.3348685E+04  0.7818609E-02  0.8150617E-01
        2   -1    0    0  501    0  0.00000000000E+00  0.00000000000E+00  0.26928216863E+04  0.26928216863E+04  0.25500000920E-02 0. -1.
       -2   -1    0    0    0  501  0.00000000000E+00  0.00000000000E+00 -0.10410727862E+04  0.10410727862E+04  0.25500000920E-02 0.  1.
    10030    2    1    2    0    0  0.00000000000E+00  0.00000000000E+00  0.16517489001E+04  0.37338944725E+04  0.33486853394E+04 0.  0.
        5    1    3    3  502    0 -0.13388157074E+04  0.55089334153E+03  0.17637559040E+04  0.22818343391E+04  0.46999998093E+01 0. -1.
       -5    1    3    3    0  502  0.13388157074E+04 -0.55089334153E+03 -0.11200700386E+03  0.14520601334E+04  0.46999998093E+01 0.  1.
</event>
<event>
 5   0  0.3896210E-06  0.3320083E+04  0.7818609E-02  0.8157804E-01
        2   -1    0    0  501    0  0.00000000000E+00  0.00000000000E+00  0.13076024420E+04  0.13076024420E+04  0.25500000920E-02 0.  1.
       -2   -1    0    0    0  501  0.00000000000E+00  0.00000000000E+00 -0.21074741688E+04  0.21074741688E+04  0.25500000920E-02 0. -1.
    10030    2    1    2    0    0  0.00000000000E+00  0.00000000000E+00 -0.79987172680E+03  0.34150766108E+04  0.33200833541E+04 0.  0.
        3    1    3    3  502    0 -0.94244327677E+03  0.13019001461E+04  0.27396335786E+02  0.16074494983E+04  0.10100000352E+00 0. -1.
       -3    1    3    3    0  502  0.94244327677E+03 -0.13019001461E+04 -0.82726806258E+03  0.18076271125E+04  0.10100000352E+00 0.  1.
</event>
<event>
 5   0  0.3920487E-06  0.3083425E+04  0.7818609E-02  0.8220302E-01
       -2   -1    0    0    0  501  0.00000000000E+00  0.00000000000E+00  0.14108200729E+04  0.14108200729E+04  0.25500000920E-02 0.  1.
        2   -1    0    0  501    0  0.00000000000E+00  0.00000000000E+00 -0.16847485008E+04  0.16847485008E+04  0.25500000920E-02 0. -1.
    10030    2    1    2    0    0  0.00000000000E+00  0.00000000000E+00 -0.27392842794E+03  0.30955685737E+04  0.30834247211E+04 0.  0.
        4    1    3    3  502    0  0.19756796152E+03 -0.91938537639E+03 -0.13634848045E+04  0.16563197139E+04  0.12699999809E+01 0. -1.
       -4    1    3    3    0  502 -0.19756796152E+03  0.91938537639E+03  0.10895563766E+04  0.14392488598E+04  0.12699999809E+01 0.  1.
</event>
<event>
 5   0  0.1352708E-06  0.3296621E+04  0.7818609E-02  0.8163756E-01
       -1   -1    0    0    0  501  0.00000000000E+00  0.00000000000E+00  0.19839688507E+04  0.19839688507E+04  0.50400001928E-02 0.  1.
        1   -1    0    0  501    0  0.00000000000E+00  0.00000000000E+00 -0.13694405664E+04  0.13694405664E+04  0.50400001928E-02 0. -1.
    10030    2    1    2    0    0  0.00000000000E+00  0.00000000000E+00  0.61452828436E+03  0.33534094171E+04  0.32966209528E+04 0.  0.
        5    1    3    3  502    0  0.13402334414E+04 -0.26989179801E+03 -0.62937871042E+03  0.15050604344E+04  0.46999998093E+01 0. -1.
       -5    1    3    3    0  502 -0.13402334414E+04  0.26989179801E+03  0.12439069948E+04  0.18483489827E+04  0.46999998093E+01 0.  1.
</event>
<event>
 5   0  0.1391878E-06  0.2751750E+04  0.7818609E-02  0.8318407E-01
       -1   -1    0    0    0  501  0.00000000000E+00  0.00000000000E+00  0.10682835278E+04  0.10682835278E+04  0.50400001928E-02 0. -1.
        1   -1    0    0  501    0  0.00000000000E+00  0.00000000000E+00 -0.17720312888E+04  0.17720312888E+04  0.50400001928E-02 0.  1.
    10030    2    1    2    0    0  0.00000000000E+00  0.00000000000E+00 -0.70374776099E+03  0.28403148167E+04  0.27517498699E+04 0.  0.
        2    1    3    3  502    0 -0.48999404620E+03 -0.11316354158E+04  0.27796108019E+03  0.12641025440E+04  0.25500000920E-02 0. -1.
       -2    1    3    3    0  502  0.48999404620E+03  0.11316354158E+04 -0.98170884118E+03  0.15762122727E+04  0.25500000920E-02 0.  1.
</event>
<event>
 5   0  0.3920487E-06  0.2203584E+04  0.7818609E-02  0.8516938E-01
        2   -1    0    0  501    0  0.00000000000E+00  0.00000000000E+00  0.15896260405E+04  0.15896260405E+04  0.25500000920E-02 0.  1.
       -2   -1    0    0    0  501  0.00000000000E+00  0.00000000000E+00 -0.76366749785E+03  0.76366749785E+03  0.25500000920E-02 0. -1.
    10030    2    1    2    0    0  0.00000000000E+00  0.00000000000E+00  0.82595854264E+03  0.23532935383E+04  0.22035841176E+04 0.  0.
        4    1    3    3  502    0  0.78489761387E+02  0.42457188517E+03 -0.66955605009E+03  0.79669871685E+03  0.12699999809E+01 0. -1.
       -4    1    3    3    0  502 -0.78489761387E+02 -0.42457188517E+03  0.14955145927E+04  0.15565948215E+04  0.12699999809E+01 0.  1.
</event>
<event>
 5   0  0.3896210E-06  0.3357214E+04  0.7818609E-02  0.8148488E-01
       -2   -1    0    0    0  501  0.00000000000E+00  0.00000000000E+00  0.13501975366E+04  0.13501975366E+04  0.25500000920E-02 0.  1.
        2   -1    0    0  501    0  0.00000000000E+00  0.00000000000E+00 -0.20868955812E+04  0.20868955812E+04  0.25500000920E-02 0. -1.
    10030    2    1    2    0    0  0.00000000000E+00  0.00000000000E+00 -0.73669804461E+03  0.34370931178E+04  0.33572138883E+04 0.  0.
        3    1    3    3  502    0  0.10343289379E+04  0.12912319215E+04 -0.77683597252E+02  0.16562460500E+04  0.10100000352E+00 0. -1.
       -3    1    3    3    0  502 -0.10343289379E+04 -0.12912319215E+04 -0.65901444736E+03  0.17808470678E+04  0.10100000352E+00 0.  1.
</event>
<event>
 5   0  0.1259875E-06  0.3288681E+04  0.7818609E-02  0.8165782E-01
        3   -1    0    0  501    0  0.00000000000E+00  0.00000000000E+00  0.21653035147E+04  0.21653035171E+04  0.10100000352E+00 0.  1.
       -3   -1    0    0    0  501  0.00000000000E+00  0.00000000000E+00 -0.12487186773E+04  0.12487186814E+04  0.10100000352E+00 0. -1.
    10030    2    1    2    0    0  0.00000000000E+00  0.00000000000E+00  0.91658483739E+03  0.34140221985E+04  0.32886805572E+04 0.  0.
        3    1    3    3  502    0  0.27955014144E+03  0.13711309835E+04  0.13547476588E+04  0.19476882925E+04  0.10100000352E+00 0.  1.
       -3    1    3    3    0  502 -0.27955014144E+03 -0.13711309835E+04 -0.43816282143E+03  0.14663339060E+04  0.10100000352E+00 0. -1.
</event>
<event>
 5   0  0.3671997E-06  0.3347745E+04  0.7818609E-02  0.8150852E-01
        2   -1    0    0  501    0  0.00000000000E+00  0.00000000000E+00  0.13258486842E+04  0.13258486842E+04  0.25500000920E-02 0. -1.
       -2   -1    0    0    0  501  0.00000000000E+00  0.00000000000E+00 -0.21132492700E+04  0.21132492700E+04  0.25500000920E-02 0.  1.
    10030    2    1    2    0    0  0.00000000000E+00  0.00000000000E+00 -0.78740058585E+03  0.34390979542E+04  0.33477447716E+04 0.  0.
        2    1    3    3  502    0  0.12153157643E+03 -0.13597544484E+03  0.13156122934E+04  0.13281923627E+04  0.25500000920E-02 0. -1.
       -2    1    3    3    0  502 -0.12153157643E+03  0.13597544484E+03 -0.21030128793E+04  0.21109055915E+04  0.25500000920E-02 0.  1.
</event>
<event>
 5   0  0.3920487E-06  0.3034836E+04  0.7818609E-02  0.8233853E-01
       -2   -1    0    0    0  501  0.00000000000E+00  0.00000000000E+00  0.14125817565E+04  0.14125817565E+04  0.25500000920E-02 0. -1.
        2   -1    0    0  501    0  0.00000000000E+00  0.00000000000E+00 -0.16300352601E+04  0.16300352601E+04  0.25500000920E-02 0.  1.
    10030    2    1    2    0    0  0.00000000000E+00  0.00000000000E+00 -0.21745350364E+03  0.30426170166E+04  0.30348364509E+04 0.  0.
        4    1    3    3  502    0 -0.11366310797E+04 -0.10036027562E+04 -0.50201116704E+02  0.15171257261E+04  0.12699999809E+01 0. -1.
       -4    1    3    3    0  502  0.11366310797E+04  0.10036027562E+04 -0.16725238693E+03  0.15254912905E+04  0.12699999809E+01 0.  1.
</event>
<event>
 5   0  0.1405389E-06  0.3295442E+04  0.7818609E-02  0.8164056E-01
       -1   -1    0    0    0  501  0.00000000000E+00  0.00000000000E+00  0.17705961567E+04  0.17705961567E+04  0.50400001928E-02 0. -1.
        1   -1    0    0  501    0  0.00000000000E+00  0.00000000000E+00 -0.15333728757E+04  0.15333728758E+04  0.50400001928E-02 0.  1.
    10030    2    1    2    0    0  0.00000000000E+00  0.00000000000E+00  0.23722328092E+03  0.33039690324E+04  0.32954417735E+04 0.  0.
        1    1    3    3  502    0 -0.15992258970E+04  0.39511869814E+03  0.15533790571E+03  0.16546214432E+04  0.50400001928E-02 0.  1.
       -1    1    3    3    0  502  0.15992258970E+04 -0.39511869814E+03  0.81885375203E+02  0.16493475892E+04  0.50400001928E-02 0. -1.
</event>
<event>
 5   0  0.3671997E-06  0.2541454E+04  0.7818609E-02  0.8388364E-01
        2   -1    0    0  501    0  0.00000000000E+00  0.00000000000E+00  0.21103841260E+04  0.21103841260E+04  0.25500000920E-02 0.  1.
       -2   -1    0    0    0  501  0.00000000000E+00  0.00000000000E+00 -0.76514360983E+03  0.76514360983E+03  0.25500000920E-02 0. -1.
    10030    2    1    2    0    0  0.00000000000E+00  0.00000000000E+00  0.13452405162E+04  0.28755277358E+04  0.25414538582E+04 0.  0.
        2    1    3    3  502    0 -0.97242940435E+03 -0.26169172390E+03 -0.20426832953E+03  0.10275344545E+04  0.25500000920E-02 0. -1.
       -2    1    3    3    0  502  0.97242940435E+03  0.26169172390E+03  0.15495088457E+04  0.18479932813E+04  0.25500000920E-02 0.  1.
</event>
<event>
 5   0  0.1352708E-06  0.3312386E+04  0.7818609E-02  0.8159751E-01
        1   -1    0    0  501    0  0.00000000000E+00  0.00000000000E+00  0.17688639284E+04  0.17688639284E+04  0.50400001928E-02 0. -1.
       -1   -1    0    0    0  501  0.00000000000E+00  0.00000000000E+00 -0.15506989681E+04  0.15506989681E+04  0.50400001928E-02 0.  1.
    10030    2    1    2    0    0  0.00000000000E+00  0.00000000000E+00  0.21816496031E+03  0.33195628965E+04  0.33123861299E+04 0.  0.
        5    1    3    3  502    0  0.12666471835E+04 -0.10550043504E+04 -0.51026341810E+02  0.16492589379E+04  0.46999998093E+01 0.  1.
       -5    1    3    3    0  502 -0.12666471835E+04  0.10550043504E+04  0.26919130212E+03  0.16703039586E+04  0.46999998093E+01 0. -1.
</event>
<event>
 5   0  0.1339825E-06  0.3292071E+04  0.7818609E-02  0.8164916E-01
       -1   -1    0    0    0  501  0.00000000000E+00  0.00000000000E+00  0.20800389877E+04  0.20800389877E+04  0.50400001928E-02 0.  1.
        1   -1    0    0  501    0  0.00000000000E+00  0.00000000000E+00 -0.13025874768E+04  0.13025874768E+04  0.50400001928E-02 0. -1.
    10030    2    1    2    0    0  0.00000000000E+00  0.00000000000E+00  0.77745151093E+03  0.33826264646E+04  0.32920709207E+04 0.  0.
        3    1    3    3  502    0 -0.14597497534E+04  0.76060848959E+03  0.38238266144E+03  0.16898553568E+04  0.10100000352E+00 0.  1.
       -3    1    3    3    0  502  0.14597497534E+04 -0.76060848959E+03  0.39506884949E+03  0.16927711077E+04  0.10100000352E+00 0. -1.
</event>
<event>
 5   0  0.3812379E-06  0.3291056E+04  0.7818609E-02  0.8165175E-01
        2   -1    0    0  501    0  0.00000000000E+00  0.00000000000E+00  0.16777015340E+04  0.16777015340E+04  0.25500000920E-02 0.  1.
       -2   -1    0    0    0  501  0.00000000000E+00  0.00000000000E+00 -0.16139713761E+04  0.16139713761E+04  0.25500000920E-02 0. -1.
    10030    2    1    2    0    0  0.00000000000E+00  0.00000000000E+00  0.63730157860E+02  0.32916729101E+04  0.32910559117E+04 0.  0.
        5    1    3    3  502    0 -0.67929250007E+03  0.92193149686E+03 -0.11500265374E+04  0.16229538232E+04  0.46999998093E+01 0. -1.
       -5    1    3    3    0  502  0.67929250007E+03 -0.92193149686E+03  0.12137566953E+04  0.16687190869E+04  0.46999998093E+01 0.  1.
</event>
<event>
 5   0  0.1352708E-06  0.3368898E+04  0.7818609E-02  0.8145582E-01
        1   -1    0    0  501    0  0.00000000000E+00  0.00000000000E+00  0.22952367377E+04  0.22952367377E+04  0.50400001928E-02 0.  1.
       -1   -1    0    0    0  501  0.00000000000E+00  0.00000000000E+00 -0.12361989471E+04  0.12361989471E+04  0.50400001928E-02 0. -1.
    10030    2    1    2    0    0  0.00000000000E+00  0.00000000000E+00  0.10590377906E+04  0.35314356848E+04  0.33688984779E+04 0.  0.
        5    1    3    3  502    0 -0.15528178150E+04 -0.47764276235E+03  0.99591359550E+03  0.19055843604E+04  0.46999998093E+01 0. -1.
       -5    1    3    3    0  502  0.15528178150E+04  0.47764276235E+03  0.63124195127E+02  0.16258513244E+04  0.46999998093E+01 0.  1.
</event>
<event>
 5   0  0.3896210E-06  0.3276868E+04  0.7818609E-02  0.8168806E-01
        2   -1    0    0  501    0  0.00000000000E+00  0.00000000000E+00  0.21742751706E+04  0.21742751706E+04  0.25500000920E-02 0.  1.
       -2   -1    0    0    0  501  0.00000000000E+00  0.00000000000E+00 -0.12346484739E+04  0.12346484739E+04  0.25500000920E-02 0. -1.
    10030    2    1    2    0    0  0.00000000000E+00  0.00000000000E+00  0.93962669674E+03  0.34089236445E+04  0.32768677247E+04 0.  0.
        3    1    3    3  502    0  0.26977514389E+03  0.32612311233E+03  0.21164238624E+04  0.21583291891E+04  0.10100000352E+00 0.  1.
       -3    1    3    3    0  502 -0.26977514389E+03 -0.32612311233E+03 -0.11767971657E+04  0.12505944555E+04  0.10100000352E+00 0. -1.
</event>
<event>
 5   0  0.1405389E-06  0.3363605E+04  0.7818609E-02  0.8146897E-01
        1   -1    0    0  501    0  0.00000000000E+00  0.00000000000E+00  0.18696724043E+04  0.18696724043E+04  0.50400001928E-02 0.  1.
       -1   -1    0    0    0  501  0.00000000000E+00  0.00000000000E+00 -0.15128105073E+04  0.15128105073E+04  0.50400001928E-02 0. -1.
    10030    2    1    2    0    0  0.00000000000E+00  0.00000000000E+00  0.35686189704E+03  0.33824829116E+04  0.33636052435E+04 0.  0.
        1    1    3    3  502    0 -0.66564290188E+03 -0.11745428012E+04 -0.83010787827E+03  0.15848376429E+04  0.50400001928E-02 0. -1.
       -1    1    3    3    0  502  0.66564290188E+03  0.11745428012E+04  0.11869697753E+04  0.17976452687E+04  0.50400001928E-02 0.  1.
</event>
<event>
 5   0  0.1352708E-06  0.3280423E+04  0.7818609E-02  0.8167895E-01
       -1   -1    0    0    0  501  0.00000000000E+00  0.00000000000E+00  0.29636976983E+04  0.29636976983E+04  0.50400001928E-02 0. -1.
        1   -1    0    0  501    0  0.00000000000E+00  0.00000000000E+00 -0.90774901048E+03  0.90774901049E+03  0.50400001928E-02 0.  1.
    10030    2    1    2    0    0  0.00000000000E+00  0.00000000000E+00  0.20559486878E+04  0.38714467088E+04  0.32804229319E+04 0.  0.
        5    1    3    3  502    0 -0.37316483576E+03  0.14903874812E+04  0.17056869195E+04  0.22956255784E+04  0.46999998093E+01 0.  1.
       -5    1    3    3    0  502  0.37316483576E+03 -0.14903874812E+04  0.35026176834E+03  0.15758211304E+04  0.46999998093E+01 0. -1.
</event>
<event>
 5   0  0.3896210E-06  0.3312790E+04  0.7818609E-02  0.8159649E-01
       -2   -1    0    0    0  501  0.00000000000E+00  0.00000000000E+00  0.11922187811E+04  0.11922187811E+04  0.25500000920E-02 0. -1.
        2   -1    0    0  501    0  0.00000000000E+00  0.00000000000E+00 -0.23012924742E+04  0.23012924742E+04  0.25500000920E-02 0.  1.
    10030    2    1    2    0    0  0.00000000000E+00  0.00000000000E+00 -0.11090736931E+04  0.34935112552E+04  0.33127898264E+04 0.  0.
        3    1    3    3  502    0 -0.82718767682E+03  0.13208643313E+04 -0.11461418771E+04  0.19345705588E+04  0.10100000352E+00 0.  1.
       -3    1    3    3    0  502  0.82718767682E+03 -0.13208643313E+04  0.37068184000E+02  0.15589406964E+04  0.10100000352E+00 0. -1.
</event>
<event>
 5   0  0.3812379E-06  0.3349382E+04  0.7818609E-02  0.8150443E-01
        2   -1    0    0  501    0  0.00000000000E+00  0.00000000000E+00  0.13981679498E+04  0.13981679498E+04  0.25500000920E-02 0.  1.
       -2   -1    0    0    0  501  0.00000000000E+00  0.00000000000E+00 -0.20059032535E+04  0.20059032535E+04  0.25500000920E-02 0. -1.
    10030    2    1    2    0    0  0.00000000000E+00  0.00000000000E+00 -0.60773530372E+03  0.34040712034E+04  0.33493818173E+04 0.  0.
        5    1    3    3  502    0 -0.25366831912E+03  0.16081946717E+04 -0.70261276543E+03  0.17732243249E+04  0.46999998093E+01 0. -1.
       -5    1    3    3    0  502  0.25366831912E+03 -0.16081946717E+04  0.94877461710E+02  0.16308468785E+04  0.46999998093E+01 0.  1.
</event>
<event>
 5   0  0.3812379E-06  0.3217120E+04  0.7818609E-02  0.8184310E-01
        2   -1    0    0  501    0  0.00000000000E+00  0.00000000000E+00  0.26782484769E+04  0.26782484769E+04  0.25500000920E-02 0.  1.
       -2   -1    0    0    0  501  0.00000000000E+00  0.00000000000E+00 -0.96610375968E+03  0.96610375968E+03  0.25500000920E-02 0. -1.
    10030    2    1    2    0    0  0.00000000000E+00  0.00000000000E+00  0.17121447172E+04  0.36443522365E+04  0.32171204036E+04 0.  0.
        5    1    3    3  502    0 -0.22075429157E+02  0.84073019965E+03 -0.69719738561E+03  0.10924380429E+04  0.46999998093E+01 0. -1.
       -5    1    3    3    0  502  0.22075429157E+02 -0.84073019965E+03  0.24093421028E+04  0.25519141936E+04  0.46999998093E+01 0.  1.
</event>
<event>
 5   0  0.1282578E-06  0.3272626E+04  0.7818609E-02  0.8169896E-01
       -1   -1    0    0    0  501  0.00000000000E+00  0.00000000000E+00  0.16556480494E+04  0.16556480494E+04  0.50400001928E-02 0. -1.
        1   -1    0    0  501    0  0.00000000000E+00  0.00000000000E+00 -0.16172040442E+04  0.16172040442E+04  0.50400001928E-02 0.  1.
    10030    2    1    2    0    0  0.00000000000E+00  0.00000000000E+00  0.38444005201E+02  0.32728520935E+04  0.32726262977E+04 0.  0.
        4    1    3    3  502    0 -0.11726630285E+04 -0.10497739055E+04  0.46686351677E+03  0.16416841923E+04  0.12699999809E+01 0. -1.
       -4    1    3    3    0  502  0.11726630285E+04  0.10497739055E+04 -0.42841951157E+03  0.16311679012E+04  0.12699999809E+01 0.  1.
</event>
<event>
 5   0  0.1259875E-06  0.3335229E+04  0.7818609E-02  0.8153989E-01
       -3   -1    0    0    0  501  0.00000000000E+00  0.00000000000E+00  0.22480091621E+04  0.22480091643E+04  0.10100000352E+00 0. -1.
        3   -1    0    0  501    0  0.00000000000E+00  0.00000000000E+00 -0.12370673842E+04  0.12370673884E+04  0.10100000352E+00 0.  1.
    10030    2    1    2    0    0  0.00000000000E+00  0.00000000000E+00  0.10109417778E+04  0.34850765527E+04  0.33352294224E+04 0.  0.
        4    1    3    3  502    0  0.12399253576E+04 -0.49754686314E+03  0.15482915208E+04  0.20450369238E+04  0.12699999809E+01 0. -1.
       -4    1    3    3    0  502 -0.12399253576E+04  0.49754686314E+03 -0.53734974298E+03  0.14400396289E+04  0.12699999809E+01 0.  1.
</event>
<event>
 5   0  0.1282578E-06  0.2740808E+04  0.7818609E-02  0.8321884E-01
       -1   -1    0    0    0  501  0.00000000000E+00  0.00000000000E+00  0.11831480909E+04  0.11831480909E+04  0.50400001928E-02 0. -1.
        1   -1    0    0  501    0  0.00000000000E+00  0.00000000000E+00 -0.15872964817E+04  0.15872964818E+04  0.50400001928E-02 0.  1.
    10030    2    1    2    0    0  0.00000000000E+00  0.00000000000E+00 -0.40414839088E+03  0.27704445726E+04  0.27408077656E+04 0.  0.
        4    1    3    3  502    0 -0.25146939160E+01  0.35394009369E+03  0.11361467235E+04  0.11900045814E+04  0.12699999809E+01 0. -1.
       -4    1    3    3    0  502  0.25146939160E+01 -0.35394009369E+03 -0.15402951144E+04  0.15804399912E+04  0.12699999809E+01 0.  1.
</event>
<event>
 5   0  0.1339825E-06  0.2988512E+04  0.7818609E-02  0.8247019E-01
        1   -1    0    0  501    0  0.00000000000E+00  0.00000000000E+00  0.17578285441E+04  0.17578285441E+04  0.50400001928E-02 0. -1.
       -1   -1    0    0    0  501  0.00000000000E+00  0.00000000000E+00 -0.12702037269E+04  0.12702037269E+04  0.50400001928E-02 0.  1.
    10030    2    1    2    0    0  0.00000000000E+00  0.00000000000E+00  0.48762481723E+03  0.30280322710E+04  0.29885115813E+04 0.  0.
        3    1    3    3  502    0  0.10086763677E+04  0.11012778148E+04  0.29507311956E+03  0.15222709996E+04  0.10100000352E+00 0.  1.
       -3    1    3    3    0  502 -0.10086763677E+04 -0.11012778148E+04  0.19255169767E+03  0.15057612714E+04  0.10100000352E+00 0. -1.
</event>
<event>
 5   0  0.1282578E-06  0.3313723E+04  0.7818609E-02  0.8159412E-01
        1   -1    0    0  501    0  0.00000000000E+00  0.00000000000E+00  0.14657024978E+04  0.14657024978E+04  0.50400001928E-02 0.  1.
       -1   -1    0    0    0  501  0.00000000000E+00  0.00000000000E+00 -0.18729514074E+04  0.18729514074E+04  0.50400001928E-02 0. -1.
    10030    2    1    2    0    0  0.00000000000E+00  0.00000000000E+00 -0.40724890954E+03  0.33386539052E+04  0.33137227139E+04 0.  0.
        4    1    3    3  502    0  0.66135438765E+03 -0.25852237077E+03  0.13046234301E+04  0.14853509180E+04  0.12699999809E+01 0.  1.
       -4    1    3    3    0  502 -0.66135438765E+03  0.25852237077E+03 -0.17118723397E+04  0.18533029872E+04  0.12699999809E+01 0. -1.
</event>
<event>
 5   0  0.3896210E-06  0.2888707E+04  0.7818609E-02  0.8276245E-01
       -2   -1    0    0    0  501  0.00000000000E+00  0.00000000000E+00  0.84575442527E+03  0.84575442527E+03  0.25500000920E-02 0. -1.
        2   -1    0    0  501    0  0.00000000000E+00  0.00000000000E+00 -0.24666230801E+04  0.24666230801E+04  0.25500000920E-02 0.  1.
    10030    2    1    2    0    0  0.00000000000E+00  0.00000000000E+00 -0.16208686549E+04  0.33123775054E+04  0.28887072441E+04 0.  0.
        3    1    3    3  502    0 -0.12603128592E+04  0.23013882511E+03 -0.45681444067E+02  0.12819669210E+04  0.10100000352E+00 0. -1.
       -3    1    3    3    0  502  0.12603128592E+04 -0.23013882511E+03 -0.15751872108E+04  0.20304105844E+04  0.10100000352E+00 0.  1.
</event>
<event>
 5   0  0.3812379E-06  0.3420583E+04  0.7818609E-02  0.8132873E-01
        2   -1    0    0  501    0  0.00000000000E+00  0.00000000000E+00  0.16175217786E+04  0.16175217786E+04  0.25500000920E-02 0. -1.
       -2   -1    0    0    0  501  0.00000000000E+00  0.00000000000E+00 -0.18083818526E+04  0.18083818526E+04  0.25500000920E-02 0.  1.
    10030    2    1    2    0    0  0.00000000000E+00  0.00000000000E+00 -0.19086007396E+03  0.34259036312E+04  0.34205830092E+04 0.  0.
        5    1    3    3  502    0 -0.54016820095E+03  0.99016415060E+03  0.11922089616E+04  0.16412163260E+04  0.46999998093E+01 0. -1.
       -5    1    3    3    0  502  0.54016820095E+03 -0.99016415060E+03 -0.13830690356E+04  0.17846873053E+04  0.46999998093E+01 0.  1.
</event>
<event>
 5   0  0.3812379E-06  0.3112892E+04  0.7818609E-02  0.8212209E-01
       -2   -1    0    0    0  501  0.00000000000E+00  0.00000000000E+00  0.13710881961E+04  0.13710881961E+04  0.25500000920E-02 0. -1.
        2   -1    0    0  501    0  0.00000000000E+00  0.00000000000E+00 -0.17668625755E+04  0.17668625755E+04  0.25500000920E-02 0.  1.
    10030    2    1    2    0    0  0.00000000000E+00  0.00000000000E+00 -0.39577437939E+03  0.31379507716E+04  0.31128921738E+04 0.  0.
        5    1    3    3  502    0 -0.14407668933E+03 -0.94355215831E+03  0.10414213803E+04  0.14126674588E+04  0.46999998093E+01 0. -1.
       -5    1    3    3    0  502  0.14407668933E+03  0.94355215831E+03 -0.14371957597E+04  0.17252833128E+04  0.46999998093E+01 0.  1.
</event>
<event>
 5   0  0.1405389E-06  0.3329490E+04  0.7818609E-02  0.8155432E-01
       -1   -1    0    0    0  501  0.00000000000E+00  0.00000000000E+00  0.27476138770E+04  0.27476138770E+04  0.50400001928E-02 0. -1.
        1   -1    0    0  501    0  0.00000000000E+00  0.00000000000E+00 -0.10086482012E+04  0.10086482013E+04  0.50400001928E-02 0.  1.
    10030    2    1    2    0    0  0.00000000000E+00  0.00000000000E+00  0.17389656757E+04  0.37562620783E+04  0.33294899278E+04 0.  0.
        1    1    3    3  502    0  0.16641246171E+04  0.43862002377E+02  0.85607798023E+03  0.18719252455E+04  0.50400001928E-02 0.  1.
       -1    1    3    3    0  502 -0.16641246171E+04 -0.43862002377E+02  0.88288769551E+03  0.18843368328E+04  0.50400001928E-02 0. -1.
</event>
<event>
 5   0  0.4017247E-06  0.3240617E+04  0.7818609E-02  0.8178172E-01
       -2   -1    0    0    0  501  0.00000000000E+00  0.00000000000E+00  0.12151885153E+04  0.12151885153E+04  0.25500000920E-02 0. -1.
        2   -1    0    0  501    0  0.00000000000E+00  0.00000000000E+00 -0.21604878935E+04  0.21604878935E+04  0.25500000920E-02 0.  1.
    10030    2    1    2    0    0  0.00000000000E+00  0.00000000000E+00 -0.94529937826E+03  0.33756764088E+04  0.32406172718E+04 0.  0.
        1    1    3    3  502    0  0.16393643759E+03  0.24928706982E+03  0.11863270676E+04  0.12232706610E+04  0.50400001928E-02 0. -1.
       -1    1    3    3    0  502 -0.16393643759E+03 -0.24928706982E+03 -0.21316264458E+04  0.21524057478E+04  0.50400001928E-02 0.  1.
</event>
<event>
 5   0  0.4017247E-06  0.3303704E+04  0.7818609E-02  0.8161954E-01
        2   -1    0    0  501    0  0.00000000000E+00  0.00000000000E+00  0.13200442312E+04  0.13200442312E+04  0.25500000920E-02 0.  1.
       -2   -1    0    0    0  501  0.00000000000E+00  0.00000000000E+00 -0.20670634147E+04  0.20670634147E+04  0.25500000920E-02 0. -1.
    10030    2    1    2    0    0  0.00000000000E+00  0.00000000000E+00 -0.74701918350E+03  0.33871076459E+04  0.33037040643E+04 0.  0.
        1    1    3    3  502    0 -0.12572904553E+04 -0.20204818572E+03 -0.14522180896E+04  0.19314606230E+04  0.50400001928E-02 0. -1.
       -1    1    3    3    0  502  0.12572904553E+04  0.20204818572E+03  0.70519890611E+03  0.14556470230E+04  0.50400001928E-02 0.  1.
</event>
<event>
 5   0  0.1339825E-06  0.2261687E+04  0.7818609E-02  0.8493182E-01
       -1   -1    0    0    0  501  0.00000000000E+00  0.00000000000E+00  0.15004055297E+04  0.15004055297E+04  0.50400001928E-02 0. -1.
        1   -1    0    0  501    0  0.00000000000E+00  0.00000000000E+00 -0.85230765509E+03  0.85230765510E+03  0.50400001928E-02 0.  1.
    10030    2    1    2    0    0  0.00000000000E+00  0.00000000000E+00  0.64809787458E+03  0.23527131848E+04  0.22616870860E+04 0.  0.
        3    1    3    3  502    0 -0.86034411981E+03 -0.71796217295E+03  0.16578971694E+03  0.11327611958E+04  0.10100000352E+00 0.  1.
       -3    1    3    3    0  502  0.86034411981E+03  0.71796217295E+03  0.48230815764E+03  0.12199519890E+04  0.10100000352E+00 0. -1.
</event>
<event>
 5   0  0.3920487E-06  0.3283174E+04  0.7818609E-02  0.8167190E-01
        2   -1    0    0  501    0  0.00000000000E+00  0.00000000000E+00  0.16037482834E+04  0.16037482834E+04  0.25500000920E-02 0. -1.
       -2   -1    0    0    0  501  0.00000000000E+00  0.00000000000E+00 -0.16803184805E+04  0.16803184805E+04  0.25500000920E-02 0.  1.
    10030    2    1    2    0    0  0.00000000000E+00  0.00000000000E+00 -0.76570197135E+02  0.32840667639E+04  0.32831740000E+04 0.  0.
        4    1    3    3  502    0  0.14410427814E+04  0.78447547728E+03  0.14646143777E+02  0.16407992549E+04  0.12699999809E+01 0. -1.
       -4    1    3    3    0  502 -0.14410427814E+04 -0.78447547728E+03 -0.91216340912E+02  0.16432675090E+04  0.12699999809E+01 0.  1.
</event>
<event>
 5   0  0.1391878E-06  0.2683238E+04  0.7818609E-02  0.8340464E-01
       -1   -1    0    0    0  501  0.00000000000E+00  0.00000000000E+00  0.16018225441E+04  0.16018225441E+04  0.50400001928E-02 0. -1.
        1   -1    0    0  501    0  0.00000000000E+00  0.00000000000E+00 -0.11236834122E+04  0.11236834122E+04  0.50400001928E-02 0.  1.
    10030    2    1    2    0    0  0.00000000000E+00  0.00000000000E+00  0.47813913193E+03  0.27255059563E+04  0.26832379113E+04 0.  0.
        2    1    3    3  502    0 -0.71926896645E+03  0.89347391404E+03  0.94594724029E+03  0.14867614680E+04  0.25500000920E-02 0. -1.
       -2    1    3    3    0  502  0.71926896645E+03 -0.89347391404E+03 -0.46780810836E+03  0.12387444884E+04  0.25500000920E-02 0.  1.
</event>
<event>
 5   0  0.3671997E-06  0.3293040E+04  0.7818609E-02  0.8164669E-01
        2   -1    0    0  501    0  0.00000000000E+00  0.00000000000E+00  0.17036148856E+04  0.17036148856E+04  0.25500000920E-02 0. -1.
       -2   -1    0    0    0  501  0.00000000000E+00  0.00000000000E+00 -0.15913381135E+04  0.15913381135E+04  0.25500000920E-02 0.  1.
    10030    2    1    2    0    0  0.00000000000E+00  0.00000000000E+00  0.11227677207E+03  0.32949529991E+04  0.32930395067E+04 0.  0.
        2    1    3    3  502    0 -0.10121452883E+04 -0.12639317156E+04 -0.24247402010E+03  0.16373011686E+04  0.25500000920E-02 0.  1.
       -2    1    3    3    0  502  0.10121452883E+04  0.12639317156E+04  0.35475079217E+03  0.16576518304E+04  0.25500000920E-02 0. -1.
</event>
<event>
 5   0  0.1405389E-06  0.2466464E+04  0.7818609E-02  0.8415031E-01
       -1   -1    0    0    0  501  0.00000000000E+00  0.00000000000E+00  0.16569477038E+04  0.16569477038E+04  0.50400001928E-02 0. -1.
        1   -1    0    0  501    0  0.00000000000E+00  0.00000000000E+00 -0.91786896816E+03  0.91786896817E+03  0.50400001928E-02 0.  1.
    10030    2    1    2    0    0  0.00000000000E+00  0.00000000000E+00  0.73907873564E+03  0.25748166720E+04  0.24664637676E+04 0.  0.
        1    1    3    3  502    0  0.97615564164E+03 -0.13074494519E+03 -0.40528408242E+03  0.10650020023E+04  0.50400001928E-02 0.  1.
       -1    1    3    3    0  502 -0.97615564164E+03  0.13074494519E+03  0.11443628181E+04  0.15098146697E+04  0.50400001928E-02 0. -1.
</event>
<event>
 5   0  0.3671997E-06  0.3235561E+04  0.7818609E-02  0.8179488E-01
       -2   -1    0    0    0  501  0.00000000000E+00  0.00000000000E+00  0.25366656352E+04  0.25366656352E+04  0.25500000920E-02 0.  1.
        2   -1    0    0  501    0  0.00000000000E+00  0.00000000000E+00 -0.10317533467E+04  0.10317533467E+04  0.25500000920E-02 0. -1.
    10030    2    1    2    0    0  0.00000000000E+00  0.00000000000E+00  0.15049122886E+04  0.35684189819E+04  0.32355606986E+04 0.  0.
        2    1    3    3  502    0 -0.31187885780E+03 -0.47579792309E+03 -0.91779375158E+03  0.10798136210E+04  0.25500000920E-02 0. -1.
       -2    1    3    3    0  502  0.31187885780E+03  0.47579792309E+03  0.24227060402E+04  0.24886053610E+04  0.25500000920E-02 0.  1.
</event>
<event>
 5   0  0.3812379E-06  0.3213511E+04  0.7818609E-02  0.8185258E-01
       -2   -1    0    0    0  501  0.00000000000E+00  0.00000000000E+00  0.10234935477E+04  0.10234935477E+04  0.25500000920E-02 0. -1.
        2   -1    0    0  501    0  0.00000000000E+00  0.00000000000E+00 -0.25224033256E+04  0.25224033256E+04  0.25500000920E-02 0.  1.
    10030    2    1    2    0    0  0.00000000000E+00  0.00000000000E+00 -0.14989097779E+04  0.35458968734E+04  0.32135111816E+04 0.  0.
        5    1    3    3  502    0 -0.44960631975E+03 -0.32239177705E+03 -0.24139799895E+04  0.24765709722E+04  0.46999998093E+01 0.  1.
       -5    1    3    3    0  502  0.44960631975E+03  0.32239177705E+03  0.91507021162E+03  0.10693259011E+04  0.46999998093E+01 0. -1.
</event>
<event>
 5   0  0.3812379E-06  0.3285279E+04  0.7818609E-02  0.8166651E-01
        2   -1    0    0  501    0  0.00000000000E+00  0.00000000000E+00  0.13460349848E+04  0.13460349848E+04  0.25500000920E-02 0. -1.
       -2   -1    0    0    0  501  0.00000000000E+00  0.00000000000E+00 -0.20046021669E+04  0.20046021669E+04  0.25500000920E-02 0.  1.
    10030    2    1    2    0    0  0.00000000000E+00  0.00000000000E+00 -0.65856718201E+03  0.33506371517E+04  0.32852790733E+04 0.  0.
        5    1    3    3  502    0  0.10344322476E+04  0.91646889069E+03 -0.12347964668E+04  0.18532969829E+04  0.46999998093E+01 0.  1.
       -5    1    3    3    0  502 -0.10344322476E+04 -0.91646889069E+03  0.57622928476E+03  0.14973401688E+04  0.46999998093E+01 0. -1.
</event>
<event>
 5   0  0.3812379E-06  0.3291786E+04  0.7818609E-02  0.8164989E-01
       -2   -1    0    0    0  501  0.00000000000E+00  0.00000000000E+00  0.19598225904E+04  0.19598225904E+04  0.25500000920E-02 0.  1.
        2   -1    0    0  501    0  0.00000000000E+00  0.00000000000E+00 -0.13822492999E+04  0.13822492999E+04  0.25500000920E-02 0. -1.
    10030    2    1    2    0    0  0.00000000000E+00  0.00000000000E+00  0.57757329056E+03  0.33420718903E+04  0.32917857789E+04 0.  0.
        5    1    3    3  502    0 -0.13831306928E+03  0.12457532356E+03  0.19490944869E+04  0.19579685710E+04  0.46999998093E+01 0.  1.
       -5    1    3    3    0  502  0.13831306928E+03 -0.12457532356E+03 -0.13715211963E+04  0.13841033192E+04  0.46999998093E+01 0. -1.
</event>
<event>
 5   0  0.1339825E-06  0.3277088E+04  0.7818609E-02  0.8168750E-01
        1   -1    0    0  501    0  0.00000000000E+00  0.00000000000E+00  0.16366400607E+04  0.16366400607E+04  0.50400001928E-02 0. -1.
       -1   -1    0    0    0  501  0.00000000000E+00  0.00000000000E+00 -0.16404501319E+04  0.16404501319E+04  0.50400001928E-02 0.  1.
    10030    2    1    2    0    0  0.00000000000E+00  0.00000000000E+00 -0.38100712336E+01  0.32770901926E+04  0.32770879778E+04 0.  0.
        3    1    3    3  502    0  0.21667054183E+03 -0.16228497250E+04  0.63202915878E+02  0.16384693993E+04  0.10100000352E+00 0.  1.
       -3    1    3    3    0  502 -0.21667054183E+03  0.16228497250E+04 -0.67012987112E+02  0.16386207933E+04  0.10100000352E+00 0. -1.
</event>
<event>
 5   0  0.1339825E-06  0.3258684E+04  0.7818609E-02  0.8173489E-01
        1   -1    0    0  501    0  0.00000000000E+00  0.00000000000E+00  0.16100934680E+04  0.16100934680E+04  0.50400001928E-02 0.  1.
       -1   -1    0    0    0  501  0.00000000000E+00  0.00000000000E+00 -0.16488204579E+04  0.16488204579E+04  0.50400001928E-02 0. -1.
    10030    2    1    2    0    0  0.00000000000E+00  0.00000000000E+00 -0.38726989842E+02  0.32589139259E+04  0.32586838136E+04 0.  0.
        3    1    3    3  502    0  0.10412802153E+04 -0.10363220621E+04  0.68533308010E+03  0.16210827691E+04  0.10100000352E+00 0.  1.
       -3    1    3    3    0  502 -0.10412802153E+04  0.10363220621E+04 -0.72406006994E+03  0.16378311569E+04  0.10100000352E+00 0. -1.
</event>
<event>
 5   0  0.1339825E-06  0.3178184E+04  0.7818609E-02  0.8194602E-01
        1   -1    0    0  501    0  0.00000000000E+00  0.00000000000E+00  0.10625994553E+04  0.10625994554E+04  0.50400001928E-02 0. -1.
       -1   -1    0    0    0  501  0.00000000000E+00  0.00000000000E+00 -0.23764495335E+04  0.23764495335E+04  0.50400001928E-02 0.  1.
    10030    2    1    2    0    0  0.00000000000E+00  0.00000000000E+00 -0.13138500781E+04  0.34390489888E+04  0.31781843747E+04 0.  0.
        3    1    3    3  502    0 -0.91415092919E+03 -0.34085102935E+03  0.70036820923E+03  0.12009858385E+04  0.10100000352E+00 0. -1.
       -3    1    3    3    0  502  0.91415092919E+03  0.34085102935E+03 -0.20142182874E+04  0.22380631503E+04  0.10100000352E+00 0.  1.
</event>
<event>
 5   0  0.4017247E-06  0.3279450E+04  0.7818609E-02  0.8168144E-01
       -2   -1    0    0    0  501  0.00000000000E+00  0.00000000000E+00  0.14073029002E+04  0.14073029002E+04  0.25500000920E-02 0.  1.
        2   -1    0    0  501    0  0.00000000000E+00  0.00000000000E+00 -0.19105329886E+04  0.19105329886E+04  0.25500000920E-02 0. -1.
    10030    2    1    2    0    0  0.00000000000E+00  0.00000000000E+00 -0.50323008841E+03  0.33178358888E+04  0.32794503294E+04 0.  0.
        1    1    3    3  502    0 -0.93132379521E+03  0.13218735353E+04  0.23570469234E+02  0.16171794031E+04  0.50400001928E-02 0.  1.
       -1    1    3    3    0  502  0.93132379521E+03 -0.13218735353E+04 -0.52680055765E+03  0.17006564857E+04  0.50400001928E-02 0. -1.
</event>
<event>
 5   0  0.1352708E-06  0.3293935E+04  0.7818609E-02  0.8164440E-01
       -1   -1    0    0    0  501  0.00000000000E+00  0.00000000000E+00  0.21438408287E+04  0.21438408287E+04  0.50400001928E-02 0. -1.
        1   -1    0    0  501    0  0.00000000000E+00  0.00000000000E+00 -0.12652535294E+04  0.12652535294E+04  0.50400001928E-02 0.  1.
    10030    2    1    2    0    0  0.00000000000E+00  0.00000000000E+00  0.87858729932E+03  0.34090943582E+04  0.32939351391E+04 0.  0.
        5    1    3    3  502    0 -0.22481974538E+03  0.10382361317E+04 -0.86327861952E+03  0.13688499728E+04  0.46999998093E+01 0.  1.
       -5    1    3    3    0  502  0.22481974538E+03 -0.10382361317E+04  0.17418659188E+04  0.20402443854E+04  0.46999998093E+01 0. -1.
</event>
<event>
 5   0  0.4017247E-06  0.3255645E+04  0.7818609E-02  0.8174274E-01
       -2   -1    0    0    0  501  0.00000000000E+00  0.00000000000E+00  0.10389554403E+04  0.10389554403E+04  0.25500000920E-02 0. -1.
        2   -1    0    0  501    0  0.00000000000E+00  0.00000000000E+00 -0.25504519876E+04  0.25504519876E+04  0.25500000920E-02 0.  1.
    10030    2    1    2    0    0  0.00000000000E+00  0.00000000000E+00 -0.15114965474E+04  0.35894074279E+04  0.32556449239E+04 0.  0.
        1    1    3    3  502    0 -0.11544252514E+04  0.11471317969E+04 -0.79389200667E+03  0.18107660089E+04  0.50400001928E-02 0.  1.
       -1    1    3    3    0  502  0.11544252514E+04 -0.11471317969E+04 -0.71760454072E+03  0.17786414190E+04  0.50400001928E-02 0. -1.
</event>
<event>
 5   0  0.3896210E-06  0.3447927E+04  0.7818609E-02  0.8126243E-01
        2   -1    0    0  501    0  0.00000000000E+00  0.00000000000E+00  0.11966295496E+04  0.11966295496E+04  0.25500000920E-02 0.  1.
       -2   -1    0    0    0  501  0.00000000000E+00  0.00000000000E+00 -0.24836845967E+04  0.24836845967E+04  0.25500000920E-02 0. -1.
    10030    2    1    2    0    0  0.00000000000E+00  0.00000000000E+00 -0.12870550471E+04  0.36803141462E+04  0.34479271339E+04 0.  0.
        3    1    3    3  502    0 -0.50940737255E+03 -0.15712299490E+04 -0.11705578403E+04  0.20244666191E+04  0.10100000352E+00 0. -1.
       -3    1    3    3    0  502  0.50940737255E+03  0.15712299490E+04 -0.11649720680E+03  0.16558475272E+04  0.10100000352E+00 0.  1.
</event>
<event>
 5   0  0.3671997E-06  0.3283983E+04  0.7818609E-02  0.8166983E-01
       -2   -1    0    0    0  501  0.00000000000E+00  0.00000000000E+00  0.24185726734E+04  0.24185726734E+04  0.25500000920E-02 0. -1.
        2   -1    0    0  501    0  0.00000000000E+00  0.00000000000E+00 -0.11147630605E+04  0.11147630605E+04  0.25500000920E-02 0.  1.
    10030    2    1    2    0    0  0.00000000000E+00  0.00000000000E+00  0.13038096129E+04  0.35333357339E+04  0.32839826281E+04 0.  0.
        2    1    3    3  502    0  0.61210465801E+03  0.77371552755E+03 -0.76032368991E+03  0.12455520637E+04  0.25500000920E-02 0.  1.
       -2    1    3    3    0  502 -0.61210465801E+03 -0.77371552755E+03  0.20641333028E+04  0.22877836702E+04  0.25500000920E-02 0. -1.
</event>
<event>
 5   0  0.1391878E-06  0.3319517E+04  0.7818609E-02  0.8157947E-01
       -1   -1    0    0    0  501  0.00000000000E+00  0.00000000000E+00  0.23761461670E+04  0.23761461670E+04  0.50400001928E-02 0. -1.
        1   -1    0    0  501    0  0.00000000000E+00  0.00000000000E+00 -0.11593552482E+04  0.11593552482E+04  0.50400001928E-02 0.  1.
    10030    2    1    2    0    0  0.00000000000E+00  0.00000000000E+00  0.12167909187E+04  0.35355014152E+04  0.33195165487E+04 0.  0.
        2    1    3    3  502    0 -0.11494688880E+04  0.30884531475E+03 -0.62364757864E+03  0.13437263319E+04  0.25500000920E-02 0.  1.
       -2    1    3    3    0  502  0.11494688880E+04 -0.30884531475E+03  0.18404384974E+04  0.21917750832E+04  0.25500000920E-02 0. -1.
</event>
<event>
 5   0  0.3812379E-06  0.3331681E+04  0.7818609E-02  0.8154881E-01
        2   -1    0    0  501    0  0.00000000000E+00  0.00000000000E+00  0.18728842001E+04  0.18728842002E+04  0.25500000920E-02 0.  1.
       -2   -1    0    0    0  501  0.00000000000E+00  0.00000000000E+00 -0.14816855006E+04  0.14816855006E+04  0.25500000920E-02 0. -1.
    10030    2    1    2    0    0  0.00000000000E+00  0.00000000000E+00  0.39119869958E+03  0.33545697007E+04  0.33316814755E+04 0.  0.
        5    1    3    3  502    0 -0.41614924972E+03  0.73629250788E+03  0.16406229923E+04  0.18457986749E+04  0.46999998093E+01 0.  1.
       -5    1    3    3    0  502  0.41614924972E+03 -0.73629250788E+03 -0.12494242927E+04  0.15087710259E+04  0.46999998093E+01 0. -1.
</event>
<event>
 5   0  0.3812379E-06  0.2204564E+04  0.7818609E-02  0.8516531E-01
        2   -1    0    0  501    0  0.00000000000E+00  0.00000000000E+00  0.16697852783E+04  0.16697852783E+04  0.25500000920E-02 0.  1.
       -2   -1    0    0    0  501  0.00000000000E+00  0.00000000000E+00 -0.72765353720E+03  0.72765353721E+03  0.25500000920E-02 0. -1.
    10030    2    1    2    0    0  0.00000000000E+00  0.00000000000E+00  0.94213174108E+03  0.23974388155E+04  0.22045635977E+04 0.  0.
        5    1    3    3  502    0  0.52926705962E+03  0.73542291632E+03 -0.21157293227E+03  0.93045993031E+03  0.46999998093E+01 0. -1.
       -5    1    3    3    0  502 -0.52926705962E+03 -0.73542291632E+03  0.11537046734E+04  0.14669788852E+04  0.46999998093E+01 0.  1.
</event>
<event>
 5   0  0.4017247E-06  0.3147916E+04  0.7818609E-02  0.8202709E-01
        2   -1    0    0  501    0  0.00000000000E+00  0.00000000000E+00  0.17174558068E+04  0.17174558068E+04  0.25500000920E-02 0.  1.
       -2   -1    0    0    0  501  0.00000000000E+00  0.00000000000E+00 -0.14424498217E+04  0.14424498217E+04  0.25500000920E-02 0. -1.
    10030    2    1    2    0    0  0.00000000000E+00  0.00000000000E+00  0.27500598506E+03  0.31599056284E+04  0.31479160232E+04 0.  0.
        1    1    3    3  502    0 -0.11127680365E+04  0.11000708288E+04  0.30825463906E+03  0.15948132975E+04  0.50400001928E-02 0. -1.
       -1    1    3    3    0  502  0.11127680365E+04 -0.11000708288E+04 -0.33248654001E+02  0.15650923309E+04  0.50400001928E-02 0.  1.
</event>
<event>
 5   0  0.3920487E-06  0.3283996E+04  0.7818609E-02  0.8166979E-01
       -2   -1    0    0    0  501  0.00000000000E+00  0.00000000000E+00  0.29107670249E+04  0.29107670249E+04  0.25500000920E-02 0.  1.
        2   -1    0    0  501    0  0.00000000000E+00  0.00000000000E+00 -0.92627067659E+03  0.92627067659E+03  0.25500000920E-02 0. -1.
    10030    2    1    2    0    0  0.00000000000E+00  0.00000000000E+00  0.19844963483E+04  0.38370377015E+04  0.32839964321E+04 0.  0.
        4    1    3    3  502    0 -0.14500190112E+04 -0.45120385260E+03  0.17219322501E+04  0.22959077368E+04  0.12699999809E+01 0.  1.
       -4    1    3    3    0  502  0.14500190112E+04  0.45120385260E+03  0.26256409821E+03  0.15411299646E+04  0.12699999809E+01 0. -1.
</event>
<event>
 5   0  0.1391878E-06  0.3282848E+04  0.7818609E-02  0.8167274E-01
        1   -1    0    0  501    0  0.00000000000E+00  0.00000000000E+00  0.24428895265E+04  0.24428895265E+04  0.50400001928E-02 0. -1.
       -1   -1    0    0    0  501  0.00000000000E+00  0.00000000000E+00 -0.11029038902E+04  0.11029038903E+04  0.50400001928E-02 0.  1.
    10030    2    1    2    0    0  0.00000000000E+00  0.00000000000E+00  0.13399856362E+04  0.35457934167E+04  0.32828477651E+04 0.  0.
        2    1    3    3  502    0  0.52875381632E+03 -0.80710730372E+03  0.21042335140E+04  0.23149085250E+04  0.25500000920E-02 0. -1.
       -2    1    3    3    0  502 -0.52875381632E+03  0.80710730372E+03 -0.76424787773E+03  0.12308848917E+04  0.25500000920E-02 0.  1.
</event>
<event>
 5   0  0.1391878E-06  0.3277010E+04  0.7818609E-02  0.8168770E-01
        1   -1    0    0  501    0  0.00000000000E+00  0.00000000000E+00  0.22020602239E+04  0.22020602239E+04  0.50400001928E-02 0.  1.
       -1   -1    0    0    0  501  0.00000000000E+00  0.00000000000E+00 -0.12191761575E+04  0.12191761575E+04  0.50400001928E-02 0. -1.
    10030    2    1    2    0    0  0.00000000000E+00  0.00000000000E+00  0.98288406639E+03  0.34212363813E+04  0.32770104194E+04 0.  0.
        2    1    3    3  502    0 -0.54085610973E+03  0.12428929789E+02  0.21061263179E+04  0.21744994543E+04  0.25500000920E-02 0.  1.
       -2    1    3    3    0  502  0.54085610973E+03 -0.12428929789E+02 -0.11232422515E+04  0.12467369271E+04  0.25500000920E-02 0. -1.
</event>
<event>
 5   0  0.3812379E-06  0.3333532E+04  0.7818609E-02  0.8154415E-01
       -2   -1    0    0    0  501  0.00000000000E+00  0.00000000000E+00  0.11266086950E+04  0.11266086950E+04  0.25500000920E-02 0.  1.
        2   -1    0    0  501    0  0.00000000000E+00  0.00000000000E+00 -0.24659043717E+04  0.24659043717E+04  0.25500000920E-02 0. -1.
    10030    2    1    2    0    0  0.00000000000E+00  0.00000000000E+00 -0.13392956767E+04  0.35925130666E+04  0.33335322444E+04 0.  0.
        5    1    3    3  502    0  0.15924873741E+04  0.47812269786E+03 -0.79472422407E+03  0.18428852469E+04  0.46999998093E+01 0.  1.
       -5    1    3    3    0  502 -0.15924873741E+04 -0.47812269786E+03 -0.54457145265E+03  0.17496278198E+04  0.46999998093E+01 0. -1.
</event>
<event>
 5   0  0.3896210E-06  0.3328206E+04  0.7818609E-02  0.8155755E-01
       -2   -1    0    0    0  501  0.00000000000E+00  0.00000000000E+00  0.11331216546E+04  0.11331216546E+04  0.25500000920E-02 0.  1.
        2   -1    0    0  501    0  0.00000000000E+00  0.00000000000E+00 -0.24439026338E+04  0.24439026338E+04  0.25500000920E-02 0. -1.
    10030    2    1    2    0    0  0.00000000000E+00  0.00000000000E+00 -0.13107809792E+04  0.35770242884E+04  0.33282061211E+04 0.  0.
        3    1    3    3  502    0 -0.58516630014E+02  0.12333029051E+04 -0.18544969814E+04  0.22279181574E+04  0.10100000352E+00 0. -1.
       -3    1    3    3    0  502  0.58516630014E+02 -0.12333029051E+04  0.54371600225E+03  0.13491061311E+04  0.10100000352E+00 0.  1.
</event>
<event>
 5   0  0.1391878E-06  0.3324689E+04  0.7818609E-02  0.8156642E-01
       -1   -1    0    0    0  501  0.00000000000E+00  0.00000000000E+00  0.12329747467E+04  0.12329747467E+04  0.50400001928E-02 0. -1.
        1   -1    0    0  501    0  0.00000000000E+00  0.00000000000E+00 -0.22412368904E+04  0.22412368904E+04  0.50400001928E-02 0.  1.
    10030    2    1    2    0    0  0.00000000000E+00  0.00000000000E+00 -0.10082621437E+04  0.34742116371E+04  0.33246885491E+04 0.  0.
        2    1    3    3  502    0  0.10346505411E+03  0.58883951480E+02  0.12285145530E+04  0.12342691538E+04  0.25500000920E-02 0. -1.
       -2    1    3    3    0  502 -0.10346505411E+03 -0.58883951480E+02 -0.22367766967E+04  0.22399424832E+04  0.25500000920E-02 0.  1.
</event>
<event>
 5   0  0.3671997E-06  0.2734264E+04  0.7818609E-02  0.8323972E-01
        2   -1    0    0  501    0  0.00000000000E+00  0.00000000000E+00  0.16577460818E+04  0.16577460818E+04  0.25500000920E-02 0. -1.
       -2   -1    0    0    0  501  0.00000000000E+00  0.00000000000E+00 -0.11274642694E+04  0.11274642695E+04  0.25500000920E-02 0.  1.
    10030    2    1    2    0    0  0.00000000000E+00  0.00000000000E+00  0.53028181232E+03  0.27852103512E+04  0.27342636852E+04 0.  0.
        2    1    3    3  502    0 -0.82636013471E+03  0.87103449448E+03  0.93114077115E+03  0.15194062322E+04  0.25500000920E-02 0. -1.
       -2    1    3    3    0  502  0.82636013471E+03 -0.87103449448E+03 -0.40085895883E+03  0.12658041190E+04  0.25500000920E-02 0.  1.
</event>
<event>
 5   0  0.1282578E-06  0.3258891E+04  0.7818609E-02  0.8173435E-01
        1   -1    0    0  501    0  0.00000000000E+00  0.00000000000E+00  0.15884290714E+04  0.15884290714E+04  0.50400001928E-02 0. -1.
       -1   -1    0    0    0  501  0.00000000000E+00  0.00000000000E+00 -0.16715215663E+04  0.16715215663E+04  0.50400001928E-02 0.  1.
    10030    2    1    2    0    0  0.00000000000E+00  0.00000000000E+00 -0.83092494922E+02  0.32599506377E+04  0.32588914983E+04 0.  0.
        4    1    3    3  502    0 -0.13725808755E+04 -0.10006456540E+03 -0.91424061276E+03  0.16522193220E+04  0.12699999809E+01 0.  1.
       -4    1    3    3    0  502  0.13725808755E+04  0.10006456540E+03  0.83114811784E+03  0.16077313157E+04  0.12699999809E+01 0. -1.
</event>
<event>
 5   0  0.1339825E-06  0.2343616E+04  0.7818609E-02  0.8460920E-01
       -1   -1    0    0    0  501  0.00000000000E+00  0.00000000000E+00  0.12840040697E+04  0.12840040697E+04  0.50400001928E-02 0.  1.
        1   -1    0    0  501    0  0.00000000000E+00  0.00000000000E+00 -0.10694157023E+04  0.10694157023E+04  0.50400001928E-02 0. -1.
    10030    2    1    2    0    0  0.00000000000E+00  0.00000000000E+00  0.21458836739E+03  0.23534197720E+04  0.23436161068E+04 0.  0.
        3    1    3    3  502    0  0.29055194960E+03  0.11339782142E+04  0.16049767959E+03  0.11815610611E+04  0.10100000352E+00 0.  1.
       -3    1    3    3    0  502 -0.29055194960E+03 -0.11339782142E+04  0.54090687808E+02  0.11718587110E+04  0.10100000352E+00 0. -1.
</event>
<event>
 5   0  0.4017247E-06  0.3248435E+04  0.7818609E-02  0.8176141E-01
       -2   -1    0    0    0  501  0.00000000000E+00  0.00000000000E+00  0.10110894664E+04  0.10110894664E+04  0.25500000920E-02 0.  1.
        2   -1    0    0  501    0  0.00000000000E+00  0.00000000000E+00 -0.26091486852E+04  0.26091486852E+04  0.25500000920E-02 0. -1.
    10030    2    1    2    0    0  0.00000000000E+00  0.00000000000E+00 -0.15980592188E+04  0.36202381516E+04  0.32484351628E+04 0.  0.
        1    1    3    3  502    0  0.15459241460E+04  0.36133704359E+03 -0.11812682519E+04  0.19788483032E+04  0.50400001928E-02 0. -1.
       -1    1    3    3    0  502 -0.15459241460E+04 -0.36133704359E+03 -0.41679096694E+03  0.16413898484E+04  0.50400001928E-02 0.  1.
</event>
<event>
 5   0  0.1391878E-06  0.3125051E+04  0.7818609E-02  0.8208896E-01
        1   -1    0    0  501    0  0.00000000000E+00  0.00000000000E+00  0.18083498342E+04  0.18083498342E+04  0.50400001928E-02 0. -1.
       -1   -1    0    0    0  501  0.00000000000E+00  0.00000000000E+00 -0.13501181493E+04  0.13501181493E+04  0.50400001928E-02 0.  1.
    10030    2    1    2    0    0  0.00000000000E+00  0.00000000000E+00  0.45823168493E+03  0.31584679835E+04  0.31250509957E+04 0.  0.
        2    1    3    3  502    0 -0.48966722659E+03 -0.83217112787E+03  0.14707487721E+04  0.17593705492E+04  0.25500000920E-02 0. -1.
       -2    1    3    3    0  502  0.48966722659E+03  0.83217112787E+03 -0.10125170871E+04  0.13990974343E+04  0.25500000920E-02 0.  1.
</event>
<event>
 5   0  0.4017247E-06  0.3314484E+04  0.7818609E-02  0.8159220E-01
        2   -1    0    0  501    0  0.00000000000E+00  0.00000000000E+00  0.17249297890E+04  0.17249297890E+04  0.25500000920E-02 0.  1.
       -2   -1    0    0    0  501  0.00000000000E+00  0.00000000000E+00 -0.15922106062E+04  0.15922106062E+04  0.25500000920E-02 0. -1.
    10030    2    1    2    0    0  0.00000000000E+00  0.00000000000E+00  0.13271918278E+03  0.33171403952E+04  0.33144842766E+04 0.  0.
        1    1    3    3  502    0 -0.51981110080E+03  0.37822412196E+03  0.15950634302E+04  0.17197338205E+04  0.50400001928E-02 0.  1.
       -1    1    3    3    0  502  0.51981110080E+03 -0.37822412196E+03 -0.14623442474E+04  0.15974065747E+04  0.50400001928E-02 0. -1.
</event>
<event>
 5   0  0.3896210E-06  0.2797743E+04  0.7818609E-02  0.8303969E-01
        2   -1    0    0  501    0  0.00000000000E+00  0.00000000000E+00  0.21811248915E+04  0.21811248915E+04  0.25500000920E-02 0. -1.
       -2   -1    0    0    0  501  0.00000000000E+00  0.00000000000E+00 -0.89717094668E+03  0.89717094669E+03  0.25500000920E-02 0.  1.
    10030    2    1    2    0    0  0.00000000000E+00  0.00000000000E+00  0.12839539448E+04  0.30782958382E+04  0.27977432932E+04 0.  0.
        3    1    3    3  502    0  0.34489007438E+03  0.19642685185E+03 -0.83391779278E+03  0.92355377041E+03  0.10100000352E+00 0.  1.
       -3    1    3    3    0  502 -0.34489007438E+03 -0.19642685185E+03  0.21178717376E+04  0.21547420677E+04  0.10100000352E+00 0. -1.
</event>
<event>
 5   0  0.1405389E-06  0.3354146E+04  0.7818609E-02  0.8149253E-01
        1   -1    0    0  501    0  0.00000000000E+00  0.00000000000E+00  0.25355989656E+04  0.25355989656E+04  0.50400001928E-02 0.  1.
       -1   -1    0    0    0  501  0.00000000000E+00  0.00000000000E+00 -0.11092343014E+04  0.11092343014E+04  0.50400001928E-02 0. -1.
    10030    2    1    2    0    0  0.00000000000E+00  0.00000000000E+00  0.14263646642E+04  0.36448332670E+04  0.33541457018E+04 0.  0.
        1    1    3    3  502    0 -0.98977627496E+03  0.12055519809E+04  0.13826604062E+04  0.20844093773E+04  0.50400001928E-02 0.  1.
       -1    1    3    3    0  502  0.98977627496E+03 -0.12055519809E+04  0.43704257920E+02  0.15604238896E+04  0.50400001928E-02 0. -1.
</event>
<event>
 5   0  0.1405389E-06  0.2049568E+04  0.7818609E-02  0.8583790E-01
       -1   -1    0    0    0  501  0.00000000000E+00  0.00000000000E+00  0.89886309902E+03  0.89886309903E+03  0.50400001928E-02 0. -1.
        1   -1    0    0  501    0  0.00000000000E+00  0.00000000000E+00 -0.11683451510E+04  0.11683451510E+04  0.50400001928E-02 0.  1.
    10030    2    1    2    0    0  0.00000000000E+00  0.00000000000E+00 -0.26948205197E+03  0.20672082500E+04  0.20495680942E+04 0.  0.
        1    1    3    3  502    0  0.25329476315E+03 -0.65309514792E+03  0.61968795934E+03  0.93525647618E+03  0.50400001928E-02 0. -1.
       -1    1    3    3    0  502 -0.25329476315E+03  0.65309514792E+03 -0.88917001131E+03  0.11319517738E+04  0.50400001928E-02 0.  1.
</event>
<event>
 5   0  0.4017247E-06  0.3213893E+04  0.7818609E-02  0.8185158E-01
        2   -1    0    0  501    0  0.00000000000E+00  0.00000000000E+00  0.10961882793E+04  0.10961882793E+04  0.25500000920E-02 0.  1.
       -2   -1    0    0    0  501  0.00000000000E+00  0.00000000000E+00 -0.23556875554E+04  0.23556875554E+04  0.25500000920E-02 0. -1.
    10030    2    1    2    0    0  0.00000000000E+00  0.00000000000E+00 -0.12594992760E+04  0.34518758347E+04  0.32138930212E+04 0.  0.
        1    1    3    3  502    0  0.13087384615E+04 -0.93211969146E+03 -0.65678512013E+03  0.17358024582E+04  0.50400001928E-02 0.  1.
       -1    1    3    3    0  502 -0.13087384615E+04  0.93211969146E+03 -0.60271415591E+03  0.17160733765E+04  0.50400001928E-02 0. -1.
</event>
<event>
 5   0  0.1391878E-06  0.3262481E+04  0.7818609E-02  0.8172508E-01
        1   -1    0    0  501    0  0.00000000000E+00  0.00000000000E+00  0.18940263009E+04  0.18940263009E+04  0.50400001928E-02 0.  1.
       -1   -1    0    0    0  501  0.00000000000E+00  0.00000000000E+00 -0.14049152187E+04  0.14049152187E+04  0.50400001928E-02 0. -1.
    10030    2    1    2    0    0  0.00000000000E+00  0.00000000000E+00  0.48911108224E+03  0.32989415196E+04  0.32624814941E+04 0.  0.
        2    1    3    3  502    0 -0.93246735913E+03  0.10713290131E+04 -0.56672311455E+03  0.15291881240E+04  0.25500000920E-02 0.  1.
       -2    1    3    3    0  502  0.93246735913E+03 -0.10713290131E+04  0.10558341968E+04  0.17697533956E+04  0.25500000920E-02 0. -1.
</event>
<event>
 5   0  0.1405389E-06  0.3290933E+04  0.7818609E-02  0.8165206E-01
       -1   -1    0    0    0  501  0.00000000000E+00  0.00000000000E+00  0.90647188234E+03  0.90647188235E+03  0.50400001928E-02 0.  1.
        1   -1    0    0  501    0  0.00000000000E+00  0.00000000000E+00 -0.29869214631E+04  0.29869214631E+04  0.50400001928E-02 0. -1.
    10030    2    1    2    0    0  0.00000000000E+00  0.00000000000E+00 -0.20804495808E+04  0.38933933455E+04  0.32909331935E+04 0.  0.
        1    1    3    3  502    0 -0.53245222292E+03 -0.10322334945E+04  0.33871995406E+03  0.12098522902E+04  0.50400001928E-02 0.  1.
       -1    1    3    3    0  502  0.53245222292E+03  0.10322334945E+04 -0.24191695348E+04  0.26835410552E+04  0.50400001928E-02 0. -1.
</event>
<event>
 5   0  0.3896210E-06  0.3279529E+04  0.7818609E-02  0.8168124E-01
       -2   -1    0    0    0  501  0.00000000000E+00  0.00000000000E+00  0.30857283717E+04  0.30857283717E+04  0.25500000920E-02 0.  1.
        2   -1    0    0  501    0  0.00000000000E+00  0.00000000000E+00 -0.87137534608E+03  0.87137534609E+03  0.25500000920E-02 0. -1.
    10030    2    1    2    0    0  0.00000000000E+00  0.00000000000E+00  0.22143530256E+04  0.39571037178E+04  0.32795290075E+04 0.  0.
        3    1    3    3  502    0 -0.77955892555E+03 -0.46545133909E+03  0.27547459264E+04  0.29005141263E+04  0.10100000352E+00 0.  1.
       -3    1    3    3    0  502  0.77955892555E+03  0.46545133909E+03 -0.54039290079E+03  0.10565895915E+04  0.10100000352E+00 0. -1.
</event>
<event>
 5   0  0.1282578E-06  0.3287411E+04  0.7818609E-02  0.8166106E-01
        1   -1    0    0  501    0  0.00000000000E+00  0.00000000000E+00  0.12733185178E+04  0.12733185178E+04  0.50400001928E-02 0.  1.
       -1   -1    0    0    0  501  0.00000000000E+00  0.00000000000E+00 -0.21218322809E+04  0.21218322809E+04  0.50400001928E-02 0. -1.
    10030    2    1    2    0    0  0.00000000000E+00  0.00000000000E+00 -0.84851376306E+03  0.33951507987E+04  0.32874113432E+04 0.  0.
        4    1    3    3  502    0 -0.70303479893E+03 -0.28907403550E+03  0.10808822676E+04  0.13214120537E+04  0.12699999809E+01 0.  1.
       -4    1    3    3    0  502  0.70303479893E+03  0.28907403550E+03 -0.19293960306E+04  0.20737387450E+04  0.12699999809E+01 0. -1.
</event>
<event>
 5   0  0.1405389E-06  0.3268577E+04  0.7818609E-02  0.8170937E-01
       -1   -1    0    0    0  501  0.00000000000E+00  0.00000000000E+00  0.19368693477E+04  0.19368693477E+04  0.50400001928E-02 0.  1.
        1   -1    0    0  501    0  0.00000000000E+00  0.00000000000E+00 -0.13789775036E+04  0.13789775036E+04  0.50400001928E-02 0. -1.
    10030    2    1    2    0    0  0.00000000000E+00  0.00000000000E+00  0.55789184414E+03  0.33158468513E+04  0.32685772182E+04 0.  0.
        1    1    3    3  502    0 -0.82572654945E+03 -0.12008691329E+03  0.17044918869E+04  0.18977717971E+04  0.50400001928E-02 0.  1.
       -1    1    3    3    0  502  0.82572654945E+03  0.12008691329E+03 -0.11466000428E+04  0.14180750542E+04  0.50400001928E-02 0. -1.
</event>
<event>
 5   0  0.1405389E-06  0.2597709E+04  0.7818609E-02  0.8368980E-01
       -1   -1    0    0    0  501  0.00000000000E+00  0.00000000000E+00  0.12287533323E+04  0.12287533323E+04  0.50400001928E-02 0.  1.
        1   -1    0    0  501    0  0.00000000000E+00  0.00000000000E+00 -0.13729554330E+04  0.13729554330E+04  0.50400001928E-02 0. -1.
    10030    2    1    2    0    0  0.00000000000E+00  0.00000000000E+00 -0.14420210072E+03  0.26017087653E+04  0.25977094244E+04 0.  0.
        1    1    3    3  502    0 -0.67127293578E+03 -0.11090830553E+04 -0.15191681403E+03  0.13052782447E+04  0.50400001928E-02 0. -1.
       -1    1    3    3    0  502  0.67127293578E+03  0.11090830553E+04  0.77147133121E+01  0.12964305205E+04  0.50400001928E-02 0.  1.
</event>
<event>
 5   0  0.3671997E-06  0.3320087E+04  0.7818609E-02  0.8157803E-01
        2   -1    0    0  501    0  0.00000000000E+00  0.00000000000E+00  0.13542067767E+04  0.13542067767E+04  0.25500000920E-02 0.  1.
       -2   -1    0    0    0  501  0.00000000000E+00  0.00000000000E+00 -0.20349512396E+04  0.20349512396E+04  0.25500000920E-02 0. -1.
    10030    2    1    2    0    0  0.00000000000E+00  0.00000000000E+00 -0.68074446295E+03  0.33891580163E+04  0.33200872030E+04 0.  0.
        2    1    3    3  502    0 -0.34845770601E+03 -0.14899307903E+04  0.31678151861E+03  0.15625834581E+04  0.25500000920E-02 0.  1.
       -2    1    3    3    0  502  0.34845770601E+03  0.14899307903E+04 -0.99752598156E+03  0.18265745582E+04  0.25500000920E-02 0. -1.
</event>
<event>
 5   0  0.3920487E-06  0.3241363E+04  0.7818609E-02  0.8177978E-01
       -2   -1    0    0    0  501  0.00000000000E+00  0.00000000000E+00  0.16358542657E+04  0.16358542657E+04  0.25500000920E-02 0. -1.
        2   -1    0    0  501    0  0.00000000000E+00  0.00000000000E+00 -0.16056492996E+04  0.16056492996E+04  0.25500000920E-02 0.  1.
    10030    2    1    2    0    0  0.00000000000E+00  0.00000000000E+00  0.30204966118E+02  0.32415035653E+04  0.32413628344E+04 0.  0.
        4    1    3    3  502    0 -0.46172322287E+03  0.15147451733E+04 -0.32982605884E+03  0.16175376708E+04  0.12699999809E+01 0.  1.
       -4    1    3    3    0  502  0.46172322287E+03 -0.15147451733E+04  0.36003102495E+03  0.16239658945E+04  0.12699999809E+01 0. -1.
</event>
<event>
 5   0  0.3896210E-06  0.3323266E+04  0.7818609E-02  0.8157001E-01
        2   -1    0    0  501    0  0.00000000000E+00  0.00000000000E+00  0.15704891495E+04  0.15704891495E+04  0.25500000920E-02 0.  1.
       -2   -1    0    0    0  501  0.00000000000E+00  0.00000000000E+00 -0.17580661958E+04  0.17580661958E+04  0.25500000920E-02 0. -1.
    10030    2    1    2    0    0  0.00000000000E+00  0.00000000000E+00 -0.18757704621E+03  0.33285553453E+04  0.33232657941E+04 0.  0.
        3    1    3    3  502    0  0.12572798831E+04  0.55021745276E+02 -0.11805241549E+04  0.17255194544E+04  0.10100000352E+00 0. -1.
       -3    1    3    3    0  502 -0.12572798831E+04 -0.55021745276E+02  0.99294710867E+03  0.16030358910E+04  0.10100000352E+00 0.  1.
</event>
<event>
 5   0  0.1339825E-06  0.2069750E+04  0.7818609E-02  0.8574687E-01
       -1   -1    0    0    0  501  0.00000000000E+00  0.00000000000E+00  0.63688882014E+03  0.63688882016E+03  0.50400001928E-02 0.  1.
        1   -1    0    0  501    0  0.00000000000E+00  0.00000000000E+00 -0.16815588812E+04  0.16815588812E+04  0.50400001928E-02 0. -1.
    10030    2    1    2    0    0  0.00000000000E+00  0.00000000000E+00 -0.10446700610E+04  0.23184477013E+04  0.20697497934E+04 0.  0.
        3    1    3    3  502    0  0.11496917541E+02 -0.98169833572E+03 -0.88892344298E+03  0.13244050359E+04  0.10100000352E+00 0. -1.
       -3    1    3    3    0  502 -0.11496917541E+02  0.98169833572E+03 -0.15574661806E+03  0.99404266543E+03  0.10100000352E+00 0.  1.
</event>
<event>
 5   0  0.3812379E-06  0.3286832E+04  0.7818609E-02  0.8166254E-01
        2   -1    0    0  501    0  0.00000000000E+00  0.00000000000E+00  0.23937362472E+04  0.23937362472E+04  0.25500000920E-02 0.  1.
       -2   -1    0    0    0  501  0.00000000000E+00  0.00000000000E+00 -0.11282848018E+04  0.11282848018E+04  0.25500000920E-02 0. -1.
    10030    2    1    2    0    0  0.00000000000E+00  0.00000000000E+00  0.12654514454E+04  0.35220210490E+04  0.32868320476E+04 0.  0.
        5    1    3    3  502    0 -0.47419787010E+03 -0.77073567904E+03  0.21027088937E+04  0.22891710047E+04  0.46999998093E+01 0.  1.
       -5    1    3    3    0  502  0.47419787010E+03  0.77073567904E+03 -0.83725744834E+03  0.12328500443E+04  0.46999998093E+01 0. -1.
</event>
<event>
 5   0  0.3671997E-06  0.3320394E+04  0.7818609E-02  0.8157725E-01
        2   -1    0    0  501    0  0.00000000000E+00  0.00000000000E+00  0.26762160781E+04  0.26762160781E+04  0.25500000920E-02 0. -1.
       -2   -1    0    0    0  501  0.00000000000E+00  0.00000000000E+00 -0.10299074470E+04  0.10299074471E+04  0.25500000920E-02 0.  1.
    10030    2    1    2    0    0  0.00000000000E+00  0.00000000000E+00  0.16463086310E+04  0.37061235251E+04  0.33203944758E+04 0.  0.
        2    1    3    3  502    0 -0.52226089082E+03 -0.72443807659E+03  0.23852686882E+04  0.25469734352E+04  0.25500000920E-02 0. -1.
       -2    1    3    3    0  502  0.52226089082E+03  0.72443807659E+03 -0.73896005715E+03  0.11591500899E+04  0.25500000920E-02 0.  1.
</event>
<event>
 5   0  0.1339825E-06  0.3309492E+04  0.7818609E-02  0.8160484E-01
        1   -1    0    0  501    0  0.00000000000E+00  0.00000000000E+00  0.16901475649E+04  0.16901475649E+04  0.50400001928E-02 0. -1.
       -1   -1    0    0    0  501  0.00000000000E+00  0.00000000000E+00 -0.16200862559E+04  0.16200862559E+04  0.50400001928E-02 0.  1.
    10030    2    1    2    0    0  0.00000000000E+00  0.00000000000E+00  0.70061309079E+02  0.33102338208E+04  0.33094923117E+04 0.  0.
        3    1    3    3  502    0  0.47376176687E+03  0.22501137589E+03  0.16048103734E+04  0.16883413979E+04  0.10100000352E+00 0. -1.
       -3    1    3    3    0  502 -0.47376176687E+03 -0.22501137589E+03 -0.15347490643E+04  0.16218924229E+04  0.10100000352E+00 0.  1.
</event>
<event>
 5   0  0.3812379E-06  0.3080550E+04  0.7818609E-02  0.8221096E-01
        2   -1    0    0  501    0  0.00000000000E+00  0.00000000000E+00  0.17033466567E+04  0.17033466567E+04  0.25500000920E-02 0. -1.
       -2   -1    0    0    0  501  0.00000000000E+00  0.00000000000E+00 -0.13928154785E+04  0.13928154785E+04  0.25500000920E-02 0.  1.
    10030    2    1    2    0    0  0.00000000000E+00  0.00000000000E+00  0.31053117816E+03  0.30961621352E+04  0.30805503331E+04 0.  0.
        5    1    3    3  502    0  0.75148896210E+03 -0.45227498413E+03 -0.11173016213E+04  0.14204482829E+04  0.46999998093E+01 0.  1.
       -5    1    3    3    0  502 -0.75148896210E+03  0.45227498413E+03  0.14278327995E+04  0.16757138523E+04  0.46999998093E+01 0. -1.
</event>
<event>
 5   0  0.1259875E-06  0.3281079E+04  0.7818609E-02  0.8167727E-01
        3   -1    0    0  501    0  0.00000000000E+00  0.00000000000E+00  0.14956358171E+04  0.14956358205E+04  0.10100000352E+00 0.  1.
       -3   -1    0    0    0  501  0.00000000000E+00  0.00000000000E+00 -0.17994822982E+04  0.17994823011E+04  0.10100000352E+00 0. -1.
    10030    2    1    2    0    0  0.00000000000E+00  0.00000000000E+00 -0.30384648116E+03  0.32951181216E+04  0.32810792052E+04 0.  0.
        4    1    3    3  502    0  0.95815523929E+03 -0.12191259322E+04 -0.68997590086E+03  0.16971734908E+04  0.12699999809E+01 0. -1.
       -4    1    3    3    0  502 -0.95815523929E+03  0.12191259322E+04  0.38612941970E+03  0.15979446307E+04  0.12699999809E+01 0.  1.
</event>
<event>
 5   0  0.3812379E-06  0.2310979E+04  0.7818609E-02  0.8473605E-01
       -2   -1    0    0    0  501  0.00000000000E+00  0.00000000000E+00  0.10236464665E+04  0.10236464665E+04  0.25500000920E-02 0.  1.
        2   -1    0    0  501    0  0.00000000000E+00  0.00000000000E+00 -0.13043137062E+04  0.13043137062E+04  0.25500000920E-02 0. -1.
    10030    2    1    2    0    0  0.00000000000E+00  0.00000000000E+00 -0.28066723970E+03  0.23279601727E+04  0.23109791142E+04 0.  0.
        5    1    3    3  502    0  0.82435366874E+03  0.80105246550E+03 -0.25905548047E+03  0.11782936203E+04  0.46999998093E+01 0.  1.
       -5    1    3    3    0  502 -0.82435366874E+03 -0.80105246550E+03 -0.21611759233E+02  0.11496665524E+04  0.46999998093E+01 0. -1.
</event>
<event>
 5   0  0.4017247E-06  0.3295181E+04  0.7818609E-02  0.8164123E-01
       -2   -1    0    0    0  501  0.00000000000E+00  0.00000000000E+00  0.20468209225E+04  0.20468209225E+04  0.25500000920E-02 0.  1.
        2   -1    0    0  501    0  0.00000000000E+00  0.00000000000E+00 -0.13262295125E+04  0.13262295125E+04  0.25500000920E-02 0. -1.
    10030    2    1    2    0    0  0.00000000000E+00  0.00000000000E+00  0.72059141005E+03  0.33730504350E+04  0.32951809142E+04 0.  0.
        1    1    3    3  502    0 -0.12588865851E+04 -0.76375549516E+03  0.11169776850E+04  0.18481766797E+04  0.50400001928E-02 0.  1.
       -1    1    3    3    0  502  0.12588865851E+04  0.76375549516E+03 -0.39638627500E+03  0.15248737553E+04  0.50400001928E-02 0. -1.
</event>
<event>
 5   0  0.3920487E-06  0.2392294E+04  0.7818609E-02  0.8442394E-01
       -2   -1    0    0    0  501  0.00000000000E+00  0.00000000000E+00  0.12634341073E+04  0.12634341073E+04  0.25500000920E-02 0.  1.
        2   -1    0    0  501    0  0.00000000000E+00  0.00000000000E+00 -0.11324436259E+04  0.11324436259E+04  0.25500000920E-02 0. -1.
    10030    2    1    2    0    0  0.00000000000E+00  0.00000000000E+00  0.13099048139E+03  0.23958777332E+04  0.23922942139E+04 0.  0.
        4    1    3    3  502    0  0.72875886707E+02 -0.61772383537E+03  0.10887265546E+04  0.12538822733E+04  0.12699999809E+01 0.  1.
       -4    1    3    3    0  502 -0.72875886707E+02  0.61772383537E+03 -0.95773607319E+03  0.11419954599E+04  0.12699999809E+01 0. -1.
</event>
<event>
 5   0  0.1339825E-06  0.3325775E+04  0.7818609E-02  0.8156368E-01
        1   -1    0    0  501    0  0.00000000000E+00  0.00000000000E+00  0.23481435419E+04  0.23481435420E+04  0.50400001928E-02 0.  1.
       -1   -1    0    0    0  501  0.00000000000E+00  0.00000000000E+00 -0.11776089646E+04  0.11776089646E+04  0.50400001928E-02 0. -1.
    10030    2    1    2    0    0  0.00000000000E+00  0.00000000000E+00  0.11705345774E+04  0.35257525065E+04  0.33257750286E+04 0.  0.
        3    1    3    3  502    0  0.80121425833E+03 -0.12922072064E+04  0.12991456139E+04  0.19998807685E+04  0.10100000352E+00 0.  1.
       -3    1    3    3    0  502 -0.80121425833E+03  0.12922072064E+04 -0.12861103650E+03  0.15258717380E+04  0.10100000352E+00 0. -1.
</event>
<event>
 5   0  0.1282578E-06  0.3254104E+04  0.7818609E-02  0.8174673E-01
       -1   -1    0    0    0  501  0.00000000000E+00  0.00000000000E+00  0.19338486227E+04  0.19338486227E+04  0.50400001928E-02 0.  1.
        1   -1    0    0  501    0  0.00000000000E+00  0.00000000000E+00 -0.13689270528E+04  0.13689270528E+04  0.50400001928E-02 0. -1.
    10030    2    1    2    0    0  0.00000000000E+00  0.00000000000E+00  0.56492156995E+03  0.33027756755E+04  0.32541036834E+04 0.  0.
        4    1    3    3  502    0  0.24877164115E+03  0.14765975182E+04  0.92843017497E+03  0.17618773405E+04  0.12699999809E+01 0.  1.
       -4    1    3    3    0  502 -0.24877164115E+03 -0.14765975182E+04 -0.36350860502E+03  0.15408983351E+04  0.12699999809E+01 0. -1.
</event>
<event>
 5   0  0.4017247E-06  0.2700172E+04  0.7818609E-02  0.8334949E-01
        2   -1    0    0  501    0  0.00000000000E+00  0.00000000000E+00  0.93275397651E+03  0.93275397651E+03  0.25500000920E-02 0.  1.
       -2   -1    0    0    0  501  0.00000000000E+00  0.00000000000E+00 -0.19541399369E+04  0.19541399369E+04  0.25500000920E-02 0. -1.
    10030    2    1    2    0    0  0.00000000000E+00  0.00000000000E+00 -0.10213859604E+04  0.28868939134E+04  0.27001716959E+04 0.  0.
        1    1    3    3  502    0 -0.70844026209E+03 -0.33109040102E+03  0.66596856263E+03  0.10271429234E+04  0.50400001928E-02 0.  1.
       -1    1    3    3    0  502  0.70844026209E+03  0.33109040102E+03 -0.16873545230E+04  0.18597509901E+04  0.50400001928E-02 0. -1.
</event>
<event>
 5   0  0.1405389E-06  0.3249046E+04  0.7818609E-02  0.8175983E-01
       -1   -1    0    0    0  501  0.00000000000E+00  0.00000000000E+00  0.12363244582E+04  0.12363244582E+04  0.50400001928E-02 0.  1.
        1   -1    0    0  501    0  0.00000000000E+00  0.00000000000E+00 -0.21346131117E+04  0.21346131117E+04  0.50400001928E-02 0. -1.
    10030    2    1    2    0    0  0.00000000000E+00  0.00000000000E+00 -0.89828865349E+03  0.33709375699E+04  0.32490456438E+04 0.  0.
        1    1    3    3  502    0 -0.32455197434E+03  0.14737800340E+04  0.17484455492E+03  0.15191880038E+04  0.50400001928E-02 0.  1.
       -1    1    3    3    0  502  0.32455197434E+03 -0.14737800340E+04 -0.10731332084E+04  0.18517495661E+04  0.50400001928E-02 0. -1.
</event>
<event>
 5   0  0.3920487E-06  0.3133140E+04  0.7818609E-02  0.8206701E-01
       -2   -1    0    0    0  501  0.00000000000E+00  0.00000000000E+00  0.81559048910E+03  0.81559048911E+03  0.25500000920E-02 0. -1.
        2   -1    0    0  501    0  0.00000000000E+00  0.00000000000E+00 -0.30090366429E+04  0.30090366429E+04  0.25500000920E-02 0.  1.
    10030    2    1    2    0    0  0.00000000000E+00  0.00000000000E+00 -0.21934461538E+04  0.38246271320E+04  0.31331400654E+04 0.  0.
        4    1    3    3  502    0  0.15352147574E+03  0.14731788490E+04 -0.47390798148E+03  0.15551254459E+04  0.12699999809E+01 0.  1.
       -4    1    3    3    0  502 -0.15352147574E+03 -0.14731788490E+04 -0.17195381723E+04  0.22695016862E+04  0.12699999809E+01 0. -1.
</event>
<event>
 5   0  0.3812379E-06  0.3210638E+04  0.7818609E-02  0.8186013E-01
       -2   -1    0    0    0  501  0.00000000000E+00  0.00000000000E+00  0.14023616111E+04  0.14023616111E+04  0.25500000920E-02 0.  1.
        2   -1    0    0  501    0  0.00000000000E+00  0.00000000000E+00 -0.18376490919E+04  0.18376490919E+04  0.25500000920E-02 0. -1.
    10030    2    1    2    0    0  0.00000000000E+00  0.00000000000E+00 -0.43528748085E+03  0.32400107030E+04  0.32106376570E+04 0.  0.
        5    1    3    3  502    0 -0.10320454839E+04 -0.98684666483E+02 -0.14544870336E+04  0.17861722104E+04  0.46999998093E+01 0. -1.
       -5    1    3    3    0  502  0.10320454839E+04  0.98684666483E+02  0.10191995528E+04  0.14538384926E+04  0.46999998093E+01 0.  1.
</event>
<event>
 5   0  0.3812379E-06  0.2388087E+04  0.7818609E-02  0.8443977E-01
        2   -1    0    0  501    0  0.00000000000E+00  0.00000000000E+00  0.14469764130E+04  0.14469764130E+04  0.25500000920E-02 0. -1.
       -2   -1    0    0    0  501  0.00000000000E+00  0.00000000000E+00 -0.98532361239E+03  0.98532361239E+03  0.25500000920E-02 0.  1.
    10030    2    1    2    0    0  0.00000000000E+00  0.00000000000E+00  0.46165280065E+03  0.24323000254E+04  0.23880871226E+04 0.  0.
        5    1    3    3  502    0 -0.19007119125E+03  0.59121342004E+03 -0.80788683959E+03  0.10190012764E+04  0.46999998093E+01 0.  1.
       -5    1    3    3    0  502  0.19007119125E+03 -0.59121342004E+03  0.12695396402E+04  0.14132987490E+04  0.46999998093E+01 0. -1.
</event>
<event>
 5   0  0.1282578E-06  0.3266107E+04  0.7818609E-02  0.8171573E-01
        1   -1    0    0  501    0  0.00000000000E+00  0.00000000000E+00  0.17569231170E+04  0.17569231171E+04  0.50400001928E-02 0. -1.
       -1   -1    0    0    0  501  0.00000000000E+00  0.00000000000E+00 -0.15179171915E+04  0.15179171915E+04  0.50400001928E-02 0.  1.
    10030    2    1    2    0    0  0.00000000000E+00  0.00000000000E+00  0.23900592556E+03  0.32748403086E+04  0.32661070427E+04 0.  0.
        4    1    3    3  502    0 -0.27385445536E+03 -0.56462169272E+03  0.16312041467E+04  0.17477478364E+04  0.12699999809E+01 0. -1.
       -4    1    3    3    0  502  0.27385445536E+03  0.56462169272E+03 -0.13921982211E+04  0.15270924721E+04  0.12699999809E+01 0.  1.
</event>
<event>
 5   0  0.1282578E-06  0.3280669E+04  0.7818609E-02  0.8167832E-01
        1   -1    0    0  501    0  0.00000000000E+00  0.00000000000E+00  0.96034038941E+03  0.96034038942E+03  0.50400001928E-02 0. -1.
       -1   -1    0    0    0  501  0.00000000000E+00  0.00000000000E+00 -0.28018163672E+04  0.28018163672E+04  0.50400001928E-02 0.  1.
    10030    2    1    2    0    0  0.00000000000E+00  0.00000000000E+00 -0.18414759778E+04  0.37621567566E+04  0.32806690910E+04 0.  0.
        4    1    3    3  502    0  0.71593818805E+03  0.99727386053E+03 -0.21683283636E+04  0.24917407866E+04  0.12699999809E+01 0.  1.
       -4    1    3    3    0  502 -0.71593818805E+03 -0.99727386053E+03  0.32685238582E+03  0.12704159701E+04  0.12699999809E+01 0. -1.
</event>
<event>
 5   0  0.1405389E-06  0.3237897E+04  0.7818609E-02  0.8178880E-01
        1   -1    0    0  501    0  0.00000000000E+00  0.00000000000E+00  0.17007651420E+04  0.17007651420E+04  0.50400001928E-02 0. -1.
       -1   -1    0    0    0  501  0.00000000000E+00  0.00000000000E+00 -0.15410681515E+04  0.15410681515E+04  0.50400001928E-02 0.  1.
    10030    2    1    2    0    0  0.00000000000E+00  0.00000000000E+00  0.15969699048E+03  0.32418332935E+04  0.32378974619E+04 0.  0.
        1    1    3    3  502    0  0.14410066936E+04 -0.44888583318E+03  0.66621917767E+03  0.16498020411E+04  0.50400001928E-02 0.  1.
       -1    1    3    3    0  502 -0.14410066936E+04  0.44888583318E+03 -0.50652218719E+03  0.15920312523E+04  0.50400001928E-02 0. -1.
</event>
<event>
 5   0  0.3812379E-06  0.3328490E+04  0.7818609E-02  0.8155684E-01
       -2   -1    0    0    0  501  0.00000000000E+00  0.00000000000E+00  0.21505515305E+04  0.21505515305E+04  0.25500000920E-02 0.  1.
        2   -1    0    0  501    0  0.00000000000E+00  0.00000000000E+00 -0.12879071442E+04  0.12879071442E+04  0.25500000920E-02 0. -1.
    10030    2    1    2    0    0  0.00000000000E+00  0.00000000000E+00  0.86264438630E+03  0.34384586747E+04  0.33284895555E+04 0.  0.
        5    1    3    3  502    0 -0.66279258111E+03 -0.21789154636E+03  0.19921742943E+04  0.21108176711E+04  0.46999998093E+01 0.  1.
       -5    1    3    3    0  502  0.66279258111E+03  0.21789154636E+03 -0.11295299080E+04  0.13276410037E+04  0.46999998093E+01 0. -1.
</event>
<event>
 5   0  0.3920487E-06  0.3243356E+04  0.7818609E-02  0.8177460E-01
        2   -1    0    0  501    0  0.00000000000E+00  0.00000000000E+00  0.17604607376E+04  0.17604607376E+04  0.25500000920E-02 0. -1.
       -2   -1    0    0    0  501  0.00000000000E+00  0.00000000000E+00 -0.14938358816E+04  0.14938358816E+04  0.25500000920E-02 0.  1.
    10030    2    1    2    0    0  0.00000000000E+00  0.00000000000E+00  0.26662485604E+03  0.32542966192E+04  0.32433559274E+04 0.  0.
        4    1    3    3  502    0  0.10382803898E+04 -0.12427114216E+04  0.46533923963E+02  0.16200385379E+04  0.12699999809E+01 0. -1.
       -4    1    3    3    0  502 -0.10382803898E+04  0.12427114216E+04  0.22009093207E+03  0.16342580814E+04  0.12699999809E+01 0.  1.
</event>
<event>
 5   0  0.4017247E-06  0.3308978E+04  0.7818609E-02  0.8160615E-01
        2   -1    0    0  501    0  0.00000000000E+00  0.00000000000E+00  0.16914501004E+04  0.16914501005E+04  0.25500000920E-02 0.  1.
       -2   -1    0    0    0  501  0.00000000000E+00  0.00000000000E+00 -0.16183356195E+04  0.16183356195E+04  0.25500000920E-02 0. -1.
    10030    2    1    2    0    0  0.00000000000E+00  0.00000000000E+00  0.73114480950E+02  0.33097857200E+04  0.33089780574E+04 0.  0.
        1    1    3    3  502    0 -0.11630720623E+04  0.38616953616E+03  0.11483457094E+04  0.16794527088E+04  0.50400001928E-02 0.  1.
       -1    1    3    3    0  502  0.11630720623E+04 -0.38616953616E+03 -0.10752312284E+04  0.16303330112E+04  0.50400001928E-02 0. -1.
</event>
<event>
 5   0  0.4017247E-06  0.3308855E+04  0.7818609E-02  0.8160646E-01
        2   -1    0    0  501    0  0.00000000000E+00  0.00000000000E+00  0.18286874586E+04  0.18286874586E+04  0.25500000920E-02 0. -1.
       -2   -1    0    0    0  501  0.00000000000E+00  0.00000000000E+00 -0.14967730082E+04  0.14967730082E+04  0.25500000920E-02 0.  1.
    10030    2    1    2    0    0  0.00000000000E+00  0.00000000000E+00  0.33191445042E+03  0.33254604668E+04  0.33088548040E+04 0.  0.
        1    1    3    3  502    0 -0.25307229983E+03  0.43354848413E+03 -0.14183805403E+04  0.15045973661E+04  0.50400001928E-02 0.  1.
       -1    1    3    3    0  502  0.25307229983E+03 -0.43354848413E+03  0.17502949907E+04  0.18208631007E+04  0.50400001928E-02 0. -1.
</event>
<event>
 5   0  0.1391878E-06  0.3259891E+04  0.7818609E-02  0.8173177E-01
        1   -1    0    0  501    0  0.00000000000E+00  0.00000000000E+00  0.18201183495E+04  0.18201183495E+04  0.50400001928E-02 0.  1.
       -1   -1    0    0    0  501  0.00000000000E+00  0.00000000000E+00 -0.14596427269E+04  0.14596427269E+04  0.50400001928E-02 0. -1.
    10030    2    1    2    0    0  0.00000000000E+00  0.00000000000E+00  0.36047562263E+03  0.32797610765E+04  0.32598911093E+04 0.  0.
        2    1    3    3  502    0  0.16181222445E+04 -0.18357433838E+03  0.24923698983E+03  0.16474641766E+04  0.25500000920E-02 0.  1.
       -2    1    3    3    0  502 -0.16181222445E+04  0.18357433838E+03  0.11123863280E+03  0.16322968999E+04  0.25500000920E-02 0. -1.
</event>
<event>
 5   0  0.1352708E-06  0.3277005E+04  0.7818609E-02  0.8168771E-01
       -1   -1    0    0    0  501  0.00000000000E+00  0.00000000000E+00  0.16821271439E+04  0.16821271439E+04  0.50400001928E-02 0. -1.
        1   -1    0    0  501    0  0.00000000000E+00  0.00000000000E+00 -0.15960094137E+04  0.15960094137E+04  0.50400001928E-02 0.  1.
    10030    2    1    2    0    0  0.00000000000E+00  0.00000000000E+00  0.86117730239E+02  0.32781365576E+04  0.32770051917E+04 0.  0.
        5    1    3    3  502    0 -0.12090148735E+04  0.10449635345E+04  0.40512707055E+03  0.16485799301E+04  0.46999998093E+01 0.  1.
       -5    1    3    3    0  502  0.12090148735E+04 -0.10449635345E+04 -0.31900934031E+03  0.16295566274E+04  0.46999998093E+01 0. -1.
</event>
<event>
 5   0  0.3812379E-06  0.3245795E+04  0.7818609E-02  0.8176826E-01
        2   -1    0    0  501    0  0.00000000000E+00  0.00000000000E+00  0.20618335296E+04  0.20618335296E+04  0.25500000920E-02 0.  1.
       -2   -1    0    0    0  501  0.00000000000E+00  0.00000000000E+00 -0.12774051234E+04  0.12774051234E+04  0.25500000920E-02 0. -1.
    10030    2    1    2    0    0  0.00000000000E+00  0.00000000000E+00  0.78442840617E+03  0.33392386530E+04  0.32457952580E+04 0.  0.
        5    1    3    3  502    0  0.23563649305E+03  0.96372459617E+03 -0.92908300944E+03  0.13592302905E+04  0.46999998093E+01 0. -1.
       -5    1    3    3    0  502 -0.23563649305E+03 -0.96372459617E+03  0.17135114156E+04  0.19800083625E+04  0.46999998093E+01 0.  1.
</event>
<event>
 5   0  0.1282578E-06  0.2214600E+04  0.7818609E-02  0.8512376E-01
        1   -1    0    0  501    0  0.00000000000E+00  0.00000000000E+00  0.19070796872E+04  0.19070796872E+04  0.50400001928E-02 0. -1.
       -1   -1    0    0    0  501  0.00000000000E+00  0.00000000000E+00 -0.64292722792E+03  0.64292722794E+03  0.50400001928E-02 0.  1.
    10030    2    1    2    0    0  0.00000000000E+00  0.00000000000E+00  0.12641524593E+04  0.25500069151E+04  0.22146001506E+04 0.  0.
        4    1    3    3  502    0  0.33163016493E+03  0.41000810780E+03  0.17532070747E+04  0.18307981523E+04  0.12699999809E+01 0. -1.
       -4    1    3    3    0  502 -0.33163016493E+03 -0.41000810780E+03 -0.48905461544E+03  0.71920876283E+03  0.12699999809E+01 0.  1.
</event>
<event>
 5   0  0.3671997E-06  0.3299749E+04  0.7818609E-02  0.8162959E-01
        2   -1    0    0  501    0  0.00000000000E+00  0.00000000000E+00  0.18481479445E+04  0.18481479445E+04  0.25500000920E-02 0. -1.
       -2   -1    0    0    0  501  0.00000000000E+00  0.00000000000E+00 -0.14728722684E+04  0.14728722684E+04  0.25500000920E-02 0.  1.
    10030    2    1    2    0    0  0.00000000000E+00  0.00000000000E+00  0.37527567609E+03  0.33210202129E+04  0.32997489937E+04 0.  0.
        2    1    3    3  502    0 -0.79580020070E+03  0.25997896863E+03 -0.12432155397E+04  0.14988235059E+04  0.25500000920E-02 0.  1.
       -2    1    3    3    0  502  0.79580020070E+03 -0.25997896863E+03  0.16184912158E+04  0.18221967070E+04  0.25500000920E-02 0. -1.
</event>
<event>
 5   0  0.1405389E-06  0.3311312E+04  0.7818609E-02  0.8160023E-01
       -1   -1    0    0    0  501  0.00000000000E+00  0.00000000000E+00  0.25357948133E+04  0.25357948133E+04  0.50400001928E-02 0. -1.
        1   -1    0    0  501    0  0.00000000000E+00  0.00000000000E+00 -0.10810011045E+04  0.10810011045E+04  0.50400001928E-02 0.  1.
    10030    2    1    2    0    0  0.00000000000E+00  0.00000000000E+00  0.14547937089E+04  0.36167959178E+04  0.33113121230E+04 0.  0.
        1    1    3    3  502    0 -0.10366857022E+04 -0.18327818905E+03  0.21231293730E+04  0.23698072652E+04  0.50400001928E-02 0. -1.
       -1    1    3    3    0  502  0.10366857022E+04  0.18327818905E+03 -0.66833566414E+03  0.12469886526E+04  0.50400001928E-02 0.  1.
</event>
<event>
 5   0  0.3896210E-06  0.3268159E+04  0.7818609E-02  0.8171045E-01
       -2   -1    0    0    0  501  0.00000000000E+00  0.00000000000E+00  0.11246964928E+04  0.11246964928E+04  0.25500000920E-02 0. -1.
        2   -1    0    0  501    0  0.00000000000E+00  0.00000000000E+00 -0.23741658139E+04  0.23741658139E+04  0.25500000920E-02 0.  1.
    10030    2    1    2    0    0  0.00000000000E+00  0.00000000000E+00 -0.12494693211E+04  0.34988623067E+04  0.32681590930E+04 0.  0.
        3    1    3    3  502    0  0.50837289414E+03  0.98921516848E+03 -0.19064189098E+04  0.22071299733E+04  0.10100000352E+00 0.  1.
       -3    1    3    3    0  502 -0.50837289414E+03 -0.98921516848E+03  0.65694958867E+03  0.12917323335E+04  0.10100000352E+00 0. -1.
</event>
<event>
 5   0  0.3812379E-06  0.3320548E+04  0.7818609E-02  0.8157687E-01
        2   -1    0    0  501    0  0.00000000000E+00  0.00000000000E+00  0.15656426489E+04  0.15656426489E+04  0.25500000920E-02 0. -1.
       -2   -1    0    0    0  501  0.00000000000E+00  0.00000000000E+00 -0.17606247490E+04  0.17606247490E+04  0.25500000920E-02 0.  1.
    10030    2    1    2    0    0  0.00000000000E+00  0.00000000000E+00 -0.19498210004E+03  0.33262673979E+04  0.33205476631E+04 0.  0.
        5    1    3    3  502    0  0.56125897566E+03  0.12146530742E+04  0.88710251519E+03  0.16054179178E+04  0.46999998093E+01 0. -1.
       -5    1    3    3    0  502 -0.56125897566E+03 -0.12146530742E+04 -0.10820846152E+04  0.17208494800E+04  0.46999998093E+01 0.  1.
</event>
<event>
 5   0  0.1405389E-06  0.3313935E+04  0.7818609E-02  0.8159359E-01
        1   -1    0    0  501    0  0.00000000000E+00  0.00000000000E+00  0.26788368464E+04  0.26788368464E+04  0.50400001928E-02 0.  1.
       -1   -1    0    0    0  501  0.00000000000E+00  0.00000000000E+00 -0.10249006559E+04  0.10249006560E+04  0.50400001928E-02 0. -1.
    10030    2    1    2    0    0  0.00000000000E+00  0.00000000000E+00  0.16539361904E+04  0.37037375023E+04  0.33139352082E+04 0.  0.
        1    1    3    3  502    0  0.10486054346E+03 -0.11292911491E+04  0.21770516624E+04  0.24547603088E+04  0.50400001928E-02 0. -1.
       -1    1    3    3    0  502 -0.10486054346E+03  0.11292911491E+04 -0.52311547195E+03  0.12489771935E+04  0.50400001928E-02 0.  1.
</event>
<event>
 5   0  0.1282578E-06  0.3177556E+04  0.7818609E-02  0.8194770E-01
       -1   -1    0    0    0  501  0.00000000000E+00  0.00000000000E+00  0.12620645523E+04  0.12620645523E+04  0.50400001928E-02 0.  1.
        1   -1    0    0  501    0  0.00000000000E+00  0.00000000000E+00 -0.20000684410E+04  0.20000684410E+04  0.50400001928E-02 0. -1.
    10030    2    1    2    0    0  0.00000000000E+00  0.00000000000E+00 -0.73800388870E+03  0.32621329933E+04  0.31775559674E+04 0.  0.
        4    1    3    3  502    0  0.55634316109E+03  0.90426395594E+03  0.84440674512E+03  0.13565527557E+04  0.12699999809E+01 0.  1.
       -4    1    3    3    0  502 -0.55634316109E+03 -0.90426395594E+03 -0.15824106338E+04  0.19055802376E+04  0.12699999809E+01 0. -1.
</event>
<event>
 5   0  0.1259875E-06  0.3148569E+04  0.7818609E-02  0.8202533E-01
        3   -1    0    0  501    0  0.00000000000E+00  0.00000000000E+00  0.16668256454E+04  0.16668256484E+04  0.10100000352E+00 0.  1.
       -3   -1    0    0    0  501  0.00000000000E+00  0.00000000000E+00 -0.14868814975E+04  0.14868815009E+04  0.10100000352E+00 0. -1.
    10030    2    1    2    0    0  0.00000000000E+00  0.00000000000E+00  0.17994414790E+03  0.31537071493E+04  0.31485693398E+04 0.  0.
        4    1    3    3  502    0 -0.40931079090E+02  0.14712791180E+04  0.64948274339E+03  0.16087781212E+04  0.12699999809E+01 0.  1.
       -4    1    3    3    0  502  0.40931079090E+02 -0.14712791180E+04 -0.46953859548E+03  0.15449290281E+04  0.12699999809E+01 0. -1.
</event>
<event>
 5   0  0.1352708E-06  0.3285611E+04  0.7818609E-02  0.8166566E-01
        1   -1    0    0  501    0  0.00000000000E+00  0.00000000000E+00  0.16885411522E+04  0.16885411522E+04  0.50400001928E-02 0. -1.
       -1   -1    0    0    0  501  0.00000000000E+00  0.00000000000E+00 -0.15983089497E+04  0.15983089497E+04  0.50400001928E-02 0.  1.
    10030    2    1    2    0    0  0.00000000000E+00  0.00000000000E+00  0.90232202418E+02  0.32868501019E+04  0.32856113194E+04 0.  0.
        5    1    3    3  502    0  0.11346791390E+03 -0.15040386129E+04  0.69634635841E+03  0.16613029397E+04  0.46999998093E+01 0.  1.
       -5    1    3    3    0  502 -0.11346791390E+03  0.15040386129E+04 -0.60611415599E+03  0.16255471622E+04  0.46999998093E+01 0. -1.
</event>
<event>
 5   0  0.3812379E-06  0.3238310E+04  0.7818609E-02  0.8178772E-01
        2   -1    0    0  501    0  0.00000000000E+00  0.00000000000E+00  0.22610367664E+04  0.22610367665E+04  0.25500000920E-02 0.  1.
       -2   -1    0    0    0  501  0.00000000000E+00  0.00000000000E+00 -0.11594959845E+04  0.11594959845E+04  0.25500000920E-02 0. -1.
    10030    2    1    2    0    0  0.00000000000E+00  0.00000000000E+00  0.11015407820E+04  0.34205327509E+04  0.32383100848E+04 0.  0.
        5    1    3    3  502    0 -0.32418201385E+03  0.15172819589E+04  0.61678814767E+02  0.15527604088E+04  0.46999998093E+01 0. -1.
       -5    1    3    3    0  502  0.32418201385E+03 -0.15172819589E+04  0.10398619672E+04  0.18677723421E+04  0.46999998093E+01 0.  1.
</event>
<event>
 5   0  0.3812379E-06  0.3367177E+04  0.7818609E-02  0.8146010E-01
       -2   -1    0    0    0  501  0.00000000000E+00  0.00000000000E+00  0.27853431383E+04  0.27853431383E+04  0.25500000920E-02 0.  1.
        2   -1    0    0  501    0  0.00000000000E+00  0.00000000000E+00 -0.10176375517E+04  0.10176375517E+04  0.25500000920E-02 0. -1.
    10030    2    1    2    0    0  0.00000000000E+00  0.00000000000E+00  0.17677055866E+04  0.38029806900E+04  0.33671767236E+04 0.  0.
        5    1    3    3  502    0 -0.11432518385E+04 -0.23323125644E+03  0.22546191291E+04  0.25386514319E+04  0.46999998093E+01 0.  1.
       -5    1    3    3    0  502  0.11432518385E+04  0.23323125644E+03 -0.48691354248E+03  0.12643292582E+04  0.46999998093E+01 0. -1.
</event>
<event>
 5   0  0.3896210E-06  0.3260195E+04  0.7818609E-02  0.8173098E-01
       -2   -1    0    0    0  501  0.00000000000E+00  0.00000000000E+00  0.21708299021E+04  0.21708299021E+04  0.25500000920E-02 0.  1.
        2   -1    0    0  501    0  0.00000000000E+00  0.00000000000E+00 -0.12240559313E+04  0.12240559313E+04  0.25500000920E-02 0. -1.
    10030    2    1    2    0    0  0.00000000000E+00  0.00000000000E+00  0.94677397088E+03  0.33948858334E+04  0.32601946062E+04 0.  0.
        3    1    3    3  502    0 -0.15031472755E+04 -0.14650178210E+03  0.11121655270E+04  0.18755870211E+04  0.10100000352E+00 0.  1.
       -3    1    3    3    0  502  0.15031472755E+04  0.14650178210E+03 -0.16539155615E+03  0.15192988123E+04  0.10100000352E+00 0. -1.
</event>
<event>
 5   0  0.3812379E-06  0.2683068E+04  0.7818609E-02  0.8340520E-01
        2   -1    0    0  501    0  0.00000000000E+00  0.00000000000E+00  0.13417101861E+04  0.13417101861E+04  0.25500000920E-02 0.  1.
       -2   -1    0    0    0  501  0.00000000000E+00  0.00000000000E+00 -0.13413580770E+04  0.13413580770E+04  0.25500000920E-02 0. -1.
    10030    2    1    2    0    0  0.00000000000E+00  0.00000000000E+00  0.35210907223E+00  0.26830682631E+04  0.26830682400E+04 0.  0.
        5    1    3    3  502    0 -0.85535627668E+03 -0.99723623711E+03 -0.27107518283E+03  0.13414985343E+04  0.46999998093E+01 0.  1.
       -5    1    3    3    0  502  0.85535627668E+03  0.99723623711E+03  0.27142729191E+03  0.13415697289E+04  0.46999998093E+01 0. -1.
</event>
<event>
 5   0  0.1391878E-06  0.3302530E+04  0.7818609E-02  0.8162252E-01
        1   -1    0    0  501    0  0.00000000000E+00  0.00000000000E+00  0.12313114130E+04  0.12313114130E+04  0.50400001928E-02 0.  1.
       -1   -1    0    0    0  501  0.00000000000E+00  0.00000000000E+00 -0.22144492927E+04  0.22144492927E+04  0.50400001928E-02 0. -1.
    10030    2    1    2    0    0  0.00000000000E+00  0.00000000000E+00 -0.98313787965E+03  0.34457607057E+04  0.33025303558E+04 0.  0.
        2    1    3    3  502    0  0.33229411254E+03 -0.14094335990E+04 -0.13195565654E+04  0.19591202047E+04  0.25500000920E-02 0. -1.
       -2    1    3    3    0  502 -0.33229411254E+03  0.14094335990E+04  0.33641868578E+03  0.14866405010E+04  0.25500000920E-02 0.  1.
</event>
<event>
 5   0  0.3896210E-06  0.3279828E+04  0.7818609E-02  0.8168047E-01
        2   -1    0    0  501    0  0.00000000000E+00  0.00000000000E+00  0.31152215633E+04  0.31152215633E+04  0.25500000920E-02 0.  1.
       -2   -1    0    0    0  501  0.00000000000E+00  0.00000000000E+00 -0.86328304706E+03  0.86328304706E+03  0.25500000920E-02 0. -1.
    10030    2    1    2    0    0  0.00000000000E+00  0.00000000000E+00  0.22519385162E+04  0.39785046103E+04  0.32798280220E+04 0.  0.
        3    1    3    3  502    0 -0.11851924006E+04 -0.90114998777E+03  0.19598421541E+04  0.24612463522E+04  0.10100000352E+00 0.  1.
       -3    1    3    3    0  502  0.11851924006E+04  0.90114998777E+03  0.29209636214E+03  0.15172582582E+04  0.10100000352E+00 0. -1.
</event>
<event>
 5   0  0.3671997E-06  0.3462428E+04  0.7818609E-02  0.8122752E-01
        2   -1    0    0  501    0  0.00000000000E+00  0.00000000000E+00  0.25865979117E+04  0.25865979117E+04  0.25500000920E-02 0. -1.
       -2   -1    0    0    0  501  0.00000000000E+00  0.00000000000E+00 -0.11587042929E+04  0.11587042929E+04  0.25500000920E-02 0.  1.
    10030    2    1    2    0    0  0.00000000000E+00  0.00000000000E+00  0.14278936188E+04  0.37453022046E+04  0.34624281100E+04 0.  0.
        2    1    3    3  502    0 -0.66809246296E+03  0.15919854011E+04  0.85220564482E+03  0.19253621782E+04  0.25500000920E-02 0.  1.
       -2    1    3    3    0  502  0.66809246296E+03 -0.15919854011E+04  0.57568797393E+03  0.18199400264E+04  0.25500000920E-02 0. -1.
</event>
<event>
 5   0  0.3896210E-06  0.2219296E+04  0.7818609E-02  0.8510439E-01
        2   -1    0    0  501    0  0.00000000000E+00  0.00000000000E+00  0.80574477410E+03  0.80574477410E+03  0.25500000920E-02 0.  1.
       -2   -1    0    0    0  501  0.00000000000E+00  0.00000000000E+00 -0.15281747937E+04  0.15281747937E+04  0.25500000920E-02 0. -1.
    10030    2    1    2    0    0  0.00000000000E+00  0.00000000000E+00 -0.72243001965E+03  0.23339195678E+04  0.22192961533E+04 0.  0.
        3    1    3    3  502    0 -0.30131308324E+03  0.10268033476E+04 -0.52445275340E+02  0.10713847142E+04  0.10100000352E+00 0.  1.
       -3    1    3    3    0  502  0.30131308324E+03 -0.10268033476E+04 -0.66998474431E+03  0.12625348536E+04  0.10100000352E+00 0. -1.
</event>
<event>
 5   0  0.1391878E-06  0.3298091E+04  0.7818609E-02  0.8163381E-01
       -1   -1    0    0    0  501  0.00000000000E+00  0.00000000000E+00  0.12998694633E+04  0.12998694633E+04  0.50400001928E-02 0.  1.
        1   -1    0    0  501    0  0.00000000000E+00  0.00000000000E+00 -0.20920184042E+04  0.20920184043E+04  0.50400001928E-02 0. -1.
    10030    2    1    2    0    0  0.00000000000E+00  0.00000000000E+00 -0.79214894098E+03  0.33918878675E+04  0.32980908661E+04 0.  0.
        2    1    3    3  502    0  0.97721376099E+03  0.35216321434E+03  0.92112572862E+03  0.13883221068E+04  0.25500000920E-02 0.  1.
       -2    1    3    3    0  502 -0.97721376099E+03 -0.35216321434E+03 -0.17132746696E+04  0.20035657608E+04  0.25500000920E-02 0. -1.
</event>
<event>
 5   0  0.3671997E-06  0.3277145E+04  0.7818609E-02  0.8168735E-01
        2   -1    0    0  501    0  0.00000000000E+00  0.00000000000E+00  0.20175382870E+04  0.20175382870E+04  0.25500000920E-02 0.  1.
       -2   -1    0    0    0  501  0.00000000000E+00  0.00000000000E+00 -0.13307899463E+04  0.13307899463E+04  0.25500000920E-02 0. -1.
    10030    2    1    2    0    0  0.00000000000E+00  0.00000000000E+00  0.68674834065E+03  0.33483282334E+04  0.32771448968E+04 0.  0.
        2    1    3    3  502    0  0.17608048996E+02  0.16663787676E+03 -0.13220129421E+04  0.13325901262E+04  0.25500000920E-02 0. -1.
       -2    1    3    3    0  502 -0.17608048996E+02 -0.16663787676E+03  0.20087612828E+04  0.20157381071E+04  0.25500000920E-02 0.  1.
</event>
<event>
 5   0  0.1282578E-06  0.3268509E+04  0.7818609E-02  0.8170955E-01
        1   -1    0    0  501    0  0.00000000000E+00  0.00000000000E+00  0.14419024622E+04  0.14419024622E+04  0.50400001928E-02 0.  1.
       -1   -1    0    0    0  501  0.00000000000E+00  0.00000000000E+00 -0.18522669029E+04  0.18522669029E+04  0.50400001928E-02 0. -1.
    10030    2    1    2    0    0  0.00000000000E+00  0.00000000000E+00 -0.41036444078E+03  0.32941693651E+04  0.32685092675E+04 0.  0.
        4    1    3    3  502    0  0.54278818164E+03  0.15353083769E+04 -0.34408939774E+03  0.16643887613E+04  0.12699999809E+01 0. -1.
       -4    1    3    3    0  502 -0.54278818164E+03 -0.15353083769E+04 -0.66275043043E+02  0.16297806038E+04  0.12699999809E+01 0.  1.
</event>
<event>
 5   0  0.1282578E-06  0.2274636E+04  0.7818609E-02  0.8487989E-01
       -1   -1    0    0    0  501  0.00000000000E+00  0.00000000000E+00  0.16898329439E+04  0.16898329439E+04  0.50400001928E-02 0. -1.
        1   -1    0    0  501    0  0.00000000000E+00  0.00000000000E+00 -0.76545561233E+03  0.76545561235E+03  0.50400001928E-02 0.  1.
    10030    2    1    2    0    0  0.00000000000E+00  0.00000000000E+00  0.92437733152E+03  0.24552885562E+04  0.22746358924E+04 0.  0.
        4    1    3    3  502    0  0.87367321905E+03 -0.58278670831E+03 -0.89944537362E+01  0.10502512814E+04  0.12699999809E+01 0.  1.
       -4    1    3    3    0  502 -0.87367321905E+03  0.58278670831E+03  0.93337178526E+03  0.14050372748E+04  0.12699999809E+01 0. -1.
</event>
<event>
 5   0  0.3920487E-06  0.3233320E+04  0.7818609E-02  0.8180072E-01
        2   -1    0    0  501    0  0.00000000000E+00  0.00000000000E+00  0.29232587755E+04  0.29232587755E+04  0.25500000920E-02 0.  1.
       -2   -1    0    0    0  501  0.00000000000E+00  0.00000000000E+00 -0.89406715666E+03  0.89406715667E+03  0.25500000920E-02 0. -1.
    10030    2    1    2    0    0  0.00000000000E+00  0.00000000000E+00  0.20291916188E+04  0.38173259321E+04  0.32333200656E+04 0.  0.
        4    1    3    3  502    0  0.53749636638E+03  0.92495119570E+03 -0.41641779081E+03  0.11479731912E+04  0.12699999809E+01 0. -1.
       -4    1    3    3    0  502 -0.53749636638E+03 -0.92495119570E+03  0.24456094096E+04  0.26693527409E+04  0.12699999809E+01 0.  1.
</event>
<event>
 5   0  0.1442001E-06  0.2164757E+04  0.7818609E-02  0.8533242E-01
       -1   -1    0    0    0  501  0.00000000000E+00  0.00000000000E+00  0.10452235291E+04  0.10452235291E+04  0.50400001928E-02 0. -1.
        1   -1    0    0  501    0  0.00000000000E+00  0.00000000000E+00 -0.11208546390E+04  0.11208546390E+04  0.50400001928E-02 0.  1.
    10030    2    1    2    0    0  0.00000000000E+00  0.00000000000E+00 -0.75631109888E+02  0.21660781681E+04  0.21647573919E+04 0.  0.
        3    1    3    3  502    0  0.22033396009E+03 -0.19947303162E+03  0.10035917992E+04  0.10466771488E+04  0.10100000352E+00 0. -1.
       -3    1    3    3    0  502 -0.22033396009E+03  0.19947303162E+03 -0.10792229091E+04  0.11194010193E+04  0.10100000352E+00 0.  1.
</event>
<event>
 5   0  0.1391878E-06  0.3455138E+04  0.7818609E-02  0.8124505E-01
       -1   -1    0    0    0  501  0.00000000000E+00  0.00000000000E+00  0.13989649543E+04  0.13989649543E+04  0.50400001928E-02 0.  1.
        1   -1    0    0  501    0  0.00000000000E+00  0.00000000000E+00 -0.21333596464E+04  0.21333596464E+04  0.50400001928E-02 0. -1.
    10030    2    1    2    0    0  0.00000000000E+00  0.00000000000E+00 -0.73439469208E+03  0.35323246007E+04  0.34551384228E+04 0.  0.
        2    1    3    3  502    0 -0.10731479156E+04  0.16039478856E+03 -0.17415207571E+04  0.20518936338E+04  0.25500000920E-02 0. -1.
       -2    1    3    3    0  502  0.10731479156E+04 -0.16039478856E+03  0.10071260650E+04  0.14804309669E+04  0.25500000920E-02 0.  1.
</event>
<event>
 5   0  0.3896210E-06  0.3269276E+04  0.7818609E-02  0.8170758E-01
       -2   -1    0    0    0  501  0.00000000000E+00  0.00000000000E+00  0.10736492497E+04  0.10736492497E+04  0.25500000920E-02 0.  1.
        2   -1    0    0  501    0  0.00000000000E+00  0.00000000000E+00 -0.24887463336E+04  0.24887463336E+04  0.25500000920E-02 0. -1.
    10030    2    1    2    0    0  0.00000000000E+00  0.00000000000E+00 -0.14150970839E+04  0.35623955833E+04  0.32692755367E+04 0.  0.
        3    1    3    3  502    0  0.10920439384E+04 -0.65738643726E+02  0.61590910888E+03  0.12554782249E+04  0.10100000352E+00 0.  1.
       -3    1    3    3    0  502 -0.10920439384E+04  0.65738643726E+02 -0.20310061928E+04  0.23069173583E+04  0.10100000352E+00 0. -1.
</event>
<event>
 5   0  0.3896210E-06  0.3208934E+04  0.7818609E-02  0.8186462E-01
       -2   -1    0    0    0  501  0.00000000000E+00  0.00000000000E+00  0.12358965729E+04  0.12358965729E+04  0.25500000920E-02 0. -1.
        2   -1    0    0  501    0  0.00000000000E+00  0.00000000000E+00 -0.20829527399E+04  0.20829527399E+04  0.25500000920E-02 0.  1.
    10030    2    1    2    0    0  0.00000000000E+00  0.00000000000E+00 -0.84705616700E+03  0.33188493129E+04  0.32089338746E+04 0.  0.
        3    1    3    3  502    0 -0.92462194454E+03  0.81923739695E+03  0.63537647456E+03  0.13891648309E+04  0.10100000352E+00 0. -1.
       -3    1    3    3    0  502  0.92462194454E+03 -0.81923739695E+03 -0.14824326416E+04  0.19296844819E+04  0.10100000352E+00 0.  1.
</event>
<event>
 5   0  0.3671997E-06  0.3293897E+04  0.7818609E-02  0.8164450E-01
       -2   -1    0    0    0  501  0.00000000000E+00  0.00000000000E+00  0.11768097392E+04  0.11768097392E+04  0.25500000920E-02 0. -1.
        2   -1    0    0  501    0  0.00000000000E+00  0.00000000000E+00 -0.23049090931E+04  0.23049090931E+04  0.25500000920E-02 0.  1.
    10030    2    1    2    0    0  0.00000000000E+00  0.00000000000E+00 -0.11280993538E+04  0.34817188323E+04  0.32938970651E+04 0.  0.
        2    1    3    3  502    0  0.53355446787E+03  0.14396504159E+04 -0.11939897407E+04  0.19449640591E+04  0.25500000920E-02 0.  1.
       -2    1    3    3    0  502 -0.53355446787E+03 -0.14396504159E+04  0.65890386890E+02  0.15367547733E+04  0.25500000920E-02 0. -1.
</event>
<event>
 5   0  0.1405389E-06  0.3357571E+04  0.7818609E-02  0.8148399E-01
        1   -1    0    0  501    0  0.00000000000E+00  0.00000000000E+00  0.19649160309E+04  0.19649160309E+04  0.50400001928E-02 0. -1.
       -1   -1    0    0    0  501  0.00000000000E+00  0.00000000000E+00 -0.14343212586E+04  0.14343212586E+04  0.50400001928E-02 0.  1.
    10030    2    1    2    0    0  0.00000000000E+00  0.00000000000E+00  0.53059477227E+03  0.33992372895E+04  0.33575710474E+04 0.  0.
        1    1    3    3  502    0  0.21173690303E+03  0.24687283039E+03 -0.14021207336E+04  0.14393475127E+04  0.50400001928E-02 0.  1.
       -1    1    3    3    0  502 -0.21173690303E+03 -0.24687283039E+03  0.19327155059E+04  0.19598897768E+04  0.50400001928E-02 0. -1.
</event>
<event>
 5   0  0.3920487E-06  0.3263913E+04  0.7818609E-02  0.8172139E-01
       -2   -1    0    0    0  501  0.00000000000E+00  0.00000000000E+00  0.11826111182E+04  0.11826111182E+04  0.25500000920E-02 0. -1.
        2   -1    0    0  501    0  0.00000000000E+00  0.00000000000E+00 -0.22520354227E+04  0.22520354227E+04  0.25500000920E-02 0.  1.
    10030    2    1    2    0    0  0.00000000000E+00  0.00000000000E+00 -0.10694243045E+04  0.34346465408E+04  0.32639130683E+04 0.  0.
        4    1    3    3  502    0  0.94041628263E+03 -0.13331305201E+04 -0.49182814619E+03  0.17039707470E+04  0.12699999809E+01 0.  1.
       -4    1    3    3    0  502 -0.94041628263E+03  0.13331305201E+04 -0.57759615834E+03  0.17306757938E+04  0.12699999809E+01 0. -1.
</event>
<event>
 5   0  0.1339825E-06  0.3275039E+04  0.7818609E-02  0.8169276E-01
        1   -1    0    0  501    0  0.00000000000E+00  0.00000000000E+00  0.27218600516E+04  0.27218600516E+04  0.50400001928E-02 0. -1.
       -1   -1    0    0    0  501  0.00000000000E+00  0.00000000000E+00 -0.98516120233E+03  0.98516120234E+03  0.50400001928E-02 0.  1.
    10030    2    1    2    0    0  0.00000000000E+00  0.00000000000E+00  0.17366988493E+04  0.37070212540E+04  0.32750394935E+04 0.  0.
        3    1    3    3  502    0 -0.38874918333E+03 -0.62382905222E+03 -0.78793667305E+03  0.10775587338E+04  0.10100000352E+00 0.  1.
       -3    1    3    3    0  502  0.38874918333E+03  0.62382905222E+03  0.25246355223E+04  0.26294625201E+04  0.10100000352E+00 0. -1.
</event>
<event>
 5   0  0.3896210E-06  0.3252817E+04  0.7818609E-02  0.8175006E-01
       -2   -1    0    0    0  501  0.00000000000E+00  0.00000000000E+00  0.19706860336E+04  0.19706860336E+04  0.25500000920E-02 0.  1.
        2   -1    0    0  501    0  0.00000000000E+00  0.00000000000E+00 -0.13422758480E+04  0.13422758480E+04  0.25500000920E-02 0. -1.
    10030    2    1    2    0    0  0.00000000000E+00  0.00000000000E+00  0.62841018554E+03  0.33129618816E+04  0.32528167898E+04 0.  0.
        3    1    3    3  502    0 -0.38003126988E+02 -0.14459249846E+03  0.19636727861E+04  0.19693557448E+04  0.10100000352E+00 0.  1.
       -3    1    3    3    0  502  0.38003126988E+02  0.14459249846E+03 -0.13352626006E+04  0.13436061369E+04  0.10100000352E+00 0. -1.
</event>
<event>
 5   0  0.3896210E-06  0.3250126E+04  0.7818609E-02  0.8175703E-01
       -2   -1    0    0    0  501  0.00000000000E+00  0.00000000000E+00  0.18288245451E+04  0.18288245451E+04  0.25500000920E-02 0. -1.
        2   -1    0    0  501    0  0.00000000000E+00  0.00000000000E+00 -0.14440034995E+04  0.14440034995E+04  0.25500000920E-02 0.  1.
    10030    2    1    2    0    0  0.00000000000E+00  0.00000000000E+00  0.38482104564E+03  0.32728280446E+04  0.32501255625E+04 0.  0.
        3    1    3    3  502    0 -0.13699215977E+04  0.21082877078E+03 -0.66186372541E+03  0.15359679539E+04  0.10100000352E+00 0.  1.
       -3    1    3    3    0  502  0.13699215977E+04 -0.21082877078E+03  0.10466847710E+04  0.17368600906E+04  0.10100000352E+00 0. -1.
</event>
<event>
 5   0  0.1282578E-06  0.2385785E+04  0.7818609E-02  0.8444845E-01
        1   -1    0    0  501    0  0.00000000000E+00  0.00000000000E+00  0.11538911375E+04  0.11538911375E+04  0.50400001928E-02 0. -1.
       -1   -1    0    0    0  501  0.00000000000E+00  0.00000000000E+00 -0.12332119878E+04  0.12332119878E+04  0.50400001928E-02 0.  1.
    10030    2    1    2    0    0  0.00000000000E+00  0.00000000000E+00 -0.79320850272E+02  0.23871031253E+04  0.23857848883E+04 0.  0.
        4    1    3    3  502    0  0.67456435093E+03 -0.31801474249E+03  0.89188586868E+03  0.11625972887E+04  0.12699999809E+01 0. -1.
       -4    1    3    3    0  502 -0.67456435093E+03  0.31801474249E+03 -0.97120671896E+03  0.12245058366E+04  0.12699999809E+01 0.  1.
</event>
<event>
 5   0  0.1405389E-06  0.3294659E+04  0.7818609E-02  0.8164256E-01
        1   -1    0    0  501    0  0.00000000000E+00  0.00000000000E+00  0.19287322292E+04  0.19287322293E+04  0.50400001928E-02 0.  1.
       -1   -1    0    0    0  501  0.00000000000E+00  0.00000000000E+00 -0.14069832616E+04  0.14069832616E+04  0.50400001928E-02 0. -1.
    10030    2    1    2    0    0  0.00000000000E+00  0.00000000000E+00  0.52174896761E+03  0.33357154909E+04  0.32946586851E+04 0.  0.
        1    1    3    3  502    0 -0.59444679367E+03 -0.15312715398E+04  0.13468405304E+03  0.16481199329E+04  0.50400001928E-02 0. -1.
       -1    1    3    3    0  502  0.59444679367E+03  0.15312715398E+04  0.38706491457E+03  0.16875955580E+04  0.50400001928E-02 0.  1.
</event>
<event>
 5   0  0.4017247E-06  0.3308060E+04  0.7818609E-02  0.8160847E-01
        2   -1    0    0  501    0  0.00000000000E+00  0.00000000000E+00  0.19762044270E+04  0.19762044270E+04  0.25500000920E-02 0.  1.
       -2   -1    0    0    0  501  0.00000000000E+00  0.00000000000E+00 -0.13843790064E+04  0.13843790064E+04  0.25500000920E-02 0. -1.
    10030    2    1    2    0    0  0.00000000000E+00  0.00000000000E+00  0.59182542059E+03  0.33605834334E+04  0.33080604112E+04 0.  0.
        1    1    3    3  502    0  0.63978955362E+03  0.64572535471E+03  0.16997081020E+04  0.19275112292E+04  0.50400001928E-02 0.  1.
       -1    1    3    3    0  502 -0.63978955362E+03 -0.64572535471E+03 -0.11078826814E+04  0.14330722042E+04  0.50400001928E-02 0. -1.
</event>
<event>
 5   0  0.1282578E-06  0.2995757E+04  0.7818609E-02  0.8244944E-01
       -1   -1    0    0    0  501  0.00000000000E+00  0.00000000000E+00  0.98038245049E+03  0.98038245050E+03  0.50400001928E-02 0.  1.
        1   -1    0    0  501    0  0.00000000000E+00  0.00000000000E+00 -0.22885349909E+04  0.22885349909E+04  0.50400001928E-02 0. -1.
    10030    2    1    2    0    0  0.00000000000E+00  0.00000000000E+00 -0.13081525404E+04  0.32689174414E+04  0.29957566940E+04 0.  0.
        4    1    3    3  502    0  0.97745483711E+03  0.11322911236E+04 -0.56859562801E+03  0.16002511516E+04  0.12699999809E+01 0.  1.
       -4    1    3    3    0  502 -0.97745483711E+03 -0.11322911236E+04 -0.73955691240E+03  0.16686662898E+04  0.12699999809E+01 0. -1.
</event>
<event>
 5   0  0.3812379E-06  0.3438257E+04  0.7818609E-02  0.8128580E-01
        2   -1    0    0  501    0  0.00000000000E+00  0.00000000000E+00  0.27488509687E+04  0.27488509687E+04  0.25500000920E-02 0. -1.
       -2   -1    0    0    0  501  0.00000000000E+00  0.00000000000E+00 -0.10751409607E+04  0.10751409607E+04  0.25500000920E-02 0.  1.
    10030    2    1    2    0    0  0.00000000000E+00  0.00000000000E+00  0.16737100080E+04  0.38239919293E+04  0.34382566927E+04 0.  0.
        5    1    3    3  502    0  0.15921182319E+04  0.27613521797E+03  0.18426520565E+03  0.16263661577E+04  0.46999998093E+01 0.  1.
       -5    1    3    3    0  502 -0.15921182319E+04 -0.27613521797E+03  0.14894448023E+04  0.21976257716E+04  0.46999998093E+01 0. -1.
</event>
<event>
 5   0  0.1391878E-06  0.3349841E+04  0.7818609E-02  0.8150328E-01
       -1   -1    0    0    0  501  0.00000000000E+00  0.00000000000E+00  0.28613929618E+04  0.28613929618E+04  0.50400001928E-02 0.  1.
        1   -1    0    0  501    0  0.00000000000E+00  0.00000000000E+00 -0.98041688089E+03  0.98041688090E+03  0.50400001928E-02 0. -1.
    10030    2    1    2    0    0  0.00000000000E+00  0.00000000000E+00  0.18809760809E+04  0.38418098427E+04  0.33498405709E+04 0.  0.
        2    1    3    3  502    0  0.13914063546E+04  0.87180727174E+03  0.13196446479E+04  0.21065425606E+04  0.25500000920E-02 0.  1.
       -2    1    3    3    0  502 -0.13914063546E+04 -0.87180727174E+03  0.56133143300E+03  0.17352672821E+04  0.25500000920E-02 0. -1.
</event>
<event>
 5   0  0.1352708E-06  0.3329242E+04  0.7818609E-02  0.8155494E-01
        1   -1    0    0  501    0  0.00000000000E+00  0.00000000000E+00  0.12707189928E+04  0.12707189928E+04  0.50400001928E-02 0. -1.
       -1   -1    0    0    0  501  0.00000000000E+00  0.00000000000E+00 -0.21806259693E+04  0.21806259693E+04  0.50400001928E-02 0.  1.
    10030    2    1    2    0    0  0.00000000000E+00  0.00000000000E+00 -0.90990697647E+03  0.34513449621E+04  0.33292418569E+04 0.  0.
        5    1    3    3  502    0 -0.11320467041E+04 -0.11333064704E+04 -0.92435991067E+03  0.18494260274E+04  0.46999998093E+01 0.  1.
       -5    1    3    3    0  502  0.11320467041E+04  0.11333064704E+04  0.14452934205E+02  0.16019189347E+04  0.46999998093E+01 0. -1.
</event>
<event>
 5   0  0.1405389E-06  0.3251118E+04  0.7818609E-02  0.8175446E-01
       -1   -1    0    0    0  501  0.00000000000E+00  0.00000000000E+00  0.23431369253E+04  0.23431369253E+04  0.50400001928E-02 0. -1.
        1   -1    0    0  501    0  0.00000000000E+00  0.00000000000E+00 -0.11277370354E+04  0.11277370354E+04  0.50400001928E-02 0.  1.
    10030    2    1    2    0    0  0.00000000000E+00  0.00000000000E+00  0.12153998898E+04  0.34708739607E+04  0.32511181397E+04 0.  0.
        1    1    3    3  502    0 -0.84187511584E+03  0.11576000586E+04  0.14302675048E+04  0.20234764001E+04  0.50400001928E-02 0. -1.
       -1    1    3    3    0  502  0.84187511584E+03 -0.11576000586E+04 -0.21486761496E+03  0.14473975606E+04  0.50400001928E-02 0.  1.
</event>
<event>
 5   0  0.3812379E-06  0.3219790E+04  0.7818609E-02  0.8183610E-01
       -2   -1    0    0    0  501  0.00000000000E+00  0.00000000000E+00  0.18049180255E+04  0.18049180255E+04  0.25500000920E-02 0.  1.
        2   -1    0    0  501    0  0.00000000000E+00  0.00000000000E+00 -0.14359444222E+04  0.14359444222E+04  0.25500000920E-02 0. -1.
    10030    2    1    2    0    0  0.00000000000E+00  0.00000000000E+00  0.36897360331E+03  0.32408624477E+04  0.32197900374E+04 0.  0.
        5    1    3    3  502    0  0.84242122433E+03 -0.57114912370E+03 -0.10710157854E+04  0.14774917067E+04  0.46999998093E+01 0. -1.
       -5    1    3    3    0  502 -0.84242122433E+03  0.57114912370E+03  0.14399893887E+04  0.17633707410E+04  0.46999998093E+01 0.  1.
</event>
<event>
 5   0  0.1391878E-06  0.3278116E+04  0.7818609E-02  0.8168486E-01
        1   -1    0    0  501    0  0.00000000000E+00  0.00000000000E+00  0.13208814836E+04  0.13208814836E+04  0.50400001928E-02 0. -1.
       -1   -1    0    0    0  501  0.00000000000E+00  0.00000000000E+00 -0.20338774970E+04  0.20338774970E+04  0.50400001928E-02 0.  1.
    10030    2    1    2    0    0  0.00000000000E+00  0.00000000000E+00 -0.71299601339E+03  0.33547589807E+04  0.32781159990E+04 0.  0.
        2    1    3    3  502    0 -0.39108817900E+03 -0.41783135902E+03  0.12153080680E+04  0.13433192876E+04  0.25500000920E-02 0. -1.
       -2    1    3    3    0  502  0.39108817900E+03  0.41783135902E+03 -0.19283040814E+04  0.20114396930E+04  0.25500000920E-02 0.  1.
</event>
<event>
 5   0  0.1339825E-06  0.2020583E+04  0.7818609E-02  0.8597057E-01
        1   -1    0    0  501    0  0.00000000000E+00  0.00000000000E+00  0.19103805348E+04  0.19103805349E+04  0.50400001928E-02 0. -1.
       -1   -1    0    0    0  501  0.00000000000E+00  0.00000000000E+00 -0.53428587226E+03  0.53428587228E+03  0.50400001928E-02 0.  1.
    10030    2    1    2    0    0  0.00000000000E+00  0.00000000000E+00  0.13760946626E+04  0.24446664071E+04  0.20205834112E+04 0.  0.
        3    1    3    3  502    0  0.47228167134E+03 -0.71817139661E+03  0.13303897815E+04  0.15839056516E+04  0.10100000352E+00 0. -1.
       -3    1    3    3    0  502 -0.47228167134E+03  0.71817139661E+03  0.45704881045E+02  0.86076075558E+03  0.10100000352E+00 0.  1.
</event>
<event>
 5   0  0.3896210E-06  0.3063763E+04  0.7818609E-02  0.8225754E-01
       -2   -1    0    0    0  501  0.00000000000E+00  0.00000000000E+00  0.10529334274E+04  0.10529334274E+04  0.25500000920E-02 0.  1.
        2   -1    0    0  501    0  0.00000000000E+00  0.00000000000E+00 -0.22286881370E+04  0.22286881371E+04  0.25500000920E-02 0. -1.
    10030    2    1    2    0    0  0.00000000000E+00  0.00000000000E+00 -0.11757547096E+04  0.32816215645E+04  0.30637625488E+04 0.  0.
        3    1    3    3  502    0  0.80223410927E+03 -0.71294442731E+03  0.58291357166E+03  0.12213343378E+04  0.10100000352E+00 0.  1.
       -3    1    3    3    0  502 -0.80223410927E+03  0.71294442731E+03 -0.17586682813E+04  0.20602872267E+04  0.10100000352E+00 0. -1.
</event>
<event>
 5   0  0.3812379E-06  0.3012555E+04  0.7818609E-02  0.8240155E-01
        2   -1    0    0  501    0  0.00000000000E+00  0.00000000000E+00  0.15492131455E+04  0.15492131455E+04  0.25500000920E-02 0. -1.
       -2   -1    0    0    0  501  0.00000000000E+00  0.00000000000E+00 -0.14645318197E+04  0.14645318197E+04  0.25500000920E-02 0.  1.
    10030    2    1    2    0    0  0.00000000000E+00  0.00000000000E+00  0.84681325779E+02  0.30137449652E+04  0.30125550266E+04 0.  0.
        5    1    3    3  502    0  0.26395068223E+03  0.98512979230E+03  0.11512455434E+04  0.15380309039E+04  0.46999998093E+01 0. -1.
       -5    1    3    3    0  502 -0.26395068223E+03 -0.98512979230E+03 -0.10665642176E+04  0.14757140613E+04  0.46999998093E+01 0.  1.
</event>
<event>
 5   0  0.4017247E-06  0.2492588E+04  0.7818609E-02  0.8405631E-01
       -2   -1    0    0    0  501  0.00000000000E+00  0.00000000000E+00  0.82269222529E+03  0.82269222530E+03  0.25500000920E-02 0.  1.
        2   -1    0    0  501    0  0.00000000000E+00  0.00000000000E+00 -0.18880068824E+04  0.18880068824E+04  0.25500000920E-02 0. -1.
    10030    2    1    2    0    0  0.00000000000E+00  0.00000000000E+00 -0.10653146571E+04  0.27106991077E+04  0.24925878788E+04 0.  0.
        1    1    3    3  502    0  0.34425598239E+03 -0.65017122421E+03 -0.16266742700E+04  0.17853022105E+04  0.50400001928E-02 0. -1.
       -1    1    3    3    0  502 -0.34425598239E+03  0.65017122421E+03  0.56135961292E+03  0.92539689715E+03  0.50400001928E-02 0.  1.
</event>
<event>
 5   0  0.1282578E-06  0.2979294E+04  0.7818609E-02  0.8249668E-01
        1   -1    0    0  501    0  0.00000000000E+00  0.00000000000E+00  0.26504496475E+04  0.26504496475E+04  0.50400001928E-02 0.  1.
       -1   -1    0    0    0  501  0.00000000000E+00  0.00000000000E+00 -0.83723455674E+03  0.83723455675E+03  0.50400001928E-02 0. -1.
    10030    2    1    2    0    0  0.00000000000E+00  0.00000000000E+00  0.18132150908E+04  0.34876842042E+04  0.29792939001E+04 0.  0.
        4    1    3    3  502    0 -0.28316384156E+03  0.12437551353E+04  0.59455173666E+01  0.12755961586E+04  0.12699999809E+01 0. -1.
       -4    1    3    3    0  502  0.28316384156E+03 -0.12437551353E+04  0.18072695734E+04  0.22120880456E+04  0.12699999809E+01 0.  1.
</event>
<event>
 5   0  0.1352708E-06  0.3348743E+04  0.7818609E-02  0.8150602E-01
        1   -1    0    0  501    0  0.00000000000E+00  0.00000000000E+00  0.11135543209E+04  0.11135543209E+04  0.50400001928E-02 0.  1.
       -1   -1    0    0    0  501  0.00000000000E+00  0.00000000000E+00 -0.25176312485E+04  0.25176312485E+04  0.50400001928E-02 0. -1.
    10030    2    1    2    0    0  0.00000000000E+00  0.00000000000E+00 -0.14040769276E+04  0.36311855694E+04  0.33487425433E+04 0.  0.
        5    1    3    3  502    0  0.16543884284E+04  0.44504944644E+02 -0.97746010101E+03  0.19220905549E+04  0.46999998093E+01 0. -1.
       -5    1    3    3    0  502 -0.16543884284E+04 -0.44504944644E+02 -0.42661682656E+03  0.17090950145E+04  0.46999998093E+01 0.  1.
</event>
<event>
 5   0  0.1405389E-06  0.3367458E+04  0.7818609E-02  0.8145940E-01
       -1   -1    0    0    0  501  0.00000000000E+00  0.00000000000E+00  0.14921949079E+04  0.14921949079E+04  0.50400001928E-02 0. -1.
        1   -1    0    0  501    0  0.00000000000E+00  0.00000000000E+00 -0.18998480323E+04  0.18998480324E+04  0.50400001928E-02 0.  1.
    10030    2    1    2    0    0  0.00000000000E+00  0.00000000000E+00 -0.40765312442E+03  0.33920429403E+04  0.33674581273E+04 0.  0.
        1    1    3    3  502    0  0.37820476607E+03 -0.11837673665E+04  0.94051293938E+03  0.15584956247E+04  0.50400001928E-02 0. -1.
       -1    1    3    3    0  502 -0.37820476607E+03  0.11837673665E+04 -0.13481660638E+04  0.18335473156E+04  0.50400001928E-02 0.  1.
</event>
<event>
 5   0  0.3671997E-06  0.3176145E+04  0.7818609E-02  0.8195146E-01
        2   -1    0    0  501    0  0.00000000000E+00  0.00000000000E+00  0.22962370127E+04  0.22962370127E+04  0.25500000920E-02 0.  1.
       -2   -1    0    0    0  501  0.00000000000E+00  0.00000000000E+00 -0.10983076201E+04  0.10983076201E+04  0.25500000920E-02 0. -1.
    10030    2    1    2    0    0  0.00000000000E+00  0.00000000000E+00  0.11979293926E+04  0.33945446328E+04  0.31761452162E+04 0.  0.
        2    1    3    3  502    0  0.12584307647E+03 -0.15296770440E+04  0.10347082815E+04  0.18510455334E+04  0.25500000920E-02 0.  1.
       -2    1    3    3    0  502 -0.12584307647E+03  0.15296770440E+04  0.16322111111E+03  0.15434990994E+04  0.25500000920E-02 0. -1.
</event>
<event>
 5   0  0.1339825E-06  0.3099553E+04  0.7818609E-02  0.8215861E-01
       -1   -1    0    0    0  501  0.00000000000E+00  0.00000000000E+00  0.27102373489E+04  0.27102373489E+04  0.50400001928E-02 0.  1.
        1   -1    0    0  501    0  0.00000000000E+00  0.00000000000E+00 -0.88619809047E+03  0.88619809048E+03  0.50400001928E-02 0. -1.
    10030    2    1    2    0    0  0.00000000000E+00  0.00000000000E+00  0.18240392584E+04  0.35964354393E+04  0.30995529764E+04 0.  0.
        3    1    3    3  502    0  0.17140178324E+03 -0.14558588901E+04  0.14955327184E+04  0.20941637475E+04  0.10100000352E+00 0. -1.
       -3    1    3    3    0  502 -0.17140178324E+03  0.14558588901E+04  0.32850653997E+03  0.15022716919E+04  0.10100000352E+00 0.  1.
</event>
<event>
 5   0  0.1391878E-06  0.3272642E+04  0.7818609E-02  0.8169892E-01
        1   -1    0    0  501    0  0.00000000000E+00  0.00000000000E+00  0.15949568088E+04  0.15949568088E+04  0.50400001928E-02 0. -1.
       -1   -1    0    0    0  501  0.00000000000E+00  0.00000000000E+00 -0.16787577137E+04  0.16787577137E+04  0.50400001928E-02 0.  1.
    10030    2    1    2    0    0  0.00000000000E+00  0.00000000000E+00 -0.83800904850E+02  0.32737145225E+04  0.32726417744E+04 0.  0.
        2    1    3    3  502    0  0.13293067335E+03 -0.13769801039E+04 -0.91614417962E+03  0.16592362485E+04  0.25500000920E-02 0.  1.
       -2    1    3    3    0  502 -0.13293067335E+03  0.13769801039E+04  0.83234327477E+03  0.16144782741E+04  0.25500000920E-02 0. -1.
</event>
<event>
 5   0  0.1282578E-06  0.3748730E+04  0.7818609E-02  0.8057248E-01
        1   -1    0    0  501    0  0.00000000000E+00  0.00000000000E+00  0.20543379998E+04  0.20543379998E+04  0.50400001928E-02 0. -1.
       -1   -1    0    0    0  501  0.00000000000E+00  0.00000000000E+00 -0.17101584156E+04  0.17101584157E+04  0.50400001928E-02 0.  1.
    10030    2    1    2    0    0  0.00000000000E+00  0.00000000000E+00  0.34417958420E+03  0.37644964155E+04  0.37487296083E+04 0.  0.
        4    1    3    3  502    0 -0.82425432212E+03 -0.89482030693E+03  0.16039702425E+04  0.20131618715E+04  0.12699999809E+01 0. -1.
       -4    1    3    3    0  502  0.82425432212E+03  0.89482030693E+03 -0.12597906583E+04  0.17513345440E+04  0.12699999809E+01 0.  1.
</event>
<event>
 5   0  0.4017247E-06  0.3373456E+04  0.7818609E-02  0.8144452E-01
       -2   -1    0    0    0  501  0.00000000000E+00  0.00000000000E+00  0.81968761930E+03  0.81968761930E+03  0.25500000920E-02 0. -1.
        2   -1    0    0  501    0  0.00000000000E+00  0.00000000000E+00 -0.34708980223E+04  0.34708980223E+04  0.25500000920E-02 0.  1.
    10030    2    1    2    0    0  0.00000000000E+00  0.00000000000E+00 -0.26512104030E+04  0.42905856416E+04  0.33734564688E+04 0.  0.
        1    1    3    3  502    0  0.12944423277E+04  0.88109906154E+03 -0.21230721150E+04  0.26380583204E+04  0.50400001928E-02 0.  1.
       -1    1    3    3    0  502 -0.12944423277E+04 -0.88109906154E+03 -0.52813828797E+03  0.16525273212E+04  0.50400001928E-02 0. -1.
</event>
<event>
 5   0  0.3896210E-06  0.3287815E+04  0.7818609E-02  0.8166003E-01
        2   -1    0    0  501    0  0.00000000000E+00  0.00000000000E+00  0.31507898938E+04  0.31507898938E+04  0.25500000920E-02 0. -1.
       -2   -1    0    0    0  501  0.00000000000E+00  0.00000000000E+00 -0.85770004963E+03  0.85770004963E+03  0.25500000920E-02 0.  1.
    10030    2    1    2    0    0  0.00000000000E+00  0.00000000000E+00  0.22930898441E+04  0.40084899434E+04  0.32878154743E+04 0.  0.
        3    1    3    3  502    0  0.77846319876E+03  0.12909357764E+04  0.34714628535E+03  0.15469423662E+04  0.10100000352E+00 0.  1.
       -3    1    3    3    0  502 -0.77846319876E+03 -0.12909357764E+04  0.19459435588E+04  0.24615475772E+04  0.10100000352E+00 0. -1.
</event>
<event>
 5   0  0.1391878E-06  0.3250640E+04  0.7818609E-02  0.8175570E-01
        1   -1    0    0  501    0  0.00000000000E+00  0.00000000000E+00  0.15310824930E+04  0.15310824930E+04  0.50400001928E-02 0. -1.
       -1   -1    0    0    0  501  0.00000000000E+00  0.00000000000E+00 -0.17253580748E+04  0.17253580748E+04  0.50400001928E-02 0.  1.
    10030    2    1    2    0    0  0.00000000000E+00  0.00000000000E+00 -0.19427558182E+03  0.32564405678E+04  0.32506402708E+04 0.  0.
        2    1    3    3  502    0 -0.76791922132E+03  0.14212508475E+04 -0.27637501548E+03  0.16389133751E+04  0.25500000920E-02 0.  1.
       -2    1    3    3    0  502  0.76791922132E+03 -0.14212508475E+04  0.82099433661E+02  0.16175271927E+04  0.25500000920E-02 0. -1.
</event>
<event>
 5   0  0.1352708E-06  0.3320922E+04  0.7818609E-02  0.8157592E-01
       -1   -1    0    0    0  501  0.00000000000E+00  0.00000000000E+00  0.11109730667E+04  0.11109730668E+04  0.50400001928E-02 0. -1.
        1   -1    0    0  501    0  0.00000000000E+00  0.00000000000E+00 -0.24817261456E+04  0.24817261456E+04  0.50400001928E-02 0.  1.
    10030    2    1    2    0    0  0.00000000000E+00  0.00000000000E+00 -0.13707530789E+04  0.35926992124E+04  0.33209221050E+04 0.  0.
        5    1    3    3  502    0  0.75264786859E+03 -0.14349406252E+04 -0.29295799079E+03  0.16466268206E+04  0.46999998093E+01 0. -1.
       -5    1    3    3    0  502 -0.75264786859E+03  0.14349406252E+04 -0.10777950881E+04  0.19460723917E+04  0.46999998093E+01 0.  1.
</event>
<event>
 5   0  0.3812379E-06  0.3175268E+04  0.7818609E-02  0.8195379E-01
        2   -1    0    0  501    0  0.00000000000E+00  0.00000000000E+00  0.22440427921E+04  0.22440427921E+04  0.25500000920E-02 0.  1.
       -2   -1    0    0    0  501  0.00000000000E+00  0.00000000000E+00 -0.11232326882E+04  0.11232326882E+04  0.25500000920E-02 0. -1.
    10030    2    1    2    0    0  0.00000000000E+00  0.00000000000E+00  0.11208101039E+04  0.33672754803E+04  0.31752683149E+04 0.  0.
        5    1    3    3  502    0 -0.84263500966E+03 -0.77154582604E+03 -0.60863625001E+03  0.12945180169E+04  0.46999998093E+01 0. -1.
       -5    1    3    3    0  502  0.84263500966E+03  0.77154582604E+03  0.17294463539E+04  0.20727574635E+04  0.46999998093E+01 0.  1.
</event>
<event>
 5   0  0.4017247E-06  0.3315002E+04  0.7818609E-02  0.8159089E-01
        2   -1    0    0  501    0  0.00000000000E+00  0.00000000000E+00  0.23453688765E+04  0.23453688765E+04  0.25500000920E-02 0.  1.
       -2   -1    0    0    0  501  0.00000000000E+00  0.00000000000E+00 -0.11713760616E+04  0.11713760616E+04  0.25500000920E-02 0. -1.
    10030    2    1    2    0    0  0.00000000000E+00  0.00000000000E+00  0.11739928149E+04  0.35167449381E+04  0.33150016335E+04 0.  0.
        1    1    3    3  502    0 -0.31547732639E+03  0.12627192095E+04 -0.50177811994E+03  0.13949075335E+04  0.50400001928E-02 0. -1.
       -1    1    3    3    0  502  0.31547732639E+03 -0.12627192095E+04  0.16757709348E+04  0.21218374046E+04  0.50400001928E-02 0.  1.
</event>
<event>
 5   0  0.1259875E-06  0.3077684E+04  0.7818609E-02  0.8221889E-01
        3   -1    0    0  501    0  0.00000000000E+00  0.00000000000E+00  0.29071053956E+04  0.29071053974E+04  0.10100000352E+00 0. -1.
       -3   -1    0    0    0  501  0.00000000000E+00  0.00000000000E+00 -0.81456778670E+03  0.81456779296E+03  0.10100000352E+00 0.  1.
    10030    2    1    2    0    0  0.00000000000E+00  0.00000000000E+00  0.20925376090E+04  0.37216731904E+04  0.30776838192E+04 0.  0.
        4    1    3    3  502    0 -0.15179905767E+04 -0.71438725544E+02  0.75345690267E+03  0.16962009903E+04  0.12699999809E+01 0.  1.
       -4    1    3    3    0  502  0.15179905767E+04  0.71438725544E+02  0.13390807063E+04  0.20254722001E+04  0.12699999809E+01 0. -1.
</event>
<event>
 5   0  0.1282578E-06  0.3313267E+04  0.7818609E-02  0.8159528E-01
        1   -1    0    0  501    0  0.00000000000E+00  0.00000000000E+00  0.13522715743E+04  0.13522715743E+04  0.50400001928E-02 0.  1.
       -1   -1    0    0    0  501  0.00000000000E+00  0.00000000000E+00 -0.20294996648E+04  0.20294996648E+04  0.50400001928E-02 0. -1.
    10030    2    1    2    0    0  0.00000000000E+00  0.00000000000E+00 -0.67722809053E+03  0.33817712392E+04  0.33132670927E+04 0.  0.
        4    1    3    3  502    0 -0.10212223790E+04 -0.38788877013E+03  0.93255969578E+03  0.14363224027E+04  0.12699999809E+01 0.  1.
       -4    1    3    3    0  502  0.10212223790E+04  0.38788877013E+03 -0.16097877863E+04  0.19454488365E+04  0.12699999809E+01 0. -1.
</event>
<event>
 5   0  0.3920487E-06  0.3759172E+04  0.7818609E-02  0.8054974E-01
       -2   -1    0    0    0  501  0.00000000000E+00  0.00000000000E+00  0.13493556139E+04  0.13493556139E+04  0.25500000920E-02 0. -1.
        2   -1    0    0  501    0  0.00000000000E+00  0.00000000000E+00 -0.26181707739E+04  0.26181707739E+04  0.25500000920E-02 0.  1.
    10030    2    1    2    0    0  0.00000000000E+00  0.00000000000E+00 -0.12688151601E+04  0.39675263878E+04  0.37591719471E+04 0.  0.
        4    1    3    3  502    0  0.13725735229E+04 -0.47976399380E+03  0.62270590933E+03  0.15817382299E+04  0.12699999809E+01 0. -1.
       -4    1    3    3    0  502 -0.13725735229E+04  0.47976399380E+03 -0.18915210694E+04  0.23857881579E+04  0.12699999809E+01 0.  1.
</event>
<event>
 5   0  0.3896210E-06  0.3116964E+04  0.7818609E-02  0.8211098E-01
       -2   -1    0    0    0  501  0.00000000000E+00  0.00000000000E+00  0.97565797261E+03  0.97565797261E+03  0.25500000920E-02 0.  1.
        2   -1    0    0  501    0  0.00000000000E+00  0.00000000000E+00 -0.24894647968E+04  0.24894647968E+04  0.25500000920E-02 0. -1.
    10030    2    1    2    0    0  0.00000000000E+00  0.00000000000E+00 -0.15138068242E+04  0.34651227694E+04  0.31169640207E+04 0.  0.
        3    1    3    3  502    0  0.11491213199E+04  0.50434992080E+03  0.27045084808E+03  0.12837415323E+04  0.10100000352E+00 0.  1.
       -3    1    3    3    0  502 -0.11491213199E+04 -0.50434992080E+03 -0.17842576723E+04  0.21813812371E+04  0.10100000352E+00 0. -1.
</event>
<event>
 5   0  0.3812379E-06  0.2764297E+04  0.7818609E-02  0.8314439E-01
       -2   -1    0    0    0  501  0.00000000000E+00  0.00000000000E+00  0.99141084995E+03  0.99141084995E+03  0.25500000920E-02 0. -1.
        2   -1    0    0  501    0  0.00000000000E+00  0.00000000000E+00 -0.19268854515E+04  0.19268854515E+04  0.25500000920E-02 0.  1.
    10030    2    1    2    0    0  0.00000000000E+00  0.00000000000E+00 -0.93547460156E+03  0.29182963015E+04  0.27642974827E+04 0.  0.
        5    1    3    3  502    0 -0.11150639794E+04  0.79779929309E+03 -0.28348139731E+03  0.14000839913E+04  0.46999998093E+01 0. -1.
       -5    1    3    3    0  502  0.11150639794E+04 -0.79779929309E+03 -0.65199320425E+03  0.15182123101E+04  0.46999998093E+01 0.  1.
</event>
<event>
 5   0  0.3812379E-06  0.3279610E+04  0.7818609E-02  0.8168103E-01
        2   -1    0    0  501    0  0.00000000000E+00  0.00000000000E+00  0.19521572150E+04  0.19521572150E+04  0.25500000920E-02 0. -1.
       -2   -1    0    0    0  501  0.00000000000E+00  0.00000000000E+00 -0.13774304238E+04  0.13774304238E+04  0.25500000920E-02 0.  1.
    10030    2    1    2    0    0  0.00000000000E+00  0.00000000000E+00  0.57472679118E+03  0.33295876388E+04  0.32796101842E+04 0.  0.
        5    1    3    3  502    0  0.34991603558E+03  0.12070385287E+04 -0.78204286320E+03  0.14802014632E+04  0.46999998093E+01 0.  1.
       -5    1    3    3    0  502 -0.34991603558E+03 -0.12070385287E+04  0.13567696544E+04  0.18493861757E+04  0.46999998093E+01 0. -1.
</event>
<event>
 5   0  0.3812379E-06  0.3298302E+04  0.7818609E-02  0.8163328E-01
       -2   -1    0    0    0  501  0.00000000000E+00  0.00000000000E+00  0.13878022194E+04  0.13878022194E+04  0.25500000920E-02 0. -1.
        2   -1    0    0  501    0  0.00000000000E+00  0.00000000000E+00 -0.19597161383E+04  0.19597161383E+04  0.25500000920E-02 0.  1.
    10030    2    1    2    0    0  0.00000000000E+00  0.00000000000E+00 -0.57191391890E+03  0.33475183577E+04  0.32983016273E+04 0.  0.
        5    1    3    3  502    0 -0.13977667788E+04 -0.86639972751E+03 -0.41139678475E+03  0.16951902136E+04  0.46999998093E+01 0.  1.
       -5    1    3    3    0  502  0.13977667788E+04  0.86639972751E+03 -0.16051713415E+03  0.16523281442E+04  0.46999998093E+01 0. -1.
</event>
<event>
 5   0  0.1352708E-06  0.3300291E+04  0.7818609E-02  0.8162821E-01
        1   -1    0    0  501    0  0.00000000000E+00  0.00000000000E+00  0.14133385119E+04  0.14133385119E+04  0.50400001928E-02 0. -1.
       -1   -1    0    0    0  501  0.00000000000E+00  0.00000000000E+00 -0.19266303242E+04  0.19266303242E+04  0.50400001928E-02 0.  1.
    10030    2    1    2    0    0  0.00000000000E+00  0.00000000000E+00 -0.51329181232E+03  0.33399688362E+04  0.33002914026E+04 0.  0.
        5    1    3    3  502    0 -0.90703931719E+03  0.10631104995E+04  0.63142003614E+03  0.15335050079E+04  0.46999998093E+01 0.  1.
       -5    1    3    3    0  502  0.90703931719E+03 -0.10631104995E+04 -0.11447118485E+04  0.18064638283E+04  0.46999998093E+01 0. -1.
</event>
<event>
 5   0  0.4017247E-06  0.3296191E+04  0.7818609E-02  0.8163865E-01
       -2   -1    0    0    0  501  0.00000000000E+00  0.00000000000E+00  0.12281891442E+04  0.12281891442E+04  0.25500000920E-02 0.  1.
        2   -1    0    0  501    0  0.00000000000E+00  0.00000000000E+00 -0.22115644699E+04  0.22115644699E+04  0.25500000920E-02 0. -1.
    10030    2    1    2    0    0  0.00000000000E+00  0.00000000000E+00 -0.98337532567E+03  0.34397536141E+04  0.32961914226E+04 0.  0.
        1    1    3    3  502    0  0.26947600252E+03  0.15162547843E+04  0.12088258926E+03  0.15447519177E+04  0.50400001928E-02 0.  1.
       -1    1    3    3    0  502 -0.26947600252E+03 -0.15162547843E+04 -0.11042579149E+04  0.18950016964E+04  0.50400001928E-02 0. -1.
</event>
<event>
 5   0  0.1391878E-06  0.2578274E+04  0.7818609E-02  0.8375619E-01
       -1   -1    0    0    0  501  0.00000000000E+00  0.00000000000E+00  0.18067377174E+04  0.18067377174E+04  0.50400001928E-02 0.  1.
        1   -1    0    0  501    0  0.00000000000E+00  0.00000000000E+00 -0.91982009116E+03  0.91982009117E+03  0.50400001928E-02 0. -1.
    10030    2    1    2    0    0  0.00000000000E+00  0.00000000000E+00  0.88691762628E+03  0.27265578086E+04  0.25782735712E+04 0.  0.
        2    1    3    3  502    0 -0.95554696613E+03 -0.29794751447E+03  0.13026065605E+04  0.16427497002E+04  0.25500000920E-02 0.  1.
       -2    1    3    3    0  502  0.95554696613E+03  0.29794751447E+03 -0.41568893425E+03  0.10838081084E+04  0.25500000920E-02 0. -1.
</event>
<event>
 5   0  0.1282578E-06  0.3259385E+04  0.7818609E-02  0.8173307E-01
       -1   -1    0    0    0  501  0.00000000000E+00  0.00000000000E+00  0.16170194452E+04  0.16170194452E+04  0.50400001928E-02 0. -1.
        1   -1    0    0  501    0  0.00000000000E+00  0.00000000000E+00 -0.16424647847E+04  0.16424647847E+04  0.50400001928E-02 0.  1.
    10030    2    1    2    0    0  0.00000000000E+00  0.00000000000E+00 -0.25445339519E+02  0.32594842299E+04  0.32593849082E+04 0.  0.
        4    1    3    3  502    0 -0.14238356254E+04  0.49469126307E+03  0.60686747155E+03  0.16249052511E+04  0.12699999809E+01 0. -1.
       -4    1    3    3    0  502  0.14238356254E+04 -0.49469126307E+03 -0.63231281107E+03  0.16345789788E+04  0.12699999809E+01 0.  1.
</event>
<event>
 5   0  0.1339825E-06  0.3420190E+04  0.7818609E-02  0.8132969E-01
        1   -1    0    0  501    0  0.00000000000E+00  0.00000000000E+00  0.21722857286E+04  0.21722857286E+04  0.50400001928E-02 0.  1.
       -1   -1    0    0    0  501  0.00000000000E+00  0.00000000000E+00 -0.13462435406E+04  0.13462435406E+04  0.50400001928E-02 0. -1.
    10030    2    1    2    0    0  0.00000000000E+00  0.00000000000E+00  0.82604218801E+03  0.35185292693E+04  0.34201904220E+04 0.  0.
        3    1    3    3  502    0  0.36858918046E+03  0.85490875923E+03 -0.10626914468E+04  0.14128128297E+04  0.10100000352E+00 0. -1.
       -3    1    3    3    0  502 -0.36858918046E+03 -0.85490875923E+03  0.18887336348E+04  0.21057164396E+04  0.10100000352E+00 0.  1.
</event>
<event>
 5   0  0.4017247E-06  0.3271967E+04  0.7818609E-02  0.8170065E-01
        2   -1    0    0  501    0  0.00000000000E+00  0.00000000000E+00  0.18522753820E+04  0.18522753820E+04  0.25500000920E-02 0.  1.
       -2   -1    0    0    0  501  0.00000000000E+00  0.00000000000E+00 -0.14449484527E+04  0.14449484527E+04  0.25500000920E-02 0. -1.
    10030    2    1    2    0    0  0.00000000000E+00  0.00000000000E+00  0.40732692930E+03  0.32972238348E+04  0.32719672659E+04 0.  0.
        1    1    3    3  502    0  0.14434808239E+04 -0.50427710887E+03  0.78997080539E+03  0.17210421741E+04  0.50400001928E-02 0.  1.
       -1    1    3    3    0  502 -0.14434808239E+04  0.50427710887E+03 -0.38264387609E+03  0.15761816607E+04  0.50400001928E-02 0. -1.
</event>
<event>
 5   0  0.1282578E-06  0.2575232E+04  0.7818609E-02  0.8376663E-01
       -1   -1    0    0    0  501  0.00000000000E+00  0.00000000000E+00  0.10454417194E+04  0.10454417195E+04  0.50400001928E-02 0.  1.
        1   -1    0    0  501    0  0.00000000000E+00  0.00000000000E+00 -0.15858890431E+04  0.15858890431E+04  0.50400001928E-02 0. -1.
    10030    2    1    2    0    0  0.00000000000E+00  0.00000000000E+00 -0.54044732366E+03  0.26313307626E+04  0.25752316930E+04 0.  0.
        4    1    3    3  502    0  0.91606773880E+03  0.87631942869E+03 -0.50060620607E+03  0.13629835031E+04  0.12699999809E+01 0. -1.
       -4    1    3    3    0  502 -0.91606773880E+03 -0.87631942869E+03 -0.39841117590E+02  0.12683472595E+04  0.12699999809E+01 0.  1.
</event>
<event>
 5   0  0.1282578E-06  0.3326809E+04  0.7818609E-02  0.8156107E-01
        1   -1    0    0  501    0  0.00000000000E+00  0.00000000000E+00  0.21684238904E+04  0.21684238904E+04  0.50400001928E-02 0.  1.
       -1   -1    0    0    0  501  0.00000000000E+00  0.00000000000E+00 -0.12760029625E+04  0.12760029625E+04  0.50400001928E-02 0. -1.
    10030    2    1    2    0    0  0.00000000000E+00  0.00000000000E+00  0.89242092787E+03  0.34444268529E+04  0.33268094674E+04 0.  0.
        4    1    3    3  502    0 -0.35620177418E+03 -0.10312441026E+04 -0.85379629588E+03  0.13853930240E+04  0.12699999809E+01 0. -1.
       -4    1    3    3    0  502  0.35620177418E+03  0.10312441026E+04  0.17462172237E+04  0.20590338289E+04  0.12699999809E+01 0.  1.
</event>
<event>
 5   0  0.1352708E-06  0.3382471E+04  0.7818609E-02  0.8142222E-01
       -1   -1    0    0    0  501  0.00000000000E+00  0.00000000000E+00  0.12564025254E+04  0.12564025255E+04  0.50400001928E-02 0.  1.
        1   -1    0    0  501    0  0.00000000000E+00  0.00000000000E+00 -0.22765611384E+04  0.22765611384E+04  0.50400001928E-02 0. -1.
    10030    2    1    2    0    0  0.00000000000E+00  0.00000000000E+00 -0.10201586129E+04  0.35329636638E+04  0.33824707914E+04 0.  0.
        5    1    3    3  502    0  0.11575397620E+03  0.14362717891E+04 -0.14348998151E+04  0.20335277732E+04  0.46999998093E+01 0.  1.
       -5    1    3    3    0  502 -0.11575397620E+03 -0.14362717891E+04  0.41474120221E+03  0.14994358906E+04  0.46999998093E+01 0. -1.
</event>
<event>
 5   0  0.3671997E-06  0.3390506E+04  0.7818609E-02  0.8140240E-01
        2   -1    0    0  501    0  0.00000000000E+00  0.00000000000E+00  0.24649170893E+04  0.24649170893E+04  0.25500000920E-02 0. -1.
       -2   -1    0    0    0  501  0.00000000000E+00  0.00000000000E+00 -0.11659148850E+04  0.11659148850E+04  0.25500000920E-02 0.  1.
    10030    2    1    2    0    0  0.00000000000E+00  0.00000000000E+00  0.12990022042E+04  0.36308319743E+04  0.33905064664E+04 0.  0.
        2    1    3    3  502    0 -0.31024396279E+03  0.64380022358E+03  0.22957198325E+04  0.24043834124E+04  0.25500000920E-02 0. -1.
       -2    1    3    3    0  502  0.31024396279E+03 -0.64380022358E+03 -0.99671762833E+03  0.12264485619E+04  0.25500000920E-02 0.  1.
</event>
<event>
 5   0  0.3920487E-06  0.2077018E+04  0.7818609E-02  0.8571435E-01
        2   -1    0    0  501    0  0.00000000000E+00  0.00000000000E+00  0.14883112970E+04  0.14883112970E+04  0.25500000920E-02 0. -1.
       -2   -1    0    0    0  501  0.00000000000E+00  0.00000000000E+00 -0.72464747696E+03  0.72464747696E+03  0.25500000920E-02 0.  1.
    10030    2    1    2    0    0  0.00000000000E+00  0.00000000000E+00  0.76366382009E+03  0.22129587740E+04  0.20770180802E+04 0.  0.
        4    1    3    3  502    0 -0.14569924426E+03  0.38592353003E+03 -0.63361184476E+03  0.75606271138E+03  0.12699999809E+01 0.  1.
       -4    1    3    3    0  502  0.14569924426E+03 -0.38592353003E+03  0.13972756649E+04  0.14568960626E+04  0.12699999809E+01 0. -1.
</event>
<event>
 5   0  0.3812379E-06  0.2222108E+04  0.7818609E-02  0.8509282E-01
        2   -1    0    0  501    0  0.00000000000E+00  0.00000000000E+00  0.19041525765E+04  0.19041525765E+04  0.25500000920E-02 0.  1.
       -2   -1    0    0    0  501  0.00000000000E+00  0.00000000000E+00 -0.64828882329E+03  0.64828882329E+03  0.25500000920E-02 0. -1.
    10030    2    1    2    0    0  0.00000000000E+00  0.00000000000E+00  0.12558637532E+04  0.25524413998E+04  0.22221078580E+04 0.  0.
        5    1    3    3  502    0 -0.61669735243E+03 -0.66084168868E+03 -0.11416804114E+03  0.91108934447E+03  0.46999998093E+01 0. -1.
       -5    1    3    3    0  502  0.61669735243E+03  0.66084168868E+03  0.13700317943E+04  0.16413520553E+04  0.46999998093E+01 0.  1.
</event>
<event>
 5   0  0.3896210E-06  0.3328257E+04  0.7818609E-02  0.8155742E-01
        2   -1    0    0  501    0  0.00000000000E+00  0.00000000000E+00  0.15376714406E+04  0.15376714406E+04  0.25500000920E-02 0. -1.
       -2   -1    0    0    0  501  0.00000000000E+00  0.00000000000E+00 -0.18009852201E+04  0.18009852201E+04  0.25500000920E-02 0.  1.
    10030    2    1    2    0    0  0.00000000000E+00  0.00000000000E+00 -0.26331377952E+03  0.33386566607E+04  0.33282569239E+04 0.  0.
        3    1    3    3  502    0 -0.30884881397E+03  0.12996825097E+04 -0.11271090754E+04  0.17478378340E+04  0.10100000352E+00 0.  1.
       -3    1    3    3    0  502  0.30884881397E+03 -0.12996825097E+04  0.86379529592E+03  0.15908188267E+04  0.10100000352E+00 0. -1.
</event>
<event>
 5   0  0.3812379E-06  0.3107936E+04  0.7818609E-02  0.8213563E-01
       -2   -1    0    0    0  501  0.00000000000E+00  0.00000000000E+00  0.23530082425E+04  0.23530082425E+04  0.25500000920E-02 0.  1.
        2   -1    0    0  501    0  0.00000000000E+00  0.00000000000E+00 -0.10262679657E+04  0.10262679657E+04  0.25500000920E-02 0. -1.
    10030    2    1    2    0    0  0.00000000000E+00  0.00000000000E+00  0.13267402768E+04  0.33792762082E+04  0.31079362814E+04 0.  0.
        5    1    3    3  502    0  0.75304583002E+02 -0.13457151633E+04 -0.17757109008E+03  0.13594755102E+04  0.46999998093E+01 0. -1.
       -5    1    3    3    0  502 -0.75304583002E+02  0.13457151633E+04  0.15043113669E+04  0.20198006979E+04  0.46999998093E+01 0.  1.
</event>
<event>
 5   0  0.3671997E-06  0.3352498E+04  0.7818609E-02  0.8149664E-01
       -2   -1    0    0    0  501  0.00000000000E+00  0.00000000000E+00  0.13119388735E+04  0.13119388735E+04  0.25500000920E-02 0. -1.
        2   -1    0    0  501    0  0.00000000000E+00  0.00000000000E+00 -0.21417231846E+04  0.21417231846E+04  0.25500000920E-02 0.  1.
    10030    2    1    2    0    0  0.00000000000E+00  0.00000000000E+00 -0.82978431110E+03  0.34536620582E+04  0.33524975181E+04 0.  0.
        2    1    3    3  502    0 -0.47576804624E+03 -0.67527520217E+03  0.10877026360E+04  0.13658143566E+04  0.25500000920E-02 0. -1.
       -2    1    3    3    0  502  0.47576804624E+03  0.67527520217E+03 -0.19174869471E+04  0.20878477015E+04  0.25500000920E-02 0.  1.
</event>
<event>
 5   0  0.1405389E-06  0.3181796E+04  0.7818609E-02  0.8193641E-01
        1   -1    0    0  501    0  0.00000000000E+00  0.00000000000E+00  0.21456907908E+04  0.21456907908E+04  0.50400001928E-02 0.  1.
       -1   -1    0    0    0  501  0.00000000000E+00  0.00000000000E+00 -0.11795534280E+04  0.11795534280E+04  0.50400001928E-02 0. -1.
    10030    2    1    2    0    0  0.00000000000E+00  0.00000000000E+00  0.96613736281E+03  0.33252442188E+04  0.31817963025E+04 0.  0.
        1    1    3    3  502    0 -0.15031418845E+04  0.44785696268E+03  0.76143310844E+03  0.17434998602E+04  0.50400001928E-02 0.  1.
       -1    1    3    3    0  502  0.15031418845E+04 -0.44785696268E+03  0.20470425437E+03  0.15817443586E+04  0.50400001928E-02 0. -1.
</event>
<event>
 5   0  0.1282578E-06  0.2133728E+04  0.7818609E-02  0.8546530E-01
        1   -1    0    0  501    0  0.00000000000E+00  0.00000000000E+00  0.13351471661E+04  0.13351471661E+04  0.50400001928E-02 0.  1.
       -1   -1    0    0    0  501  0.00000000000E+00  0.00000000000E+00 -0.85248965509E+03  0.85248965510E+03  0.50400001928E-02 0. -1.
    10030    2    1    2    0    0  0.00000000000E+00  0.00000000000E+00  0.48265751102E+03  0.21876368212E+04  0.21337283306E+04 0.  0.
        4    1    3    3  502    0 -0.15730162286E+03  0.59684808378E+03 -0.65084385831E+03  0.89697869343E+03  0.12699999809E+01 0. -1.
       -4    1    3    3    0  502  0.15730162286E+03 -0.59684808378E+03  0.11335013693E+04  0.12906581278E+04  0.12699999809E+01 0.  1.
</event>
<event>
 5   0  0.3920487E-06  0.2513550E+04  0.7818609E-02  0.8398174E-01
       -2   -1    0    0    0  501  0.00000000000E+00  0.00000000000E+00  0.79544263917E+03  0.79544263918E+03  0.25500000920E-02 0.  1.
        2   -1    0    0  501    0  0.00000000000E+00  0.00000000000E+00 -0.19856664308E+04  0.19856664308E+04  0.25500000920E-02 0. -1.
    10030    2    1    2    0    0  0.00000000000E+00  0.00000000000E+00 -0.11902237916E+04  0.27811090700E+04  0.25135502750E+04 0.  0.
        4    1    3    3  502    0 -0.60774042123E+03  0.28346279977E+03 -0.17711675586E+04  0.18938679236E+04  0.12699999809E+01 0. -1.
       -4    1    3    3    0  502  0.60774042123E+03 -0.28346279977E+03  0.58094376702E+03  0.88724114636E+03  0.12699999809E+01 0.  1.
</event>
<event>
 5   0  0.3920487E-06  0.3279522E+04  0.7818609E-02  0.8168126E-01
       -2   -1    0    0    0  501  0.00000000000E+00  0.00000000000E+00  0.15265551159E+04  0.15265551159E+04  0.25500000920E-02 0. -1.
        2   -1    0    0  501    0  0.00000000000E+00  0.00000000000E+00 -0.17613615547E+04  0.17613615547E+04  0.25500000920E-02 0.  1.
    10030    2    1    2    0    0  0.00000000000E+00  0.00000000000E+00 -0.23480643882E+03  0.32879166706E+04  0.32795216067E+04 0.  0.
        4    1    3    3  502    0  0.22467784029E+02 -0.80085493342E+02  0.15244382570E+04  0.15267062913E+04  0.12699999809E+01 0. -1.
       -4    1    3    3    0  502 -0.22467784029E+02  0.80085493342E+02 -0.17592446958E+04  0.17612103793E+04  0.12699999809E+01 0.  1.
</event>
<event>
 5   0  0.1391878E-06  0.3315201E+04  0.7818609E-02  0.8159038E-01
       -1   -1    0    0    0  501  0.00000000000E+00  0.00000000000E+00  0.14692189164E+04  0.14692189164E+04  0.50400001928E-02 0. -1.
        1   -1    0    0  501    0  0.00000000000E+00  0.00000000000E+00 -0.18701362679E+04  0.18701362679E+04  0.50400001928E-02 0.  1.
    10030    2    1    2    0    0  0.00000000000E+00  0.00000000000E+00 -0.40091735145E+03  0.33393551843E+04  0.33152010986E+04 0.  0.
        2    1    3    3  502    0 -0.46651615686E+03 -0.42590584144E+03  0.13432234067E+04  0.14843457248E+04  0.25500000920E-02 0. -1.
       -2    1    3    3    0  502  0.46651615686E+03  0.42590584144E+03 -0.17441407582E+04  0.18550094595E+04  0.25500000920E-02 0.  1.
</event>
<event>
 5   0  0.1391878E-06  0.3031730E+04  0.7818609E-02  0.8234728E-01
        1   -1    0    0  501    0  0.00000000000E+00  0.00000000000E+00  0.13304460275E+04  0.13304460275E+04  0.50400001928E-02 0.  1.
       -1   -1    0    0    0  501  0.00000000000E+00  0.00000000000E+00 -0.17271252097E+04  0.17271252097E+04  0.50400001928E-02 0. -1.
    10030    2    1    2    0    0  0.00000000000E+00  0.00000000000E+00 -0.39667918225E+03  0.30575712372E+04  0.30317301161E+04 0.  0.
        2    1    3    3  502    0 -0.29530223512E+03 -0.19370508734E+03  0.12883766337E+04  0.13359039715E+04  0.25500000920E-02 0.  1.
       -2    1    3    3    0  502  0.29530223512E+03  0.19370508734E+03 -0.16850558159E+04  0.17216672657E+04  0.25500000920E-02 0. -1.
</event>
<event>
 5   0  0.3671997E-06  0.3339200E+04  0.7818609E-02  0.8152992E-01
       -2   -1    0    0    0  501  0.00000000000E+00  0.00000000000E+00  0.17388908246E+04  0.17388908246E+04  0.25500000920E-02 0. -1.
        2   -1    0    0  501    0  0.00000000000E+00  0.00000000000E+00 -0.16030701701E+04  0.16030701701E+04  0.25500000920E-02 0.  1.
    10030    2    1    2    0    0  0.00000000000E+00  0.00000000000E+00  0.13582065448E+03  0.33419609947E+04  0.33391999102E+04 0.  0.
        2    1    3    3  502    0 -0.33900467719E+03 -0.10295301808E+03 -0.15650148573E+04  0.16046167763E+04  0.25500000920E-02 0.  1.
       -2    1    3    3    0  502  0.33900467719E+03  0.10295301808E+03  0.17008355118E+04  0.17373442184E+04  0.25500000920E-02 0. -1.
</event>
<event>
 5   0  0.3896210E-06  0.2865361E+04  0.7818609E-02  0.8283259E-01
        2   -1    0    0  501    0  0.00000000000E+00  0.00000000000E+00  0.12091715828E+04  0.12091715828E+04  0.25500000920E-02 0.  1.
       -2   -1    0    0    0  501  0.00000000000E+00  0.00000000000E+00 -0.16975043503E+04  0.16975043503E+04  0.25500000920E-02 0. -1.
    10030    2    1    2    0    0  0.00000000000E+00  0.00000000000E+00 -0.48833276744E+03  0.29066759331E+04  0.28653614237E+04 0.  0.
        3    1    3    3  502    0 -0.11417181861E+04 -0.69493696419E+03  0.27913619007E+03  0.13654211158E+04  0.10100000352E+00 0.  1.
       -3    1    3    3    0  502  0.11417181861E+04  0.69493696419E+03 -0.76746895750E+03  0.15412548173E+04  0.10100000352E+00 0. -1.
</event>
<event>
 5   0  0.3671997E-06  0.3318092E+04  0.7818609E-02  0.8158307E-01
        2   -1    0    0  501    0  0.00000000000E+00  0.00000000000E+00  0.21062953849E+04  0.21062953849E+04  0.25500000920E-02 0.  1.
       -2   -1    0    0    0  501  0.00000000000E+00  0.00000000000E+00 -0.13067656090E+04  0.13067656090E+04  0.25500000920E-02 0. -1.
    10030    2    1    2    0    0  0.00000000000E+00  0.00000000000E+00  0.79952977587E+03  0.34130609939E+04  0.33180924468E+04 0.  0.
        2    1    3    3  502    0  0.13787700640E+04 -0.84110870673E+03  0.94798023815E+01  0.16151039014E+04  0.25500000920E-02 0.  1.
       -2    1    3    3    0  502 -0.13787700640E+04  0.84110870673E+03  0.79004997349E+03  0.17979570925E+04  0.25500000920E-02 0. -1.
</event>
<event>
 5   0  0.4017247E-06  0.2334681E+04  0.7818609E-02  0.8464371E-01
       -2   -1    0    0    0  501  0.00000000000E+00  0.00000000000E+00  0.76201364587E+03  0.76201364588E+03  0.25500000920E-02 0. -1.
        2   -1    0    0  501    0  0.00000000000E+00  0.00000000000E+00 -0.17882663102E+04  0.17882663102E+04  0.25500000920E-02 0.  1.
    10030    2    1    2    0    0  0.00000000000E+00  0.00000000000E+00 -0.10262526643E+04  0.25502799561E+04  0.23346805613E+04 0.  0.
        1    1    3    3  502    0 -0.53069878881E+03  0.83928020079E+03  0.15726729657E+03  0.10053683218E+04  0.50400001928E-02 0. -1.
       -1    1    3    3    0  502  0.53069878881E+03 -0.83928020079E+03 -0.11835199609E+04  0.15449116343E+04  0.50400001928E-02 0.  1.
</event>
<event>
 5   0  0.1352708E-06  0.3287226E+04  0.7818609E-02  0.8166153E-01
       -1   -1    0    0    0  501  0.00000000000E+00  0.00000000000E+00  0.14015298676E+04  0.14015298676E+04  0.50400001928E-02 0.  1.
        1   -1    0    0  501    0  0.00000000000E+00  0.00000000000E+00 -0.19275104054E+04  0.19275104054E+04  0.50400001928E-02 0. -1.
    10030    2    1    2    0    0  0.00000000000E+00  0.00000000000E+00 -0.52598053785E+03  0.33290402730E+04  0.32872258233E+04 0.  0.
        5    1    3    3  502    0  0.43817026559E+02 -0.51533258990E+01  0.14009232823E+04  0.14016257066E+04  0.46999998093E+01 0.  1.
       -5    1    3    3    0  502 -0.43817026559E+02  0.51533258990E+01 -0.19269038201E+04  0.19274145664E+04  0.46999998093E+01 0. -1.
</event>
<event>
 5   0  0.3812379E-06  0.3306615E+04  0.7818609E-02  0.8161214E-01
       -2   -1    0    0    0  501  0.00000000000E+00  0.00000000000E+00  0.11412574957E+04  0.11412574957E+04  0.25500000920E-02 0. -1.
        2   -1    0    0  501    0  0.00000000000E+00  0.00000000000E+00 -0.23951000620E+04  0.23951000620E+04  0.25500000920E-02 0.  1.
    10030    2    1    2    0    0  0.00000000000E+00  0.00000000000E+00 -0.12538425662E+04  0.35363575577E+04  0.33066151265E+04 0.  0.
        5    1    3    3  502    0 -0.29661326548E+02 -0.74632543774E+03 -0.22043665405E+04  0.23274740360E+04  0.46999998093E+01 0.  1.
       -5    1    3    3    0  502  0.29661326548E+02  0.74632543774E+03  0.95052397429E+03  0.12088835217E+04  0.46999998093E+01 0. -1.
</event>
<event>
 5   0  0.3920487E-06  0.3287544E+04  0.7818609E-02  0.8166072E-01
       -2   -1    0    0    0  501  0.00000000000E+00  0.00000000000E+00  0.14905682923E+04  0.14905682923E+04  0.25500000920E-02 0. -1.
        2   -1    0    0  501    0  0.00000000000E+00  0.00000000000E+00 -0.18127218341E+04  0.18127218341E+04  0.25500000920E-02 0.  1.
    10030    2    1    2    0    0  0.00000000000E+00  0.00000000000E+00 -0.32215354179E+03  0.33032901265E+04  0.32875435746E+04 0.  0.
        4    1    3    3  502    0  0.12416294780E+04 -0.94889842863E+03 -0.67335411429E+03  0.17016049379E+04  0.12699999809E+01 0.  1.
       -4    1    3    3    0  502 -0.12416294780E+04  0.94889842863E+03  0.35120057249E+03  0.16016851886E+04  0.12699999809E+01 0. -1.
</event>
<event>
 5   0  0.3671997E-06  0.3303367E+04  0.7818609E-02  0.8162039E-01
        2   -1    0    0  501    0  0.00000000000E+00  0.00000000000E+00  0.30405923299E+04  0.30405923299E+04  0.25500000920E-02 0.  1.
       -2   -1    0    0    0  501  0.00000000000E+00  0.00000000000E+00 -0.89721274733E+03  0.89721274733E+03  0.25500000920E-02 0. -1.
    10030    2    1    2    0    0  0.00000000000E+00  0.00000000000E+00  0.21433795826E+04  0.39378050772E+04  0.33033668872E+04 0.  0.
        2    1    3    3  502    0  0.41529154174E+02 -0.74454004071E+02 -0.89458823144E+03  0.89864129285E+03  0.25500000920E-02 0. -1.
       -2    1    3    3    0  502 -0.41529154174E+02  0.74454004071E+02  0.30379678140E+04  0.30391637844E+04  0.25500000920E-02 0.  1.
</event>
<event>
 5   0  0.1339825E-06  0.2821716E+04  0.7818609E-02  0.8296558E-01
       -1   -1    0    0    0  501  0.00000000000E+00  0.00000000000E+00  0.16211802546E+04  0.16211802546E+04  0.50400001928E-02 0.  1.
        1   -1    0    0  501    0  0.00000000000E+00  0.00000000000E+00 -0.12278216759E+04  0.12278216759E+04  0.50400001928E-02 0. -1.
    10030    2    1    2    0    0  0.00000000000E+00  0.00000000000E+00  0.39335857866E+03  0.28490019306E+04  0.28217159724E+04 0.  0.
        3    1    3    3  502    0  0.26465730615E+03  0.30739027777E+03 -0.11676789048E+04  0.12361255225E+04  0.10100000352E+00 0. -1.
       -3    1    3    3    0  502 -0.26465730615E+03 -0.30739027777E+03  0.15610374835E+04  0.16128764080E+04  0.10100000352E+00 0.  1.
</event>
<event>
 5   0  0.1352708E-06  0.3254495E+04  0.7818609E-02  0.8174572E-01
       -1   -1    0    0    0  501  0.00000000000E+00  0.00000000000E+00  0.17831529419E+04  0.17831529419E+04  0.50400001928E-02 0.  1.
        1   -1    0    0  501    0  0.00000000000E+00  0.00000000000E+00 -0.14849728500E+04  0.14849728500E+04  0.50400001928E-02 0. -1.
    10030    2    1    2    0    0  0.00000000000E+00  0.00000000000E+00  0.29818009191E+03  0.32681257920E+04  0.32544945575E+04 0.  0.
        5    1    3    3  502    0  0.70579746911E+03 -0.28355783465E+03  0.15936410249E+04  0.17658620895E+04  0.46999998093E+01 0.  1.
       -5    1    3    3    0  502 -0.70579746911E+03  0.28355783465E+03 -0.12954609329E+04  0.15022637025E+04  0.46999998093E+01 0. -1.
</event>
<event>
 5   0  0.4017247E-06  0.2167906E+04  0.7818609E-02  0.8531906E-01
       -2   -1    0    0    0  501  0.00000000000E+00  0.00000000000E+00  0.15569446456E+04  0.15569446456E+04  0.25500000920E-02 0.  1.
        2   -1    0    0  501    0  0.00000000000E+00  0.00000000000E+00 -0.75465400942E+03  0.75465400942E+03  0.25500000920E-02 0. -1.
    10030    2    1    2    0    0  0.00000000000E+00  0.00000000000E+00  0.80229063617E+03  0.23115986550E+04  0.21679063810E+04 0.  0.
        1    1    3    3  502    0 -0.10139544545E+04  0.59647396773E+02 -0.24856740123E+01  0.10157104047E+04  0.50400001928E-02 0. -1.
       -1    1    3    3    0  502  0.10139544545E+04 -0.59647396773E+02  0.80477631018E+03  0.12958882503E+04  0.50400001928E-02 0.  1.
</event>
<event>
 5   0  0.3812379E-06  0.3322006E+04  0.7818609E-02  0.8157319E-01
       -2   -1    0    0    0  501  0.00000000000E+00  0.00000000000E+00  0.10120772446E+04  0.10120772446E+04  0.25500000920E-02 0. -1.
        2   -1    0    0  501    0  0.00000000000E+00  0.00000000000E+00 -0.27260078351E+04  0.27260078351E+04  0.25500000920E-02 0.  1.
    10030    2    1    2    0    0  0.00000000000E+00  0.00000000000E+00 -0.17139305905E+04  0.37380850797E+04  0.33220057185E+04 0.  0.
        5    1    3    3  502    0  0.92664961578E+03 -0.58946188026E+03 -0.22591378929E+04  0.25119456458E+04  0.46999998093E+01 0.  1.
       -5    1    3    3    0  502 -0.92664961578E+03  0.58946188026E+03  0.54520730237E+03  0.12261394339E+04  0.46999998093E+01 0. -1.
</event>
<event>
 5   0  0.3812379E-06  0.3227751E+04  0.7818609E-02  0.8181526E-01
       -2   -1    0    0    0  501  0.00000000000E+00  0.00000000000E+00  0.11976502102E+04  0.11976502102E+04  0.25500000920E-02 0. -1.
        2   -1    0    0  501    0  0.00000000000E+00  0.00000000000E+00 -0.21747538553E+04  0.21747538553E+04  0.25500000920E-02 0.  1.
    10030    2    1    2    0    0  0.00000000000E+00  0.00000000000E+00 -0.97710364513E+03  0.33724040655E+04  0.32277511750E+04 0.  0.
        5    1    3    3  502    0 -0.12316812572E+04  0.10427728882E+04 -0.47540597765E+03  0.16823932208E+04  0.46999998093E+01 0. -1.
       -5    1    3    3    0  502  0.12316812572E+04 -0.10427728882E+04 -0.50169766748E+03  0.16900108447E+04  0.46999998093E+01 0.  1.
</event>
<event>
 5   0  0.1282578E-06  0.2490132E+04  0.7818609E-02  0.8406510E-01
        1   -1    0    0  501    0  0.00000000000E+00  0.00000000000E+00  0.14979896289E+04  0.14979896290E+04  0.50400001928E-02 0.  1.
       -1   -1    0    0    0  501  0.00000000000E+00  0.00000000000E+00 -0.10348463284E+04  0.10348463285E+04  0.50400001928E-02 0. -1.
    10030    2    1    2    0    0  0.00000000000E+00  0.00000000000E+00  0.46314330050E+03  0.25328359574E+04  0.24901317777E+04 0.  0.
        4    1    3    3  502    0 -0.72243346540E+03 -0.99955003680E+03  0.40531394229E+03  0.12981877340E+04  0.12699999809E+01 0. -1.
       -4    1    3    3    0  502  0.72243346540E+03  0.99955003680E+03  0.57829358211E+02  0.12346482234E+04  0.12699999809E+01 0.  1.
</event>
<event>
 5   0  0.1282578E-06  0.3261699E+04  0.7818609E-02  0.8172710E-01
       -1   -1    0    0    0  501  0.00000000000E+00  0.00000000000E+00  0.11680512822E+04  0.11680512822E+04  0.50400001928E-02 0.  1.
        1   -1    0    0  501    0  0.00000000000E+00  0.00000000000E+00 -0.22770148514E+04  0.22770148515E+04  0.50400001928E-02 0. -1.
    10030    2    1    2    0    0  0.00000000000E+00  0.00000000000E+00 -0.11089635693E+04  0.34450661336E+04  0.32616990154E+04 0.  0.
        4    1    3    3  502    0 -0.12892279348E+04  0.75516683820E+02 -0.16063909197E+04  0.20611416345E+04  0.12699999809E+01 0. -1.
       -4    1    3    3    0  502  0.12892279348E+04 -0.75516683820E+02  0.49742735043E+03  0.13839244992E+04  0.12699999809E+01 0.  1.
</event>
<event>
 5   0  0.1391878E-06  0.3266468E+04  0.7818609E-02  0.8171480E-01
        1   -1    0    0  501    0  0.00000000000E+00  0.00000000000E+00  0.18367955225E+04  0.18367955225E+04  0.50400001928E-02 0. -1.
       -1   -1    0    0    0  501  0.00000000000E+00  0.00000000000E+00 -0.14522317812E+04  0.14522317812E+04  0.50400001928E-02 0.  1.
    10030    2    1    2    0    0  0.00000000000E+00  0.00000000000E+00  0.38456374137E+03  0.32890273037E+04  0.32664677150E+04 0.  0.
        2    1    3    3  502    0 -0.16403764240E+03 -0.13952340476E+04 -0.64645753828E+03  0.15464455194E+04  0.25500000920E-02 0.  1.
       -2    1    3    3    0  502  0.16403764240E+03  0.13952340476E+04  0.10310212797E+04  0.17425817843E+04  0.25500000920E-02 0. -1.
</event>
<event>
 5   0  0.4017247E-06  0.3142275E+04  0.7818609E-02  0.8204231E-01
       -2   -1    0    0    0  501  0.00000000000E+00  0.00000000000E+00  0.99034442660E+03  0.99034442661E+03  0.25500000920E-02 0.  1.
        2   -1    0    0  501    0  0.00000000000E+00  0.00000000000E+00 -0.24925399152E+04  0.24925399152E+04  0.25500000920E-02 0. -1.
    10030    2    1    2    0    0  0.00000000000E+00  0.00000000000E+00 -0.15021954886E+04  0.34828843418E+04  0.31422749804E+04 0.  0.
        1    1    3    3  502    0 -0.56882387886E+03 -0.70506979905E+03 -0.21739036634E+04  0.23551095865E+04  0.50400001928E-02 0. -1.
       -1    1    3    3    0  502  0.56882387886E+03  0.70506979905E+03  0.67170817476E+03  0.11277747553E+04  0.50400001928E-02 0.  1.
</event>
<event>
 5   0  0.3812379E-06  0.3141751E+04  0.7818609E-02  0.8204372E-01
       -2   -1    0    0    0  501  0.00000000000E+00  0.00000000000E+00  0.17450015751E+04  0.17450015751E+04  0.25500000920E-02 0. -1.
        2   -1    0    0  501    0  0.00000000000E+00  0.00000000000E+00 -0.14141250331E+04  0.14141250331E+04  0.25500000920E-02 0.  1.
    10030    2    1    2    0    0  0.00000000000E+00  0.00000000000E+00  0.33087654204E+03  0.31591266082E+04  0.31417513651E+04 0.  0.
        5    1    3    3  502    0 -0.86127093185E+03 -0.96839384681E+03 -0.72719531664E+03  0.14860717947E+04  0.46999998093E+01 0.  1.
       -5    1    3    3    0  502  0.86127093185E+03  0.96839384681E+03  0.10580718587E+04  0.16730548134E+04  0.46999998093E+01 0. -1.
</event>
<event>
 5   0  0.3896210E-06  0.3310272E+04  0.7818609E-02  0.8160286E-01
       -2   -1    0    0    0  501  0.00000000000E+00  0.00000000000E+00  0.20935805344E+04  0.20935805344E+04  0.25500000920E-02 0. -1.
        2   -1    0    0  501    0  0.00000000000E+00  0.00000000000E+00 -0.13085123105E+04  0.13085123105E+04  0.25500000920E-02 0.  1.
    10030    2    1    2    0    0  0.00000000000E+00  0.00000000000E+00  0.78506822390E+03  0.34020928450E+04  0.33102724374E+04 0.  0.
        3    1    3    3  502    0 -0.14576230223E+04 -0.77474021403E+03  0.26840046980E+03  0.16724012966E+04  0.10100000352E+00 0.  1.
       -3    1    3    3    0  502  0.14576230223E+04  0.77474021403E+03  0.51666775410E+03  0.17296915484E+04  0.10100000352E+00 0. -1.
</event>
<event>
 5   0  0.1282578E-06  0.3267377E+04  0.7818609E-02  0.8171246E-01
        1   -1    0    0  501    0  0.00000000000E+00  0.00000000000E+00  0.22235068919E+04  0.22235068919E+04  0.50400001928E-02 0.  1.
       -1   -1    0    0    0  501  0.00000000000E+00  0.00000000000E+00 -0.12003286013E+04  0.12003286013E+04  0.50400001928E-02 0. -1.
    10030    2    1    2    0    0  0.00000000000E+00  0.00000000000E+00  0.10231782906E+04  0.34238354932E+04  0.32673774912E+04 0.  0.
        4    1    3    3  502    0  0.58162292262E+03  0.15265392434E+04  0.53062546226E+03  0.17176065556E+04  0.12699999809E+01 0. -1.
       -4    1    3    3    0  502 -0.58162292262E+03 -0.15265392434E+04  0.49255282836E+03  0.17062289376E+04  0.12699999809E+01 0.  1.
</event>
<event>
 5   0  0.4017247E-06  0.2022042E+04  0.7818609E-02  0.8596384E-01
        2   -1    0    0  501    0  0.00000000000E+00  0.00000000000E+00  0.17134654402E+04  0.17134654402E+04  0.25500000920E-02 0. -1.
       -2   -1    0    0    0  501  0.00000000000E+00  0.00000000000E+00 -0.59654739713E+03  0.59654739713E+03  0.25500000920E-02 0.  1.
    10030    2    1    2    0    0  0.00000000000E+00  0.00000000000E+00  0.11169180431E+04  0.23100128374E+04  0.20220418873E+04 0.  0.
        1    1    3    3  502    0 -0.42660506281E+03 -0.38663592785E+02  0.16046753823E+04  0.16608641834E+04  0.50400001928E-02 0. -1.
       -1    1    3    3    0  502  0.42660506281E+03  0.38663592785E+02 -0.48775733919E+03  0.64914865400E+03  0.50400001928E-02 0.  1.
</event>
<event>
 5   0  0.1282578E-06  0.3331063E+04  0.7818609E-02  0.8155036E-01
       -1   -1    0    0    0  501  0.00000000000E+00  0.00000000000E+00  0.13224887729E+04  0.13224887729E+04  0.50400001928E-02 0.  1.
        1   -1    0    0  501    0  0.00000000000E+00  0.00000000000E+00 -0.20975568011E+04  0.20975568011E+04  0.50400001928E-02 0. -1.
    10030    2    1    2    0    0  0.00000000000E+00  0.00000000000E+00 -0.77506802822E+03  0.34200455740E+04  0.33310630856E+04 0.  0.
        4    1    3    3  502    0  0.12251426827E+04 -0.62829413517E+03 -0.13497265208E+04  0.19280797201E+04  0.12699999809E+01 0. -1.
       -4    1    3    3    0  502 -0.12251426827E+04  0.62829413517E+03  0.57465849256E+03  0.14919658539E+04  0.12699999809E+01 0.  1.
</event>
<event>
 5   0  0.3896210E-06  0.3337122E+04  0.7818609E-02  0.8153514E-01
        2   -1    0    0  501    0  0.00000000000E+00  0.00000000000E+00  0.18532843266E+04  0.18532843266E+04  0.25500000920E-02 0.  1.
       -2   -1    0    0    0  501  0.00000000000E+00  0.00000000000E+00 -0.15022493813E+04  0.15022493813E+04  0.25500000920E-02 0. -1.
    10030    2    1    2    0    0  0.00000000000E+00  0.00000000000E+00  0.35103494526E+03  0.33555337079E+04  0.33371216538E+04 0.  0.
        3    1    3    3  502    0  0.11732605972E+04  0.10911772960E+04  0.64379814150E+03  0.17267554481E+04  0.10100000352E+00 0.  1.
       -3    1    3    3    0  502 -0.11732605972E+04 -0.10911772960E+04 -0.29276319624E+03  0.16287782598E+04  0.10100000352E+00 0. -1.
</event>
<event>
 5   0  0.3920487E-06  0.3201669E+04  0.7818609E-02  0.8188377E-01
        2   -1    0    0  501    0  0.00000000000E+00  0.00000000000E+00  0.15279479218E+04  0.15279479218E+04  0.25500000920E-02 0. -1.
       -2   -1    0    0    0  501  0.00000000000E+00  0.00000000000E+00 -0.16771979225E+04  0.16771979225E+04  0.25500000920E-02 0.  1.
    10030    2    1    2    0    0  0.00000000000E+00  0.00000000000E+00 -0.14925000066E+03  0.32051458443E+04  0.32016689899E+04 0.  0.
        4    1    3    3  502    0 -0.65543301431E+02 -0.13221100846E+04  0.82657393896E+03  0.15606079231E+04  0.12699999809E+01 0. -1.
       -4    1    3    3    0  502  0.65543301431E+02  0.13221100846E+04 -0.97582393961E+03  0.16445379212E+04  0.12699999809E+01 0.  1.
</event>
<event>
 5   0  0.1405389E-06  0.3315345E+04  0.7818609E-02  0.8159002E-01
       -1   -1    0    0    0  501  0.00000000000E+00  0.00000000000E+00  0.10290563912E+04  0.10290563913E+04  0.50400001928E-02 0. -1.
        1   -1    0    0  501    0  0.00000000000E+00  0.00000000000E+00 -0.26702894261E+04  0.26702894261E+04  0.50400001928E-02 0.  1.
    10030    2    1    2    0    0  0.00000000000E+00  0.00000000000E+00 -0.16412330348E+04  0.36993458173E+04  0.33153451708E+04 0.  0.
        1    1    3    3  502    0 -0.82988198353E+03  0.11813989474E+04  0.88264628272E+02  0.14464433014E+04  0.50400001928E-02 0. -1.
       -1    1    3    3    0  502  0.82988198353E+03 -0.11813989474E+04 -0.17294976631E+04  0.22529025159E+04  0.50400001928E-02 0.  1.
</event>
<event>
 5   0  0.4017247E-06  0.3617116E+04  0.7818609E-02  0.8086582E-01
       -2   -1    0    0    0  501  0.00000000000E+00  0.00000000000E+00  0.11885630395E+04  0.11885630395E+04  0.25500000920E-02 0.  1.
        2   -1    0    0  501    0  0.00000000000E+00  0.00000000000E+00 -0.27519630953E+04  0.27519630953E+04  0.25500000920E-02 0. -1.
    10030    2    1    2    0    0  0.00000000000E+00  0.00000000000E+00 -0.15634000558E+04  0.39405261348E+04  0.36171157687E+04 0.  0.
        1    1    3    3  502    0 -0.10813705440E+04 -0.12320099755E+04 -0.16139921469E+04  0.23004741866E+04  0.50400001928E-02 0. -1.
       -1    1    3    3    0  502  0.10813705440E+04  0.12320099755E+04  0.50592091046E+02  0.16400519482E+04  0.50400001928E-02 0.  1.
</event>
<event>
 5   0  0.1352708E-06  0.3444369E+04  0.7818609E-02  0.8127102E-01
        1   -1    0    0  501    0  0.00000000000E+00  0.00000000000E+00  0.22150112870E+04  0.22150112870E+04  0.50400001928E-02 0.  1.
       -1   -1    0    0    0  501  0.00000000000E+00  0.00000000000E+00 -0.13390083994E+04  0.13390083995E+04  0.50400001928E-02 0. -1.
    10030    2    1    2    0    0  0.00000000000E+00  0.00000000000E+00  0.87600288752E+03  0.35540196864E+04  0.34443685739E+04 0.  0.
        5    1    3    3  502    0 -0.29911842441E+03 -0.51248998865E+03 -0.12301851520E+04  0.13658314020E+04  0.46999998093E+01 0. -1.
       -5    1    3    3    0  502  0.29911842441E+03  0.51248998865E+03  0.21061880396E+04  0.21881882845E+04  0.46999998093E+01 0.  1.
</event>
<event>
 5   0  0.1352708E-06  0.3282142E+04  0.7818609E-02  0.8167454E-01
        1   -1    0    0  501    0  0.00000000000E+00  0.00000000000E+00  0.11585562469E+04  0.11585562469E+04  0.50400001928E-02 0. -1.
       -1   -1    0    0    0  501  0.00000000000E+00  0.00000000000E+00 -0.23245426475E+04  0.23245426475E+04  0.50400001928E-02 0.  1.
    10030    2    1    2    0    0  0.00000000000E+00  0.00000000000E+00 -0.11659864006E+04  0.34830988944E+04  0.32821416212E+04 0.  0.
        5    1    3    3  502    0 -0.17351974207E+03  0.14809747675E+04  0.14431234326E+03  0.14980799395E+04  0.46999998093E+01 0. -1.
       -5    1    3    3    0  502  0.17351974207E+03 -0.14809747675E+04 -0.13102987438E+04  0.19850189548E+04  0.46999998093E+01 0.  1.
</event>
<event>
 5   0  0.1282578E-06  0.3234316E+04  0.7818609E-02  0.8179813E-01
       -1   -1    0    0    0  501  0.00000000000E+00  0.00000000000E+00  0.11499933442E+04  0.11499933442E+04  0.50400001928E-02 0. -1.
        1   -1    0    0  501    0  0.00000000000E+00  0.00000000000E+00 -0.22740995592E+04  0.22740995592E+04  0.50400001928E-02 0.  1.
    10030    2    1    2    0    0  0.00000000000E+00  0.00000000000E+00 -0.11241062150E+04  0.34240929035E+04  0.32343156044E+04 0.  0.
        4    1    3    3  502    0 -0.12930687303E+04  0.43414553455E+03  0.35764873181E+03  0.14101146459E+04  0.12699999809E+01 0. -1.
       -4    1    3    3    0  502  0.12930687303E+04 -0.43414553455E+03 -0.14817549468E+04  0.20139782575E+04  0.12699999809E+01 0.  1.
</event>
<event>
 5   0  0.1339825E-06  0.3302964E+04  0.7818609E-02  0.8162142E-01
       -1   -1    0    0    0  501  0.00000000000E+00  0.00000000000E+00  0.12241230626E+04  0.12241230626E+04  0.50400001928E-02 0. -1.
        1   -1    0    0  501    0  0.00000000000E+00  0.00000000000E+00 -0.22280380428E+04  0.22280380428E+04  0.50400001928E-02 0.  1.
    10030    2    1    2    0    0  0.00000000000E+00  0.00000000000E+00 -0.10039149802E+04  0.34521611055E+04  0.33029639736E+04 0.  0.
        3    1    3    3  502    0  0.35533824090E+03 -0.18112141847E+03 -0.21769466372E+04  0.22131802694E+04  0.10100000352E+00 0.  1.
       -3    1    3    3    0  502 -0.35533824090E+03  0.18112141847E+03  0.11730316570E+04  0.12389808361E+04  0.10100000352E+00 0. -1.
</event>
<event>
 5   0  0.1339825E-06  0.2637004E+04  0.7818609E-02  0.8355739E-01
       -1   -1    0    0    0  501  0.00000000000E+00  0.00000000000E+00  0.11333447882E+04  0.11333447882E+04  0.50400001928E-02 0. -1.
        1   -1    0    0  501    0  0.00000000000E+00  0.00000000000E+00 -0.15339093580E+04  0.15339093580E+04  0.50400001928E-02 0.  1.
    10030    2    1    2    0    0  0.00000000000E+00  0.00000000000E+00 -0.40056456982E+03  0.26672541462E+04  0.26370044948E+04 0.  0.
        3    1    3    3  502    0 -0.56474614244E+03  0.70352619171E+03 -0.11728532063E+04  0.14796864403E+04  0.10100000352E+00 0.  1.
       -3    1    3    3    0  502  0.56474614244E+03 -0.70352619171E+03  0.77228863649E+03  0.11875677059E+04  0.10100000352E+00 0. -1.
</event>
<event>
 5   0  0.1282578E-06  0.3099031E+04  0.7818609E-02  0.8216004E-01
        1   -1    0    0  501    0  0.00000000000E+00  0.00000000000E+00  0.21406616129E+04  0.21406616129E+04  0.50400001928E-02 0. -1.
       -1   -1    0    0    0  501  0.00000000000E+00  0.00000000000E+00 -0.11216147616E+04  0.11216147616E+04  0.50400001928E-02 0.  1.
    10030    2    1    2    0    0  0.00000000000E+00  0.00000000000E+00  0.10190468513E+04  0.32622763746E+04  0.30990305999E+04 0.  0.
        4    1    3    3  502    0 -0.10880816790E+03 -0.21900106677E+03 -0.11011730726E+04  0.11280001921E+04  0.12699999809E+01 0.  1.
       -4    1    3    3    0  502  0.10880816790E+03  0.21900106677E+03  0.21202199239E+04  0.21342761825E+04  0.12699999809E+01 0. -1.
</event>
<event>
 5   0  0.1339825E-06  0.3313355E+04  0.7818609E-02  0.8159505E-01
       -1   -1    0    0    0  501  0.00000000000E+00  0.00000000000E+00  0.94716362139E+03  0.94716362140E+03  0.50400001928E-02 0. -1.
        1   -1    0    0  501    0  0.00000000000E+00  0.00000000000E+00 -0.28976843114E+04  0.28976843115E+04  0.50400001928E-02 0.  1.
    10030    2    1    2    0    0  0.00000000000E+00  0.00000000000E+00 -0.19505206901E+04  0.38448479328E+04  0.33133554992E+04 0.  0.
        3    1    3    3  502    0  0.14986603473E+04 -0.70288100680E+03 -0.89692963819E+03  0.18826862012E+04  0.10100000352E+00 0. -1.
       -3    1    3    3    0  502 -0.14986603473E+04  0.70288100680E+03 -0.10535910519E+04  0.19621617316E+04  0.10100000352E+00 0.  1.
</event>
<event>
 5   0  0.1405389E-06  0.3338125E+04  0.7818609E-02  0.8153262E-01
       -1   -1    0    0    0  501  0.00000000000E+00  0.00000000000E+00  0.15950671698E+04  0.15950671698E+04  0.50400001928E-02 0. -1.
        1   -1    0    0  501    0  0.00000000000E+00  0.00000000000E+00 -0.17464902517E+04  0.17464902518E+04  0.50400001928E-02 0.  1.
    10030    2    1    2    0    0  0.00000000000E+00  0.00000000000E+00 -0.15142308191E+03  0.33415574216E+04  0.33381247808E+04 0.  0.
        1    1    3    3  502    0 -0.10096876389E+04 -0.12806818485E+04  0.27983553527E+03  0.16546670517E+04  0.50400001928E-02 0. -1.
       -1    1    3    3    0  502  0.10096876389E+04  0.12806818485E+04 -0.43125861718E+03  0.16868903699E+04  0.50400001928E-02 0.  1.
</event>
<event>
 5   0  0.1352708E-06  0.3327267E+04  0.7818609E-02  0.8155992E-01
        1   -1    0    0  501    0  0.00000000000E+00  0.00000000000E+00  0.18069303930E+04  0.18069303930E+04  0.50400001928E-02 0. -1.
       -1   -1    0    0    0  501  0.00000000000E+00  0.00000000000E+00 -0.15317009352E+04  0.15317009352E+04  0.50400001928E-02 0.  1.
    10030    2    1    2    0    0  0.00000000000E+00  0.00000000000E+00  0.27522945775E+03  0.33386313282E+04  0.33272673309E+04 0.  0.
        5    1    3    3  502    0  0.34709400910E+03 -0.15495478232E+04 -0.36014624901E+03  0.16282813388E+04  0.46999998093E+01 0. -1.
       -5    1    3    3    0  502 -0.34709400910E+03  0.15495478232E+04  0.63537570676E+03  0.17103499894E+04  0.46999998093E+01 0.  1.
</event>
<event>
 5   0  0.3896210E-06  0.3243956E+04  0.7818609E-02  0.8177304E-01
       -2   -1    0    0    0  501  0.00000000000E+00  0.00000000000E+00  0.13744787713E+04  0.13744787713E+04  0.25500000920E-02 0.  1.
        2   -1    0    0  501    0  0.00000000000E+00  0.00000000000E+00 -0.19140436711E+04  0.19140436711E+04  0.25500000920E-02 0. -1.
    10030    2    1    2    0    0  0.00000000000E+00  0.00000000000E+00 -0.53956489984E+03  0.32885224424E+04  0.32439558525E+04 0.  0.
        3    1    3    3  502    0  0.73323493213E+03  0.14259886001E+04 -0.22016357965E+02  0.16036089560E+04  0.10100000352E+00 0.  1.
       -3    1    3    3    0  502 -0.73323493213E+03 -0.14259886001E+04 -0.51754854188E+03  0.16849134864E+04  0.10100000352E+00 0. -1.
</event>
<event>
 5   0  0.3671997E-06  0.2766768E+04  0.7818609E-02  0.8313660E-01
       -2   -1    0    0    0  501  0.00000000000E+00  0.00000000000E+00  0.66392351404E+03  0.66392351405E+03  0.25500000920E-02 0. -1.
        2   -1    0    0  501    0  0.00000000000E+00  0.00000000000E+00 -0.28824872919E+04  0.28824872919E+04  0.25500000920E-02 0.  1.
    10030    2    1    2    0    0  0.00000000000E+00  0.00000000000E+00 -0.22185637778E+04  0.35464108059E+04  0.27667678558E+04 0.  0.
        2    1    3    3  502    0  0.96476039230E+03 -0.98437280331E+03 -0.12609378819E+04  0.18680783636E+04  0.25500000920E-02 0. -1.
       -2    1    3    3    0  502 -0.96476039230E+03  0.98437280331E+03 -0.95762589593E+03  0.16783324423E+04  0.25500000920E-02 0.  1.
</event>
<event>
 5   0  0.1352708E-06  0.3367635E+04  0.7818609E-02  0.8145896E-01
       -1   -1    0    0    0  501  0.00000000000E+00  0.00000000000E+00  0.17296365405E+04  0.17296365405E+04  0.50400001928E-02 0.  1.
        1   -1    0    0  501    0  0.00000000000E+00  0.00000000000E+00 -0.16392123713E+04  0.16392123713E+04  0.50400001928E-02 0. -1.
    10030    2    1    2    0    0  0.00000000000E+00  0.00000000000E+00  0.90424169198E+02  0.33688489118E+04  0.33676351436E+04 0.  0.
        5    1    3    3  502    0 -0.68714621741E+03  0.44181110670E+03 -0.14276814995E+04  0.16448901277E+04  0.46999998093E+01 0. -1.
       -5    1    3    3    0  502  0.68714621741E+03 -0.44181110670E+03  0.15181056687E+04  0.17239587841E+04  0.46999998093E+01 0.  1.
</event>
<event>
 5   0  0.3896210E-06  0.3292052E+04  0.7818609E-02  0.8164921E-01
       -2   -1    0    0    0  501  0.00000000000E+00  0.00000000000E+00  0.14105237713E+04  0.14105237713E+04  0.25500000920E-02 0.  1.
        2   -1    0    0  501    0  0.00000000000E+00  0.00000000000E+00 -0.19208482829E+04  0.19208482829E+04  0.25500000920E-02 0. -1.
    10030    2    1    2    0    0  0.00000000000E+00  0.00000000000E+00 -0.51032451168E+03  0.33313720542E+04  0.32920523471E+04 0.  0.
        3    1    3    3  502    0 -0.26820215124E+03  0.69128052430E+03  0.12319479890E+04  0.14378793465E+04  0.10100000352E+00 0.  1.
       -3    1    3    3    0  502  0.26820215124E+03 -0.69128052430E+03 -0.17422725007E+04  0.18934927077E+04  0.10100000352E+00 0. -1.
</event>
<event>
 5   0  0.4017247E-06  0.3347924E+04  0.7818609E-02  0.8150807E-01
        2   -1    0    0  501    0  0.00000000000E+00  0.00000000000E+00  0.26629956634E+04  0.26629956634E+04  0.25500000920E-02 0.  1.
       -2   -1    0    0    0  501  0.00000000000E+00  0.00000000000E+00 -0.10522543396E+04  0.10522543396E+04  0.25500000920E-02 0. -1.
    10030    2    1    2    0    0  0.00000000000E+00  0.00000000000E+00  0.16107413237E+04  0.37152500030E+04  0.33479239796E+04 0.  0.
        1    1    3    3  502    0  0.37363234778E+03 -0.10520701183E+04 -0.57875281055E+03  0.12575402502E+04  0.50400001928E-02 0. -1.
       -1    1    3    3    0  502 -0.37363234778E+03  0.10520701183E+04  0.21894941343E+04  0.24577097528E+04  0.50400001928E-02 0.  1.
</event>
<event>
 5   0  0.3920487E-06  0.2863559E+04  0.7818609E-02  0.8283803E-01
       -2   -1    0    0    0  501  0.00000000000E+00  0.00000000000E+00  0.11639671128E+04  0.11639671128E+04  0.25500000920E-02 0.  1.
        2   -1    0    0  501    0  0.00000000000E+00  0.00000000000E+00 -0.17612118363E+04  0.17612118363E+04  0.25500000920E-02 0. -1.
    10030    2    1    2    0    0  0.00000000000E+00  0.00000000000E+00 -0.59724472354E+03  0.29251789491E+04  0.28635590835E+04 0.  0.
        4    1    3    3  502    0 -0.34564536736E+03  0.43079463274E+03  0.10507632677E+04  0.11870803651E+04  0.12699999809E+01 0.  1.
       -4    1    3    3    0  502  0.34564536736E+03 -0.43079463274E+03 -0.16480079913E+04  0.17380985840E+04  0.12699999809E+01 0. -1.
</event>
<event>
 5   0  0.3671997E-06  0.3310524E+04  0.7818609E-02  0.8160223E-01
        2   -1    0    0  501    0  0.00000000000E+00  0.00000000000E+00  0.22192945263E+04  0.22192945263E+04  0.25500000920E-02 0. -1.
       -2   -1    0    0    0  501  0.00000000000E+00  0.00000000000E+00 -0.12345782522E+04  0.12345782522E+04  0.25500000920E-02 0.  1.
    10030    2    1    2    0    0  0.00000000000E+00  0.00000000000E+00  0.98471627410E+03  0.34538727785E+04  0.33105242832E+04 0.  0.
        2    1    3    3  502    0  0.56380433202E+02  0.24726233457E+03 -0.12141884599E+04  0.12403914832E+04  0.25500000920E-02 0.  1.
       -2    1    3    3    0  502 -0.56380433202E+02 -0.24726233457E+03  0.21989047340E+04  0.22134812953E+04  0.25500000920E-02 0. -1.
</event>
<event>
 5   0  0.1352708E-06  0.3283005E+04  0.7818609E-02  0.8167233E-01
        1   -1    0    0  501    0  0.00000000000E+00  0.00000000000E+00  0.10969996745E+04  0.10969996745E+04  0.50400001928E-02 0. -1.
       -1   -1    0    0    0  501  0.00000000000E+00  0.00000000000E+00 -0.24562733826E+04  0.24562733827E+04  0.50400001928E-02 0.  1.
    10030    2    1    2    0    0  0.00000000000E+00  0.00000000000E+00 -0.13592737081E+04  0.35532730572E+04  0.32830053922E+04 0.  0.
        5    1    3    3  502    0 -0.10580816663E+04  0.28443633731E+02  0.67830714057E+03  0.12571668624E+04  0.46999998093E+01 0. -1.
       -5    1    3    3    0  502  0.10580816663E+04 -0.28443633731E+02 -0.20375808487E+04  0.22961061948E+04  0.46999998093E+01 0.  1.
</event>
<event>
 5   0  0.3671997E-06  0.3289213E+04  0.7818609E-02  0.8165646E-01
        2   -1    0    0  501    0  0.00000000000E+00  0.00000000000E+00  0.14399874377E+04  0.14399874377E+04  0.25500000920E-02 0.  1.
       -2   -1    0    0    0  501  0.00000000000E+00  0.00000000000E+00 -0.18783011903E+04  0.18783011903E+04  0.25500000920E-02 0. -1.
    10030    2    1    2    0    0  0.00000000000E+00  0.00000000000E+00 -0.43831375255E+03  0.33182886280E+04  0.32892127437E+04 0.  0.
        2    1    3    3  502    0  0.13817701516E+04  0.17120919884E+03 -0.11021820445E+04  0.17757833766E+04  0.25500000920E-02 0.  1.
       -2    1    3    3    0  502 -0.13817701516E+04 -0.17120919884E+03  0.66386829192E+03  0.15425052514E+04  0.25500000920E-02 0. -1.
</event>
<event>
 5   0  0.1352708E-06  0.3264989E+04  0.7818609E-02  0.8171861E-01
       -1   -1    0    0    0  501  0.00000000000E+00  0.00000000000E+00  0.16285028197E+04  0.16285028197E+04  0.50400001928E-02 0. -1.
        1   -1    0    0  501    0  0.00000000000E+00  0.00000000000E+00 -0.16364964572E+04  0.16364964572E+04  0.50400001928E-02 0.  1.
    10030    2    1    2    0    0  0.00000000000E+00  0.00000000000E+00 -0.79936375193E+01  0.32649992770E+04  0.32649894916E+04 0.  0.
        5    1    3    3  502    0 -0.23090580260E+03  0.13444240138E+04 -0.90078464603E+03  0.16346952276E+04  0.46999998093E+01 0.  1.
       -5    1    3    3    0  502  0.23090580260E+03 -0.13444240138E+04  0.89279100851E+03  0.16303040494E+04  0.46999998093E+01 0. -1.
</event>
<event>
 5   0  0.1282578E-06  0.3477609E+04  0.7818609E-02  0.8119117E-01
        1   -1    0    0  501    0  0.00000000000E+00  0.00000000000E+00  0.16302178000E+04  0.16302178000E+04  0.50400001928E-02 0.  1.
       -1   -1    0    0    0  501  0.00000000000E+00  0.00000000000E+00 -0.18546240241E+04  0.18546240241E+04  0.50400001928E-02 0. -1.
    10030    2    1    2    0    0  0.00000000000E+00  0.00000000000E+00 -0.22440622417E+03  0.34848418241E+04  0.34776090041E+04 0.  0.
        4    1    3    3  502    0  0.16775262777E+04  0.41968584900E+03  0.70408881620E+02  0.17306616214E+04  0.12699999809E+01 0.  1.
       -4    1    3    3    0  502 -0.16775262777E+04 -0.41968584900E+03 -0.29481510579E+03  0.17541802027E+04  0.12699999809E+01 0. -1.
</event>
<event>
 5   0  0.1391878E-06  0.3152610E+04  0.7818609E-02  0.8201446E-01
       -1   -1    0    0    0  501  0.00000000000E+00  0.00000000000E+00  0.83832670555E+03  0.83832670557E+03  0.50400001928E-02 0.  1.
        1   -1    0    0  501    0  0.00000000000E+00  0.00000000000E+00 -0.29639250670E+04  0.29639250670E+04  0.50400001928E-02 0. -1.
    10030    2    1    2    0    0  0.00000000000E+00  0.00000000000E+00 -0.21255983614E+04  0.38022517725E+04  0.31526100532E+04 0.  0.
        2    1    3    3  502    0 -0.14993091026E+04 -0.14494448659E+03 -0.50252941376E+03  0.15879145132E+04  0.25500000920E-02 0.  1.
       -2    1    3    3    0  502  0.14993091026E+04  0.14494448659E+03 -0.16230689476E+04  0.22143372594E+04  0.25500000920E-02 0. -1.
</event>
<event>
 5   0  0.1282578E-06  0.3373876E+04  0.7818609E-02  0.8144348E-01
        1   -1    0    0  501    0  0.00000000000E+00  0.00000000000E+00  0.16290121744E+04  0.16290121744E+04  0.50400001928E-02 0. -1.
       -1   -1    0    0    0  501  0.00000000000E+00  0.00000000000E+00 -0.17469240324E+04  0.17469240324E+04  0.50400001928E-02 0.  1.
    10030    2    1    2    0    0  0.00000000000E+00  0.00000000000E+00 -0.11791185798E+03  0.33759362068E+04  0.33738764153E+04 0.  0.
        4    1    3    3  502    0 -0.15636480201E+04  0.41602310749E+03 -0.53641445567E+03  0.17046443729E+04  0.12699999809E+01 0.  1.
       -4    1    3    3    0  502  0.15636480201E+04 -0.41602310749E+03  0.41850259769E+03  0.16712918339E+04  0.12699999809E+01 0. -1.
</event>
<event>
 5   0  0.4017247E-06  0.3124320E+04  0.7818609E-02  0.8209095E-01
       -2   -1    0    0    0  501  0.00000000000E+00  0.00000000000E+00  0.28323668338E+04  0.28323668338E+04  0.25500000920E-02 0. -1.
        2   -1    0    0  501    0  0.00000000000E+00  0.00000000000E+00 -0.86159170018E+03  0.86159170019E+03  0.25500000920E-02 0.  1.
    10030    2    1    2    0    0  0.00000000000E+00  0.00000000000E+00  0.19707751337E+04  0.36939585340E+04  0.31243199298E+04 0.  0.
        1    1    3    3  502    0 -0.42784532156E+03  0.12331041546E+04  0.20002226976E+04  0.23884070665E+04  0.50400001928E-02 0. -1.
       -1    1    3    3    0  502  0.42784532156E+03 -0.12331041546E+04 -0.29447563909E+02  0.13055514675E+04  0.50400001928E-02 0.  1.
</event>
<event>
 5   0  0.3920487E-06  0.3275976E+04  0.7818609E-02  0.8169035E-01
        2   -1    0    0  501    0  0.00000000000E+00  0.00000000000E+00  0.99551394868E+03  0.99551394868E+03  0.25500000920E-02 0.  1.
       -2   -1    0    0    0  501  0.00000000000E+00  0.00000000000E+00 -0.26950955704E+04  0.26950955704E+04  0.25500000920E-02 0. -1.
    10030    2    1    2    0    0  0.00000000000E+00  0.00000000000E+00 -0.16995816217E+04  0.36906095190E+04  0.32759763328E+04 0.  0.
        4    1    3    3  502    0 -0.10186384104E+04  0.11901312575E+04 -0.31072251781E+03  0.15970556400E+04  0.12699999809E+01 0.  1.
       -4    1    3    3    0  502  0.10186384104E+04 -0.11901312575E+04 -0.13888591039E+04  0.20935538791E+04  0.12699999809E+01 0. -1.
</event>
<event>
 5   0  0.1339825E-06  0.3287121E+04  0.7818609E-02  0.8166180E-01
        1   -1    0    0  501    0  0.00000000000E+00  0.00000000000E+00  0.26468356283E+04  0.26468356283E+04  0.50400001928E-02 0. -1.
       -1   -1    0    0    0  501  0.00000000000E+00  0.00000000000E+00 -0.10205735985E+04  0.10205735985E+04  0.50400001928E-02 0.  1.
    10030    2    1    2    0    0  0.00000000000E+00  0.00000000000E+00  0.16262620298E+04  0.36674092268E+04  0.32871206621E+04 0.  0.
        3    1    3    3  502    0  0.42807250812E+03 -0.15760145776E+04  0.60673572232E+03  0.17421814681E+04  0.10100000352E+00 0.  1.
       -3    1    3    3    0  502 -0.42807250812E+03  0.15760145776E+04  0.10195263075E+04  0.19252277587E+04  0.10100000352E+00 0. -1.
</event>
<event>
 5   0  0.3896210E-06  0.3346805E+04  0.7818609E-02  0.8151087E-01
       -2   -1    0    0    0  501  0.00000000000E+00  0.00000000000E+00  0.12448097267E+04  0.12448097267E+04  0.25500000920E-02 0.  1.
        2   -1    0    0  501    0  0.00000000000E+00  0.00000000000E+00 -0.22495610978E+04  0.22495610978E+04  0.25500000920E-02 0. -1.
    10030    2    1    2    0    0  0.00000000000E+00  0.00000000000E+00 -0.10047513710E+04  0.34943708245E+04  0.33468047660E+04 0.  0.
        3    1    3    3  502    0 -0.61572059362E+03 -0.17099673704E+03  0.11124002967E+04  0.12828819758E+04  0.10100000352E+00 0.  1.
       -3    1    3    3    0  502  0.61572059362E+03  0.17099673704E+03 -0.21171516678E+04  0.22114888487E+04  0.10100000352E+00 0. -1.
</event>
<event>
 5   0  0.1509730E-06  0.2034538E+04  0.7818609E-02  0.8590641E-01
       -1   -1    0    0    0  501  0.00000000000E+00  0.00000000000E+00  0.12987710834E+04  0.12987710834E+04  0.50400001928E-02 0. -1.
        1   -1    0    0  501    0  0.00000000000E+00  0.00000000000E+00 -0.79678134296E+03  0.79678134298E+03  0.50400001928E-02 0.  1.
    10030    2    1    2    0    0  0.00000000000E+00  0.00000000000E+00  0.50198974047E+03  0.20955524264E+04  0.20345383438E+04 0.  0.
        3    1    3    3  502    0 -0.92747655176E+03  0.19859743457E+03 -0.12770353040E+03  0.95705898301E+03  0.10100000352E+00 0.  1.
       -3    1    3    3    0  502  0.92747655176E+03 -0.19859743457E+03  0.62969327086E+03  0.11384934434E+04  0.10100000352E+00 0. -1.
</event>
<event>
 5   0  0.1391878E-06  0.3302874E+04  0.7818609E-02  0.8162165E-01
       -1   -1    0    0    0  501  0.00000000000E+00  0.00000000000E+00  0.16680592476E+04  0.16680592476E+04  0.50400001928E-02 0.  1.
        1   -1    0    0  501    0  0.00000000000E+00  0.00000000000E+00 -0.16349801028E+04  0.16349801028E+04  0.50400001928E-02 0. -1.
    10030    2    1    2    0    0  0.00000000000E+00  0.00000000000E+00  0.33079144806E+02  0.33030393503E+04  0.33028737063E+04 0.  0.
        2    1    3    3  502    0  0.98984800696E+03  0.34951005665E+03  0.12914710798E+04  0.16642878076E+04  0.25500000920E-02 0.  1.
       -2    1    3    3    0  502 -0.98984800696E+03 -0.34951005665E+03 -0.12583919350E+04  0.16387515427E+04  0.25500000920E-02 0. -1.
</event>
<event>
 5   0  0.3671997E-06  0.3188435E+04  0.7818609E-02  0.8191878E-01
        2   -1    0    0  501    0  0.00000000000E+00  0.00000000000E+00  0.22522601240E+04  0.22522601240E+04  0.25500000920E-02 0. -1.
       -2   -1    0    0    0  501  0.00000000000E+00  0.00000000000E+00 -0.11284349563E+04  0.11284349563E+04  0.25500000920E-02 0.  1.
    10030    2    1    2    0    0  0.00000000000E+00  0.00000000000E+00  0.11238251677E+04  0.33806950804E+04  0.31884347600E+04 0.  0.
        2    1    3    3  502    0  0.88889870036E+03 -0.83982043593E+03 -0.52254594404E+03  0.13298471821E+04  0.25500000920E-02 0.  1.
       -2    1    3    3    0  502 -0.88889870036E+03  0.83982043593E+03  0.16463711118E+04  0.20508478983E+04  0.25500000920E-02 0. -1.
</event>
<event>
 5   0  0.1259875E-06  0.3355159E+04  0.7818609E-02  0.8149000E-01
        3   -1    0    0  501    0  0.00000000000E+00  0.00000000000E+00  0.15098724786E+04  0.15098724820E+04  0.10100000352E+00 0.  1.
       -3   -1    0    0    0  501  0.00000000000E+00  0.00000000000E+00 -0.18639140421E+04  0.18639140449E+04  0.10100000352E+00 0. -1.
    10030    2    1    2    0    0  0.00000000000E+00  0.00000000000E+00 -0.35404156354E+03  0.33737865268E+04  0.33551587294E+04 0.  0.
        2    1    3    3  502    0 -0.14525732155E+04 -0.71892857216E+03 -0.61237403159E+03  0.17325787696E+04  0.25500000920E-02 0.  1.
       -2    1    3    3    0  502  0.14525732155E+04  0.71892857216E+03  0.25833246805E+03  0.16412077572E+04  0.25500000920E-02 0. -1.
</event>
<event>
 5   0  0.1405389E-06  0.3289598E+04  0.7818609E-02  0.8165547E-01
       -1   -1    0    0    0  501  0.00000000000E+00  0.00000000000E+00  0.98232287808E+03  0.98232287809E+03  0.50400001928E-02 0.  1.
        1   -1    0    0  501    0  0.00000000000E+00  0.00000000000E+00 -0.27540468479E+04  0.27540468479E+04  0.50400001928E-02 0. -1.
    10030    2    1    2    0    0  0.00000000000E+00  0.00000000000E+00 -0.17717239699E+04  0.37363697260E+04  0.32895976812E+04 0.  0.
        1    1    3    3  502    0  0.15721364948E+04 -0.14951863150E+03 -0.14080821520E+04  0.21158129232E+04  0.50400001928E-02 0.  1.
       -1    1    3    3    0  502 -0.15721364948E+04  0.14951863150E+03 -0.36364181788E+03  0.16205568028E+04  0.50400001928E-02 0. -1.
</event>
<event>
 5   0  0.3920487E-06  0.2080890E+04  0.7818609E-02  0.8569709E-01
       -2   -1    0    0    0  501  0.00000000000E+00  0.00000000000E+00  0.91238898981E+03  0.91238898981E+03  0.25500000920E-02 0. -1.
        2   -1    0    0  501    0  0.00000000000E+00  0.00000000000E+00 -0.11864738981E+04  0.11864738981E+04  0.25500000920E-02 0.  1.
    10030    2    1    2    0    0  0.00000000000E+00  0.00000000000E+00 -0.27408490825E+03  0.20988628879E+04  0.20808899262E+04 0.  0.
        4    1    3    3  502    0  0.26478997508E+03  0.68136892902E+03 -0.88380647661E+03  0.11469493665E+04  0.12699999809E+01 0. -1.
       -4    1    3    3    0  502 -0.26478997508E+03 -0.68136892902E+03  0.60972156836E+03  0.95191352137E+03  0.12699999809E+01 0.  1.
</event>
<event>
 5   0  0.1405389E-06  0.2783540E+04  0.7818609E-02  0.8308397E-01
       -1   -1    0    0    0  501  0.00000000000E+00  0.00000000000E+00  0.13414410017E+04  0.13414410017E+04  0.50400001928E-02 0. -1.
        1   -1    0    0  501    0  0.00000000000E+00  0.00000000000E+00 -0.14439871591E+04  0.14439871591E+04  0.50400001928E-02 0.  1.
    10030    2    1    2    0    0  0.00000000000E+00  0.00000000000E+00 -0.10254615736E+03  0.27854281608E+04  0.27835398910E+04 0.  0.
        1    1    3    3  502    0  0.12484695692E+04 -0.58751775101E+03 -0.23352352941E+03  0.13994236713E+04  0.50400001928E-02 0.  1.
       -1    1    3    3    0  502 -0.12484695692E+04  0.58751775101E+03  0.13097737205E+03  0.13860044895E+04  0.50400001928E-02 0. -1.
</event>
<event>
 5   0  0.3920487E-06  0.3255868E+04  0.7818609E-02  0.8174216E-01
        2   -1    0    0  501    0  0.00000000000E+00  0.00000000000E+00  0.24234560927E+04  0.24234560927E+04  0.25500000920E-02 0.  1.
       -2   -1    0    0    0  501  0.00000000000E+00  0.00000000000E+00 -0.10935496125E+04  0.10935496125E+04  0.25500000920E-02 0. -1.
    10030    2    1    2    0    0  0.00000000000E+00  0.00000000000E+00  0.13299064803E+04  0.35170057052E+04  0.32558682228E+04 0.  0.
        4    1    3    3  502    0  0.79141623198E+03  0.55499504767E+03  0.20799019156E+04  0.22935458893E+04  0.12699999809E+01 0.  1.
       -4    1    3    3    0  502 -0.79141623198E+03 -0.55499504767E+03 -0.74999543532E+03  0.12234598159E+04  0.12699999809E+01 0. -1.
</event>
<event>
 5   0  0.3812379E-06  0.3318919E+04  0.7818609E-02  0.8158098E-01
       -2   -1    0    0    0  501  0.00000000000E+00  0.00000000000E+00  0.16330196017E+04  0.16330196017E+04  0.25500000920E-02 0. -1.
        2   -1    0    0  501    0  0.00000000000E+00  0.00000000000E+00 -0.16863275917E+04  0.16863275917E+04  0.25500000920E-02 0.  1.
    10030    2    1    2    0    0  0.00000000000E+00  0.00000000000E+00 -0.53307989986E+02  0.33193471934E+04  0.33189191085E+04 0.  0.
        5    1    3    3  502    0 -0.43493902279E+03 -0.13062763569E+04  0.89988551479E+03  0.16447935748E+04  0.46999998093E+01 0. -1.
       -5    1    3    3    0  502  0.43493902279E+03  0.13062763569E+04 -0.95319350478E+03  0.16745536186E+04  0.46999998093E+01 0.  1.
</event>
<event>
 5   0  0.1282578E-06  0.3281087E+04  0.7818609E-02  0.8167724E-01
        1   -1    0    0  501    0  0.00000000000E+00  0.00000000000E+00  0.14141101724E+04  0.14141101724E+04  0.50400001928E-02 0. -1.
       -1   -1    0    0    0  501  0.00000000000E+00  0.00000000000E+00 -0.19032345801E+04  0.19032345801E+04  0.50400001928E-02 0.  1.
    10030    2    1    2    0    0  0.00000000000E+00  0.00000000000E+00 -0.48912440770E+03  0.33173447526E+04  0.32810872468E+04 0.  0.
        4    1    3    3  502    0  0.77612826989E+02  0.27939867304E+03 -0.18771173662E+04  0.18993837393E+04  0.12699999809E+01 0.  1.
       -4    1    3    3    0  502 -0.77612826989E+02 -0.27939867304E+03  0.13879929585E+04  0.14179610133E+04  0.12699999809E+01 0. -1.
</event>
<event>
 5   0  0.3812379E-06  0.3356964E+04  0.7818609E-02  0.8148550E-01
       -2   -1    0    0    0  501  0.00000000000E+00  0.00000000000E+00  0.14337037592E+04  0.14337037592E+04  0.25500000920E-02 0.  1.
        2   -1    0    0  501    0  0.00000000000E+00  0.00000000000E+00 -0.19650516718E+04  0.19650516718E+04  0.25500000920E-02 0. -1.
    10030    2    1    2    0    0  0.00000000000E+00  0.00000000000E+00 -0.53134791266E+03  0.33987554310E+04  0.33569640861E+04 0.  0.
        5    1    3    3  502    0  0.93283575914E+03 -0.66124126312E+02  0.11454945503E+04  0.14787612411E+04  0.46999998093E+01 0.  1.
       -5    1    3    3    0  502 -0.93283575914E+03  0.66124126312E+02 -0.16768424629E+04  0.19199941899E+04  0.46999998093E+01 0. -1.
</event>
<event>
 5   0  0.1391878E-06  0.3320084E+04  0.7818609E-02  0.8157804E-01
        1   -1    0    0  501    0  0.00000000000E+00  0.00000000000E+00  0.23507071635E+04  0.23507071636E+04  0.50400001928E-02 0.  1.
       -1   -1    0    0    0  501  0.00000000000E+00  0.00000000000E+00 -0.11723022261E+04  0.11723022262E+04  0.50400001928E-02 0. -1.
    10030    2    1    2    0    0  0.00000000000E+00  0.00000000000E+00  0.11784049374E+04  0.35230093897E+04  0.33200838790E+04 0.  0.
        2    1    3    3  502    0 -0.15773167227E+04  0.14377289987E+03  0.11167198205E+04  0.19379530046E+04  0.25500000920E-02 0.  1.
       -2    1    3    3    0  502  0.15773167227E+04 -0.14377289987E+03  0.61685116908E+02  0.15850563851E+04  0.25500000920E-02 0. -1.
</event>
<event>
 5   0  0.3671997E-06  0.2315086E+04  0.7818609E-02  0.8471997E-01
        2   -1    0    0  501    0  0.00000000000E+00  0.00000000000E+00  0.12171798028E+04  0.12171798028E+04  0.25500000920E-02 0. -1.
       -2   -1    0    0    0  501  0.00000000000E+00  0.00000000000E+00 -0.11008276929E+04  0.11008276929E+04  0.25500000920E-02 0.  1.
    10030    2    1    2    0    0  0.00000000000E+00  0.00000000000E+00  0.11635210999E+03  0.23180074957E+04  0.23150855139E+04 0.  0.
        2    1    3    3  502    0 -0.52260254821E+03  0.10055619798E+04  0.29434855173E+03  0.11708583982E+04  0.25500000920E-02 0. -1.
       -2    1    3    3    0  502  0.52260254821E+03 -0.10055619798E+04 -0.17799644175E+03  0.11471490975E+04  0.25500000920E-02 0.  1.
</event>
<event>
 5   0  0.1352708E-06  0.3319275E+04  0.7818609E-02  0.8158008E-01
        1   -1    0    0  501    0  0.00000000000E+00  0.00000000000E+00  0.17576724703E+04  0.17576724703E+04  0.50400001928E-02 0. -1.
       -1   -1    0    0    0  501  0.00000000000E+00  0.00000000000E+00 -0.15670708935E+04  0.15670708935E+04  0.50400001928E-02 0.  1.
    10030    2    1    2    0    0  0.00000000000E+00  0.00000000000E+00  0.19060157679E+03  0.33247433638E+04  0.33192754441E+04 0.  0.
        5    1    3    3  502    0  0.74995873742E+03  0.12393723655E+03 -0.13824521306E+04  0.15776547562E+04  0.46999998093E+01 0.  1.
       -5    1    3    3    0  502 -0.74995873742E+03 -0.12393723655E+03  0.15730537074E+04  0.17470886076E+04  0.46999998093E+01 0. -1.
</event>
</LesHouchesEvents>
