<LesHouchesEvents version="3.0">
<header>
<!--
#*********************************************************************
#                                                                    *
#                        MadGraph5_aMC@NLO                           *
#                                                                    *
#                           Going Beyond                             *
#                                                                    *
#                   http://madgraph.hep.uiuc.edu                     *
#                   http://madgraph.phys.ucl.ac.be                   *
#                   http://amcatnlo.cern.ch                          *
#                                                                    *
#                     The MadGraph5_aMC@NLO team                     *
#                                                                    *
#....................................................................*
#                                                                    *
# This file contains all the information necessary to reproduce      *
# the events generated:                                              *
#                                                                    *
# 1. software version                                                *
# 2. proc_card          : code generation info including model       *
# 3. param_card         : model primary parameters in the LH format  *
# 4. run_card           : running parameters (collider and cuts)     *
# 5. pythia_card        : present only if pythia has been run        *
# 6. pgs_card           : present only if pgs has been run           *
# 7. delphes_cards      : present only if delphes has been run       *
#                                                                    *
#                                                                    *
#*********************************************************************
-->
<MGVersion>
#5.2.2.3
</MGVersion>
<MG5ProcCard>
#************************************************************
#*                     MadGraph5_aMC@NLO                    *
#*                                                          *
#*                *                       *                 *
#*                  *        * *        *                   *
#*                    * * * * 5 * * * *                     *
#*                  *        * *        *                   *
#*                *                       *                 *
#*                                                          *
#*                                                          *
#*         VERSION 2.2.3                 2015-02-10         *
#*                                                          *
#*    The MadGraph5_aMC@NLO Development Team - Find us at   *
#*    https://server06.fynu.ucl.ac.be/projects/madgraph     *
#*                                                          *
#************************************************************
#*                                                          *
#*               Command File for MadGraph5_aMC@NLO         *
#*                                                          *
#*     run as ./bin/mg5_aMC  filename                       *
#*                                                          *
#************************************************************
set group_subprocesses Auto
set ignore_six_quark_processes False
set loop_optimized_output True
set gauge unitary
set complex_mass_scheme False
import model sm
define p = g u c d s u~ c~ d~ s~
define j = g u c d s u~ c~ d~ s~
define l+ = e+ mu+
define l- = e- mu-
define vl = ve vm vt
define vl~ = ve~ vm~ vt~
import model Zprime_UFO
generate p p > zph, zph > j j
add process p p > zph, zph > b b~
output Dijet_signal
</MG5ProcCard>
<MGProcCard>
#*********************************************************************
#                        MadGraph/MadEvent                           *
#                   http://madgraph.hep.uiuc.edu                     *
#                                                                    *
#                          proc_card.dat                             *
#*********************************************************************
#                                                                    *
#            This Files is generated by MADGRAPH 5                   *
#                                                                    *
# WARNING: This Files is generated for MADEVENT (compatibility issue)*
#          This files is NOT a valid MG4 proc_card.dat               *
#          Running this in MG4 will NEVER reproduce the result of MG5*
#                                                                    *
#*********************************************************************
#*********************************************************************
# Process(es) requested : mg2 input                                  *
#*********************************************************************
# Begin PROCESS # This is TAG. Do not modify this line
p p > zph , zph > j j           #Process
# Be carefull the coupling are here in MG5 convention
          
end_coup           # End the couplings input

done               # this tells MG there are no more procs
# End PROCESS  # This is TAG. Do not modify this line
#*********************************************************************
# Model information                                                  *
#*********************************************************************
# Begin MODEL  # This is TAG. Do not modify this line
Zprime_UFO
# End   MODEL  # This is TAG. Do not modify this line
#*********************************************************************
# Start multiparticle definitions                                    *
#*********************************************************************
# Begin MULTIPARTICLES # This is TAG. Do not modify this line

# End  MULTIPARTICLES # This is TAG. Do not modify this line
</MGProcCard>
<MGRunCard>
#*********************************************************************
#                       MadGraph5_aMC@NLO                            *
#                                                                    *
#                     run_card.dat MadEvent                          *
#                                                                    *
#  This file is used to set the parameters of the run.               *
#                                                                    *
#  Some notation/conventions:                                        *
#                                                                    *
#   Lines starting with a '# ' are info or comments                  *
#                                                                    *
#   mind the format:   value    = variable     ! comment             *
#*********************************************************************
#
#*******************                                                 
# Running parameters
#*******************                                                 
#                                                                    
#*********************************************************************
# Tag name for the run (one word)                                    *
#*********************************************************************
  tag_1     = run_tag ! name of the run 
#*********************************************************************
# Run to generate the grid pack                                      *
#*********************************************************************
  .false.     = gridpack  !True = setting up the grid pack
#*********************************************************************
# Number of events and rnd seed                                      *
# Warning: Do not generate more than 1M events in a single run       *
# If you want to run Pythia, avoid more than 50k events in a run.    *
#*********************************************************************
  2000 = nevents ! Number of unweighted events requested 
 2037 = iseed   ! rnd seed (0=assigned automatically=default))
#*********************************************************************
# Collider type and energy                                           *
# lpp: 0=No PDF, 1=proton, -1=antiproton, 2=photon from proton,      *
#                                         3=photon from electron     *
#*********************************************************************
        1     = lpp1    ! beam 1 type 
        1     = lpp2    ! beam 2 type
     4000     = ebeam1  ! beam 1 total energy in GeV
     4000     = ebeam2  ! beam 2 total energy in GeV
#*********************************************************************
# Beam polarization from -100 (left-handed) to 100 (right-handed)    *
#*********************************************************************
        0     = polbeam1 ! beam polarization for beam 1
        0     = polbeam2 ! beam polarization for beam 2
#*********************************************************************
# PDF CHOICE: this automatically fixes also alpha_s and its evol.    *
#*********************************************************************
 'nn23lo1'    = pdlabel     ! PDF set                                     
 230000    = lhaid     ! if pdlabel=lhapdf, this is the lhapdf number
#*********************************************************************
# Renormalization and factorization scales                           *
#*********************************************************************
 F        = fixed_ren_scale  ! if .true. use fixed ren scale
 F        = fixed_fac_scale  ! if .true. use fixed fac scale
 91.1880  = scale            ! fixed ren scale
 91.1880  = dsqrt_q2fact1    ! fixed fact scale for pdf1
 91.1880  = dsqrt_q2fact2    ! fixed fact scale for pdf2
 1        = scalefact        ! scale factor for event-by-event scales
#*********************************************************************
# Matching - Warning! ickkw > 1 is still beta
#*********************************************************************
 0        = ickkw            ! 0 no matching, 1 MLM, 2 CKKW matching
 1        = highestmult      ! for ickkw=2, highest mult group
 1        = ktscheme         ! for ickkw=1, 1 Durham kT, 2 Pythia pTE
 1        = alpsfact         ! scale factor for QCD emission vx
 F        = chcluster        ! cluster only according to channel diag
 T        = pdfwgt           ! for ickkw=1, perform pdf reweighting
 5        = asrwgtflavor     ! highest quark flavor for a_s reweight
 T        = clusinfo         ! include clustering tag in output
 3.0      = lhe_version       ! Change the way clustering information pass to shower.        
#*********************************************************************
#**********************************************************
#
#**********************************************************
# Automatic ptj and mjj cuts if xqcut > 0
# (turn off for VBF and single top processes)
#**********************************************************
   T  = auto_ptj_mjj  ! Automatic setting of ptj and mjj
#**********************************************************
#                                                                    
#**********************************
# BW cutoff (M+/-bwcutoff*Gamma)
#**********************************
  15  = bwcutoff      ! (M+/-bwcutoff*Gamma)
#**********************************************************
# Apply pt/E/eta/dr/mij cuts on decay products or not
# (note that etmiss/ptll/ptheavy/ht/sorted cuts always apply)
#**********************************************************
   T  = cut_decays    ! Cut decay products 
#*************************************************************
# Number of helicities to sum per event (0 = all helicities)
# 0 gives more stable result, but longer run time (needed for
# long decay chains e.g.).
# Use >=2 if most helicities contribute, e.g. pure QCD.
#*************************************************************
   0  = nhel          ! Number of helicities used per event
#*******************                                                 
# Standard Cuts
#*******************                                                 
#                                                                    
#*********************************************************************
# Minimum and maximum pt's (for max, -1 means no cut)                *
#*********************************************************************
 20  = ptj       ! minimum pt for the jets 
  0  = ptb       ! minimum pt for the b 
 10  = pta       ! minimum pt for the photons 
 10  = ptl       ! minimum pt for the charged leptons 
  0  = misset    ! minimum missing Et (sum of neutrino's momenta)
  0  = ptheavy   ! minimum pt for one heavy final state
 1.0 = ptonium   ! minimum pt for the quarkonium states
 -1  = ptjmax    ! maximum pt for the jets
 -1  = ptbmax    ! maximum pt for the b
 -1  = ptamax    ! maximum pt for the photons
 -1  = ptlmax    ! maximum pt for the charged leptons
 -1  = missetmax ! maximum missing Et (sum of neutrino's momenta)
#*********************************************************************
# Minimum and maximum E's (in the center of mass frame)              *
#*********************************************************************
  0  = ej     ! minimum E for the jets 
  0  = eb     ! minimum E for the b 
  0  = ea     ! minimum E for the photons 
  0  = el     ! minimum E for the charged leptons 
 -1   = ejmax ! maximum E for the jets
 -1   = ebmax ! maximum E for the b
 -1   = eamax ! maximum E for the photons
 -1   = elmax ! maximum E for the charged leptons
#*********************************************************************
# Maximum and minimum absolute rapidity (for max, -1 means no cut)   *
#*********************************************************************
   5  = etaj    ! max rap for the jets 
  -1  = etab    ! max rap for the b
 2.5  = etaa    ! max rap for the photons 
 2.5  = etal    ! max rap for the charged leptons 
 0.6  = etaonium ! max rap for the quarkonium states
   0  = etajmin ! min rap for the jets
   0  = etabmin ! min rap for the b
   0  = etaamin ! min rap for the photons
   0  = etalmin ! main rap for the charged leptons
#*********************************************************************
# Minimum and maximum DeltaR distance                                *
#*********************************************************************
 0.4 = drjj    ! min distance between jets 
 0   = drbb    ! min distance between b's 
 0.4 = drll    ! min distance between leptons 
 0.4 = draa    ! min distance between gammas 
 0   = drbj    ! min distance between b and jet 
 0.4 = draj    ! min distance between gamma and jet 
 0.4 = drjl    ! min distance between jet and lepton 
 0   = drab    ! min distance between gamma and b 
 0   = drbl    ! min distance between b and lepton 
 0.4 = dral    ! min distance between gamma and lepton 
 -1  = drjjmax ! max distance between jets
 -1  = drbbmax ! max distance between b's
 -1  = drllmax ! max distance between leptons
 -1  = draamax ! max distance between gammas
 -1  = drbjmax ! max distance between b and jet
 -1  = drajmax ! max distance between gamma and jet
 -1  = drjlmax ! max distance between jet and lepton
 -1  = drabmax ! max distance between gamma and b
 -1  = drblmax ! max distance between b and lepton
 -1  = dralmax ! maxdistance between gamma and lepton
#*********************************************************************
# Minimum and maximum invariant mass for pairs                       *
# WARNING: for four lepton final state mmll cut require to have      *
#          different lepton masses for each flavor!                  *           
#*********************************************************************
 0   = mmjj    ! min invariant mass of a jet pair 
 0   = mmbb    ! min invariant mass of a b pair 
 0   = mmaa    ! min invariant mass of gamma gamma pair
 0   = mmll    ! min invariant mass of l+l- (same flavour) lepton pair
 -1  = mmjjmax ! max invariant mass of a jet pair
 -1  = mmbbmax ! max invariant mass of a b pair
 -1  = mmaamax ! max invariant mass of gamma gamma pair
 -1  = mmllmax ! max invariant mass of l+l- (same flavour) lepton pair
#*********************************************************************
# Minimum and maximum invariant mass for all letpons                 *
#*********************************************************************
 0   = mmnl    ! min invariant mass for all letpons (l+- and vl) 
 -1  = mmnlmax ! max invariant mass for all letpons (l+- and vl) 
#*********************************************************************
# Minimum and maximum pt for 4-momenta sum of leptons                *
#*********************************************************************
 0   = ptllmin  ! Minimum pt for 4-momenta sum of leptons(l and vl)
 -1  = ptllmax  ! Maximum pt for 4-momenta sum of leptons(l and vl)
#*********************************************************************
# Inclusive cuts                                                     *
#*********************************************************************
 0  = xptj ! minimum pt for at least one jet  
 0  = xptb ! minimum pt for at least one b 
 0  = xpta ! minimum pt for at least one photon 
 0  = xptl ! minimum pt for at least one charged lepton 
#*********************************************************************
# Control the pt's of the jets sorted by pt                          *
#*********************************************************************
 0   = ptj1min ! minimum pt for the leading jet in pt
 0   = ptj2min ! minimum pt for the second jet in pt
 0   = ptj3min ! minimum pt for the third jet in pt
 0   = ptj4min ! minimum pt for the fourth jet in pt
 -1  = ptj1max ! maximum pt for the leading jet in pt 
 -1  = ptj2max ! maximum pt for the second jet in pt
 -1  = ptj3max ! maximum pt for the third jet in pt
 -1  = ptj4max ! maximum pt for the fourth jet in pt
 0   = cutuse  ! reject event if fails any (0) / all (1) jet pt cuts
#*********************************************************************
# Control the pt's of leptons sorted by pt                           *
#*********************************************************************
 0   = ptl1min ! minimum pt for the leading lepton in pt
 0   = ptl2min ! minimum pt for the second lepton in pt
 0   = ptl3min ! minimum pt for the third lepton in pt
 0   = ptl4min ! minimum pt for the fourth lepton in pt
 -1  = ptl1max ! maximum pt for the leading lepton in pt 
 -1  = ptl2max ! maximum pt for the second lepton in pt
 -1  = ptl3max ! maximum pt for the third lepton in pt
 -1  = ptl4max ! maximum pt for the fourth lepton in pt
#*********************************************************************
# Control the Ht(k)=Sum of k leading jets                            *
#*********************************************************************
 0   = htjmin ! minimum jet HT=Sum(jet pt)
 -1  = htjmax ! maximum jet HT=Sum(jet pt)
 0   = ihtmin  !inclusive Ht for all partons (including b)
 -1  = ihtmax  !inclusive Ht for all partons (including b)
 0   = ht2min ! minimum Ht for the two leading jets
 0   = ht3min ! minimum Ht for the three leading jets
 0   = ht4min ! minimum Ht for the four leading jets
 -1  = ht2max ! maximum Ht for the two leading jets
 -1  = ht3max ! maximum Ht for the three leading jets
 -1  = ht4max ! maximum Ht for the four leading jets
#***********************************************************************
# Photon-isolation cuts, according to hep-ph/9801442                   *
# When ptgmin=0, all the other parameters are ignored                  *
# When ptgmin>0, pta and draj are not going to be used                 *
#***********************************************************************
   0 = ptgmin ! Min photon transverse momentum
 0.4 = R0gamma ! Radius of isolation code
 1.0 = xn ! n parameter of eq.(3.4) in hep-ph/9801442
 1.0 = epsgamma ! epsilon_gamma parameter of eq.(3.4) in hep-ph/9801442
 .true. = isoEM ! isolate photons from EM energy (photons and leptons)
#*********************************************************************
# WBF cuts                                                           *
#*********************************************************************
 0   = xetamin ! minimum rapidity for two jets in the WBF case  
 0   = deltaeta ! minimum rapidity for two jets in the WBF case 
#*********************************************************************
# KT DURHAM CUT                                                      *
#*********************************************************************
 -1    =  ktdurham        
 0.4  =  dparameter 
#*********************************************************************
# maximal pdg code for quark to be considered as a light jet         *
# (otherwise b cuts are applied)                                     *
#*********************************************************************
 4 = maxjetflavor    ! Maximum jet pdg code
#*********************************************************************
# Jet measure cuts                                                   *
#*********************************************************************
 0   = xqcut   ! minimum kt jet measure between partons
#*********************************************************************
#
#*********************************************************************
# Store info for systematics studies                                 *
# WARNING: If use_syst is T, matched Pythia output is                *
#          meaningful ONLY if plotted taking matchscale              *
#          reweighting into account!                                 *
#*********************************************************************
   F  = use_syst      ! Enable systematics studies
#
#**************************************
# Parameter of the systematics study
#  will be used by SysCalc (if installed)
#**************************************                                  
#
0.5 1 2 = sys_scalefact  # factorization/renormalization scale factor
0.5 1 2 = sys_alpsfact  # \alpha_s emission scale factors
30 50 = sys_matchscale # variation of merging scale
# PDF sets and number of members (0 or none for all members).
CT10nlo.LHgrid = sys_pdf # matching scales
# MSTW2008nlo68cl.LHgrid 1  = sys_pdf
</MGRunCard>
<slha>
######################################################################
## PARAM_CARD AUTOMATICALY GENERATED BY MG5 FOLLOWING UFO MODEL   ####
######################################################################
##                                                                  ##
##  Width set on Auto will be computed following the information    ##
##        present in the decay.py files of the model.               ##
##        See  arXiv:1402.1178 for more details.                    ##
##                                                                  ##
######################################################################

###################################
## INFORMATION FOR CKMBLOCK
###################################
Block ckmblock 
    1 2.277360e-01 # cabi 

###################################
## INFORMATION FOR FRBLOCK
###################################
Block frblock 
    1 1.000000e+00 # gz 

###################################
## INFORMATION FOR MASS
###################################
Block mass 
    1 5.040000e-03 # MD 
    2 2.550000e-03 # MU 
    3 1.010000e-01 # MS 
    4 1.270000e+00 # MC 
    5 4.700000e+00 # MB 
    6 1.720000e+02 # MT 
   11 5.110000e-04 # Me 
   13 1.056600e-01 # MM 
   15 1.777000e+00 # MTA 
   23 9.118760e+01 # MZ 
   25 1.200000e+02 # MH 
  10030 3.200000e+03 # MZph 
  10031 3.000000e+02 # MZpl 
## Dependent parameters, given by model restrictions.
## Those values should be edited following the 
## analytical expression. MG5 ignores those values 
## but they are important for interfacing the output of MG5
## to external program such as Pythia.
  12 0.000000 # ve : 0.0 
  14 0.000000 # vm : 0.0 
  16 0.000000 # vt : 0.0 
  21 0.000000 # g : 0.0 
  22 0.000000 # a : 0.0 
  24 79.824360 # w+ : cmath.sqrt(MZ__exp__2/2. + cmath.sqrt(MZ__exp__4/4. - (aEW*cmath.pi*MZ__exp__2)/(Gf*sqrt__2))) 

###################################
## INFORMATION FOR SMINPUTS
###################################
Block sminputs 
    1 1.279000e+02 # aEWM1 
    2 1.166370e-05 # Gf 
    3 1.184000e-01 # aS 

###################################
## INFORMATION FOR YUKAWA
###################################
Block yukawa 
    1 5.040000e-03 # ymdo 
    2 2.550000e-03 # ymup 
    3 1.010000e-01 # yms 
    4 1.270000e+00 # ymc 
    5 4.700000e+00 # ymb 
    6 1.720000e+02 # ymt 
   11 5.110000e-04 # yme 
   13 1.056600e-01 # ymm 
   15 1.777000e+00 # ymtau 

###################################
## INFORMATION FOR DECAY
###################################
DECAY   6 1.508336e+00 # WT 
DECAY  23 2.495200e+00 # WZ 
DECAY  24 2.085000e+00 # WW 
DECAY  25 5.753088e-03 # WH 
## Dependent parameters, given by model restrictions.
## Those values should be edited following the 
## analytical expression. MG5 ignores those values 
## but they are important for interfacing the output of MG5
## to external program such as Pythia.
DECAY  1 0.000000 # d : 0.0 
DECAY  2 0.000000 # u : 0.0 
DECAY  3 0.000000 # s : 0.0 
DECAY  4 0.000000 # c : 0.0 
DECAY  5 0.000000 # b : 0.0 
DECAY  11 0.000000 # e- : 0.0 
DECAY  12 0.000000 # ve : 0.0 
DECAY  13 0.000000 # mu- : 0.0 
DECAY  14 0.000000 # vm : 0.0 
DECAY  15 0.000000 # ta- : 0.0 
DECAY  16 0.000000 # vt : 0.0 
DECAY  21 0.000000 # g : 0.0 
DECAY  22 0.000000 # a : 0.0 
DECAY  10030 0.308725 # zph : (gz__exp__2*MZph*(5 + cmath.sqrt(1 - (4*MT__exp__2)/MZph__exp__2)))/(144.*cmath.pi) 
DECAY  10031 0.132629 # zpl : (5*gz__exp__2*MZpl)/(144.*cmath.pi) 
#===========================================================
# QUANTUM NUMBERS OF NEW STATE(S) (NON SM PDG CODE)
#===========================================================

Block QNUMBERS 10030  # zph 
        1 0  # 3 times electric charge
        2 3  # number of spin states (2S+1)
        3 1  # colour rep (1: singlet, 3: triplet, 8: octet)
        4 0  # Particle/Antiparticle distinction (0=own anti)
Block QNUMBERS 10031  # zpl 
        1 0  # 3 times electric charge
        2 3  # number of spin states (2S+1)
        3 1  # colour rep (1: singlet, 3: triplet, 8: octet)
        4 0  # Particle/Antiparticle distinction (0=own anti)
</slha>
## END BANNER##
<MGGenerationInfo>
#  Number of Events        :         3900
#  Integrated weight (pb)  :  0.63475E-03
#  Max wgt                 :  0.26215E-06
#  Average wgt             :  0.16276E-06
</MGGenerationInfo>
</header>
<init>
     2212     2212  0.40000000000E+04  0.40000000000E+04 0 0  247000  247000 2   1
  0.63507375145E-03  0.15777042909E-05  0.26215280000E-06   0
</init>
<event>
 5   0  0.2337504E-06  0.3129221E+04  0.7818609E-02  0.8207764E-01
       -2   -1    0    0    0  501  0.00000000000E+00  0.00000000000E+00  0.11720111752E+04  0.11720111752E+04  0.25500000920E-02 0.  1.
        2   -1    0    0  501    0  0.00000000000E+00  0.00000000000E+00 -0.20887220691E+04  0.20887220691E+04  0.25500000920E-02 0. -1.
    10030    2    1    2    0    0  0.00000000000E+00  0.00000000000E+00 -0.91671089382E+03  0.32607332443E+04  0.31292207381E+04 0.  0.
        1    1    3    3  502    0  0.18626690699E+03  0.70389318316E+03 -0.19014200775E+04  0.20360646564E+04  0.50400001928E-02 0. -1.
       -1    1    3    3    0  502 -0.18626690699E+03 -0.70389318316E+03  0.98470918363E+03  0.12246685879E+04  0.50400001928E-02 0.  1.
</event>
<event>
 5   0  0.2337504E-06  0.3201947E+04  0.7818609E-02  0.8188303E-01
       -2   -1    0    0    0  501  0.00000000000E+00  0.00000000000E+00  0.15684798315E+04  0.15684798315E+04  0.25500000920E-02 0.  1.
        2   -1    0    0  501    0  0.00000000000E+00  0.00000000000E+00 -0.16341407991E+04  0.16341407991E+04  0.25500000920E-02 0. -1.
    10030    2    1    2    0    0  0.00000000000E+00  0.00000000000E+00 -0.65660967615E+02  0.32026206306E+04  0.32019474607E+04 0.  0.
        1    1    3    3  502    0 -0.13031867430E+04 -0.28144089270E+03 -0.91936451427E+03  0.16194862684E+04  0.50400001928E-02 0. -1.
       -1    1    3    3    0  502  0.13031867430E+04  0.28144089270E+03  0.85370354666E+03  0.15831343623E+04  0.50400001928E-02 0.  1.
</event>
<event>
 5   0  0.2466076E-06  0.3191504E+04  0.7818609E-02  0.8191064E-01
        2   -1    0    0  501    0  0.00000000000E+00  0.00000000000E+00  0.25403975121E+04  0.25403975121E+04  0.25500000920E-02 0. -1.
       -2   -1    0    0    0  501  0.00000000000E+00  0.00000000000E+00 -0.10023726127E+04  0.10023726127E+04  0.25500000920E-02 0.  1.
    10030    2    1    2    0    0  0.00000000000E+00  0.00000000000E+00  0.15380248994E+04  0.35427701247E+04  0.31915042794E+04 0.  0.
        3    1    3    3  502    0 -0.10576726674E+04  0.96403896891E+03  0.15526745383E+04  0.21115967505E+04  0.10100000352E+00 0.  1.
       -3    1    3    3    0  502  0.10576726674E+04 -0.96403896891E+03 -0.14649638887E+02  0.14311733742E+04  0.10100000352E+00 0. -1.
</event>
<event>
 5   0  0.2337504E-06  0.3251683E+04  0.7818609E-02  0.8175300E-01
        2   -1    0    0  501    0  0.00000000000E+00  0.00000000000E+00  0.25661188370E+04  0.25661188370E+04  0.25500000920E-02 0.  1.
       -2   -1    0    0    0  501  0.00000000000E+00  0.00000000000E+00 -0.10301008841E+04  0.10301008841E+04  0.25500000920E-02 0. -1.
    10030    2    1    2    0    0  0.00000000000E+00  0.00000000000E+00  0.15360179528E+04  0.35962197211E+04  0.32516834303E+04 0.  0.
        1    1    3    3  502    0  0.87186471152E+03  0.32756688719E+03  0.22418438242E+04  0.24276144407E+04  0.50400001928E-02 0.  1.
       -1    1    3    3    0  502 -0.87186471152E+03 -0.32756688719E+03 -0.70582587132E+03  0.11686052804E+04  0.50400001928E-02 0. -1.
</event>
<event>
 5   0  0.2466076E-06  0.3204894E+04  0.7818609E-02  0.8187526E-01
        2   -1    0    0  501    0  0.00000000000E+00  0.00000000000E+00  0.11389588343E+04  0.11389588343E+04  0.25500000920E-02 0. -1.
       -2   -1    0    0    0  501  0.00000000000E+00  0.00000000000E+00 -0.22545475678E+04  0.22545475678E+04  0.25500000920E-02 0.  1.
    10030    2    1    2    0    0  0.00000000000E+00  0.00000000000E+00 -0.11155887334E+04  0.33935064021E+04  0.32048943008E+04 0.  0.
        3    1    3    3  502    0 -0.69451231876E+03  0.68115938156E+03  0.79053180540E+03  0.12535014996E+04  0.10100000352E+00 0. -1.
       -3    1    3    3    0  502  0.69451231876E+03 -0.68115938156E+03 -0.19061205389E+04  0.21400049025E+04  0.10100000352E+00 0.  1.
</event>
<event>
 5   0  0.8681172E-07  0.3160465E+04  0.7818609E-02  0.8199337E-01
       -1   -1    0    0    0  501  0.00000000000E+00  0.00000000000E+00  0.13849168128E+04  0.13849168128E+04  0.50400001928E-02 0.  1.
        1   -1    0    0  501    0  0.00000000000E+00  0.00000000000E+00 -0.18030937396E+04  0.18030937396E+04  0.50400001928E-02 0. -1.
    10030    2    1    2    0    0  0.00000000000E+00  0.00000000000E+00 -0.41817692676E+03  0.31880105524E+04  0.31604650512E+04 0.  0.
        1    1    3    3  502    0 -0.77201946564E+03  0.13458724126E+04 -0.51127958501E+03  0.16336442148E+04  0.50400001928E-02 0. -1.
       -1    1    3    3    0  502  0.77201946564E+03 -0.13458724126E+04  0.93102658246E+02  0.15543663376E+04  0.50400001928E-02 0.  1.
</event>
<event>
 5   0  0.8545153E-07  0.2989306E+04  0.7818609E-02  0.8246791E-01
       -1   -1    0    0    0  501  0.00000000000E+00  0.00000000000E+00  0.14728242592E+04  0.14728242592E+04  0.50400001928E-02 0. -1.
        1   -1    0    0  501    0  0.00000000000E+00  0.00000000000E+00 -0.15168050358E+04  0.15168050358E+04  0.50400001928E-02 0.  1.
    10030    2    1    2    0    0  0.00000000000E+00  0.00000000000E+00 -0.43980776659E+02  0.29896292950E+04  0.29893057744E+04 0.  0.
        3    1    3    3  502    0 -0.11138897031E+04  0.20494277503E+02  0.97451945397E+03  0.14801548778E+04  0.10100000352E+00 0.  1.
       -3    1    3    3    0  502  0.11138897031E+04 -0.20494277503E+02 -0.10185002306E+04  0.15094744172E+04  0.10100000352E+00 0. -1.
</event>
<event>
 5   0  0.2337504E-06  0.3207434E+04  0.7818609E-02  0.8186857E-01
        2   -1    0    0  501    0  0.00000000000E+00  0.00000000000E+00  0.26574131845E+04  0.26574131845E+04  0.25500000920E-02 0.  1.
       -2   -1    0    0    0  501  0.00000000000E+00  0.00000000000E+00 -0.96782392726E+03  0.96782392726E+03  0.25500000920E-02 0. -1.
    10030    2    1    2    0    0  0.00000000000E+00  0.00000000000E+00  0.16895892573E+04  0.36252371118E+04  0.32074339055E+04 0.  0.
        1    1    3    3  502    0 -0.11731271277E+04 -0.13623705630E+03  0.20710731481E+04  0.23841417278E+04  0.50400001928E-02 0.  1.
       -1    1    3    3    0  502  0.11731271277E+04  0.13623705630E+03 -0.38148389083E+03  0.12410953840E+04  0.50400001928E-02 0. -1.
</event>
<event>
 5   0  0.8487944E-07  0.3418263E+04  0.7818609E-02  0.8133439E-01
        1   -1    0    0  501    0  0.00000000000E+00  0.00000000000E+00  0.15641514791E+04  0.15641514791E+04  0.50400001928E-02 0.  1.
       -1   -1    0    0    0  501  0.00000000000E+00  0.00000000000E+00 -0.18675492796E+04  0.18675492796E+04  0.50400001928E-02 0. -1.
    10030    2    1    2    0    0  0.00000000000E+00  0.00000000000E+00 -0.30339780052E+03  0.34317007587E+04  0.34182626979E+04 0.  0.
        2    1    3    3  502    0 -0.11519029123E+04 -0.55251057925E+03  0.98809768678E+03  0.16150805856E+04  0.25500000920E-02 0.  1.
       -2    1    3    3    0  502  0.11519029123E+04  0.55251057925E+03 -0.12914954873E+04  0.18166201731E+04  0.25500000920E-02 0. -1.
</event>
<event>
 5   0  0.2337504E-06  0.3199590E+04  0.7818609E-02  0.8188925E-01
        2   -1    0    0  501    0  0.00000000000E+00  0.00000000000E+00  0.19005196102E+04  0.19005196102E+04  0.25500000920E-02 0. -1.
       -2   -1    0    0    0  501  0.00000000000E+00  0.00000000000E+00 -0.13466550696E+04  0.13466550696E+04  0.25500000920E-02 0.  1.
    10030    2    1    2    0    0  0.00000000000E+00  0.00000000000E+00  0.55386454069E+03  0.32471746798E+04  0.31995902037E+04 0.  0.
        1    1    3    3  502    0  0.12011009808E+04  0.10561519771E+04  0.31272436444E+03  0.16296923308E+04  0.50400001928E-02 0. -1.
       -1    1    3    3    0  502 -0.12011009808E+04 -0.10561519771E+04  0.24114017625E+03  0.16174823490E+04  0.50400001928E-02 0.  1.
</event>
<event>
 5   0  0.8487944E-07  0.3195524E+04  0.7818609E-02  0.8190000E-01
       -1   -1    0    0    0  501  0.00000000000E+00  0.00000000000E+00  0.16967906042E+04  0.16967906042E+04  0.50400001928E-02 0.  1.
        1   -1    0    0  501    0  0.00000000000E+00  0.00000000000E+00 -0.15045132055E+04  0.15045132055E+04  0.50400001928E-02 0. -1.
    10030    2    1    2    0    0  0.00000000000E+00  0.00000000000E+00  0.19227739873E+03  0.32013038097E+04  0.31955242894E+04 0.  0.
        2    1    3    3  502    0 -0.68372574657E+03  0.70724926131E+03  0.13574477743E+04  0.16764089221E+04  0.25500000920E-02 0.  1.
       -2    1    3    3    0  502  0.68372574657E+03 -0.70724926131E+03 -0.11651703756E+04  0.15248948876E+04  0.25500000920E-02 0. -1.
</event>
<event>
 5   0  0.2401139E-06  0.3341276E+04  0.7818609E-02  0.8152471E-01
       -2   -1    0    0    0  501  0.00000000000E+00  0.00000000000E+00  0.15142013906E+04  0.15142013906E+04  0.25500000920E-02 0. -1.
        2   -1    0    0  501    0  0.00000000000E+00  0.00000000000E+00 -0.18432364141E+04  0.18432364141E+04  0.25500000920E-02 0.  1.
    10030    2    1    2    0    0  0.00000000000E+00  0.00000000000E+00 -0.32903502343E+03  0.33574378047E+04  0.33412758889E+04 0.  0.
        5    1    3    3  502    0  0.14493371150E+03  0.12071594034E+04 -0.13158211298E+04  0.17915487551E+04  0.46999998093E+01 0.  1.
       -5    1    3    3    0  502 -0.14493371150E+03 -0.12071594034E+04  0.98678610640E+03  0.15658890497E+04  0.46999998093E+01 0. -1.
</event>
<event>
 5   0  0.8512855E-07  0.3127434E+04  0.7818609E-02  0.8208249E-01
       -1   -1    0    0    0  501  0.00000000000E+00  0.00000000000E+00  0.25985794550E+04  0.25985794550E+04  0.50400001928E-02 0. -1.
        1   -1    0    0  501    0  0.00000000000E+00  0.00000000000E+00 -0.94097979831E+03  0.94097979832E+03  0.50400001928E-02 0.  1.
    10030    2    1    2    0    0  0.00000000000E+00  0.00000000000E+00  0.16575996567E+04  0.35395592534E+04  0.31274339459E+04 0.  0.
        5    1    3    3  502    0  0.80624942236E+03 -0.12525107232E+04  0.13672778968E+04  0.20219525662E+04  0.46999998093E+01 0. -1.
       -5    1    3    3    0  502 -0.80624942236E+03  0.12525107232E+04  0.29032175995E+03  0.15176066872E+04  0.46999998093E+01 0.  1.
</event>
<event>
 5   0  0.8681172E-07  0.3226513E+04  0.7818609E-02  0.8181850E-01
        1   -1    0    0  501    0  0.00000000000E+00  0.00000000000E+00  0.18665643313E+04  0.18665643313E+04  0.50400001928E-02 0.  1.
       -1   -1    0    0    0  501  0.00000000000E+00  0.00000000000E+00 -0.13943246920E+04  0.13943246920E+04  0.50400001928E-02 0. -1.
    10030    2    1    2    0    0  0.00000000000E+00  0.00000000000E+00  0.47223963930E+03  0.32608890232E+04  0.32265131248E+04 0.  0.
        1    1    3    3  502    0 -0.12574188012E+04 -0.84556982878E+03 -0.32340882853E+03  0.15494139690E+04  0.50400001928E-02 0. -1.
       -1    1    3    3    0  502  0.12574188012E+04  0.84556982878E+03  0.79564846783E+03  0.17114750542E+04  0.50400001928E-02 0.  1.
</event>
<event>
 5   0  0.8545153E-07  0.3221586E+04  0.7818609E-02  0.8183140E-01
       -1   -1    0    0    0  501  0.00000000000E+00  0.00000000000E+00  0.16624634141E+04  0.16624634141E+04  0.50400001928E-02 0. -1.
        1   -1    0    0  501    0  0.00000000000E+00  0.00000000000E+00 -0.15607284113E+04  0.15607284113E+04  0.50400001928E-02 0.  1.
    10030    2    1    2    0    0  0.00000000000E+00  0.00000000000E+00  0.10173500279E+03  0.32231918253E+04  0.32215858722E+04 0.  0.
        3    1    3    3  502    0 -0.34247107435E+03 -0.23107915148E+03  0.16085539753E+04  0.16607618470E+04  0.10100000352E+00 0. -1.
       -3    1    3    3    0  502  0.34247107435E+03  0.23107915148E+03 -0.15068189725E+04  0.15624299783E+04  0.10100000352E+00 0.  1.
</event>
<event>
 5   0  0.8545153E-07  0.3203388E+04  0.7818609E-02  0.8187923E-01
        1   -1    0    0  501    0  0.00000000000E+00  0.00000000000E+00  0.26504943322E+04  0.26504943322E+04  0.50400001928E-02 0. -1.
       -1   -1    0    0    0  501  0.00000000000E+00  0.00000000000E+00 -0.96790385778E+03  0.96790385780E+03  0.50400001928E-02 0.  1.
    10030    2    1    2    0    0  0.00000000000E+00  0.00000000000E+00  0.16825904745E+04  0.36183981900E+04  0.32033880122E+04 0.  0.
        3    1    3    3  502    0  0.13855203724E+04  0.44226956059E+03  0.15991529307E+04  0.21616103193E+04  0.10100000352E+00 0. -1.
       -3    1    3    3    0  502 -0.13855203724E+04 -0.44226956059E+03  0.83437543755E+02  0.14567878708E+04  0.10100000352E+00 0.  1.
</event>
<event>
 5   0  0.2337504E-06  0.3191079E+04  0.7818609E-02  0.8191177E-01
       -2   -1    0    0    0  501  0.00000000000E+00  0.00000000000E+00  0.11190348457E+04  0.11190348457E+04  0.25500000920E-02 0. -1.
        2   -1    0    0  501    0  0.00000000000E+00  0.00000000000E+00 -0.22749480317E+04  0.22749480317E+04  0.25500000920E-02 0.  1.
    10030    2    1    2    0    0  0.00000000000E+00  0.00000000000E+00 -0.11559131860E+04  0.33939828774E+04  0.31910788894E+04 0.  0.
        1    1    3    3  502    0  0.94091370599E+03 -0.86951370577E+02 -0.19453423676E+04  0.21626918574E+04  0.50400001928E-02 0.  1.
       -1    1    3    3    0  502 -0.94091370599E+03  0.86951370577E+02  0.78942918164E+03  0.12312910200E+04  0.50400001928E-02 0. -1.
</event>
<event>
 5   0  0.8383008E-07  0.3397589E+04  0.7818609E-02  0.8138498E-01
        1   -1    0    0  501    0  0.00000000000E+00  0.00000000000E+00  0.14396584917E+04  0.14396584917E+04  0.50400001928E-02 0.  1.
       -1   -1    0    0    0  501  0.00000000000E+00  0.00000000000E+00 -0.20045746098E+04  0.20045746098E+04  0.50400001928E-02 0. -1.
    10030    2    1    2    0    0  0.00000000000E+00  0.00000000000E+00 -0.56491611814E+03  0.34442331015E+04  0.33975890624E+04 0.  0.
        4    1    3    3  502    0 -0.25596662968E+03 -0.22599080960E+03 -0.19694286493E+04  0.19988100408E+04  0.12699999809E+01 0. -1.
       -4    1    3    3    0  502  0.25596662968E+03  0.22599080960E+03  0.14045125311E+04  0.14454230608E+04  0.12699999809E+01 0.  1.
</event>
<event>
 5   0  0.8681172E-07  0.3202522E+04  0.7818609E-02  0.8188151E-01
       -1   -1    0    0    0  501  0.00000000000E+00  0.00000000000E+00  0.10940521947E+04  0.10940521947E+04  0.50400001928E-02 0.  1.
        1   -1    0    0  501    0  0.00000000000E+00  0.00000000000E+00 -0.23436144215E+04  0.23436144215E+04  0.50400001928E-02 0. -1.
    10030    2    1    2    0    0  0.00000000000E+00  0.00000000000E+00 -0.12495622268E+04  0.34376666162E+04  0.32025218197E+04 0.  0.
        1    1    3    3  502    0  0.37172114421E+03 -0.14905795521E+04 -0.13991556670E+03  0.15425888552E+04  0.50400001928E-02 0. -1.
       -1    1    3    3    0  502 -0.37172114421E+03  0.14905795521E+04 -0.11096466601E+04  0.18950777611E+04  0.50400001928E-02 0.  1.
</event>
<event>
 5   0  0.2621528E-06  0.3203282E+04  0.7818609E-02  0.8187951E-01
        2   -1    0    0  501    0  0.00000000000E+00  0.00000000000E+00  0.22746191140E+04  0.22746191140E+04  0.25500000920E-02 0.  1.
       -2   -1    0    0    0  501  0.00000000000E+00  0.00000000000E+00 -0.11277728714E+04  0.11277728714E+04  0.25500000920E-02 0. -1.
    10030    2    1    2    0    0  0.00000000000E+00  0.00000000000E+00  0.11468462426E+04  0.34023919854E+04  0.32032818981E+04 0.  0.
        2    1    3    3  502    0  0.13351197656E+04  0.88153638159E+03  0.49392039467E+03  0.16743979625E+04  0.25500000920E-02 0. -1.
       -2    1    3    3    0  502 -0.13351197656E+04 -0.88153638159E+03  0.65292584794E+03  0.17279940230E+04  0.25500000920E-02 0.  1.
</event>
<event>
 5   0  0.8545153E-07  0.3231882E+04  0.7818609E-02  0.8180448E-01
       -1   -1    0    0    0  501  0.00000000000E+00  0.00000000000E+00  0.10717157294E+04  0.10717157294E+04  0.50400001928E-02 0. -1.
        1   -1    0    0  501    0  0.00000000000E+00  0.00000000000E+00 -0.24365279380E+04  0.24365279380E+04  0.50400001928E-02 0.  1.
    10030    2    1    2    0    0  0.00000000000E+00  0.00000000000E+00 -0.13648122086E+04  0.35082436674E+04  0.32318820005E+04 0.  0.
        3    1    3    3  502    0 -0.32405440522E+03  0.27138596066E+03  0.10106444894E+04  0.10954742769E+04  0.10100000352E+00 0. -1.
       -3    1    3    3    0  502  0.32405440522E+03 -0.27138596066E+03 -0.23754566980E+04  0.24127693905E+04  0.10100000352E+00 0.  1.
</event>
<event>
 5   0  0.2466076E-06  0.3222861E+04  0.7818609E-02  0.8182806E-01
       -2   -1    0    0    0  501  0.00000000000E+00  0.00000000000E+00  0.90157757614E+03  0.90157757614E+03  0.25500000920E-02 0. -1.
        2   -1    0    0  501    0  0.00000000000E+00  0.00000000000E+00 -0.28801821672E+04  0.28801821672E+04  0.25500000920E-02 0.  1.
    10030    2    1    2    0    0  0.00000000000E+00  0.00000000000E+00 -0.19786045911E+04  0.37817597434E+04  0.32228606282E+04 0.  0.
        3    1    3    3  502    0 -0.46140010027E+02 -0.32301575631E+03 -0.28410123053E+04  0.28596886209E+04  0.10100000352E+00 0.  1.
       -3    1    3    3    0  502  0.46140010027E+02  0.32301575631E+03  0.86240771417E+03  0.92207112253E+03  0.10100000352E+00 0. -1.
</event>
<event>
 5   0  0.8681172E-07  0.2872261E+04  0.7818609E-02  0.8281179E-01
       -1   -1    0    0    0  501  0.00000000000E+00  0.00000000000E+00  0.17627934743E+04  0.17627934743E+04  0.50400001928E-02 0.  1.
        1   -1    0    0  501    0  0.00000000000E+00  0.00000000000E+00 -0.11700015761E+04  0.11700015761E+04  0.50400001928E-02 0. -1.
    10030    2    1    2    0    0  0.00000000000E+00  0.00000000000E+00  0.59279189823E+03  0.29327950504E+04  0.28722612300E+04 0.  0.
        1    1    3    3  502    0  0.22248922355E+03  0.10634482376E+04  0.12553631949E+04  0.16602290082E+04  0.50400001928E-02 0.  1.
       -1    1    3    3    0  502 -0.22248922355E+03 -0.10634482376E+04 -0.66257129664E+03  0.12725660422E+04  0.50400001928E-02 0. -1.
</event>
<event>
 5   0  0.2621528E-06  0.2722633E+04  0.7818609E-02  0.8327698E-01
        2   -1    0    0  501    0  0.00000000000E+00  0.00000000000E+00  0.11197072910E+04  0.11197072910E+04  0.25500000920E-02 0.  1.
       -2   -1    0    0    0  501  0.00000000000E+00  0.00000000000E+00 -0.16550600325E+04  0.16550600325E+04  0.25500000920E-02 0. -1.
    10030    2    1    2    0    0  0.00000000000E+00  0.00000000000E+00 -0.53535274148E+03  0.27747673236E+04  0.27226331266E+04 0.  0.
        2    1    3    3  502    0  0.80095811406E+03  0.63019337352E+03  0.65210450840E+03  0.12099247408E+04  0.25500000920E-02 0.  1.
       -2    1    3    3    0  502 -0.80095811406E+03 -0.63019337352E+03 -0.11874572499E+04  0.15648425828E+04  0.25500000920E-02 0. -1.
</event>
<event>
 5   0  0.8487944E-07  0.3181449E+04  0.7818609E-02  0.8193734E-01
       -1   -1    0    0    0  501  0.00000000000E+00  0.00000000000E+00  0.11695072697E+04  0.11695072697E+04  0.50400001928E-02 0.  1.
        1   -1    0    0  501    0  0.00000000000E+00  0.00000000000E+00 -0.21636494102E+04  0.21636494102E+04  0.50400001928E-02 0. -1.
    10030    2    1    2    0    0  0.00000000000E+00  0.00000000000E+00 -0.99414214053E+03  0.33331566799E+04  0.31814485470E+04 0.  0.
        2    1    3    3  502    0  0.10740591042E+04 -0.26748454491E+03 -0.16940269356E+04  0.20235805395E+04  0.25500000920E-02 0. -1.
       -2    1    3    3    0  502 -0.10740591042E+04  0.26748454491E+03  0.69988479509E+03  0.13095761404E+04  0.25500000920E-02 0.  1.
</event>
<event>
 5   0  0.2466076E-06  0.3182166E+04  0.7818609E-02  0.8193543E-01
       -2   -1    0    0    0  501  0.00000000000E+00  0.00000000000E+00  0.22370769734E+04  0.22370769734E+04  0.25500000920E-02 0. -1.
        2   -1    0    0  501    0  0.00000000000E+00  0.00000000000E+00 -0.11316306000E+04  0.11316306000E+04  0.25500000920E-02 0.  1.
    10030    2    1    2    0    0  0.00000000000E+00  0.00000000000E+00  0.11054463734E+04  0.33687075734E+04  0.31821657767E+04 0.  0.
        3    1    3    3  502    0 -0.23966160037E+03 -0.35140647178E+03 -0.10703263577E+04  0.11517476778E+04  0.10100000352E+00 0.  1.
       -3    1    3    3    0  502  0.23966160037E+03  0.35140647178E+03  0.21757727311E+04  0.22169598956E+04  0.10100000352E+00 0. -1.
</event>
<event>
 5   0  0.2401139E-06  0.3169449E+04  0.7818609E-02  0.8196933E-01
       -2   -1    0    0    0  501  0.00000000000E+00  0.00000000000E+00  0.15934635232E+04  0.15934635232E+04  0.25500000920E-02 0. -1.
        2   -1    0    0  501    0  0.00000000000E+00  0.00000000000E+00 -0.15760329751E+04  0.15760329751E+04  0.25500000920E-02 0.  1.
    10030    2    1    2    0    0  0.00000000000E+00  0.00000000000E+00  0.17430548119E+02  0.31694964984E+04  0.31694485686E+04 0.  0.
        5    1    3    3  502    0  0.35424003103E+03  0.48933996761E+03 -0.14563629769E+04  0.15766910966E+04  0.46999998093E+01 0.  1.
       -5    1    3    3    0  502 -0.35424003103E+03 -0.48933996761E+03  0.14737935250E+04  0.15928054018E+04  0.46999998093E+01 0. -1.
</event>
<event>
 5   0  0.8487944E-07  0.3157737E+04  0.7818609E-02  0.8200069E-01
        1   -1    0    0  501    0  0.00000000000E+00  0.00000000000E+00  0.10293726312E+04  0.10293726312E+04  0.50400001928E-02 0. -1.
       -1   -1    0    0    0  501  0.00000000000E+00  0.00000000000E+00 -0.24216935001E+04  0.24216935001E+04  0.50400001928E-02 0.  1.
    10030    2    1    2    0    0  0.00000000000E+00  0.00000000000E+00 -0.13923208689E+04  0.34510661314E+04  0.31577365377E+04 0.  0.
        2    1    3    3  502    0 -0.12498381901E+04  0.82728958401E+03 -0.15374940974E+03  0.15066991864E+04  0.25500000920E-02 0. -1.
       -2    1    3    3    0  502  0.12498381901E+04 -0.82728958401E+03 -0.12385714592E+04  0.19443669450E+04  0.25500000920E-02 0.  1.
</event>
<event>
 5   0  0.2466076E-06  0.3233738E+04  0.7818609E-02  0.8179964E-01
       -2   -1    0    0    0  501  0.00000000000E+00  0.00000000000E+00  0.14332683871E+04  0.14332683871E+04  0.25500000920E-02 0.  1.
        2   -1    0    0  501    0  0.00000000000E+00  0.00000000000E+00 -0.18239883281E+04  0.18239883281E+04  0.25500000920E-02 0. -1.
    10030    2    1    2    0    0  0.00000000000E+00  0.00000000000E+00 -0.39071994103E+03  0.32572567152E+04  0.32337376573E+04 0.  0.
        3    1    3    3  502    0 -0.50257736045E+03  0.58985313637E+03  0.12340289779E+04  0.14571678881E+04  0.10100000352E+00 0.  1.
       -3    1    3    3    0  502  0.50257736045E+03 -0.58985313637E+03 -0.16247489189E+04  0.18000888271E+04  0.10100000352E+00 0. -1.
</event>
<event>
 5   0  0.2337504E-06  0.3213576E+04  0.7818609E-02  0.8185241E-01
        2   -1    0    0  501    0  0.00000000000E+00  0.00000000000E+00  0.16359548466E+04  0.16359548466E+04  0.25500000920E-02 0. -1.
       -2   -1    0    0    0  501  0.00000000000E+00  0.00000000000E+00 -0.15781415593E+04  0.15781415593E+04  0.25500000920E-02 0.  1.
    10030    2    1    2    0    0  0.00000000000E+00  0.00000000000E+00  0.57813287303E+02  0.32140964060E+04  0.32135764081E+04 0.  0.
        1    1    3    3  502    0 -0.62541279158E+03  0.14493683140E+04 -0.27107298651E+03  0.16016523448E+04  0.50400001928E-02 0.  1.
       -1    1    3    3    0  502  0.62541279158E+03 -0.14493683140E+04  0.32888627382E+03  0.16124440612E+04  0.50400001928E-02 0. -1.
</event>
<event>
 5   0  0.8512855E-07  0.3180581E+04  0.7818609E-02  0.8193965E-01
        1   -1    0    0  501    0  0.00000000000E+00  0.00000000000E+00  0.26805010245E+04  0.26805010246E+04  0.50400001928E-02 0. -1.
       -1   -1    0    0    0  501  0.00000000000E+00  0.00000000000E+00 -0.94348917884E+03  0.94348917886E+03  0.50400001928E-02 0.  1.
    10030    2    1    2    0    0  0.00000000000E+00  0.00000000000E+00  0.17370118457E+04  0.36239902034E+04  0.31805808970E+04 0.  0.
        5    1    3    3  502    0 -0.26351138427E+03 -0.15680087346E+04  0.83409684393E+03  0.17955025136E+04  0.46999998093E+01 0. -1.
       -5    1    3    3    0  502  0.26351138427E+03  0.15680087346E+04  0.90291500178E+03  0.18284876898E+04  0.46999998093E+01 0.  1.
</event>
<event>
 5   0  0.2466076E-06  0.3202706E+04  0.7818609E-02  0.8188103E-01
        2   -1    0    0  501    0  0.00000000000E+00  0.00000000000E+00  0.20443411870E+04  0.20443411870E+04  0.25500000920E-02 0.  1.
       -2   -1    0    0    0  501  0.00000000000E+00  0.00000000000E+00 -0.12543560127E+04  0.12543560127E+04  0.25500000920E-02 0. -1.
    10030    2    1    2    0    0  0.00000000000E+00  0.00000000000E+00  0.78998517424E+03  0.32986971997E+04  0.32027061432E+04 0.  0.
        3    1    3    3  502    0  0.10316786516E+04  0.46827758832E+03  0.15605853553E+04  0.19284894092E+04  0.10100000352E+00 0.  1.
       -3    1    3    3    0  502 -0.10316786516E+04 -0.46827758832E+03 -0.77060018108E+03  0.13702077905E+04  0.10100000352E+00 0. -1.
</event>
<event>
 5   0  0.8383008E-07  0.3215810E+04  0.7818609E-02  0.8184654E-01
       -1   -1    0    0    0  501  0.00000000000E+00  0.00000000000E+00  0.13360122762E+04  0.13360122762E+04  0.50400001928E-02 0. -1.
        1   -1    0    0  501    0  0.00000000000E+00  0.00000000000E+00 -0.19351313604E+04  0.19351313605E+04  0.50400001928E-02 0.  1.
    10030    2    1    2    0    0  0.00000000000E+00  0.00000000000E+00 -0.59911908424E+03  0.32711436367E+04  0.32158104755E+04 0.  0.
        4    1    3    3  502    0 -0.13672217542E+04 -0.29453408703E+03  0.50738218056E+03  0.14877781903E+04  0.12699999809E+01 0. -1.
       -4    1    3    3    0  502  0.13672217542E+04  0.29453408703E+03 -0.11065012648E+04  0.17833654464E+04  0.12699999809E+01 0.  1.
</event>
<event>
 5   0  0.8681172E-07  0.3244709E+04  0.7818609E-02  0.8177109E-01
       -1   -1    0    0    0  501  0.00000000000E+00  0.00000000000E+00  0.19846513270E+04  0.19846513270E+04  0.50400001928E-02 0. -1.
        1   -1    0    0  501    0  0.00000000000E+00  0.00000000000E+00 -0.13261943450E+04  0.13261943450E+04  0.50400001928E-02 0.  1.
    10030    2    1    2    0    0  0.00000000000E+00  0.00000000000E+00  0.65845698202E+03  0.33108456720E+04  0.32447085334E+04 0.  0.
        1    1    3    3  502    0 -0.11849962627E+04 -0.37567271339E+03 -0.73446261919E+03  0.14438772348E+04  0.50400001928E-02 0.  1.
       -1    1    3    3    0  502  0.11849962627E+04  0.37567271339E+03  0.13929196012E+04  0.18669684372E+04  0.50400001928E-02 0. -1.
</event>
<event>
 5   0  0.8545153E-07  0.3283224E+04  0.7818609E-02  0.8167177E-01
        1   -1    0    0  501    0  0.00000000000E+00  0.00000000000E+00  0.18033719875E+04  0.18033719875E+04  0.50400001928E-02 0. -1.
       -1   -1    0    0    0  501  0.00000000000E+00  0.00000000000E+00 -0.14943615209E+04  0.14943615209E+04  0.50400001928E-02 0.  1.
    10030    2    1    2    0    0  0.00000000000E+00  0.00000000000E+00  0.30901046664E+03  0.32977335084E+04  0.32832238462E+04 0.  0.
        3    1    3    3  502    0 -0.16683089639E+03 -0.13796333511E+04 -0.72323829145E+03  0.15666187692E+04  0.10100000352E+00 0.  1.
       -3    1    3    3    0  502  0.16683089639E+03  0.13796333511E+04  0.10322487581E+04  0.17311147392E+04  0.10100000352E+00 0. -1.
</event>
<event>
 5   0  0.2404430E-06  0.3316054E+04  0.7818609E-02  0.8158822E-01
       -2   -1    0    0    0  501  0.00000000000E+00  0.00000000000E+00  0.12252368667E+04  0.12252368667E+04  0.25500000920E-02 0.  1.
        2   -1    0    0  501    0  0.00000000000E+00  0.00000000000E+00 -0.22436913119E+04  0.22436913119E+04  0.25500000920E-02 0. -1.
    10030    2    1    2    0    0  0.00000000000E+00  0.00000000000E+00 -0.10184544452E+04  0.34689281786E+04  0.33160538674E+04 0.  0.
        4    1    3    3  502    0  0.11965115213E+04  0.66689549550E+03  0.46800287198E+03  0.14475557757E+04  0.12699999809E+01 0.  1.
       -4    1    3    3    0  502 -0.11965115213E+04 -0.66689549550E+03 -0.14864573172E+04  0.20213724029E+04  0.12699999809E+01 0. -1.
</event>
<event>
 5   0  0.2404430E-06  0.3212351E+04  0.7818609E-02  0.8185563E-01
       -2   -1    0    0    0  501  0.00000000000E+00  0.00000000000E+00  0.12716089443E+04  0.12716089443E+04  0.25500000920E-02 0. -1.
        2   -1    0    0  501    0  0.00000000000E+00  0.00000000000E+00 -0.20287682927E+04  0.20287682927E+04  0.25500000920E-02 0.  1.
    10030    2    1    2    0    0  0.00000000000E+00  0.00000000000E+00 -0.75715934846E+03  0.33003772370E+04  0.32123511059E+04 0.  0.
        4    1    3    3  502    0 -0.13539179470E+03 -0.15982518222E+04 -0.29226277609E+03  0.16303861409E+04  0.12699999809E+01 0. -1.
       -4    1    3    3    0  502  0.13539179470E+03  0.15982518222E+04 -0.46489657237E+03  0.16699910961E+04  0.12699999809E+01 0.  1.
</event>
<event>
 5   0  0.8487944E-07  0.3197769E+04  0.7818609E-02  0.8189407E-01
        1   -1    0    0  501    0  0.00000000000E+00  0.00000000000E+00  0.11076378541E+04  0.11076378541E+04  0.50400001928E-02 0. -1.
       -1   -1    0    0    0  501  0.00000000000E+00  0.00000000000E+00 -0.23080027512E+04  0.23080027512E+04  0.50400001928E-02 0.  1.
    10030    2    1    2    0    0  0.00000000000E+00  0.00000000000E+00 -0.12003648970E+04  0.34156406053E+04  0.31977687313E+04 0.  0.
        2    1    3    3  502    0  0.13235752185E+04 -0.57201664053E+03  0.13781656143E+03  0.14484639453E+04  0.25500000920E-02 0. -1.
       -2    1    3    3    0  502 -0.13235752185E+04  0.57201664053E+03 -0.13381814585E+04  0.19671766601E+04  0.25500000920E-02 0.  1.
</event>
<event>
 5   0  0.8512855E-07  0.3211932E+04  0.7818609E-02  0.8185673E-01
       -1   -1    0    0    0  501  0.00000000000E+00  0.00000000000E+00  0.20572245151E+04  0.20572245151E+04  0.50400001928E-02 0. -1.
        1   -1    0    0  501    0  0.00000000000E+00  0.00000000000E+00 -0.12536923115E+04  0.12536923115E+04  0.50400001928E-02 0.  1.
    10030    2    1    2    0    0  0.00000000000E+00  0.00000000000E+00  0.80353220360E+03  0.33109168266E+04  0.32119318533E+04 0.  0.
        5    1    3    3  502    0 -0.72683893892E+03 -0.13763295324E+04  0.80959320423E+03  0.17544346871E+04  0.46999998093E+01 0.  1.
       -5    1    3    3    0  502  0.72683893892E+03  0.13763295324E+04 -0.60610006322E+01  0.15564821395E+04  0.46999998093E+01 0. -1.
</event>
<event>
 5   0  0.8512855E-07  0.3156410E+04  0.7818609E-02  0.8200425E-01
       -1   -1    0    0    0  501  0.00000000000E+00  0.00000000000E+00  0.11493188021E+04  0.11493188021E+04  0.50400001928E-02 0.  1.
        1   -1    0    0  501    0  0.00000000000E+00  0.00000000000E+00 -0.21671363946E+04  0.21671363946E+04  0.50400001928E-02 0. -1.
    10030    2    1    2    0    0  0.00000000000E+00  0.00000000000E+00 -0.10178175925E+04  0.33164551967E+04  0.31564097358E+04 0.  0.
        5    1    3    3  502    0  0.54463523128E+03 -0.11997534206E+04 -0.14216761172E+04  0.19383551991E+04  0.46999998093E+01 0. -1.
       -5    1    3    3    0  502 -0.54463523128E+03  0.11997534206E+04  0.40385852470E+03  0.13780999976E+04  0.46999998093E+01 0.  1.
</event>
<event>
 5   0  0.2621528E-06  0.3217231E+04  0.7818609E-02  0.8184281E-01
       -2   -1    0    0    0  501  0.00000000000E+00  0.00000000000E+00  0.14985801487E+04  0.14985801487E+04  0.25500000920E-02 0.  1.
        2   -1    0    0  501    0  0.00000000000E+00  0.00000000000E+00 -0.17267308227E+04  0.17267308227E+04  0.25500000920E-02 0. -1.
    10030    2    1    2    0    0  0.00000000000E+00  0.00000000000E+00 -0.22815067394E+03  0.32253109714E+04  0.32172314390E+04 0.  0.
        2    1    3    3  502    0  0.15798915394E+04  0.19089379642E+03  0.12134799824E+03  0.15960022101E+04  0.25500000920E-02 0. -1.
       -2    1    3    3    0  502 -0.15798915394E+04 -0.19089379642E+03 -0.34949867219E+03  0.16293087613E+04  0.25500000920E-02 0.  1.
</event>
<event>
 5   0  0.2466076E-06  0.3146075E+04  0.7818609E-02  0.8203206E-01
        2   -1    0    0  501    0  0.00000000000E+00  0.00000000000E+00  0.19187084356E+04  0.19187084356E+04  0.25500000920E-02 0. -1.
       -2   -1    0    0    0  501  0.00000000000E+00  0.00000000000E+00 -0.12896419633E+04  0.12896419633E+04  0.25500000920E-02 0.  1.
    10030    2    1    2    0    0  0.00000000000E+00  0.00000000000E+00  0.62906647237E+03  0.32083503989E+04  0.31460749603E+04 0.  0.
        3    1    3    3  502    0 -0.34389728371E+03 -0.79311045277E+03  0.16547612228E+04  0.18669558770E+04  0.10100000352E+00 0. -1.
       -3    1    3    3    0  502  0.34389728371E+03  0.79311045277E+03 -0.10256947505E+04  0.13413945219E+04  0.10100000352E+00 0.  1.
</event>
<event>
 5   0  0.2337504E-06  0.3123040E+04  0.7818609E-02  0.8209443E-01
       -2   -1    0    0    0  501  0.00000000000E+00  0.00000000000E+00  0.14535459843E+04  0.14535459843E+04  0.25500000920E-02 0.  1.
        2   -1    0    0  501    0  0.00000000000E+00  0.00000000000E+00 -0.16775151725E+04  0.16775151725E+04  0.25500000920E-02 0. -1.
    10030    2    1    2    0    0  0.00000000000E+00  0.00000000000E+00 -0.22396918822E+03  0.31310611568E+04  0.31230404689E+04 0.  0.
        1    1    3    3  502    0  0.14298343626E+04  0.66982082688E+01 -0.74119043462E+03  0.16105385531E+04  0.50400001928E-02 0. -1.
       -1    1    3    3    0  502 -0.14298343626E+04 -0.66982082688E+01  0.51722124640E+03  0.15205226037E+04  0.50400001928E-02 0.  1.
</event>
<event>
 5   0  0.2621528E-06  0.3149670E+04  0.7818609E-02  0.8202237E-01
        2   -1    0    0  501    0  0.00000000000E+00  0.00000000000E+00  0.15607091096E+04  0.15607091096E+04  0.25500000920E-02 0. -1.
       -2   -1    0    0    0  501  0.00000000000E+00  0.00000000000E+00 -0.15890888657E+04  0.15890888657E+04  0.25500000920E-02 0.  1.
    10030    2    1    2    0    0  0.00000000000E+00  0.00000000000E+00 -0.28379756153E+02  0.31497979753E+04  0.31496701216E+04 0.  0.
        2    1    3    3  502    0 -0.14662243004E+04 -0.52782202656E+03  0.21318618715E+03  0.15728503238E+04  0.25500000920E-02 0.  1.
       -2    1    3    3    0  502  0.14662243004E+04  0.52782202656E+03 -0.24156594330E+03  0.15769476515E+04  0.25500000920E-02 0. -1.
</event>
<event>
 5   0  0.2466076E-06  0.3240494E+04  0.7818609E-02  0.8178204E-01
       -2   -1    0    0    0  501  0.00000000000E+00  0.00000000000E+00  0.15665818373E+04  0.15665818373E+04  0.25500000920E-02 0.  1.
        2   -1    0    0  501    0  0.00000000000E+00  0.00000000000E+00 -0.16757508779E+04  0.16757508779E+04  0.25500000920E-02 0. -1.
    10030    2    1    2    0    0  0.00000000000E+00  0.00000000000E+00 -0.10916904055E+03  0.32423327152E+04  0.32404943383E+04 0.  0.
        3    1    3    3  502    0  0.12052286176E+03  0.13609017955E+04 -0.92606740512E+03  0.16505091052E+04  0.10100000352E+00 0. -1.
       -3    1    3    3    0  502 -0.12052286176E+03 -0.13609017955E+04  0.81689836458E+03  0.15918236100E+04  0.10100000352E+00 0.  1.
</event>
<event>
 5   0  0.8545153E-07  0.3212053E+04  0.7818609E-02  0.8185641E-01
       -1   -1    0    0    0  501  0.00000000000E+00  0.00000000000E+00  0.11236803293E+04  0.11236803293E+04  0.50400001928E-02 0.  1.
        1   -1    0    0  501    0  0.00000000000E+00  0.00000000000E+00 -0.22954228073E+04  0.22954228073E+04  0.50400001928E-02 0. -1.
    10030    2    1    2    0    0  0.00000000000E+00  0.00000000000E+00 -0.11717424780E+04  0.34191031366E+04  0.32120532100E+04 0.  0.
        3    1    3    3  502    0 -0.16853544279E+03  0.12994229378E+04 -0.15743974631E+04  0.20483240829E+04  0.10100000352E+00 0.  1.
       -3    1    3    3    0  502  0.16853544279E+03 -0.12994229378E+04  0.40265498513E+03  0.13707790537E+04  0.10100000352E+00 0. -1.
</event>
<event>
 5   0  0.2401139E-06  0.3168462E+04  0.7818609E-02  0.8197196E-01
       -2   -1    0    0    0  501  0.00000000000E+00  0.00000000000E+00  0.11745245415E+04  0.11745245415E+04  0.25500000920E-02 0.  1.
        2   -1    0    0  501    0  0.00000000000E+00  0.00000000000E+00 -0.21368549852E+04  0.21368549852E+04  0.25500000920E-02 0. -1.
    10030    2    1    2    0    0  0.00000000000E+00  0.00000000000E+00 -0.96233044367E+03  0.33113795267E+04  0.31684624800E+04 0.  0.
        5    1    3    3  502    0  0.28749320117E+03 -0.10113045047E+04  0.75735272760E+03  0.12957601575E+04  0.46999998093E+01 0.  1.
       -5    1    3    3    0  502 -0.28749320117E+03  0.10113045047E+04 -0.17196831713E+04  0.20156193692E+04  0.46999998093E+01 0. -1.
</event>
<event>
 5   0  0.8512855E-07  0.3297783E+04  0.7818609E-02  0.8163460E-01
       -1   -1    0    0    0  501  0.00000000000E+00  0.00000000000E+00  0.10004417004E+04  0.10004417004E+04  0.50400001928E-02 0.  1.
        1   -1    0    0  501    0  0.00000000000E+00  0.00000000000E+00 -0.27176423473E+04  0.27176423473E+04  0.50400001928E-02 0. -1.
    10030    2    1    2    0    0  0.00000000000E+00  0.00000000000E+00 -0.17172006469E+04  0.37180840477E+04  0.32977827285E+04 0.  0.
        5    1    3    3  502    0 -0.68256732330E+03 -0.14985244380E+04 -0.95523926132E+03  0.19036748091E+04  0.46999998093E+01 0.  1.
       -5    1    3    3    0  502  0.68256732330E+03  0.14985244380E+04 -0.76196138554E+03  0.18144092387E+04  0.46999998093E+01 0. -1.
</event>
<event>
 5   0  0.8545153E-07  0.3162381E+04  0.7818609E-02  0.8198823E-01
        1   -1    0    0  501    0  0.00000000000E+00  0.00000000000E+00  0.76502897573E+03  0.76502897575E+03  0.50400001928E-02 0. -1.
       -1   -1    0    0    0  501  0.00000000000E+00  0.00000000000E+00 -0.32680637557E+04  0.32680637557E+04  0.50400001928E-02 0.  1.
    10030    2    1    2    0    0  0.00000000000E+00  0.00000000000E+00 -0.25030347799E+04  0.40330927314E+04  0.31623810445E+04 0.  0.
        3    1    3    3  502    0 -0.55972476782E+02 -0.90102137430E+03 -0.29070913158E+04  0.30440355392E+04  0.10100000352E+00 0.  1.
       -3    1    3    3    0  502  0.55972476782E+02  0.90102137430E+03  0.40405653590E+03  0.98905719223E+03  0.10100000352E+00 0. -1.
</event>
<event>
 5   0  0.2466076E-06  0.3188393E+04  0.7818609E-02  0.8191889E-01
       -2   -1    0    0    0  501  0.00000000000E+00  0.00000000000E+00  0.12862858301E+04  0.12862858301E+04  0.25500000920E-02 0. -1.
        2   -1    0    0  501    0  0.00000000000E+00  0.00000000000E+00 -0.19758146516E+04  0.19758146516E+04  0.25500000920E-02 0.  1.
    10030    2    1    2    0    0  0.00000000000E+00  0.00000000000E+00 -0.68952882155E+03  0.32621004817E+04  0.31883929427E+04 0.  0.
        3    1    3    3  502    0  0.37604163222E+03 -0.14065520188E+04 -0.10091344495E+04  0.17714819328E+04  0.10100000352E+00 0.  1.
       -3    1    3    3    0  502 -0.37604163222E+03  0.14065520188E+04  0.31960562792E+03  0.14906185489E+04  0.10100000352E+00 0. -1.
</event>
<event>
 5   0  0.8681172E-07  0.3160671E+04  0.7818609E-02  0.8199282E-01
       -1   -1    0    0    0  501  0.00000000000E+00  0.00000000000E+00  0.12970292571E+04  0.12970292572E+04  0.50400001928E-02 0. -1.
        1   -1    0    0  501    0  0.00000000000E+00  0.00000000000E+00 -0.19255230325E+04  0.19255230325E+04  0.50400001928E-02 0.  1.
    10030    2    1    2    0    0  0.00000000000E+00  0.00000000000E+00 -0.62849377540E+03  0.32225522897E+04  0.31606706304E+04 0.  0.
        1    1    3    3  502    0  0.13897294512E+04 -0.50744960392E+03 -0.88064706371E+03  0.17217410661E+04  0.50400001928E-02 0.  1.
       -1    1    3    3    0  502 -0.13897294512E+04  0.50744960392E+03  0.25215328831E+03  0.15008112236E+04  0.50400001928E-02 0. -1.
</event>
<event>
 5   0  0.8545153E-07  0.3157626E+04  0.7818609E-02  0.8200099E-01
        1   -1    0    0  501    0  0.00000000000E+00  0.00000000000E+00  0.26101756632E+04  0.26101756632E+04  0.50400001928E-02 0. -1.
       -1   -1    0    0    0  501  0.00000000000E+00  0.00000000000E+00 -0.95497401007E+03  0.95497401009E+03  0.50400001928E-02 0.  1.
    10030    2    1    2    0    0  0.00000000000E+00  0.00000000000E+00  0.16552016532E+04  0.35651496733E+04  0.31576256397E+04 0.  0.
        3    1    3    3  502    0  0.20496977241E+02  0.78489648627E+03 -0.71890979594E+03  0.10645721794E+04  0.10100000352E+00 0.  1.
       -3    1    3    3    0  502 -0.20496977241E+02 -0.78489648627E+03  0.23741114491E+04  0.25005774939E+04  0.10100000352E+00 0. -1.
</event>
<event>
 5   0  0.8383008E-07  0.3276364E+04  0.7818609E-02  0.8168936E-01
        1   -1    0    0  501    0  0.00000000000E+00  0.00000000000E+00  0.20658636467E+04  0.20658636467E+04  0.50400001928E-02 0. -1.
       -1   -1    0    0    0  501  0.00000000000E+00  0.00000000000E+00 -0.12990407049E+04  0.12990407049E+04  0.50400001928E-02 0.  1.
    10030    2    1    2    0    0  0.00000000000E+00  0.00000000000E+00  0.76682294183E+03  0.33649043516E+04  0.32763644289E+04 0.  0.
        4    1    3    3  502    0 -0.55260546151E+02 -0.10920275591E+04  0.16362380331E+04  0.19679569182E+04  0.12699999809E+01 0. -1.
       -4    1    3    3    0  502  0.55260546151E+02  0.10920275591E+04 -0.86941509127E+03  0.13969474334E+04  0.12699999809E+01 0.  1.
</event>
<event>
 5   0  0.8512855E-07  0.3135410E+04  0.7818609E-02  0.8206087E-01
       -1   -1    0    0    0  501  0.00000000000E+00  0.00000000000E+00  0.13113191726E+04  0.13113191726E+04  0.50400001928E-02 0. -1.
        1   -1    0    0  501    0  0.00000000000E+00  0.00000000000E+00 -0.18742188830E+04  0.18742188830E+04  0.50400001928E-02 0.  1.
    10030    2    1    2    0    0  0.00000000000E+00  0.00000000000E+00 -0.56289971038E+03  0.31855380556E+04  0.31354101199E+04 0.  0.
        5    1    3    3  502    0 -0.11455917569E+04  0.20593805565E+03 -0.13484237044E+04  0.17813083767E+04  0.46999998093E+01 0.  1.
       -5    1    3    3    0  502  0.11455917569E+04 -0.20593805565E+03  0.78552399404E+03  0.14042296790E+04  0.46999998093E+01 0. -1.
</event>
<event>
 5   0  0.2404430E-06  0.3212917E+04  0.7818609E-02  0.8185414E-01
        2   -1    0    0  501    0  0.00000000000E+00  0.00000000000E+00  0.28678190237E+04  0.28678190237E+04  0.25500000920E-02 0.  1.
       -2   -1    0    0    0  501  0.00000000000E+00  0.00000000000E+00 -0.89988534435E+03  0.89988534436E+03  0.25500000920E-02 0. -1.
    10030    2    1    2    0    0  0.00000000000E+00  0.00000000000E+00  0.19679336793E+04  0.37677043680E+04  0.32129166249E+04 0.  0.
        4    1    3    3  502    0  0.14664644427E+04  0.41682975915E+03  0.15778098860E+04  0.21940261300E+04  0.12699999809E+01 0. -1.
       -4    1    3    3    0  502 -0.14664644427E+04 -0.41682975915E+03  0.39012379336E+03  0.15736782381E+04  0.12699999809E+01 0.  1.
</event>
<event>
 5   0  0.2337504E-06  0.3226735E+04  0.7818609E-02  0.8181792E-01
       -2   -1    0    0    0  501  0.00000000000E+00  0.00000000000E+00  0.12747696975E+04  0.12747696975E+04  0.25500000920E-02 0. -1.
        2   -1    0    0  501    0  0.00000000000E+00  0.00000000000E+00 -0.20419013645E+04  0.20419013645E+04  0.25500000920E-02 0.  1.
    10030    2    1    2    0    0  0.00000000000E+00  0.00000000000E+00 -0.76713166697E+03  0.33166710619E+04  0.32267345628E+04 0.  0.
        1    1    3    3  502    0  0.22112792583E+03  0.62119349362E+03 -0.18970794541E+04  0.20084046832E+04  0.50400001928E-02 0.  1.
       -1    1    3    3    0  502 -0.22112792583E+03 -0.62119349362E+03  0.11299477871E+04  0.13082663788E+04  0.50400001928E-02 0. -1.
</event>
<event>
 5   0  0.8383008E-07  0.3218922E+04  0.7818609E-02  0.8183838E-01
       -1   -1    0    0    0  501  0.00000000000E+00  0.00000000000E+00  0.15668323665E+04  0.15668323665E+04  0.50400001928E-02 0. -1.
        1   -1    0    0  501    0  0.00000000000E+00  0.00000000000E+00 -0.16532489720E+04  0.16532489720E+04  0.50400001928E-02 0.  1.
    10030    2    1    2    0    0  0.00000000000E+00  0.00000000000E+00 -0.86416605515E+02  0.32200813385E+04  0.32189215581E+04 0.  0.
        4    1    3    3  502    0  0.13886531631E+04  0.63871871637E+03  0.46100026243E+03  0.15965093363E+04  0.12699999809E+01 0.  1.
       -4    1    3    3    0  502 -0.13886531631E+04 -0.63871871637E+03 -0.54741686795E+03  0.16235720022E+04  0.12699999809E+01 0. -1.
</event>
<event>
 5   0  0.2621528E-06  0.3114286E+04  0.7818609E-02  0.8211828E-01
       -2   -1    0    0    0  501  0.00000000000E+00  0.00000000000E+00  0.23184450920E+04  0.23184450920E+04  0.25500000920E-02 0.  1.
        2   -1    0    0  501    0  0.00000000000E+00  0.00000000000E+00 -0.10458276662E+04  0.10458276662E+04  0.25500000920E-02 0. -1.
    10030    2    1    2    0    0  0.00000000000E+00  0.00000000000E+00  0.12726174257E+04  0.33642727582E+04  0.31142858056E+04 0.  0.
        2    1    3    3  502    0 -0.94343487522E+03 -0.40111605723E+03  0.19024539137E+04  0.21610863816E+04  0.25500000920E-02 0.  1.
       -2    1    3    3    0  502  0.94343487522E+03  0.40111605723E+03 -0.62983648796E+03  0.12031863766E+04  0.25500000920E-02 0. -1.
</event>
<event>
 5   0  0.8512855E-07  0.3205723E+04  0.7818609E-02  0.8187307E-01
       -1   -1    0    0    0  501  0.00000000000E+00  0.00000000000E+00  0.12483931262E+04  0.12483931262E+04  0.50400001928E-02 0. -1.
        1   -1    0    0  501    0  0.00000000000E+00  0.00000000000E+00 -0.20579770710E+04  0.20579770710E+04  0.50400001928E-02 0.  1.
    10030    2    1    2    0    0  0.00000000000E+00  0.00000000000E+00 -0.80958394474E+03  0.33063701972E+04  0.32057226513E+04 0.  0.
        5    1    3    3  502    0 -0.89852494950E+03 -0.76325499894E+03 -0.15248127816E+04  0.19274286983E+04  0.46999998093E+01 0.  1.
       -5    1    3    3    0  502  0.89852494950E+03  0.76325499894E+03  0.71522883683E+03  0.13789414989E+04  0.46999998093E+01 0. -1.
</event>
<event>
 5   0  0.2621528E-06  0.3207189E+04  0.7818609E-02  0.8186921E-01
       -2   -1    0    0    0  501  0.00000000000E+00  0.00000000000E+00  0.17843356290E+04  0.17843356290E+04  0.25500000920E-02 0.  1.
        2   -1    0    0  501    0  0.00000000000E+00  0.00000000000E+00 -0.14411607987E+04  0.14411607988E+04  0.25500000920E-02 0. -1.
    10030    2    1    2    0    0  0.00000000000E+00  0.00000000000E+00  0.34317483022E+03  0.32254964277E+04  0.32071885260E+04 0.  0.
        2    1    3    3  502    0 -0.88348447828E+03 -0.24278991595E+03 -0.11519885655E+04  0.14719271116E+04  0.25500000920E-02 0. -1.
       -2    1    3    3    0  502  0.88348447828E+03  0.24278991595E+03  0.14951633957E+04  0.17535693162E+04  0.25500000920E-02 0.  1.
</event>
<event>
 5   0  0.8383008E-07  0.3270285E+04  0.7818609E-02  0.8170498E-01
       -1   -1    0    0    0  501  0.00000000000E+00  0.00000000000E+00  0.11428326482E+04  0.11428326482E+04  0.50400001928E-02 0.  1.
        1   -1    0    0  501    0  0.00000000000E+00  0.00000000000E+00 -0.23395303259E+04  0.23395303259E+04  0.50400001928E-02 0. -1.
    10030    2    1    2    0    0  0.00000000000E+00  0.00000000000E+00 -0.11966976777E+04  0.34823629741E+04  0.32702853930E+04 0.  0.
        4    1    3    3  502    0 -0.70302865386E+03 -0.12395157403E+04  0.25555284826E+03  0.14477421835E+04  0.12699999809E+01 0.  1.
       -4    1    3    3    0  502  0.70302865386E+03  0.12395157403E+04 -0.14522505260E+04  0.20346207907E+04  0.12699999809E+01 0. -1.
</event>
<event>
 5   0  0.8383008E-07  0.3203366E+04  0.7818609E-02  0.8187929E-01
        1   -1    0    0  501    0  0.00000000000E+00  0.00000000000E+00  0.17102118387E+04  0.17102118387E+04  0.50400001928E-02 0. -1.
       -1   -1    0    0    0  501  0.00000000000E+00  0.00000000000E+00 -0.15000414022E+04  0.15000414022E+04  0.50400001928E-02 0.  1.
    10030    2    1    2    0    0  0.00000000000E+00  0.00000000000E+00  0.21017043641E+03  0.32102532409E+04  0.32033660825E+04 0.  0.
        4    1    3    3  502    0 -0.14854972592E+04 -0.59014186822E+03  0.28000164122E+01  0.15984301626E+04  0.12699999809E+01 0.  1.
       -4    1    3    3    0  502  0.14854972592E+04  0.59014186822E+03  0.20737042000E+03  0.16118230783E+04  0.12699999809E+01 0. -1.
</event>
<event>
 5   0  0.8487944E-07  0.3190496E+04  0.7818609E-02  0.8191332E-01
       -1   -1    0    0    0  501  0.00000000000E+00  0.00000000000E+00  0.22030063645E+04  0.22030063645E+04  0.50400001928E-02 0.  1.
        1   -1    0    0  501    0  0.00000000000E+00  0.00000000000E+00 -0.11551557302E+04  0.11551557302E+04  0.50400001928E-02 0. -1.
    10030    2    1    2    0    0  0.00000000000E+00  0.00000000000E+00  0.10478506343E+04  0.33581620947E+04  0.31904955262E+04 0.  0.
        2    1    3    3  502    0  0.10093963724E+04  0.79077253298E+03  0.15228038205E+04  0.19907620931E+04  0.25500000920E-02 0.  1.
       -2    1    3    3    0  502 -0.10093963724E+04 -0.79077253298E+03 -0.47495318620E+03  0.13674000017E+04  0.25500000920E-02 0. -1.
</event>
<event>
 5   0  0.2404430E-06  0.3062997E+04  0.7818609E-02  0.8225967E-01
       -2   -1    0    0    0  501  0.00000000000E+00  0.00000000000E+00  0.12048457659E+04  0.12048457659E+04  0.25500000920E-02 0. -1.
        2   -1    0    0  501    0  0.00000000000E+00  0.00000000000E+00 -0.19467117846E+04  0.19467117846E+04  0.25500000920E-02 0.  1.
    10030    2    1    2    0    0  0.00000000000E+00  0.00000000000E+00 -0.74186601866E+03  0.31515575505E+04  0.30629968666E+04 0.  0.
        4    1    3    3  502    0 -0.87892090430E+02 -0.15203318655E+04 -0.20390698632E+03  0.15364614128E+04  0.12699999809E+01 0. -1.
       -4    1    3    3    0  502  0.87892090430E+02  0.15203318655E+04 -0.53795903234E+03  0.16150961378E+04  0.12699999809E+01 0.  1.
</event>
<event>
 5   0  0.7934375E-07  0.3136080E+04  0.7818609E-02  0.8205905E-01
        3   -1    0    0  501    0  0.00000000000E+00  0.00000000000E+00  0.13251982211E+04  0.13251982249E+04  0.10100000352E+00 0.  1.
       -3   -1    0    0    0  501  0.00000000000E+00  0.00000000000E+00 -0.18553819000E+04  0.18553819028E+04  0.10100000352E+00 0. -1.
    10030    2    1    2    0    0  0.00000000000E+00  0.00000000000E+00 -0.53018367893E+03  0.31805801277E+04  0.31360795933E+04 0.  0.
        1    1    3    3  502    0  0.99195144593E+03  0.31250222530E+03 -0.14552528207E+04  0.17886827791E+04  0.50400001928E-02 0. -1.
       -1    1    3    3    0  502 -0.99195144593E+03 -0.31250222530E+03  0.92506914181E+03  0.13918973486E+04  0.50400001928E-02 0.  1.
</event>
<event>
 5   0  0.2401139E-06  0.3193313E+04  0.7818609E-02  0.8190585E-01
       -2   -1    0    0    0  501  0.00000000000E+00  0.00000000000E+00  0.99072764937E+03  0.99072764937E+03  0.25500000920E-02 0. -1.
        2   -1    0    0  501    0  0.00000000000E+00  0.00000000000E+00 -0.25731712339E+04  0.25731712339E+04  0.25500000920E-02 0.  1.
    10030    2    1    2    0    0  0.00000000000E+00  0.00000000000E+00 -0.15824435845E+04  0.35638988833E+04  0.31933129430E+04 0.  0.
        5    1    3    3  502    0  0.11478429744E+04  0.74695653936E+03  0.12489346283E+03  0.13751756370E+04  0.46999998093E+01 0. -1.
       -5    1    3    3    0  502 -0.11478429744E+04 -0.74695653936E+03 -0.17073370473E+04  0.21887232463E+04  0.46999998093E+01 0.  1.
</event>
<event>
 5   0  0.2401139E-06  0.3108624E+04  0.7818609E-02  0.8213375E-01
        2   -1    0    0  501    0  0.00000000000E+00  0.00000000000E+00  0.17331936336E+04  0.17331936336E+04  0.25500000920E-02 0.  1.
       -2   -1    0    0    0  501  0.00000000000E+00  0.00000000000E+00 -0.13938929754E+04  0.13938929754E+04  0.25500000920E-02 0. -1.
    10030    2    1    2    0    0  0.00000000000E+00  0.00000000000E+00  0.33930065817E+03  0.31270866090E+04  0.31086244102E+04 0.  0.
        5    1    3    3  502    0 -0.13677469743E+04 -0.69417606232E+03  0.42264379334E+03  0.15909940469E+04  0.46999998093E+01 0.  1.
       -5    1    3    3    0  502  0.13677469743E+04  0.69417606232E+03 -0.83343135168E+02  0.15360925621E+04  0.46999998093E+01 0. -1.
</event>
<event>
 5   0  0.2404430E-06  0.3262417E+04  0.7818609E-02  0.8172525E-01
       -2   -1    0    0    0  501  0.00000000000E+00  0.00000000000E+00  0.85665736913E+03  0.85665736913E+03  0.25500000920E-02 0.  1.
        2   -1    0    0  501    0  0.00000000000E+00  0.00000000000E+00 -0.31060743139E+04  0.31060743139E+04  0.25500000920E-02 0. -1.
    10030    2    1    2    0    0  0.00000000000E+00  0.00000000000E+00 -0.22494169448E+04  0.39627316830E+04  0.32624171714E+04 0.  0.
        4    1    3    3  502    0 -0.13744283529E+04  0.20059494786E+03 -0.21636154136E+04  0.25710941059E+04  0.12699999809E+01 0. -1.
       -4    1    3    3    0  502  0.13744283529E+04 -0.20059494786E+03 -0.85801531186E+02  0.13916375772E+04  0.12699999809E+01 0.  1.
</event>
<event>
 5   0  0.8383008E-07  0.3186361E+04  0.7818609E-02  0.8192428E-01
        1   -1    0    0  501    0  0.00000000000E+00  0.00000000000E+00  0.21501806473E+04  0.21501806473E+04  0.50400001928E-02 0. -1.
       -1   -1    0    0    0  501  0.00000000000E+00  0.00000000000E+00 -0.11804703130E+04  0.11804703130E+04  0.50400001928E-02 0.  1.
    10030    2    1    2    0    0  0.00000000000E+00  0.00000000000E+00  0.96971033427E+03  0.33306509604E+04  0.31863611985E+04 0.  0.
        4    1    3    3  502    0 -0.93404335105E+03  0.12865089172E+04  0.37682809103E+03  0.16338736789E+04  0.12699999809E+01 0. -1.
       -4    1    3    3    0  502  0.93404335105E+03 -0.12865089172E+04  0.59288224324E+03  0.16967772814E+04  0.12699999809E+01 0.  1.
</event>
<event>
 5   0  0.8487944E-07  0.3216871E+04  0.7818609E-02  0.8184376E-01
       -1   -1    0    0    0  501  0.00000000000E+00  0.00000000000E+00  0.16204254843E+04  0.16204254843E+04  0.50400001928E-02 0.  1.
        1   -1    0    0  501    0  0.00000000000E+00  0.00000000000E+00 -0.15965340249E+04  0.15965340249E+04  0.50400001928E-02 0. -1.
    10030    2    1    2    0    0  0.00000000000E+00  0.00000000000E+00  0.23891459488E+02  0.32169595092E+04  0.32168707904E+04 0.  0.
        2    1    3    3  502    0 -0.12430330071E+04 -0.85059973012E+03 -0.55235120125E+03  0.16042888790E+04  0.25500000920E-02 0.  1.
       -2    1    3    3    0  502  0.12430330071E+04  0.85059973012E+03  0.57624266074E+03  0.16126706303E+04  0.25500000920E-02 0. -1.
</event>
<event>
 5   0  0.2621528E-06  0.3175499E+04  0.7818609E-02  0.8195318E-01
        2   -1    0    0  501    0  0.00000000000E+00  0.00000000000E+00  0.20181803392E+04  0.20181803392E+04  0.25500000920E-02 0. -1.
       -2   -1    0    0    0  501  0.00000000000E+00  0.00000000000E+00 -0.12491198754E+04  0.12491198754E+04  0.25500000920E-02 0.  1.
    10030    2    1    2    0    0  0.00000000000E+00  0.00000000000E+00  0.76906046384E+03  0.32673002147E+04  0.31754994403E+04 0.  0.
        2    1    3    3  502    0 -0.88017122732E+03  0.12787462156E+04  0.72741470547E+03  0.17143586052E+04  0.25500000920E-02 0. -1.
       -2    1    3    3    0  502  0.88017122732E+03 -0.12787462156E+04  0.41645758370E+02  0.15529416095E+04  0.25500000920E-02 0.  1.
</event>
<event>
 5   0  0.8487944E-07  0.3195096E+04  0.7818609E-02  0.8190113E-01
       -1   -1    0    0    0  501  0.00000000000E+00  0.00000000000E+00  0.12769774674E+04  0.12769774674E+04  0.50400001928E-02 0. -1.
        1   -1    0    0  501    0  0.00000000000E+00  0.00000000000E+00 -0.19985946628E+04  0.19985946628E+04  0.50400001928E-02 0.  1.
    10030    2    1    2    0    0  0.00000000000E+00  0.00000000000E+00 -0.72161719543E+03  0.32755721302E+04  0.31950964623E+04 0.  0.
        2    1    3    3  502    0 -0.14831622174E+04  0.53871642315E+03 -0.61643776302E+03  0.16941018457E+04  0.25500000920E-02 0.  1.
       -2    1    3    3    0  502  0.14831622174E+04 -0.53871642315E+03 -0.10517943242E+03  0.15814702845E+04  0.25500000920E-02 0. -1.
</event>
<event>
 5   0  0.2466076E-06  0.3171546E+04  0.7818609E-02  0.8196372E-01
        2   -1    0    0  501    0  0.00000000000E+00  0.00000000000E+00  0.12736308583E+04  0.12736308583E+04  0.25500000920E-02 0.  1.
       -2   -1    0    0    0  501  0.00000000000E+00  0.00000000000E+00 -0.19744152997E+04  0.19744152997E+04  0.25500000920E-02 0. -1.
    10030    2    1    2    0    0  0.00000000000E+00  0.00000000000E+00 -0.70078444137E+03  0.32480461580E+04  0.31715461547E+04 0.  0.
        3    1    3    3  502    0  0.10297560975E+04  0.85969386329E+03  0.51570461680E+03  0.14371577578E+04  0.10100000352E+00 0. -1.
       -3    1    3    3    0  502 -0.10297560975E+04 -0.85969386329E+03 -0.12164890582E+04  0.18108884001E+04  0.10100000352E+00 0.  1.
</event>
<event>
 5   0  0.2401139E-06  0.3172155E+04  0.7818609E-02  0.8196210E-01
        2   -1    0    0  501    0  0.00000000000E+00  0.00000000000E+00  0.20627903299E+04  0.20627903299E+04  0.25500000920E-02 0.  1.
       -2   -1    0    0    0  501  0.00000000000E+00  0.00000000000E+00 -0.12195333629E+04  0.12195333629E+04  0.25500000920E-02 0. -1.
    10030    2    1    2    0    0  0.00000000000E+00  0.00000000000E+00  0.84325696697E+03  0.32823236928E+04  0.31721548688E+04 0.  0.
        5    1    3    3  502    0 -0.13857688752E+04 -0.67897735426E+03  0.80076053853E+03  0.17385641067E+04  0.46999998093E+01 0.  1.
       -5    1    3    3    0  502  0.13857688752E+04  0.67897735426E+03  0.42496428437E+02  0.15437595860E+04  0.46999998093E+01 0. -1.
</event>
<event>
 5   0  0.8512855E-07  0.3164298E+04  0.7818609E-02  0.8198310E-01
        1   -1    0    0  501    0  0.00000000000E+00  0.00000000000E+00  0.17284721201E+04  0.17284721201E+04  0.50400001928E-02 0.  1.
       -1   -1    0    0    0  501  0.00000000000E+00  0.00000000000E+00 -0.14482123902E+04  0.14482123902E+04  0.50400001928E-02 0. -1.
    10030    2    1    2    0    0  0.00000000000E+00  0.00000000000E+00  0.28025972992E+03  0.31766845102E+04  0.31642975463E+04 0.  0.
        5    1    3    3  502    0 -0.13750675971E+03 -0.11382051197E+04 -0.95443802102E+03  0.14917751270E+04  0.46999998093E+01 0. -1.
       -5    1    3    3    0  502  0.13750675971E+03  0.11382051197E+04  0.12346977509E+04  0.16849093832E+04  0.46999998093E+01 0.  1.
</event>
<event>
 5   0  0.8545153E-07  0.3300768E+04  0.7818609E-02  0.8162700E-01
        1   -1    0    0  501    0  0.00000000000E+00  0.00000000000E+00  0.21122046319E+04  0.21122046319E+04  0.50400001928E-02 0. -1.
       -1   -1    0    0    0  501  0.00000000000E+00  0.00000000000E+00 -0.12895373352E+04  0.12895373352E+04  0.50400001928E-02 0.  1.
    10030    2    1    2    0    0  0.00000000000E+00  0.00000000000E+00  0.82266729671E+03  0.34017419671E+04  0.33007676273E+04 0.  0.
        3    1    3    3  502    0  0.26884033951E+03 -0.35371958385E+03 -0.12267468596E+04  0.13047223996E+04  0.10100000352E+00 0.  1.
       -3    1    3    3    0  502 -0.26884033951E+03  0.35371958385E+03  0.20494141563E+04  0.20970195675E+04  0.10100000352E+00 0. -1.
</event>
<event>
 5   0  0.2466076E-06  0.3159664E+04  0.7818609E-02  0.8199552E-01
       -2   -1    0    0    0  501  0.00000000000E+00  0.00000000000E+00  0.13607729325E+04  0.13607729325E+04  0.25500000920E-02 0. -1.
        2   -1    0    0  501    0  0.00000000000E+00  0.00000000000E+00 -0.18341550871E+04  0.18341550871E+04  0.25500000920E-02 0.  1.
    10030    2    1    2    0    0  0.00000000000E+00  0.00000000000E+00 -0.47338215463E+03  0.31949280196E+04  0.31596636507E+04 0.  0.
        3    1    3    3  502    0 -0.54687849193E+03  0.95507704474E+03 -0.13827517798E+04  0.17672721186E+04  0.10100000352E+00 0.  1.
       -3    1    3    3    0  502  0.54687849193E+03 -0.95507704474E+03  0.90936962515E+03  0.14276559010E+04  0.10100000352E+00 0. -1.
</event>
<event>
 5   0  0.2337504E-06  0.2925597E+04  0.7818609E-02  0.8265302E-01
       -2   -1    0    0    0  501  0.00000000000E+00  0.00000000000E+00  0.24282242387E+04  0.24282242387E+04  0.25500000920E-02 0. -1.
        2   -1    0    0  501    0  0.00000000000E+00  0.00000000000E+00 -0.88121147611E+03  0.88121147611E+03  0.25500000920E-02 0.  1.
    10030    2    1    2    0    0  0.00000000000E+00  0.00000000000E+00  0.15470127626E+04  0.33094357148E+04  0.29255967362E+04 0.  0.
        1    1    3    3  502    0 -0.73015841971E+03  0.11997328635E+04  0.12361780693E+04  0.18709961199E+04  0.50400001928E-02 0. -1.
       -1    1    3    3    0  502  0.73015841971E+03 -0.11997328635E+04  0.31083469332E+03  0.14384395949E+04  0.50400001928E-02 0.  1.
</event>
<event>
 5   0  0.2337504E-06  0.3209525E+04  0.7818609E-02  0.8186306E-01
        2   -1    0    0  501    0  0.00000000000E+00  0.00000000000E+00  0.20298806805E+04  0.20298806805E+04  0.25500000920E-02 0.  1.
       -2   -1    0    0    0  501  0.00000000000E+00  0.00000000000E+00 -0.12686768673E+04  0.12686768673E+04  0.25500000920E-02 0. -1.
    10030    2    1    2    0    0  0.00000000000E+00  0.00000000000E+00  0.76120381319E+03  0.32985575478E+04  0.32095249884E+04 0.  0.
        1    1    3    3  502    0  0.30616140656E+03 -0.14964071472E+04  0.88648968879E+03  0.17660218361E+04  0.50400001928E-02 0.  1.
       -1    1    3    3    0  502 -0.30616140656E+03  0.14964071472E+04 -0.12528587560E+03  0.15325357117E+04  0.50400001928E-02 0. -1.
</event>
<event>
 5   0  0.2621528E-06  0.3211302E+04  0.7818609E-02  0.8185839E-01
       -2   -1    0    0    0  501  0.00000000000E+00  0.00000000000E+00  0.98096379326E+03  0.98096379326E+03  0.25500000920E-02 0. -1.
        2   -1    0    0  501    0  0.00000000000E+00  0.00000000000E+00 -0.26281452664E+04  0.26281452664E+04  0.25500000920E-02 0.  1.
    10030    2    1    2    0    0  0.00000000000E+00  0.00000000000E+00 -0.16471814732E+04  0.36091090597E+04  0.32113021345E+04 0.  0.
        2    1    3    3  502    0 -0.14066107673E+04 -0.25951421377E+03 -0.36887611137E+01  0.14303548807E+04  0.25500000920E-02 0. -1.
       -2    1    3    3    0  502  0.14066107673E+04  0.25951421377E+03 -0.16434927121E+04  0.21787541790E+04  0.25500000920E-02 0.  1.
</event>
<event>
 5   0  0.8681172E-07  0.3225560E+04  0.7818609E-02  0.8182099E-01
        1   -1    0    0  501    0  0.00000000000E+00  0.00000000000E+00  0.16175555748E+04  0.16175555748E+04  0.50400001928E-02 0.  1.
       -1   -1    0    0    0  501  0.00000000000E+00  0.00000000000E+00 -0.16080183578E+04  0.16080183578E+04  0.50400001928E-02 0. -1.
    10030    2    1    2    0    0  0.00000000000E+00  0.00000000000E+00  0.95372170173E+01  0.32255739326E+04  0.32255598330E+04 0.  0.
        1    1    3    3  502    0  0.79167768391E+01 -0.55499995665E+03  0.15190312931E+04  0.16172642631E+04  0.50400001928E-02 0.  1.
       -1    1    3    3    0  502 -0.79167768391E+01  0.55499995665E+03 -0.15094940761E+04  0.16083096695E+04  0.50400001928E-02 0. -1.
</event>
<event>
 5   0  0.2337504E-06  0.3256707E+04  0.7818609E-02  0.8174000E-01
        2   -1    0    0  501    0  0.00000000000E+00  0.00000000000E+00  0.16271527497E+04  0.16271527498E+04  0.25500000920E-02 0. -1.
       -2   -1    0    0    0  501  0.00000000000E+00  0.00000000000E+00 -0.16295550648E+04  0.16295550648E+04  0.25500000920E-02 0.  1.
    10030    2    1    2    0    0  0.00000000000E+00  0.00000000000E+00 -0.24023150571E+01  0.32567078146E+04  0.32567069285E+04 0.  0.
        1    1    3    3  502    0 -0.15844227851E+03 -0.13429463827E+04 -0.90835412699E+03  0.16290230699E+04  0.50400001928E-02 0.  1.
       -1    1    3    3    0  502  0.15844227851E+03  0.13429463827E+04  0.90595181194E+03  0.16276847446E+04  0.50400001928E-02 0. -1.
</event>
<event>
 5   0  0.2404430E-06  0.3188610E+04  0.7818609E-02  0.8191832E-01
        2   -1    0    0  501    0  0.00000000000E+00  0.00000000000E+00  0.16754898602E+04  0.16754898602E+04  0.25500000920E-02 0.  1.
       -2   -1    0    0    0  501  0.00000000000E+00  0.00000000000E+00 -0.15170534603E+04  0.15170534603E+04  0.25500000920E-02 0. -1.
    10030    2    1    2    0    0  0.00000000000E+00  0.00000000000E+00  0.15843639985E+03  0.31925433205E+04  0.31886095341E+04 0.  0.
        4    1    3    3  502    0 -0.94533430290E+03 -0.11684166508E+04 -0.45337005426E+03  0.15698408942E+04  0.12699999809E+01 0. -1.
       -4    1    3    3    0  502  0.94533430290E+03  0.11684166508E+04  0.61180645411E+03  0.16227024263E+04  0.12699999809E+01 0.  1.
</event>
<event>
 5   0  0.2466076E-06  0.3179210E+04  0.7818609E-02  0.8194329E-01
       -2   -1    0    0    0  501  0.00000000000E+00  0.00000000000E+00  0.13688600343E+04  0.13688600343E+04  0.25500000920E-02 0.  1.
        2   -1    0    0  501    0  0.00000000000E+00  0.00000000000E+00 -0.18459479405E+04  0.18459479405E+04  0.25500000920E-02 0. -1.
    10030    2    1    2    0    0  0.00000000000E+00  0.00000000000E+00 -0.47708790622E+03  0.32148079748E+04  0.31792101919E+04 0.  0.
        3    1    3    3  502    0  0.12875206334E+03 -0.98709362542E+03  0.10146525205E+04  0.14214255755E+04  0.10100000352E+00 0.  1.
       -3    1    3    3    0  502 -0.12875206334E+03  0.98709362542E+03 -0.14917404267E+04  0.17933823993E+04  0.10100000352E+00 0. -1.
</event>
<event>
 5   0  0.8512855E-07  0.3184689E+04  0.7818609E-02  0.8192873E-01
       -1   -1    0    0    0  501  0.00000000000E+00  0.00000000000E+00  0.20494696042E+04  0.20494696042E+04  0.50400001928E-02 0. -1.
        1   -1    0    0  501    0  0.00000000000E+00  0.00000000000E+00 -0.12371789394E+04  0.12371789394E+04  0.50400001928E-02 0.  1.
    10030    2    1    2    0    0  0.00000000000E+00  0.00000000000E+00  0.81229066481E+03  0.32866485437E+04  0.31846887643E+04 0.  0.
        5    1    3    3  502    0 -0.15792763711E+04 -0.13848285069E+03  0.56007552224E+03  0.16813679064E+04  0.46999998093E+01 0. -1.
       -5    1    3    3    0  502  0.15792763711E+04  0.13848285069E+03  0.25221514257E+03  0.16052806372E+04  0.46999998093E+01 0.  1.
</event>
<event>
 5   0  0.8487944E-07  0.3192521E+04  0.7818609E-02  0.8190795E-01
       -1   -1    0    0    0  501  0.00000000000E+00  0.00000000000E+00  0.25341084742E+04  0.25341084742E+04  0.50400001928E-02 0.  1.
        1   -1    0    0  501    0  0.00000000000E+00  0.00000000000E+00 -0.10055008967E+04  0.10055008967E+04  0.50400001928E-02 0. -1.
    10030    2    1    2    0    0  0.00000000000E+00  0.00000000000E+00  0.15286075775E+04  0.35396093709E+04  0.31925214757E+04 0.  0.
        2    1    3    3  502    0 -0.12926902004E+04  0.42235272244E+03 -0.16240134847E+03  0.13695999322E+04  0.25500000920E-02 0. -1.
       -2    1    3    3    0  502  0.12926902004E+04 -0.42235272244E+03  0.16910089259E+04  0.21700094387E+04  0.25500000920E-02 0.  1.
</event>
<event>
 5   0  0.2337504E-06  0.3160556E+04  0.7818609E-02  0.8199312E-01
        2   -1    0    0  501    0  0.00000000000E+00  0.00000000000E+00  0.25773826777E+04  0.25773826777E+04  0.25500000920E-02 0.  1.
       -2   -1    0    0    0  501  0.00000000000E+00  0.00000000000E+00 -0.96892061601E+03  0.96892061601E+03  0.25500000920E-02 0. -1.
    10030    2    1    2    0    0  0.00000000000E+00  0.00000000000E+00  0.16084620617E+04  0.35463032937E+04  0.31605564142E+04 0.  0.
        1    1    3    3  502    0  0.68704456053E+03 -0.64919470109E+03 -0.61674511246E+03  0.11286534109E+04  0.50400001928E-02 0. -1.
       -1    1    3    3    0  502 -0.68704456053E+03  0.64919470109E+03  0.22252071742E+04  0.24176498829E+04  0.50400001928E-02 0.  1.
</event>
<event>
 5   0  0.2404430E-06  0.3225120E+04  0.7818609E-02  0.8182214E-01
        2   -1    0    0  501    0  0.00000000000E+00  0.00000000000E+00  0.13498970260E+04  0.13498970260E+04  0.25500000920E-02 0.  1.
       -2   -1    0    0    0  501  0.00000000000E+00  0.00000000000E+00 -0.19263320730E+04  0.19263320730E+04  0.25500000920E-02 0. -1.
    10030    2    1    2    0    0  0.00000000000E+00  0.00000000000E+00 -0.57643504698E+03  0.32762290990E+04  0.32251201134E+04 0.  0.
        4    1    3    3  502    0  0.12428625947E+03 -0.13778672645E+04 -0.11298289921E+04  0.17861916015E+04  0.12699999809E+01 0. -1.
       -4    1    3    3    0  502 -0.12428625947E+03  0.13778672645E+04  0.55339394515E+03  0.14900374976E+04  0.12699999809E+01 0.  1.
</event>
<event>
 5   0  0.2466076E-06  0.3195464E+04  0.7818609E-02  0.8190016E-01
       -2   -1    0    0    0  501  0.00000000000E+00  0.00000000000E+00  0.13539579617E+04  0.13539579617E+04  0.25500000920E-02 0. -1.
        2   -1    0    0  501    0  0.00000000000E+00  0.00000000000E+00 -0.18853963395E+04  0.18853963395E+04  0.25500000920E-02 0.  1.
    10030    2    1    2    0    0  0.00000000000E+00  0.00000000000E+00 -0.53143837782E+03  0.32393543012E+04  0.31954639005E+04 0.  0.
        3    1    3    3  502    0  0.11272132073E+04 -0.91605254465E+03 -0.94043251627E+03  0.17303685177E+04  0.10100000352E+00 0.  1.
       -3    1    3    3    0  502 -0.11272132073E+04  0.91605254465E+03  0.40899413846E+03  0.15089857835E+04  0.10100000352E+00 0. -1.
</event>
<event>
 5   0  0.8681172E-07  0.3203960E+04  0.7818609E-02  0.8187772E-01
       -1   -1    0    0    0  501  0.00000000000E+00  0.00000000000E+00  0.99040753183E+03  0.99040753184E+03  0.50400001928E-02 0.  1.
        1   -1    0    0  501    0  0.00000000000E+00  0.00000000000E+00 -0.25911954364E+04  0.25911954364E+04  0.50400001928E-02 0. -1.
    10030    2    1    2    0    0  0.00000000000E+00  0.00000000000E+00 -0.16007879046E+04  0.35816029682E+04  0.32039597230E+04 0.  0.
        1    1    3    3  502    0  0.19421632790E+03  0.15881741672E+04 -0.88927890855E+03  0.18305283785E+04  0.50400001928E-02 0. -1.
       -1    1    3    3    0  502 -0.19421632790E+03 -0.15881741672E+04 -0.71150899602E+03  0.17510745897E+04  0.50400001928E-02 0.  1.
</event>
<event>
 5   0  0.2621528E-06  0.3158322E+04  0.7818609E-02  0.8199912E-01
       -2   -1    0    0    0  501  0.00000000000E+00  0.00000000000E+00  0.14328145755E+04  0.14328145755E+04  0.25500000920E-02 0.  1.
        2   -1    0    0  501    0  0.00000000000E+00  0.00000000000E+00 -0.17404553490E+04  0.17404553490E+04  0.25500000920E-02 0. -1.
    10030    2    1    2    0    0  0.00000000000E+00  0.00000000000E+00 -0.30764077351E+03  0.31732699244E+04  0.31583222077E+04 0.  0.
        2    1    3    3  502    0 -0.16717311304E+03 -0.36312902935E+03 -0.16887746818E+04  0.17354450344E+04  0.25500000920E-02 0. -1.
       -2    1    3    3    0  502  0.16717311304E+03  0.36312902935E+03  0.13811339083E+04  0.14378248900E+04  0.25500000920E-02 0.  1.
</event>
<event>
 5   0  0.8681172E-07  0.3179489E+04  0.7818609E-02  0.8194255E-01
        1   -1    0    0  501    0  0.00000000000E+00  0.00000000000E+00  0.21014326067E+04  0.21014326067E+04  0.50400001928E-02 0. -1.
       -1   -1    0    0    0  501  0.00000000000E+00  0.00000000000E+00 -0.12026501313E+04  0.12026501313E+04  0.50400001928E-02 0.  1.
    10030    2    1    2    0    0  0.00000000000E+00  0.00000000000E+00  0.89878247541E+03  0.33040827380E+04  0.31794893932E+04 0.  0.
        1    1    3    3  502    0 -0.96382923367E+03 -0.22910455555E+02 -0.86418193114E+03  0.12947208544E+04  0.50400001928E-02 0.  1.
       -1    1    3    3    0  502  0.96382923367E+03  0.22910455555E+02  0.17629644065E+04  0.20093618836E+04  0.50400001928E-02 0. -1.
</event>
<event>
 5   0  0.8487944E-07  0.3190768E+04  0.7818609E-02  0.8191259E-01
        1   -1    0    0  501    0  0.00000000000E+00  0.00000000000E+00  0.22340720262E+04  0.22340720262E+04  0.50400001928E-02 0.  1.
       -1   -1    0    0    0  501  0.00000000000E+00  0.00000000000E+00 -0.11392876460E+04  0.11392876460E+04  0.50400001928E-02 0. -1.
    10030    2    1    2    0    0  0.00000000000E+00  0.00000000000E+00  0.10947843802E+04  0.33733596722E+04  0.31907683462E+04 0.  0.
        2    1    3    3  502    0  0.96439302249E+03 -0.11641619426E+04  0.83902374458E+01  0.15117530640E+04  0.25500000920E-02 0.  1.
       -2    1    3    3    0  502 -0.96439302249E+03  0.11641619426E+04  0.10863941427E+04  0.18616066082E+04  0.25500000920E-02 0. -1.
</event>
<event>
 5   0  0.2401139E-06  0.3335359E+04  0.7818609E-02  0.8153956E-01
        2   -1    0    0  501    0  0.00000000000E+00  0.00000000000E+00  0.17280305024E+04  0.17280305024E+04  0.25500000920E-02 0.  1.
       -2   -1    0    0    0  501  0.00000000000E+00  0.00000000000E+00 -0.16094366737E+04  0.16094366737E+04  0.25500000920E-02 0. -1.
    10030    2    1    2    0    0  0.00000000000E+00  0.00000000000E+00  0.11859382876E+03  0.33374671761E+04  0.33353594492E+04 0.  0.
        5    1    3    3  502    0  0.95989861979E+02  0.14575888352E+04 -0.74579484225E+03  0.16401253924E+04  0.46999998093E+01 0. -1.
       -5    1    3    3    0  502 -0.95989861979E+02 -0.14575888352E+04  0.86438867102E+03  0.16973417837E+04  0.46999998093E+01 0.  1.
</event>
<event>
 5   0  0.8681172E-07  0.3152111E+04  0.7818609E-02  0.8201580E-01
       -1   -1    0    0    0  501  0.00000000000E+00  0.00000000000E+00  0.22714964663E+04  0.22714964663E+04  0.50400001928E-02 0.  1.
        1   -1    0    0  501    0  0.00000000000E+00  0.00000000000E+00 -0.10935304547E+04  0.10935304547E+04  0.50400001928E-02 0. -1.
    10030    2    1    2    0    0  0.00000000000E+00  0.00000000000E+00  0.11779660115E+04  0.33650269210E+04  0.31521107618E+04 0.  0.
        1    1    3    3  502    0  0.45401965247E+03 -0.81785385359E+03 -0.76513305788E+03  0.12084897049E+04  0.50400001928E-02 0. -1.
       -1    1    3    3    0  502 -0.45401965247E+03  0.81785385359E+03  0.19430990694E+04  0.21565372161E+04  0.50400001928E-02 0.  1.
</event>
<event>
 5   0  0.2404430E-06  0.3295187E+04  0.7818609E-02  0.8164121E-01
       -2   -1    0    0    0  501  0.00000000000E+00  0.00000000000E+00  0.16333578340E+04  0.16333578340E+04  0.25500000920E-02 0.  1.
        2   -1    0    0  501    0  0.00000000000E+00  0.00000000000E+00 -0.16619532988E+04  0.16619532988E+04  0.25500000920E-02 0. -1.
    10030    2    1    2    0    0  0.00000000000E+00  0.00000000000E+00 -0.28595464807E+02  0.32953111328E+04  0.32951870602E+04 0.  0.
        4    1    3    3  502    0 -0.15690295603E+03 -0.22955088130E+03  0.16097248308E+04  0.16335629123E+04  0.12699999809E+01 0.  1.
       -4    1    3    3    0  502  0.15690295603E+03  0.22955088130E+03 -0.16383202956E+04  0.16617482205E+04  0.12699999809E+01 0. -1.
</event>
<event>
 5   0  0.7934375E-07  0.3274090E+04  0.7818609E-02  0.8169520E-01
        3   -1    0    0  501    0  0.00000000000E+00  0.00000000000E+00  0.20642616989E+04  0.20642617014E+04  0.10100000352E+00 0. -1.
       -3   -1    0    0    0  501  0.00000000000E+00  0.00000000000E+00 -0.12982442937E+04  0.12982442977E+04  0.10100000352E+00 0.  1.
    10030    2    1    2    0    0  0.00000000000E+00  0.00000000000E+00  0.76601740519E+03  0.33625059991E+04  0.32740897863E+04 0.  0.
        3    1    3    3  502    0 -0.14639769272E+04  0.17316435141E+03 -0.34804391423E+03  0.15147108346E+04  0.10100000352E+00 0.  1.
       -3    1    3    3    0  502  0.14639769272E+04 -0.17316435141E+03  0.11140613194E+04  0.18477951644E+04  0.10100000352E+00 0. -1.
</event>
<event>
 5   0  0.2466076E-06  0.3189553E+04  0.7818609E-02  0.8191582E-01
       -2   -1    0    0    0  501  0.00000000000E+00  0.00000000000E+00  0.11371160469E+04  0.11371160469E+04  0.25500000920E-02 0. -1.
        2   -1    0    0  501    0  0.00000000000E+00  0.00000000000E+00 -0.22366341614E+04  0.22366341614E+04  0.25500000920E-02 0.  1.
    10030    2    1    2    0    0  0.00000000000E+00  0.00000000000E+00 -0.10995181146E+04  0.33737502083E+04  0.31895533204E+04 0.  0.
        3    1    3    3  502    0 -0.53975417298E+03  0.14938599749E+04 -0.70068925637E+03  0.17360638341E+04  0.10100000352E+00 0. -1.
       -3    1    3    3    0  502  0.53975417298E+03 -0.14938599749E+04 -0.39882885821E+03  0.16376863742E+04  0.10100000352E+00 0.  1.
</event>
<event>
 5   0  0.2466076E-06  0.3208132E+04  0.7818609E-02  0.8186673E-01
       -2   -1    0    0    0  501  0.00000000000E+00  0.00000000000E+00  0.97655296963E+03  0.97655296964E+03  0.25500000920E-02 0. -1.
        2   -1    0    0  501    0  0.00000000000E+00  0.00000000000E+00 -0.26348067301E+04  0.26348067301E+04  0.25500000920E-02 0.  1.
    10030    2    1    2    0    0  0.00000000000E+00  0.00000000000E+00 -0.16582537604E+04  0.36113596997E+04  0.32081323767E+04 0.  0.
        3    1    3    3  502    0 -0.13055357479E+04 -0.42871406477E+03  0.10241673377E+03  0.13779363324E+04  0.10100000352E+00 0. -1.
       -3    1    3    3    0  502  0.13055357479E+04  0.42871406477E+03 -0.17606704942E+04  0.22334233674E+04  0.10100000352E+00 0.  1.
</event>
<event>
 5   0  0.8545153E-07  0.3185239E+04  0.7818609E-02  0.8192726E-01
        1   -1    0    0  501    0  0.00000000000E+00  0.00000000000E+00  0.15326142084E+04  0.15326142085E+04  0.50400001928E-02 0.  1.
       -1   -1    0    0    0  501  0.00000000000E+00  0.00000000000E+00 -0.16549742591E+04  0.16549742591E+04  0.50400001928E-02 0. -1.
    10030    2    1    2    0    0  0.00000000000E+00  0.00000000000E+00 -0.12236005064E+03  0.31875884675E+04  0.31852391208E+04 0.  0.
        3    1    3    3  502    0 -0.11043299617E+04  0.99997644958E+03  0.50220900042E+03  0.15721677564E+04  0.10100000352E+00 0.  1.
       -3    1    3    3    0  502  0.11043299617E+04 -0.99997644958E+03 -0.62456905106E+03  0.16154207111E+04  0.10100000352E+00 0. -1.
</event>
<event>
 5   0  0.2621528E-06  0.3227546E+04  0.7818609E-02  0.8181580E-01
       -2   -1    0    0    0  501  0.00000000000E+00  0.00000000000E+00  0.91033665214E+03  0.91033665215E+03  0.25500000920E-02 0.  1.
        2   -1    0    0  501    0  0.00000000000E+00  0.00000000000E+00 -0.28607689867E+04  0.28607689867E+04  0.25500000920E-02 0. -1.
    10030    2    1    2    0    0  0.00000000000E+00  0.00000000000E+00 -0.19504323345E+04  0.37711056388E+04  0.32275457313E+04 0.  0.
        2    1    3    3  502    0 -0.33168086481E+03 -0.14213162519E+04 -0.17069734734E+03  0.14694521661E+04  0.25500000920E-02 0.  1.
       -2    1    3    3    0  502  0.33168086481E+03  0.14213162519E+04 -0.17797349872E+04  0.23016534727E+04  0.25500000920E-02 0. -1.
</event>
<event>
 5   0  0.2404430E-06  0.3185196E+04  0.7818609E-02  0.8192738E-01
       -2   -1    0    0    0  501  0.00000000000E+00  0.00000000000E+00  0.10173800266E+04  0.10173800266E+04  0.25500000920E-02 0.  1.
        2   -1    0    0  501    0  0.00000000000E+00  0.00000000000E+00 -0.24930400124E+04  0.24930400124E+04  0.25500000920E-02 0. -1.
    10030    2    1    2    0    0  0.00000000000E+00  0.00000000000E+00 -0.14756599858E+04  0.35104200390E+04  0.31851964550E+04 0.  0.
        4    1    3    3  502    0 -0.31424103174E+03 -0.30665779342E+03 -0.24250155628E+04  0.24644448707E+04  0.12699999809E+01 0. -1.
       -4    1    3    3    0  502  0.31424103174E+03  0.30665779342E+03  0.94935557697E+03  0.10459751683E+04  0.12699999809E+01 0.  1.
</event>
<event>
 5   0  0.2404430E-06  0.3146264E+04  0.7818609E-02  0.8203155E-01
       -2   -1    0    0    0  501  0.00000000000E+00  0.00000000000E+00  0.19088278904E+04  0.19088278904E+04  0.25500000920E-02 0.  1.
        2   -1    0    0  501    0  0.00000000000E+00  0.00000000000E+00 -0.12964735877E+04  0.12964735877E+04  0.25500000920E-02 0. -1.
    10030    2    1    2    0    0  0.00000000000E+00  0.00000000000E+00  0.61235430267E+03  0.32053014782E+04  0.31462644158E+04 0.  0.
        4    1    3    3  502    0 -0.15080969375E+04 -0.10562414332E+03  0.74934600652E+03  0.16873155848E+04  0.12699999809E+01 0.  1.
       -4    1    3    3    0  502  0.15080969375E+04  0.10562414332E+03 -0.13699170385E+03  0.15179858933E+04  0.12699999809E+01 0. -1.
</event>
<event>
 5   0  0.8383008E-07  0.3229252E+04  0.7818609E-02  0.8181134E-01
       -1   -1    0    0    0  501  0.00000000000E+00  0.00000000000E+00  0.13187152638E+04  0.13187152638E+04  0.50400001928E-02 0.  1.
        1   -1    0    0  501    0  0.00000000000E+00  0.00000000000E+00 -0.19769367598E+04  0.19769367599E+04  0.50400001928E-02 0. -1.
    10030    2    1    2    0    0  0.00000000000E+00  0.00000000000E+00 -0.65822149603E+03  0.32956520237E+04  0.32292517281E+04 0.  0.
        4    1    3    3  502    0 -0.27941561439E+03 -0.90001128162E+03  0.10089243118E+04  0.13805880169E+04  0.12699999809E+01 0.  1.
       -4    1    3    3    0  502  0.27941561439E+03  0.90001128162E+03 -0.16671458078E+04  0.19150640068E+04  0.12699999809E+01 0. -1.
</event>
<event>
 5   0  0.8512855E-07  0.3133462E+04  0.7818609E-02  0.8206614E-01
        1   -1    0    0  501    0  0.00000000000E+00  0.00000000000E+00  0.20701996470E+04  0.20701996470E+04  0.50400001928E-02 0.  1.
       -1   -1    0    0    0  501  0.00000000000E+00  0.00000000000E+00 -0.11857048156E+04  0.11857048156E+04  0.50400001928E-02 0. -1.
    10030    2    1    2    0    0  0.00000000000E+00  0.00000000000E+00  0.88449483142E+03  0.32559044627E+04  0.31334617858E+04 0.  0.
        5    1    3    3  502    0 -0.92432428528E+03 -0.81436449507E+03 -0.56359662131E+03  0.13547059300E+04  0.46999998093E+01 0. -1.
       -5    1    3    3    0  502  0.92432428528E+03  0.81436449507E+03  0.14480914527E+04  0.19011985327E+04  0.46999998093E+01 0.  1.
</event>
<event>
 5   0  0.8681172E-07  0.3283878E+04  0.7818609E-02  0.8167010E-01
        1   -1    0    0  501    0  0.00000000000E+00  0.00000000000E+00  0.87645805863E+03  0.87645805865E+03  0.50400001928E-02 0.  1.
       -1   -1    0    0    0  501  0.00000000000E+00  0.00000000000E+00 -0.30759755396E+04  0.30759755396E+04  0.50400001928E-02 0. -1.
    10030    2    1    2    0    0  0.00000000000E+00  0.00000000000E+00 -0.21995174810E+04  0.39524335983E+04  0.32838779209E+04 0.  0.
        1    1    3    3  502    0  0.13511265070E+04 -0.25529915966E+03 -0.21798018028E+04  0.25772575343E+04  0.50400001928E-02 0.  1.
       -1    1    3    3    0  502 -0.13511265070E+04  0.25529915966E+03 -0.19715678169E+02  0.13751760639E+04  0.50400001928E-02 0. -1.
</event>
<event>
 5   0  0.8383008E-07  0.3191807E+04  0.7818609E-02  0.8190984E-01
       -1   -1    0    0    0  501  0.00000000000E+00  0.00000000000E+00  0.12222303046E+04  0.12222303046E+04  0.50400001928E-02 0.  1.
        1   -1    0    0  501    0  0.00000000000E+00  0.00000000000E+00 -0.20838201513E+04  0.20838201513E+04  0.50400001928E-02 0. -1.
    10030    2    1    2    0    0  0.00000000000E+00  0.00000000000E+00 -0.86158984669E+03  0.33060504559E+04  0.31918070984E+04 0.  0.
        4    1    3    3  502    0 -0.19466439591E+03  0.15775655379E+04 -0.28321982761E+03  0.16145656806E+04  0.12699999809E+01 0. -1.
       -4    1    3    3    0  502  0.19466439591E+03 -0.15775655379E+04 -0.57837001909E+03  0.16914847753E+04  0.12699999809E+01 0.  1.
</event>
<event>
 5   0  0.8681172E-07  0.3157774E+04  0.7818609E-02  0.8200059E-01
       -1   -1    0    0    0  501  0.00000000000E+00  0.00000000000E+00  0.10963982257E+04  0.10963982257E+04  0.50400001928E-02 0. -1.
        1   -1    0    0  501    0  0.00000000000E+00  0.00000000000E+00 -0.22737034083E+04  0.22737034083E+04  0.50400001928E-02 0.  1.
    10030    2    1    2    0    0  0.00000000000E+00  0.00000000000E+00 -0.11773051826E+04  0.33701016340E+04  0.31577741418E+04 0.  0.
        1    1    3    3  502    0 -0.11431073580E+04 -0.87571453409E+03  0.10243265030E+03  0.14436283542E+04  0.50400001928E-02 0. -1.
       -1    1    3    3    0  502  0.11431073580E+04  0.87571453409E+03 -0.12797378329E+04  0.19264732799E+04  0.50400001928E-02 0.  1.
</event>
<event>
 5   0  0.2621528E-06  0.3162902E+04  0.7818609E-02  0.8198684E-01
       -2   -1    0    0    0  501  0.00000000000E+00  0.00000000000E+00  0.10087766073E+04  0.10087766073E+04  0.25500000920E-02 0.  1.
        2   -1    0    0  501    0  0.00000000000E+00  0.00000000000E+00 -0.24792284756E+04  0.24792284756E+04  0.25500000920E-02 0. -1.
    10030    2    1    2    0    0  0.00000000000E+00  0.00000000000E+00 -0.14704518683E+04  0.34880050828E+04  0.31629022686E+04 0.  0.
        2    1    3    3  502    0  0.34789906241E+03  0.12283358519E+04  0.29406121947E+03  0.13100819530E+04  0.25500000920E-02 0.  1.
       -2    1    3    3    0  502 -0.34789906241E+03 -0.12283358519E+04 -0.17645130878E+04  0.21779231299E+04  0.25500000920E-02 0. -1.
</event>
<event>
 5   0  0.8383008E-07  0.3356104E+04  0.7818609E-02  0.8148765E-01
        1   -1    0    0  501    0  0.00000000000E+00  0.00000000000E+00  0.20286778222E+04  0.20286778222E+04  0.50400001928E-02 0.  1.
       -1   -1    0    0    0  501  0.00000000000E+00  0.00000000000E+00 -0.13880267471E+04  0.13880267471E+04  0.50400001928E-02 0. -1.
    10030    2    1    2    0    0  0.00000000000E+00  0.00000000000E+00  0.64065107514E+03  0.34167045693E+04  0.33561043360E+04 0.  0.
        4    1    3    3  502    0  0.16532647065E+04  0.28369726997E+03  0.27379316562E+03  0.16996272066E+04  0.12699999809E+01 0.  1.
       -4    1    3    3    0  502 -0.16532647065E+04 -0.28369726997E+03  0.36685790952E+03  0.17170773627E+04  0.12699999809E+01 0. -1.
</event>
<event>
 5   0  0.2404430E-06  0.3355057E+04  0.7818609E-02  0.8149026E-01
        2   -1    0    0  501    0  0.00000000000E+00  0.00000000000E+00  0.23038171773E+04  0.23038171773E+04  0.25500000920E-02 0.  1.
       -2   -1    0    0    0  501  0.00000000000E+00  0.00000000000E+00 -0.12214949461E+04  0.12214949461E+04  0.25500000920E-02 0. -1.
    10030    2    1    2    0    0  0.00000000000E+00  0.00000000000E+00  0.10823222312E+04  0.35253121234E+04  0.33550565055E+04 0.  0.
        4    1    3    3  502    0 -0.93170231867E+03  0.50736172255E+03 -0.82424853064E+03  0.13434553886E+04  0.12699999809E+01 0. -1.
       -4    1    3    3    0  502  0.93170231867E+03 -0.50736172255E+03  0.19065707618E+04  0.21818567347E+04  0.12699999809E+01 0.  1.
</event>
<event>
 5   0  0.8681172E-07  0.3195990E+04  0.7818609E-02  0.8189877E-01
        1   -1    0    0  501    0  0.00000000000E+00  0.00000000000E+00  0.80262181009E+03  0.80262181011E+03  0.50400001928E-02 0. -1.
       -1   -1    0    0    0  501  0.00000000000E+00  0.00000000000E+00 -0.31815575402E+04  0.31815575402E+04  0.50400001928E-02 0.  1.
    10030    2    1    2    0    0  0.00000000000E+00  0.00000000000E+00 -0.23789357301E+04  0.39841793503E+04  0.31959896570E+04 0.  0.
        1    1    3    3  502    0  0.34353049178E+03 -0.94041870392E+03 -0.27420893232E+04  0.29191530268E+04  0.50400001928E-02 0.  1.
       -1    1    3    3    0  502 -0.34353049178E+03  0.94041870392E+03  0.36315359313E+03  0.10650263235E+04  0.50400001928E-02 0. -1.
</event>
<event>
 5   0  0.8545153E-07  0.3194952E+04  0.7818609E-02  0.8190152E-01
       -1   -1    0    0    0  501  0.00000000000E+00  0.00000000000E+00  0.16536255582E+04  0.16536255582E+04  0.50400001928E-02 0.  1.
        1   -1    0    0  501    0  0.00000000000E+00  0.00000000000E+00 -0.15432327069E+04  0.15432327069E+04  0.50400001928E-02 0. -1.
    10030    2    1    2    0    0  0.00000000000E+00  0.00000000000E+00  0.11039285133E+03  0.31968582652E+04  0.31949516719E+04 0.  0.
        3    1    3    3  502    0 -0.29012165389E+02  0.15964988025E+04  0.10296278328E+03  0.16000785846E+04  0.10100000352E+00 0. -1.
       -3    1    3    3    0  502  0.29012165389E+02 -0.15964988025E+04  0.74300680500E+01  0.15967796805E+04  0.10100000352E+00 0.  1.
</event>
<event>
 5   0  0.2621528E-06  0.3166643E+04  0.7818609E-02  0.8197683E-01
        2   -1    0    0  501    0  0.00000000000E+00  0.00000000000E+00  0.17757384624E+04  0.17757384624E+04  0.25500000920E-02 0. -1.
       -2   -1    0    0    0  501  0.00000000000E+00  0.00000000000E+00 -0.14117546702E+04  0.14117546702E+04  0.25500000920E-02 0.  1.
    10030    2    1    2    0    0  0.00000000000E+00  0.00000000000E+00  0.36398379219E+03  0.31874931325E+04  0.31666430599E+04 0.  0.
        2    1    3    3  502    0  0.14848912162E+03 -0.12083609128E+04  0.12009425792E+04  0.17101018079E+04  0.25500000920E-02 0. -1.
       -2    1    3    3    0  502 -0.14848912162E+03  0.12083609128E+04 -0.83695878701E+03  0.14773913246E+04  0.25500000920E-02 0.  1.
</event>
<event>
 5   0  0.2337504E-06  0.3221442E+04  0.7818609E-02  0.8183177E-01
       -2   -1    0    0    0  501  0.00000000000E+00  0.00000000000E+00  0.12413319339E+04  0.12413319339E+04  0.25500000920E-02 0. -1.
        2   -1    0    0  501    0  0.00000000000E+00  0.00000000000E+00 -0.20900305526E+04  0.20900305526E+04  0.25500000920E-02 0.  1.
    10030    2    1    2    0    0  0.00000000000E+00  0.00000000000E+00 -0.84869861873E+03  0.33313624865E+04  0.32214417069E+04 0.  0.
        1    1    3    3  502    0 -0.10258702371E+04  0.99539953924E+03  0.34340619940E+03  0.14700876858E+04  0.50400001928E-02 0. -1.
       -1    1    3    3    0  502  0.10258702371E+04 -0.99539953924E+03 -0.11921048181E+04  0.18612748007E+04  0.50400001928E-02 0.  1.
</event>
<event>
 5   0  0.2401139E-06  0.3111280E+04  0.7818609E-02  0.8212649E-01
        2   -1    0    0  501    0  0.00000000000E+00  0.00000000000E+00  0.94792762509E+03  0.94792762510E+03  0.25500000920E-02 0. -1.
       -2   -1    0    0    0  501  0.00000000000E+00  0.00000000000E+00 -0.25529548820E+04  0.25529548820E+04  0.25500000920E-02 0.  1.
    10030    2    1    2    0    0  0.00000000000E+00  0.00000000000E+00 -0.16050272569E+04  0.35008825071E+04  0.31112804170E+04 0.  0.
        5    1    3    3  502    0 -0.10978395455E+03 -0.10587259724E+04  0.47402687585E+03  0.11651938767E+04  0.46999998093E+01 0. -1.
       -5    1    3    3    0  502  0.10978395455E+03  0.10587259724E+04 -0.20790541327E+04  0.23356886304E+04  0.46999998093E+01 0.  1.
</event>
<event>
 5   0  0.8383008E-07  0.3119373E+04  0.7818609E-02  0.8210441E-01
        1   -1    0    0  501    0  0.00000000000E+00  0.00000000000E+00  0.20325190830E+04  0.20325190830E+04  0.50400001928E-02 0.  1.
       -1   -1    0    0    0  501  0.00000000000E+00  0.00000000000E+00 -0.11968510095E+04  0.11968510095E+04  0.50400001928E-02 0. -1.
    10030    2    1    2    0    0  0.00000000000E+00  0.00000000000E+00  0.83566807354E+03  0.32293700925E+04  0.31193733449E+04 0.  0.
        4    1    3    3  502    0 -0.12545792233E+04  0.10901667930E+03 -0.53481401965E+03  0.13681671362E+04  0.12699999809E+01 0. -1.
       -4    1    3    3    0  502  0.12545792233E+04 -0.10901667930E+03  0.13704820932E+04  0.18612029563E+04  0.12699999809E+01 0.  1.
</event>
<event>
 5   0  0.8681172E-07  0.3208581E+04  0.7818609E-02  0.8186555E-01
       -1   -1    0    0    0  501  0.00000000000E+00  0.00000000000E+00  0.13724154639E+04  0.13724154640E+04  0.50400001928E-02 0. -1.
        1   -1    0    0  501    0  0.00000000000E+00  0.00000000000E+00 -0.18753415716E+04  0.18753415716E+04  0.50400001928E-02 0.  1.
    10030    2    1    2    0    0  0.00000000000E+00  0.00000000000E+00 -0.50292610761E+03  0.32477570355E+04  0.32085808533E+04 0.  0.
        1    1    3    3  502    0 -0.43929512021E+03  0.13501380920E+04  0.50458023663E+03  0.15068026697E+04  0.50400001928E-02 0. -1.
       -1    1    3    3    0  502  0.43929512021E+03 -0.13501380920E+04 -0.10075063442E+04  0.17409543658E+04  0.50400001928E-02 0.  1.
</event>
<event>
 5   0  0.8512855E-07  0.3246093E+04  0.7818609E-02  0.8176749E-01
        1   -1    0    0  501    0  0.00000000000E+00  0.00000000000E+00  0.13145628629E+04  0.13145628629E+04  0.50400001928E-02 0. -1.
       -1   -1    0    0    0  501  0.00000000000E+00  0.00000000000E+00 -0.20039211680E+04  0.20039211680E+04  0.50400001928E-02 0.  1.
    10030    2    1    2    0    0  0.00000000000E+00  0.00000000000E+00 -0.68935830507E+03  0.33184840309E+04  0.32460932504E+04 0.  0.
        5    1    3    3  502    0 -0.13076681578E+04 -0.95272532681E+03 -0.47630093150E+03  0.16865841890E+04  0.46999998093E+01 0.  1.
       -5    1    3    3    0  502  0.13076681578E+04  0.95272532681E+03 -0.21305737357E+03  0.16318998418E+04  0.46999998093E+01 0. -1.
</event>
<event>
 5   0  0.2466076E-06  0.3194639E+04  0.7818609E-02  0.8190234E-01
       -2   -1    0    0    0  501  0.00000000000E+00  0.00000000000E+00  0.14515996784E+04  0.14515996784E+04  0.25500000920E-02 0. -1.
        2   -1    0    0  501    0  0.00000000000E+00  0.00000000000E+00 -0.17576679110E+04  0.17576679110E+04  0.25500000920E-02 0.  1.
    10030    2    1    2    0    0  0.00000000000E+00  0.00000000000E+00 -0.30606823257E+03  0.32092675895E+04  0.31946393690E+04 0.  0.
        3    1    3    3  502    0 -0.14501347894E+04 -0.18595657542E+03  0.49330876495E+03  0.15429919971E+04  0.10100000352E+00 0. -1.
       -3    1    3    3    0  502  0.14501347894E+04  0.18595657542E+03 -0.79937699751E+03  0.16662755924E+04  0.10100000352E+00 0.  1.
</event>
<event>
 5   0  0.2621528E-06  0.3222304E+04  0.7818609E-02  0.8182951E-01
       -2   -1    0    0    0  501  0.00000000000E+00  0.00000000000E+00  0.12640513954E+04  0.12640513954E+04  0.25500000920E-02 0.  1.
        2   -1    0    0  501    0  0.00000000000E+00  0.00000000000E+00 -0.20535645825E+04  0.20535645825E+04  0.25500000920E-02 0. -1.
    10030    2    1    2    0    0  0.00000000000E+00  0.00000000000E+00 -0.78951318713E+03  0.33176159779E+04  0.32223042538E+04 0.  0.
        2    1    3    3  502    0  0.87496805447E+03  0.98922106991E+03  0.55540779858E+03  0.14326916082E+04  0.25500000920E-02 0.  1.
       -2    1    3    3    0  502 -0.87496805447E+03 -0.98922106991E+03 -0.13449209857E+04  0.18849243697E+04  0.25500000920E-02 0. -1.
</event>
<event>
 5   0  0.8487944E-07  0.3210782E+04  0.7818609E-02  0.8185975E-01
       -1   -1    0    0    0  501  0.00000000000E+00  0.00000000000E+00  0.91147237056E+03  0.91147237057E+03  0.50400001928E-02 0.  1.
        1   -1    0    0  501    0  0.00000000000E+00  0.00000000000E+00 -0.28276010650E+04  0.28276010650E+04  0.50400001928E-02 0. -1.
    10030    2    1    2    0    0  0.00000000000E+00  0.00000000000E+00 -0.19161286944E+04  0.37390734356E+04  0.32107819893E+04 0.  0.
        2    1    3    3  502    0 -0.33478412149E+03 -0.91964100867E+03 -0.24400306317E+04  0.26289863972E+04  0.25500000920E-02 0. -1.
       -2    1    3    3    0  502  0.33478412149E+03  0.91964100867E+03  0.52390193731E+03  0.11100870384E+04  0.25500000920E-02 0.  1.
</event>
<event>
 5   0  0.8487944E-07  0.3134061E+04  0.7818609E-02  0.8206452E-01
        1   -1    0    0  501    0  0.00000000000E+00  0.00000000000E+00  0.19417189713E+04  0.19417189713E+04  0.50400001928E-02 0. -1.
       -1   -1    0    0    0  501  0.00000000000E+00  0.00000000000E+00 -0.12646449575E+04  0.12646449575E+04  0.50400001928E-02 0.  1.
    10030    2    1    2    0    0  0.00000000000E+00  0.00000000000E+00  0.67707401375E+03  0.32063639288E+04  0.31340613306E+04 0.  0.
        2    1    3    3  502    0 -0.85534883925E+03 -0.16956994334E+02  0.16817136516E+04  0.18868147716E+04  0.25500000920E-02 0. -1.
       -2    1    3    3    0  502  0.85534883925E+03  0.16956994334E+02 -0.10046396378E+04  0.13195491572E+04  0.25500000920E-02 0.  1.
</event>
<event>
 5   0  0.2337504E-06  0.3189681E+04  0.7818609E-02  0.8191548E-01
        2   -1    0    0  501    0  0.00000000000E+00  0.00000000000E+00  0.28597011150E+04  0.28597011150E+04  0.25500000920E-02 0. -1.
       -2   -1    0    0    0  501  0.00000000000E+00  0.00000000000E+00 -0.88943440137E+03  0.88943440137E+03  0.25500000920E-02 0.  1.
    10030    2    1    2    0    0  0.00000000000E+00  0.00000000000E+00  0.19702667136E+04  0.37491355163E+04  0.31896812062E+04 0.  0.
        1    1    3    3  502    0  0.43145246062E+03 -0.60467235877E+03 -0.67368876331E+03  0.10028142585E+04  0.50400001928E-02 0.  1.
       -1    1    3    3    0  502 -0.43145246062E+03  0.60467235877E+03  0.26439554769E+04  0.27463212578E+04  0.50400001928E-02 0. -1.
</event>
<event>
 5   0  0.8545153E-07  0.3176717E+04  0.7818609E-02  0.8194993E-01
        1   -1    0    0  501    0  0.00000000000E+00  0.00000000000E+00  0.94787069441E+03  0.94787069442E+03  0.50400001928E-02 0.  1.
       -1   -1    0    0    0  501  0.00000000000E+00  0.00000000000E+00 -0.26616318060E+04  0.26616318060E+04  0.50400001928E-02 0. -1.
    10030    2    1    2    0    0  0.00000000000E+00  0.00000000000E+00 -0.17137611116E+04  0.36095025005E+04  0.31767170401E+04 0.  0.
        3    1    3    3  502    0  0.68018047744E+03 -0.91857279327E+03  0.39631246161E+03  0.12097458559E+04  0.10100000352E+00 0.  1.
       -3    1    3    3    0  502 -0.68018047744E+03  0.91857279327E+03 -0.21100735732E+04  0.23997566446E+04  0.10100000352E+00 0. -1.
</event>
<event>
 5   0  0.2337504E-06  0.3182535E+04  0.7818609E-02  0.8193445E-01
       -2   -1    0    0    0  501  0.00000000000E+00  0.00000000000E+00  0.83505977819E+03  0.83505977819E+03  0.25500000920E-02 0. -1.
        2   -1    0    0  501    0  0.00000000000E+00  0.00000000000E+00 -0.30322766140E+04  0.30322766140E+04  0.25500000920E-02 0.  1.
    10030    2    1    2    0    0  0.00000000000E+00  0.00000000000E+00 -0.21972168358E+04  0.38673363922E+04  0.31825349875E+04 0.  0.
        1    1    3    3  502    0  0.10518907117E+04 -0.14378529483E+02 -0.25494332303E+04  0.27579504359E+04  0.50400001928E-02 0.  1.
       -1    1    3    3    0  502 -0.10518907117E+04  0.14378529483E+02  0.35221639447E+03  0.11093859563E+04  0.50400001928E-02 0. -1.
</event>
<event>
 5   0  0.8487944E-07  0.3139798E+04  0.7818609E-02  0.8204900E-01
        1   -1    0    0  501    0  0.00000000000E+00  0.00000000000E+00  0.17613819681E+04  0.17613819681E+04  0.50400001928E-02 0. -1.
       -1   -1    0    0    0  501  0.00000000000E+00  0.00000000000E+00 -0.13992328215E+04  0.13992328215E+04  0.50400001928E-02 0.  1.
    10030    2    1    2    0    0  0.00000000000E+00  0.00000000000E+00  0.36214914655E+03  0.31606147896E+04  0.31397983763E+04 0.  0.
        2    1    3    3  502    0 -0.11349388286E+04 -0.99927800446E+03 -0.24355238225E+03  0.15316528450E+04  0.25500000920E-02 0.  1.
       -2    1    3    3    0  502  0.11349388286E+04  0.99927800446E+03  0.60570152880E+03  0.16289619446E+04  0.25500000920E-02 0. -1.
</event>
<event>
 5   0  0.8383008E-07  0.3168461E+04  0.7818609E-02  0.8197197E-01
        1   -1    0    0  501    0  0.00000000000E+00  0.00000000000E+00  0.21532508095E+04  0.21532508095E+04  0.50400001928E-02 0.  1.
       -1   -1    0    0    0  501  0.00000000000E+00  0.00000000000E+00 -0.11655799185E+04  0.11655799185E+04  0.50400001928E-02 0. -1.
    10030    2    1    2    0    0  0.00000000000E+00  0.00000000000E+00  0.98767089101E+03  0.33188307280E+04  0.31684607639E+04 0.  0.
        4    1    3    3  502    0  0.51463260980E+03 -0.12094981534E+04 -0.43247065543E+03  0.13837503340E+04  0.12699999809E+01 0. -1.
       -4    1    3    3    0  502 -0.51463260980E+03  0.12094981534E+04  0.14201415464E+04  0.19350803940E+04  0.12699999809E+01 0.  1.
</event>
<event>
 5   0  0.2404430E-06  0.3216317E+04  0.7818609E-02  0.8184521E-01
       -2   -1    0    0    0  501  0.00000000000E+00  0.00000000000E+00  0.10685470714E+04  0.10685470714E+04  0.25500000920E-02 0. -1.
        2   -1    0    0  501    0  0.00000000000E+00  0.00000000000E+00 -0.24202706854E+04  0.24202706854E+04  0.25500000920E-02 0.  1.
    10030    2    1    2    0    0  0.00000000000E+00  0.00000000000E+00 -0.13517236140E+04  0.34888177568E+04  0.32163166218E+04 0.  0.
        4    1    3    3  502    0 -0.95941919712E+03 -0.99457159366E+03 -0.15680526949E+04  0.20900834236E+04  0.12699999809E+01 0.  1.
       -4    1    3    3    0  502  0.95941919712E+03  0.99457159366E+03  0.21632908088E+03  0.13987343332E+04  0.12699999809E+01 0. -1.
</event>
<event>
 5   0  0.2621528E-06  0.3175519E+04  0.7818609E-02  0.8195313E-01
        2   -1    0    0  501    0  0.00000000000E+00  0.00000000000E+00  0.24995445390E+04  0.24995445390E+04  0.25500000920E-02 0.  1.
       -2   -1    0    0    0  501  0.00000000000E+00  0.00000000000E+00 -0.10085758189E+04  0.10085758189E+04  0.25500000920E-02 0. -1.
    10030    2    1    2    0    0  0.00000000000E+00  0.00000000000E+00  0.14909687201E+04  0.35081203579E+04  0.31755189688E+04 0.  0.
        2    1    3    3  502    0  0.13388220492E+04 -0.45713251925E+03  0.15417902934E+04  0.20924941884E+04  0.25500000920E-02 0.  1.
       -2    1    3    3    0  502 -0.13388220492E+04  0.45713251925E+03 -0.50821573310E+02  0.14156261695E+04  0.25500000920E-02 0. -1.
</event>
<event>
 5   0  0.8512855E-07  0.3042104E+04  0.7818609E-02  0.8231809E-01
       -1   -1    0    0    0  501  0.00000000000E+00  0.00000000000E+00  0.10172134367E+04  0.10172134367E+04  0.50400001928E-02 0.  1.
        1   -1    0    0  501    0  0.00000000000E+00  0.00000000000E+00 -0.22744478771E+04  0.22744478771E+04  0.50400001928E-02 0. -1.
    10030    2    1    2    0    0  0.00000000000E+00  0.00000000000E+00 -0.12572344403E+04  0.32916613138E+04  0.30421038390E+04 0.  0.
        5    1    3    3  502    0 -0.44914467853E+03  0.14399656239E+03 -0.21933120302E+04  0.22434584249E+04  0.46999998093E+01 0. -1.
       -5    1    3    3    0  502  0.44914467853E+03 -0.14399656239E+03  0.93607758986E+03  0.10482028890E+04  0.46999998093E+01 0.  1.
</event>
<event>
 5   0  0.2401139E-06  0.3229250E+04  0.7818609E-02  0.8181135E-01
        2   -1    0    0  501    0  0.00000000000E+00  0.00000000000E+00  0.24748744038E+04  0.24748744038E+04  0.25500000920E-02 0. -1.
       -2   -1    0    0    0  501  0.00000000000E+00  0.00000000000E+00 -0.10533924410E+04  0.10533924410E+04  0.25500000920E-02 0.  1.
    10030    2    1    2    0    0  0.00000000000E+00  0.00000000000E+00  0.14214819628E+04  0.35282668448E+04  0.32292500612E+04 0.  0.
        5    1    3    3  502    0 -0.65308082850E+03 -0.19021590564E+03  0.23106748720E+04  0.24087210535E+04  0.46999998093E+01 0. -1.
       -5    1    3    3    0  502  0.65308082850E+03  0.19021590564E+03 -0.88919290916E+03  0.11195457914E+04  0.46999998093E+01 0.  1.
</event>
<event>
 5   0  0.2621528E-06  0.3178034E+04  0.7818609E-02  0.8194643E-01
        2   -1    0    0  501    0  0.00000000000E+00  0.00000000000E+00  0.18303610468E+04  0.18303610468E+04  0.25500000920E-02 0.  1.
       -2   -1    0    0    0  501  0.00000000000E+00  0.00000000000E+00 -0.13794953930E+04  0.13794953930E+04  0.25500000920E-02 0. -1.
    10030    2    1    2    0    0  0.00000000000E+00  0.00000000000E+00  0.45086565374E+03  0.32098564398E+04  0.31780337516E+04 0.  0.
        2    1    3    3  502    0  0.20200312504E+03  0.11841695589E+04 -0.82513243827E+03  0.14573628057E+04  0.25500000920E-02 0. -1.
       -2    1    3    3    0  502 -0.20200312504E+03 -0.11841695589E+04  0.12759980920E+04  0.17524936341E+04  0.25500000920E-02 0.  1.
</event>
<event>
 5   0  0.7934375E-07  0.3207191E+04  0.7818609E-02  0.8186921E-01
        4   -1    0    0  501    0  0.00000000000E+00  0.00000000000E+00  0.18470987098E+04  0.18470991464E+04  0.12699999809E+01 0. -1.
       -4   -1    0    0    0  501  0.00000000000E+00  0.00000000000E+00 -0.13921920441E+04  0.13921926233E+04  0.12699999809E+01 0.  1.
    10030    2    1    2    0    0  0.00000000000E+00  0.00000000000E+00  0.45490666571E+03  0.32392917697E+04  0.32071905298E+04 0.  0.
        4    1    3    3  502    0 -0.12389809322E+04  0.62199921022E+03 -0.58656603917E+03  0.15053298971E+04  0.12699999809E+01 0.  1.
       -4    1    3    3    0  502  0.12389809322E+04 -0.62199921022E+03  0.10414727049E+04  0.17339618726E+04  0.12699999809E+01 0. -1.
</event>
<event>
 5   0  0.8545153E-07  0.3223049E+04  0.7818609E-02  0.8182756E-01
       -1   -1    0    0    0  501  0.00000000000E+00  0.00000000000E+00  0.16548990925E+04  0.16548990925E+04  0.50400001928E-02 0. -1.
        1   -1    0    0  501    0  0.00000000000E+00  0.00000000000E+00 -0.15692863471E+04  0.15692863471E+04  0.50400001928E-02 0.  1.
    10030    2    1    2    0    0  0.00000000000E+00  0.00000000000E+00  0.85612745385E+02  0.32241854396E+04  0.32230485890E+04 0.  0.
        3    1    3    3  502    0 -0.87683443934E+03 -0.10374162598E+04  0.91025663691E+03  0.16351263821E+04  0.10100000352E+00 0. -1.
       -3    1    3    3    0  502  0.87683443934E+03  0.10374162598E+04 -0.82464389153E+03  0.15890590575E+04  0.10100000352E+00 0.  1.
</event>
<event>
 5   0  0.2337504E-06  0.3225298E+04  0.7818609E-02  0.8182168E-01
       -2   -1    0    0    0  501  0.00000000000E+00  0.00000000000E+00  0.27276922024E+04  0.27276922024E+04  0.25500000920E-02 0. -1.
        2   -1    0    0  501    0  0.00000000000E+00  0.00000000000E+00 -0.95342039360E+03  0.95342039361E+03  0.25500000920E-02 0.  1.
    10030    2    1    2    0    0  0.00000000000E+00  0.00000000000E+00  0.17742718088E+04  0.36811125960E+04  0.32252983572E+04 0.  0.
        1    1    3    3  502    0 -0.71089354929E+03  0.64871064605E+03 -0.58974097230E+03  0.11287114579E+04  0.50400001928E-02 0.  1.
       -1    1    3    3    0  502  0.71089354929E+03 -0.64871064605E+03  0.23640127811E+04  0.25524011382E+04  0.50400001928E-02 0. -1.
</event>
<event>
 5   0  0.8545153E-07  0.3242305E+04  0.7818609E-02  0.8177733E-01
        1   -1    0    0  501    0  0.00000000000E+00  0.00000000000E+00  0.20539541267E+04  0.20539541267E+04  0.50400001928E-02 0. -1.
       -1   -1    0    0    0  501  0.00000000000E+00  0.00000000000E+00 -0.12795495870E+04  0.12795495870E+04  0.50400001928E-02 0.  1.
    10030    2    1    2    0    0  0.00000000000E+00  0.00000000000E+00  0.77440453974E+03  0.33335037137E+04  0.32423054480E+04 0.  0.
        3    1    3    3  502    0 -0.13013945875E+04  0.88841836054E+03 -0.45954112510E+01  0.15757335383E+04  0.10100000352E+00 0.  1.
       -3    1    3    3    0  502  0.13013945875E+04 -0.88841836054E+03  0.77899995099E+03  0.17577701754E+04  0.10100000352E+00 0. -1.
</event>
<event>
 5   0  0.2621528E-06  0.2715676E+04  0.7818609E-02  0.8329936E-01
        2   -1    0    0  501    0  0.00000000000E+00  0.00000000000E+00  0.22920115734E+04  0.22920115734E+04  0.25500000920E-02 0.  1.
       -2   -1    0    0    0  501  0.00000000000E+00  0.00000000000E+00 -0.80441324641E+03  0.80441324641E+03  0.25500000920E-02 0. -1.
    10030    2    1    2    0    0  0.00000000000E+00  0.00000000000E+00  0.14875983270E+04  0.30964248198E+04  0.27156763213E+04 0.  0.
        2    1    3    3  502    0 -0.56140863000E+03  0.12227669700E+04  0.53546372411E+03  0.14481229619E+04  0.25500000920E-02 0. -1.
       -2    1    3    3    0  502  0.56140863000E+03 -0.12227669700E+04  0.95213460288E+03  0.16483018579E+04  0.25500000920E-02 0.  1.
</event>
<event>
 5   0  0.2466076E-06  0.3182768E+04  0.7818609E-02  0.8193383E-01
        2   -1    0    0  501    0  0.00000000000E+00  0.00000000000E+00  0.17583704517E+04  0.17583704517E+04  0.25500000920E-02 0. -1.
       -2   -1    0    0    0  501  0.00000000000E+00  0.00000000000E+00 -0.14402554058E+04  0.14402554058E+04  0.25500000920E-02 0.  1.
    10030    2    1    2    0    0  0.00000000000E+00  0.00000000000E+00  0.31811504594E+03  0.31986258575E+04  0.31827676940E+04 0.  0.
        3    1    3    3  502    0  0.51416398050E+03  0.13670698066E+04 -0.47595949073E+03  0.15361581631E+04  0.10100000352E+00 0.  1.
       -3    1    3    3    0  502 -0.51416398050E+03 -0.13670698066E+04  0.79407453667E+03  0.16624676944E+04  0.10100000352E+00 0. -1.
</event>
<event>
 5   0  0.2337504E-06  0.3143931E+04  0.7818609E-02  0.8203784E-01
       -2   -1    0    0    0  501  0.00000000000E+00  0.00000000000E+00  0.11484914077E+04  0.11484914077E+04  0.25500000920E-02 0.  1.
        2   -1    0    0  501    0  0.00000000000E+00  0.00000000000E+00 -0.21515843649E+04  0.21515843649E+04  0.25500000920E-02 0. -1.
    10030    2    1    2    0    0  0.00000000000E+00  0.00000000000E+00 -0.10030929572E+04  0.33000757726E+04  0.31439313962E+04 0.  0.
        1    1    3    3  502    0 -0.31035945400E+02 -0.66749783383E+03 -0.19950839763E+04  0.21040144154E+04  0.50400001928E-02 0. -1.
       -1    1    3    3    0  502  0.31035945400E+02  0.66749783383E+03  0.99199101905E+03  0.11960613571E+04  0.50400001928E-02 0.  1.
</event>
<event>
 5   0  0.2401139E-06  0.3204031E+04  0.7818609E-02  0.8187753E-01
        2   -1    0    0  501    0  0.00000000000E+00  0.00000000000E+00  0.12638017806E+04  0.12638017806E+04  0.25500000920E-02 0. -1.
       -2   -1    0    0    0  501  0.00000000000E+00  0.00000000000E+00 -0.20307407985E+04  0.20307407985E+04  0.25500000920E-02 0.  1.
    10030    2    1    2    0    0  0.00000000000E+00  0.00000000000E+00 -0.76693901788E+03  0.32945425792E+04  0.32040311092E+04 0.  0.
        5    1    3    3  502    0 -0.75805625911E+03  0.13487804158E+03 -0.18280006516E+04  0.19835447689E+04  0.46999998093E+01 0.  1.
       -5    1    3    3    0  502  0.75805625911E+03 -0.13487804158E+03  0.10610616337E+04  0.13109978103E+04  0.46999998093E+01 0. -1.
</event>
<event>
 5   0  0.8383008E-07  0.3218642E+04  0.7818609E-02  0.8183911E-01
       -1   -1    0    0    0  501  0.00000000000E+00  0.00000000000E+00  0.10119134922E+04  0.10119134922E+04  0.50400001928E-02 0. -1.
        1   -1    0    0  501    0  0.00000000000E+00  0.00000000000E+00 -0.25594218371E+04  0.25594218371E+04  0.50400001928E-02 0.  1.
    10030    2    1    2    0    0  0.00000000000E+00  0.00000000000E+00 -0.15475083449E+04  0.35713353293E+04  0.32186416322E+04 0.  0.
        4    1    3    3  502    0 -0.53552367300E+03 -0.71365007430E+03  0.71234785972E+03  0.11417193697E+04  0.12699999809E+01 0. -1.
       -4    1    3    3    0  502  0.53552367300E+03  0.71365007430E+03 -0.22598562046E+04  0.24296159596E+04  0.12699999809E+01 0.  1.
</event>
<event>
 5   0  0.8512855E-07  0.2861020E+04  0.7818609E-02  0.8284570E-01
       -1   -1    0    0    0  501  0.00000000000E+00  0.00000000000E+00  0.15419829358E+04  0.15419829358E+04  0.50400001928E-02 0.  1.
        1   -1    0    0  501    0  0.00000000000E+00  0.00000000000E+00 -0.13270958179E+04  0.13270958179E+04  0.50400001928E-02 0. -1.
    10030    2    1    2    0    0  0.00000000000E+00  0.00000000000E+00  0.21488711791E+03  0.28690787536E+04  0.28610201714E+04 0.  0.
        5    1    3    3  502    0 -0.31557866071E+03 -0.13636769386E+04 -0.18856973595E+03  0.14123686909E+04  0.46999998093E+01 0. -1.
       -5    1    3    3    0  502  0.31557866071E+03  0.13636769386E+04  0.40345685385E+03  0.14567100627E+04  0.46999998093E+01 0.  1.
</event>
<event>
 5   0  0.2404430E-06  0.3190254E+04  0.7818609E-02  0.8191396E-01
       -2   -1    0    0    0  501  0.00000000000E+00  0.00000000000E+00  0.11956971686E+04  0.11956971686E+04  0.25500000920E-02 0.  1.
        2   -1    0    0  501    0  0.00000000000E+00  0.00000000000E+00 -0.21279888789E+04  0.21279888789E+04  0.25500000920E-02 0. -1.
    10030    2    1    2    0    0  0.00000000000E+00  0.00000000000E+00 -0.93229171028E+03  0.33236860475E+04  0.31902540822E+04 0.  0.
        4    1    3    3  502    0  0.13240302718E+04 -0.48548346474E+03  0.31047034056E+03  0.14440027010E+04  0.12699999809E+01 0.  1.
       -4    1    3    3    0  502 -0.13240302718E+04  0.48548346474E+03 -0.12427620508E+04  0.18796833465E+04  0.12699999809E+01 0. -1.
</event>
<event>
 5   0  0.8383008E-07  0.3171061E+04  0.7818609E-02  0.8196502E-01
       -1   -1    0    0    0  501  0.00000000000E+00  0.00000000000E+00  0.12184348914E+04  0.12184348914E+04  0.50400001928E-02 0.  1.
        1   -1    0    0  501    0  0.00000000000E+00  0.00000000000E+00 -0.20632267777E+04  0.20632267777E+04  0.50400001928E-02 0. -1.
    10030    2    1    2    0    0  0.00000000000E+00  0.00000000000E+00 -0.84479188627E+03  0.32816616691E+04  0.31710613332E+04 0.  0.
        4    1    3    3  502    0  0.29825527315E+03 -0.12859470398E+04  0.48646612898E+03  0.14068642098E+04  0.12699999809E+01 0.  1.
       -4    1    3    3    0  502 -0.29825527315E+03  0.12859470398E+04 -0.13312580152E+04  0.18747974593E+04  0.12699999809E+01 0. -1.
</event>
<event>
 5   0  0.8681172E-07  0.3211704E+04  0.7818609E-02  0.8185733E-01
        1   -1    0    0  501    0  0.00000000000E+00  0.00000000000E+00  0.25961202010E+04  0.25961202010E+04  0.50400001928E-02 0.  1.
       -1   -1    0    0    0  501  0.00000000000E+00  0.00000000000E+00 -0.99331335829E+03  0.99331335831E+03  0.50400001928E-02 0. -1.
    10030    2    1    2    0    0  0.00000000000E+00  0.00000000000E+00  0.16028068427E+04  0.35894335593E+04  0.32117041429E+04 0.  0.
        1    1    3    3  502    0  0.18583879785E+03 -0.10541892651E+04  0.21392299849E+04  0.23921028393E+04  0.50400001928E-02 0.  1.
       -1    1    3    3    0  502 -0.18583879785E+03  0.10541892651E+04 -0.53642314224E+03  0.11973307200E+04  0.50400001928E-02 0. -1.
</event>
<event>
 5   0  0.2337504E-06  0.3200086E+04  0.7818609E-02  0.8188794E-01
       -2   -1    0    0    0  501  0.00000000000E+00  0.00000000000E+00  0.12596032546E+04  0.12596032546E+04  0.25500000920E-02 0.  1.
        2   -1    0    0  501    0  0.00000000000E+00  0.00000000000E+00 -0.20324951378E+04  0.20324951378E+04  0.25500000920E-02 0. -1.
    10030    2    1    2    0    0  0.00000000000E+00  0.00000000000E+00 -0.77289188314E+03  0.32920983924E+04  0.32000859304E+04 0.  0.
        1    1    3    3  502    0 -0.70595065246E+03  0.14236029638E+04 -0.19363837115E+03  0.16007834148E+04  0.50400001928E-02 0.  1.
       -1    1    3    3    0  502  0.70595065246E+03 -0.14236029638E+04 -0.57925351200E+03  0.16913149776E+04  0.50400001928E-02 0. -1.
</event>
<event>
 5   0  0.8512855E-07  0.3147566E+04  0.7818609E-02  0.8202804E-01
       -1   -1    0    0    0  501  0.00000000000E+00  0.00000000000E+00  0.16461290616E+04  0.16461290617E+04  0.50400001928E-02 0. -1.
        1   -1    0    0  501    0  0.00000000000E+00  0.00000000000E+00 -0.15046164984E+04  0.15046164984E+04  0.50400001928E-02 0.  1.
    10030    2    1    2    0    0  0.00000000000E+00  0.00000000000E+00  0.14151256327E+03  0.31507455600E+04  0.31475660086E+04 0.  0.
        5    1    3    3  502    0 -0.14753041053E+03  0.14837193612E+04  0.57483471525E+03  0.15980129551E+04  0.46999998093E+01 0. -1.
       -5    1    3    3    0  502  0.14753041053E+03 -0.14837193612E+04 -0.43332215198E+03  0.15527326049E+04  0.46999998093E+01 0.  1.
</event>
<event>
 5   0  0.2404430E-06  0.3181799E+04  0.7818609E-02  0.8193641E-01
       -2   -1    0    0    0  501  0.00000000000E+00  0.00000000000E+00  0.15336095458E+04  0.15336095458E+04  0.25500000920E-02 0. -1.
        2   -1    0    0  501    0  0.00000000000E+00  0.00000000000E+00 -0.16503297487E+04  0.16503297487E+04  0.25500000920E-02 0.  1.
    10030    2    1    2    0    0  0.00000000000E+00  0.00000000000E+00 -0.11672020295E+03  0.31839392945E+04  0.31817991491E+04 0.  0.
        4    1    3    3  502    0  0.15933663608E+03  0.49982519578E+03  0.14445643809E+04  0.15368738573E+04  0.12699999809E+01 0. -1.
       -4    1    3    3    0  502 -0.15933663608E+03 -0.49982519578E+03 -0.15612845838E+04  0.16470654372E+04  0.12699999809E+01 0.  1.
</event>
<event>
 5   0  0.2337504E-06  0.3196198E+04  0.7818609E-02  0.8189822E-01
        2   -1    0    0  501    0  0.00000000000E+00  0.00000000000E+00  0.12503513744E+04  0.12503513744E+04  0.25500000920E-02 0.  1.
       -2   -1    0    0    0  501  0.00000000000E+00  0.00000000000E+00 -0.20425620348E+04  0.20425620348E+04  0.25500000920E-02 0. -1.
    10030    2    1    2    0    0  0.00000000000E+00  0.00000000000E+00 -0.79221066038E+03  0.32929134091E+04  0.31961978959E+04 0.  0.
        1    1    3    3  502    0  0.62011590678E+03  0.11421361970E+04  0.56203683714E+03  0.14159464102E+04  0.50400001928E-02 0.  1.
       -1    1    3    3    0  502 -0.62011590678E+03 -0.11421361970E+04 -0.13542474975E+04  0.18769669989E+04  0.50400001928E-02 0. -1.
</event>
<event>
 5   0  0.2466076E-06  0.2843232E+04  0.7818609E-02  0.8289971E-01
       -2   -1    0    0    0  501  0.00000000000E+00  0.00000000000E+00  0.12291292141E+04  0.12291292141E+04  0.25500000920E-02 0. -1.
        2   -1    0    0  501    0  0.00000000000E+00  0.00000000000E+00 -0.16442471700E+04  0.16442471700E+04  0.25500000920E-02 0.  1.
    10030    2    1    2    0    0  0.00000000000E+00  0.00000000000E+00 -0.41511795599E+03  0.28733763841E+04  0.28432321269E+04 0.  0.
        3    1    3    3  502    0 -0.29555448553E+03  0.13009860663E+04 -0.70375846251E+03  0.15083743509E+04  0.10100000352E+00 0.  1.
       -3    1    3    3    0  502  0.29555448553E+03 -0.13009860663E+04  0.28864050652E+03  0.13650020332E+04  0.10100000352E+00 0. -1.
</event>
<event>
 5   0  0.2621528E-06  0.3177557E+04  0.7818609E-02  0.8194770E-01
       -2   -1    0    0    0  501  0.00000000000E+00  0.00000000000E+00  0.97310469297E+03  0.97310469297E+03  0.25500000920E-02 0. -1.
        2   -1    0    0  501    0  0.00000000000E+00  0.00000000000E+00 -0.25939832773E+04  0.25939832773E+04  0.25500000920E-02 0.  1.
    10030    2    1    2    0    0  0.00000000000E+00  0.00000000000E+00 -0.16208785844E+04  0.35670879703E+04  0.31775571124E+04 0.  0.
        2    1    3    3  502    0 -0.12015506716E+04 -0.10104966638E+04 -0.53686435941E+03  0.16592320104E+04  0.25500000920E-02 0.  1.
       -2    1    3    3    0  502  0.12015506716E+04  0.10104966638E+04 -0.10840142250E+04  0.19078559599E+04  0.25500000920E-02 0. -1.
</event>
<event>
 5   0  0.2337504E-06  0.3199296E+04  0.7818609E-02  0.8189003E-01
        2   -1    0    0  501    0  0.00000000000E+00  0.00000000000E+00  0.25728792624E+04  0.25728792625E+04  0.25500000920E-02 0. -1.
       -2   -1    0    0    0  501  0.00000000000E+00  0.00000000000E+00 -0.99455627301E+03  0.99455627301E+03  0.25500000920E-02 0.  1.
    10030    2    1    2    0    0  0.00000000000E+00  0.00000000000E+00  0.15783229894E+04  0.35674355355E+04  0.31992956788E+04 0.  0.
        1    1    3    3  502    0  0.40596502827E+03  0.10470337250E+04  0.20594527092E+04  0.23457264732E+04  0.50400001928E-02 0. -1.
       -1    1    3    3    0  502 -0.40596502827E+03 -0.10470337250E+04 -0.48112971978E+03  0.12217090623E+04  0.50400001928E-02 0.  1.
</event>
<event>
 5   0  0.2401139E-06  0.3198202E+04  0.7818609E-02  0.8189292E-01
       -2   -1    0    0    0  501  0.00000000000E+00  0.00000000000E+00  0.20727596172E+04  0.20727596172E+04  0.25500000920E-02 0. -1.
        2   -1    0    0  501    0  0.00000000000E+00  0.00000000000E+00 -0.12336811286E+04  0.12336811286E+04  0.25500000920E-02 0.  1.
    10030    2    1    2    0    0  0.00000000000E+00  0.00000000000E+00  0.83907848854E+03  0.33064407458E+04  0.31982022600E+04 0.  0.
        5    1    3    3  502    0 -0.41491030261E+03 -0.15570805554E+03  0.20079976299E+04  0.20563249085E+04  0.46999998093E+01 0. -1.
       -5    1    3    3    0  502  0.41491030261E+03  0.15570805554E+03 -0.11689191413E+04  0.12501158373E+04  0.46999998093E+01 0.  1.
</event>
<event>
 5   0  0.2621528E-06  0.3189257E+04  0.7818609E-02  0.8191660E-01
        2   -1    0    0  501    0  0.00000000000E+00  0.00000000000E+00  0.17143670246E+04  0.17143670246E+04  0.25500000920E-02 0.  1.
       -2   -1    0    0    0  501  0.00000000000E+00  0.00000000000E+00 -0.14832528773E+04  0.14832528773E+04  0.25500000920E-02 0. -1.
    10030    2    1    2    0    0  0.00000000000E+00  0.00000000000E+00  0.23111414737E+03  0.31976199019E+04  0.31892568551E+04 0.  0.
        2    1    3    3  502    0 -0.27561983524E+03 -0.89527788723E+03 -0.11783117128E+04  0.15052930882E+04  0.25500000920E-02 0. -1.
       -2    1    3    3    0  502  0.27561983524E+03  0.89527788723E+03  0.14094258602E+04  0.16923268137E+04  0.25500000920E-02 0.  1.
</event>
<event>
 5   0  0.8545153E-07  0.3199937E+04  0.7818609E-02  0.8188834E-01
       -1   -1    0    0    0  501  0.00000000000E+00  0.00000000000E+00  0.17048882069E+04  0.17048882069E+04  0.50400001928E-02 0. -1.
        1   -1    0    0  501    0  0.00000000000E+00  0.00000000000E+00 -0.15015052593E+04  0.15015052593E+04  0.50400001928E-02 0.  1.
    10030    2    1    2    0    0  0.00000000000E+00  0.00000000000E+00  0.20338294757E+03  0.32063934662E+04  0.31999366301E+04 0.  0.
        3    1    3    3  502    0  0.66792411008E+03  0.87339808458E+03  0.12663412807E+04  0.16770709825E+04  0.10100000352E+00 0. -1.
       -3    1    3    3    0  502 -0.66792411008E+03 -0.87339808458E+03 -0.10629583331E+04  0.15293224837E+04  0.10100000352E+00 0.  1.
</event>
<event>
 5   0  0.8681172E-07  0.3174204E+04  0.7818609E-02  0.8195663E-01
       -1   -1    0    0    0  501  0.00000000000E+00  0.00000000000E+00  0.14725986368E+04  0.14725986368E+04  0.50400001928E-02 0.  1.
        1   -1    0    0  501    0  0.00000000000E+00  0.00000000000E+00 -0.17105088457E+04  0.17105088457E+04  0.50400001928E-02 0. -1.
    10030    2    1    2    0    0  0.00000000000E+00  0.00000000000E+00 -0.23791020888E+03  0.31831074825E+04  0.31742041488E+04 0.  0.
        1    1    3    3  502    0 -0.54837114057E+03 -0.63267793054E+03 -0.14710324301E+04  0.16926100206E+04  0.50400001928E-02 0. -1.
       -1    1    3    3    0  502  0.54837114057E+03  0.63267793054E+03  0.12331222212E+04  0.14904974619E+04  0.50400001928E-02 0.  1.
</event>
<event>
 5   0  0.2404430E-06  0.3202129E+04  0.7818609E-02  0.8188255E-01
        2   -1    0    0  501    0  0.00000000000E+00  0.00000000000E+00  0.25344052559E+04  0.25344052559E+04  0.25500000920E-02 0. -1.
       -2   -1    0    0    0  501  0.00000000000E+00  0.00000000000E+00 -0.10114433022E+04  0.10114433022E+04  0.25500000920E-02 0.  1.
    10030    2    1    2    0    0  0.00000000000E+00  0.00000000000E+00  0.15229619536E+04  0.35458485581E+04  0.32021288052E+04 0.  0.
        4    1    3    3  502    0 -0.15715474868E+04 -0.26985509242E+03  0.60169226696E+03  0.17042941270E+04  0.12699999809E+01 0.  1.
       -4    1    3    3    0  502  0.15715474868E+04  0.26985509242E+03  0.92126968667E+03  0.18415544311E+04  0.12699999809E+01 0. -1.
</event>
<event>
 5   0  0.2401139E-06  0.3209021E+04  0.7818609E-02  0.8186439E-01
        2   -1    0    0  501    0  0.00000000000E+00  0.00000000000E+00  0.19335083077E+04  0.19335083077E+04  0.25500000920E-02 0.  1.
       -2   -1    0    0    0  501  0.00000000000E+00  0.00000000000E+00 -0.13314940183E+04  0.13314940183E+04  0.25500000920E-02 0. -1.
    10030    2    1    2    0    0  0.00000000000E+00  0.00000000000E+00  0.60201428947E+03  0.32650023260E+04  0.32090214995E+04 0.  0.
        5    1    3    3  502    0  0.11169317221E+04  0.43015800044E+03 -0.78621265052E+03  0.14320351948E+04  0.46999998093E+01 0. -1.
       -5    1    3    3    0  502 -0.11169317221E+04 -0.43015800044E+03  0.13882269400E+04  0.18329671312E+04  0.46999998093E+01 0.  1.
</event>
<event>
 5   0  0.2401139E-06  0.3162433E+04  0.7818609E-02  0.8198810E-01
        2   -1    0    0  501    0  0.00000000000E+00  0.00000000000E+00  0.22839346696E+04  0.22839346696E+04  0.25500000920E-02 0.  1.
       -2   -1    0    0    0  501  0.00000000000E+00  0.00000000000E+00 -0.10947096414E+04  0.10947096414E+04  0.25500000920E-02 0. -1.
    10030    2    1    2    0    0  0.00000000000E+00  0.00000000000E+00  0.11892250282E+04  0.33786443111E+04  0.31624327998E+04 0.  0.
        5    1    3    3  502    0  0.65160660345E+03  0.11836651939E+04  0.14720865586E+04  0.19981780158E+04  0.46999998093E+01 0.  1.
       -5    1    3    3    0  502 -0.65160660345E+03 -0.11836651939E+04 -0.28286153041E+03  0.13804662953E+04  0.46999998093E+01 0. -1.
</event>
<event>
 5   0  0.8383008E-07  0.3199526E+04  0.7818609E-02  0.8188942E-01
        1   -1    0    0  501    0  0.00000000000E+00  0.00000000000E+00  0.14962587195E+04  0.14962587195E+04  0.50400001928E-02 0.  1.
       -1   -1    0    0    0  501  0.00000000000E+00  0.00000000000E+00 -0.17104274802E+04  0.17104274802E+04  0.50400001928E-02 0. -1.
    10030    2    1    2    0    0  0.00000000000E+00  0.00000000000E+00 -0.21416876075E+03  0.32066861997E+04  0.31995262345E+04 0.  0.
        4    1    3    3  502    0 -0.13813804316E+03  0.96179866872E+03  0.11666260747E+04  0.15182742865E+04  0.12699999809E+01 0.  1.
       -4    1    3    3    0  502  0.13813804316E+03 -0.96179866872E+03 -0.13807948354E+04  0.16884119132E+04  0.12699999809E+01 0. -1.
</event>
<event>
 5   0  0.8512855E-07  0.3233713E+04  0.7818609E-02  0.8179970E-01
        1   -1    0    0  501    0  0.00000000000E+00  0.00000000000E+00  0.20934253851E+04  0.20934253851E+04  0.50400001928E-02 0. -1.
       -1   -1    0    0    0  501  0.00000000000E+00  0.00000000000E+00 -0.12487785777E+04  0.12487785777E+04  0.50400001928E-02 0.  1.
    10030    2    1    2    0    0  0.00000000000E+00  0.00000000000E+00  0.84464680739E+03  0.33422039628E+04  0.32337128969E+04 0.  0.
        5    1    3    3  502    0 -0.15870354281E+04 -0.26355528023E+03  0.58917003391E+03  0.17132677125E+04  0.46999998093E+01 0.  1.
       -5    1    3    3    0  502  0.15870354281E+04  0.26355528023E+03  0.25547677347E+03  0.16289362503E+04  0.46999998093E+01 0. -1.
</event>
<event>
 5   0  0.2337504E-06  0.3187110E+04  0.7818609E-02  0.8192230E-01
        2   -1    0    0  501    0  0.00000000000E+00  0.00000000000E+00  0.18133047022E+04  0.18133047022E+04  0.25500000920E-02 0.  1.
       -2   -1    0    0    0  501  0.00000000000E+00  0.00000000000E+00 -0.14004360855E+04  0.14004360855E+04  0.25500000920E-02 0. -1.
    10030    2    1    2    0    0  0.00000000000E+00  0.00000000000E+00  0.41286861664E+03  0.32137407877E+04  0.31871098751E+04 0.  0.
        1    1    3    3  502    0 -0.82412220927E+03  0.70351858943E+03 -0.97179031650E+03  0.14555041191E+04  0.50400001928E-02 0. -1.
       -1    1    3    3    0  502  0.82412220927E+03 -0.70351858943E+03  0.13846589331E+04  0.17582366686E+04  0.50400001928E-02 0.  1.
</event>
<event>
 5   0  0.2404430E-06  0.3283288E+04  0.7818609E-02  0.8167161E-01
       -2   -1    0    0    0  501  0.00000000000E+00  0.00000000000E+00  0.12266738311E+04  0.12266738311E+04  0.25500000920E-02 0. -1.
        2   -1    0    0  501    0  0.00000000000E+00  0.00000000000E+00 -0.21969940133E+04  0.21969940133E+04  0.25500000920E-02 0.  1.
    10030    2    1    2    0    0  0.00000000000E+00  0.00000000000E+00 -0.97032018221E+03  0.34236678444E+04  0.32832880247E+04 0.  0.
        4    1    3    3  502    0  0.10706710799E+04  0.11834116760E+04 -0.83741480509E+02  0.15980657072E+04  0.12699999809E+01 0.  1.
       -4    1    3    3    0  502 -0.10706710799E+04 -0.11834116760E+04 -0.88657870170E+03  0.18256021372E+04  0.12699999809E+01 0. -1.
</event>
<event>
 5   0  0.2404430E-06  0.3031615E+04  0.7818609E-02  0.8234760E-01
        2   -1    0    0  501    0  0.00000000000E+00  0.00000000000E+00  0.21327633685E+04  0.21327633685E+04  0.25500000920E-02 0. -1.
       -2   -1    0    0    0  501  0.00000000000E+00  0.00000000000E+00 -0.10773215714E+04  0.10773215714E+04  0.25500000920E-02 0.  1.
    10030    2    1    2    0    0  0.00000000000E+00  0.00000000000E+00  0.10554417970E+04  0.32100849399E+04  0.30316147405E+04 0.  0.
        4    1    3    3  502    0  0.23079269405E+02 -0.31292480750E+02 -0.10767928607E+04  0.10774954059E+04  0.12699999809E+01 0.  1.
       -4    1    3    3    0  502 -0.23079269405E+02  0.31292480750E+02  0.21322346577E+04  0.21325895340E+04  0.12699999809E+01 0. -1.
</event>
<event>
 5   0  0.2621528E-06  0.3182329E+04  0.7818609E-02  0.8193500E-01
       -2   -1    0    0    0  501  0.00000000000E+00  0.00000000000E+00  0.11877066074E+04  0.11877066074E+04  0.25500000920E-02 0.  1.
        2   -1    0    0  501    0  0.00000000000E+00  0.00000000000E+00 -0.21316748040E+04  0.21316748040E+04  0.25500000920E-02 0. -1.
    10030    2    1    2    0    0  0.00000000000E+00  0.00000000000E+00 -0.94396819660E+03  0.33193814113E+04  0.31823288638E+04 0.  0.
        2    1    3    3  502    0 -0.11827379302E+04 -0.10626546554E+04 -0.53543412447E+03  0.16777346721E+04  0.25500000920E-02 0. -1.
       -2    1    3    3    0  502  0.11827379302E+04  0.10626546554E+04 -0.40853407213E+03  0.16416467392E+04  0.25500000920E-02 0.  1.
</event>
<event>
 5   0  0.8487944E-07  0.2937431E+04  0.7818609E-02  0.8261827E-01
       -1   -1    0    0    0  501  0.00000000000E+00  0.00000000000E+00  0.11027541149E+04  0.11027541149E+04  0.50400001928E-02 0. -1.
        1   -1    0    0  501    0  0.00000000000E+00  0.00000000000E+00 -0.19561258161E+04  0.19561258161E+04  0.50400001928E-02 0.  1.
    10030    2    1    2    0    0  0.00000000000E+00  0.00000000000E+00 -0.85337170123E+03  0.30588799310E+04  0.29374313902E+04 0.  0.
        2    1    3    3  502    0  0.16251275018E+03  0.14570127014E+04 -0.33454365134E+03  0.15037339727E+04  0.25500000920E-02 0. -1.
       -2    1    3    3    0  502 -0.16251275018E+03 -0.14570127014E+04 -0.51882804989E+03  0.15551459583E+04  0.25500000920E-02 0.  1.
</event>
<event>
 5   0  0.8545153E-07  0.3294069E+04  0.7818609E-02  0.8164406E-01
       -1   -1    0    0    0  501  0.00000000000E+00  0.00000000000E+00  0.97876473840E+03  0.97876473841E+03  0.50400001928E-02 0.  1.
        1   -1    0    0  501    0  0.00000000000E+00  0.00000000000E+00 -0.27715779215E+04  0.27715779215E+04  0.50400001928E-02 0. -1.
    10030    2    1    2    0    0  0.00000000000E+00  0.00000000000E+00 -0.17928131831E+04  0.37503426599E+04  0.32940690578E+04 0.  0.
        3    1    3    3  502    0  0.10839122374E+04  0.81808476730E+03 -0.19574831961E+04  0.23824082140E+04  0.10100000352E+00 0. -1.
       -3    1    3    3    0  502 -0.10839122374E+04 -0.81808476730E+03  0.16467001301E+03  0.13679344459E+04  0.10100000352E+00 0.  1.
</event>
<event>
 5   0  0.2401139E-06  0.3087696E+04  0.7818609E-02  0.8219123E-01
        2   -1    0    0  501    0  0.00000000000E+00  0.00000000000E+00  0.11130625785E+04  0.11130625785E+04  0.25500000920E-02 0. -1.
       -2   -1    0    0    0  501  0.00000000000E+00  0.00000000000E+00 -0.21413593570E+04  0.21413593570E+04  0.25500000920E-02 0.  1.
    10030    2    1    2    0    0  0.00000000000E+00  0.00000000000E+00 -0.10282967786E+04  0.32544219355E+04  0.30876962075E+04 0.  0.
        5    1    3    3  502    0 -0.13350357139E+04  0.21401880167E+03 -0.12995849923E+04  0.18753846664E+04  0.46999998093E+01 0.  1.
       -5    1    3    3    0  502  0.13350357139E+04 -0.21401880167E+03  0.27128821371E+03  0.13790372691E+04  0.46999998093E+01 0. -1.
</event>
<event>
 5   0  0.2337504E-06  0.3110293E+04  0.7818609E-02  0.8212919E-01
       -2   -1    0    0    0  501  0.00000000000E+00  0.00000000000E+00  0.14392818709E+04  0.14392818709E+04  0.25500000920E-02 0.  1.
        2   -1    0    0  501    0  0.00000000000E+00  0.00000000000E+00 -0.16803387337E+04  0.16803387337E+04  0.25500000920E-02 0. -1.
    10030    2    1    2    0    0  0.00000000000E+00  0.00000000000E+00 -0.24105686286E+03  0.31196206046E+04  0.31102932829E+04 0.  0.
        1    1    3    3  502    0 -0.44668680757E+03  0.11514384605E+04  0.82736728086E+03  0.14865652524E+04  0.50400001928E-02 0.  1.
       -1    1    3    3    0  502  0.44668680757E+03 -0.11514384605E+04 -0.10684241437E+04  0.16330553522E+04  0.50400001928E-02 0. -1.
</event>
<event>
 5   0  0.8383008E-07  0.3199667E+04  0.7818609E-02  0.8188905E-01
        1   -1    0    0  501    0  0.00000000000E+00  0.00000000000E+00  0.13091905934E+04  0.13091905934E+04  0.50400001928E-02 0. -1.
       -1   -1    0    0    0  501  0.00000000000E+00  0.00000000000E+00 -0.19549993735E+04  0.19549993735E+04  0.50400001928E-02 0.  1.
    10030    2    1    2    0    0  0.00000000000E+00  0.00000000000E+00 -0.64580878008E+03  0.32641899669E+04  0.31996667263E+04 0.  0.
        4    1    3    3  502    0 -0.12997693592E+04 -0.90880709828E+03 -0.53722282530E+03  0.16744971502E+04  0.12699999809E+01 0.  1.
       -4    1    3    3    0  502  0.12997693592E+04  0.90880709828E+03 -0.10858595478E+03  0.15896928167E+04  0.12699999809E+01 0. -1.
</event>
<event>
 5   0  0.8545153E-07  0.3195313E+04  0.7818609E-02  0.8190056E-01
       -1   -1    0    0    0  501  0.00000000000E+00  0.00000000000E+00  0.16744624218E+04  0.16744624218E+04  0.50400001928E-02 0.  1.
        1   -1    0    0  501    0  0.00000000000E+00  0.00000000000E+00 -0.15243739056E+04  0.15243739056E+04  0.50400001928E-02 0. -1.
    10030    2    1    2    0    0  0.00000000000E+00  0.00000000000E+00  0.15008851621E+03  0.31988363274E+04  0.31953133315E+04 0.  0.
        3    1    3    3  502    0  0.52372804354E+03  0.59556755611E+03 -0.13133933239E+04  0.15342730562E+04  0.10100000352E+00 0. -1.
       -3    1    3    3    0  502 -0.52372804354E+03 -0.59556755611E+03  0.14634818401E+04  0.16645632712E+04  0.10100000352E+00 0.  1.
</event>
<event>
 5   0  0.2401139E-06  0.3202033E+04  0.7818609E-02  0.8188281E-01
        2   -1    0    0  501    0  0.00000000000E+00  0.00000000000E+00  0.20679193426E+04  0.20679193426E+04  0.25500000920E-02 0.  1.
       -2   -1    0    0    0  501  0.00000000000E+00  0.00000000000E+00 -0.12395325604E+04  0.12395325604E+04  0.25500000920E-02 0. -1.
    10030    2    1    2    0    0  0.00000000000E+00  0.00000000000E+00  0.82838678220E+03  0.33074519030E+04  0.32020327028E+04 0.  0.
        5    1    3    3  502    0  0.15861933646E+04  0.17682411187E+03  0.54466550165E+03  0.16864040901E+04  0.46999998093E+01 0.  1.
       -5    1    3    3    0  502 -0.15861933646E+04 -0.17682411187E+03  0.28372128055E+03  0.16210478129E+04  0.46999998093E+01 0. -1.
</event>
<event>
 5   0  0.2401139E-06  0.3162501E+04  0.7818609E-02  0.8198791E-01
       -2   -1    0    0    0  501  0.00000000000E+00  0.00000000000E+00  0.14822693678E+04  0.14822693678E+04  0.25500000920E-02 0. -1.
        2   -1    0    0  501    0  0.00000000000E+00  0.00000000000E+00 -0.16868416532E+04  0.16868416532E+04  0.25500000920E-02 0.  1.
    10030    2    1    2    0    0  0.00000000000E+00  0.00000000000E+00 -0.20457228547E+03  0.31691110210E+04  0.31625013586E+04 0.  0.
        5    1    3    3  502    0 -0.88181934976E+03  0.12214229610E+04  0.37918886320E+03  0.15534753616E+04  0.46999998093E+01 0. -1.
       -5    1    3    3    0  502  0.88181934976E+03 -0.12214229610E+04 -0.58376114867E+03  0.16156356594E+04  0.46999998093E+01 0.  1.
</event>
<event>
 5   0  0.2621528E-06  0.3176665E+04  0.7818609E-02  0.8195007E-01
       -2   -1    0    0    0  501  0.00000000000E+00  0.00000000000E+00  0.12513963290E+04  0.12513963290E+04  0.25500000920E-02 0.  1.
        2   -1    0    0  501    0  0.00000000000E+00  0.00000000000E+00 -0.20159874873E+04  0.20159874873E+04  0.25500000920E-02 0. -1.
    10030    2    1    2    0    0  0.00000000000E+00  0.00000000000E+00 -0.76459115826E+03  0.32673838163E+04  0.31766645029E+04 0.  0.
        2    1    3    3  502    0 -0.66160900617E+03 -0.12060898617E+04 -0.11989603708E+04  0.18247973044E+04  0.25500000920E-02 0. -1.
       -2    1    3    3    0  502  0.66160900617E+03  0.12060898617E+04  0.43436921255E+03  0.14425865119E+04  0.25500000920E-02 0.  1.
</event>
<event>
 5   0  0.2404430E-06  0.3182308E+04  0.7818609E-02  0.8193505E-01
       -2   -1    0    0    0  501  0.00000000000E+00  0.00000000000E+00  0.22535724106E+04  0.22535724106E+04  0.25500000920E-02 0.  1.
        2   -1    0    0  501    0  0.00000000000E+00  0.00000000000E+00 -0.11234481817E+04  0.11234481817E+04  0.25500000920E-02 0. -1.
    10030    2    1    2    0    0  0.00000000000E+00  0.00000000000E+00  0.11301242289E+04  0.33770205923E+04  0.31823084873E+04 0.  0.
        4    1    3    3  502    0  0.85127265172E+03 -0.13043675869E+04  0.22000488340E+03  0.15730364557E+04  0.12699999809E+01 0. -1.
       -4    1    3    3    0  502 -0.85127265172E+03  0.13043675869E+04  0.91011934551E+03  0.18039841366E+04  0.12699999809E+01 0.  1.
</event>
<event>
 5   0  0.8681172E-07  0.3148918E+04  0.7818609E-02  0.8202440E-01
       -1   -1    0    0    0  501  0.00000000000E+00  0.00000000000E+00  0.13242260508E+04  0.13242260508E+04  0.50400001928E-02 0. -1.
        1   -1    0    0  501    0  0.00000000000E+00  0.00000000000E+00 -0.18719768560E+04  0.18719768560E+04  0.50400001928E-02 0.  1.
    10030    2    1    2    0    0  0.00000000000E+00  0.00000000000E+00 -0.54775080525E+03  0.31962029068E+04  0.31489176040E+04 0.  0.
        1    1    3    3  502    0 -0.31800479244E+03 -0.52335161216E+03 -0.17461378581E+04  0.18504111375E+04  0.50400001928E-02 0.  1.
       -1    1    3    3    0  502  0.31800479244E+03  0.52335161216E+03  0.11983870529E+04  0.13457917694E+04  0.50400001928E-02 0. -1.
</event>
<event>
 5   0  0.8681172E-07  0.3179067E+04  0.7818609E-02  0.8194367E-01
        1   -1    0    0  501    0  0.00000000000E+00  0.00000000000E+00  0.24748273712E+04  0.24748273712E+04  0.50400001928E-02 0. -1.
       -1   -1    0    0    0  501  0.00000000000E+00  0.00000000000E+00 -0.10209266956E+04  0.10209266957E+04  0.50400001928E-02 0.  1.
    10030    2    1    2    0    0  0.00000000000E+00  0.00000000000E+00  0.14539006756E+04  0.34957540669E+04  0.31790673666E+04 0.  0.
        1    1    3    3  502    0 -0.11462888748E+04  0.72747764712E+03  0.16359914542E+04  0.21259515398E+04  0.50400001928E-02 0. -1.
       -1    1    3    3    0  502  0.11462888748E+04 -0.72747764712E+03 -0.18209077861E+03  0.13698025271E+04  0.50400001928E-02 0.  1.
</event>
<event>
 5   0  0.8512855E-07  0.3186192E+04  0.7818609E-02  0.8192473E-01
       -1   -1    0    0    0  501  0.00000000000E+00  0.00000000000E+00  0.21784757995E+04  0.21784757995E+04  0.50400001928E-02 0. -1.
        1   -1    0    0  501    0  0.00000000000E+00  0.00000000000E+00 -0.11650143872E+04  0.11650143873E+04  0.50400001928E-02 0.  1.
    10030    2    1    2    0    0  0.00000000000E+00  0.00000000000E+00  0.10134614122E+04  0.33434901867E+04  0.31861924918E+04 0.  0.
        5    1    3    3  502    0 -0.34441626647E+03  0.13706130630E+04  0.12783775906E+04  0.19056426966E+04  0.46999998093E+01 0. -1.
       -5    1    3    3    0  502  0.34441626647E+03 -0.13706130630E+04 -0.26491617836E+03  0.14378474901E+04  0.46999998093E+01 0.  1.
</event>
<event>
 5   0  0.2337504E-06  0.3210259E+04  0.7818609E-02  0.8186113E-01
       -2   -1    0    0    0  501  0.00000000000E+00  0.00000000000E+00  0.14998866665E+04  0.14998866666E+04  0.25500000920E-02 0. -1.
        2   -1    0    0  501    0  0.00000000000E+00  0.00000000000E+00 -0.17177566582E+04  0.17177566582E+04  0.25500000920E-02 0.  1.
    10030    2    1    2    0    0  0.00000000000E+00  0.00000000000E+00 -0.21786999160E+03  0.32176433247E+04  0.32102587484E+04 0.  0.
        1    1    3    3  502    0  0.71079992887E+03 -0.60235223215E+03 -0.14189900210E+04  0.16975268570E+04  0.50400001928E-02 0.  1.
       -1    1    3    3    0  502 -0.71079992887E+03  0.60235223215E+03  0.12011200294E+04  0.15201164677E+04  0.50400001928E-02 0. -1.
</event>
<event>
 5   0  0.2404430E-06  0.3199460E+04  0.7818609E-02  0.8188960E-01
       -2   -1    0    0    0  501  0.00000000000E+00  0.00000000000E+00  0.10450819616E+04  0.10450819616E+04  0.25500000920E-02 0.  1.
        2   -1    0    0  501    0  0.00000000000E+00  0.00000000000E+00 -0.24487414789E+04  0.24487414789E+04  0.25500000920E-02 0. -1.
    10030    2    1    2    0    0  0.00000000000E+00  0.00000000000E+00 -0.14036595173E+04  0.34938234405E+04  0.31994596720E+04 0.  0.
        4    1    3    3  502    0 -0.10525153480E+04 -0.11769349827E+04 -0.42092894901E+03  0.16340585376E+04  0.12699999809E+01 0.  1.
       -4    1    3    3    0  502  0.10525153480E+04  0.11769349827E+04 -0.98273056825E+03  0.18597649029E+04  0.12699999809E+01 0. -1.
</event>
<event>
 5   0  0.8383008E-07  0.3170940E+04  0.7818609E-02  0.8196534E-01
        1   -1    0    0  501    0  0.00000000000E+00  0.00000000000E+00  0.15232939389E+04  0.15232939389E+04  0.50400001928E-02 0. -1.
       -1   -1    0    0    0  501  0.00000000000E+00  0.00000000000E+00 -0.16501843997E+04  0.16501843997E+04  0.50400001928E-02 0.  1.
    10030    2    1    2    0    0  0.00000000000E+00  0.00000000000E+00 -0.12689046080E+03  0.31734783386E+04  0.31709404877E+04 0.  0.
        4    1    3    3  502    0 -0.85639590208E+03  0.12663521948E+04 -0.48408205511E+03  0.16035581908E+04  0.12699999809E+01 0.  1.
       -4    1    3    3    0  502  0.85639590208E+03 -0.12663521948E+04  0.35719159431E+03  0.15699201477E+04  0.12699999809E+01 0. -1.
</event>
<event>
 5   0  0.8512855E-07  0.3195037E+04  0.7818609E-02  0.8190129E-01
        1   -1    0    0  501    0  0.00000000000E+00  0.00000000000E+00  0.13088177766E+04  0.13088177766E+04  0.50400001928E-02 0. -1.
       -1   -1    0    0    0  501  0.00000000000E+00  0.00000000000E+00 -0.19499011984E+04  0.19499011984E+04  0.50400001928E-02 0.  1.
    10030    2    1    2    0    0  0.00000000000E+00  0.00000000000E+00 -0.64108342173E+03  0.32587189750E+04  0.31950369958E+04 0.  0.
        5    1    3    3  502    0 -0.80431579306E+03 -0.19335742492E+03 -0.17144311565E+04  0.19035774922E+04  0.46999998093E+01 0.  1.
       -5    1    3    3    0  502  0.80431579306E+03  0.19335742492E+03  0.10733477347E+04  0.13551414828E+04  0.46999998093E+01 0. -1.
</event>
<event>
 5   0  0.2337504E-06  0.3227995E+04  0.7818609E-02  0.8181463E-01
        2   -1    0    0  501    0  0.00000000000E+00  0.00000000000E+00  0.17238553266E+04  0.17238553266E+04  0.25500000920E-02 0.  1.
       -2   -1    0    0    0  501  0.00000000000E+00  0.00000000000E+00 -0.15111406021E+04  0.15111406021E+04  0.25500000920E-02 0. -1.
    10030    2    1    2    0    0  0.00000000000E+00  0.00000000000E+00  0.21271472450E+03  0.32349959287E+04  0.32279949046E+04 0.  0.
        1    1    3    3  502    0  0.19995629124E+03  0.12109074773E+04 -0.94410889887E+03  0.15484253453E+04  0.50400001928E-02 0. -1.
       -1    1    3    3    0  502 -0.19995629124E+03 -0.12109074773E+04  0.11568236234E+04  0.16865705834E+04  0.50400001928E-02 0.  1.
</event>
<event>
 5   0  0.8545153E-07  0.3213187E+04  0.7818609E-02  0.8185343E-01
        1   -1    0    0  501    0  0.00000000000E+00  0.00000000000E+00  0.25112209755E+04  0.25112209755E+04  0.50400001928E-02 0.  1.
       -1   -1    0    0    0  501  0.00000000000E+00  0.00000000000E+00 -0.10278436635E+04  0.10278436635E+04  0.50400001928E-02 0. -1.
    10030    2    1    2    0    0  0.00000000000E+00  0.00000000000E+00  0.14833773120E+04  0.35390646390E+04  0.32131869335E+04 0.  0.
        3    1    3    3  502    0  0.10144525431E+03  0.30393911234E+03 -0.99229320109E+03  0.10427444226E+04  0.10100000352E+00 0. -1.
       -3    1    3    3    0  502 -0.10144525431E+03 -0.30393911234E+03  0.24756705131E+04  0.24963202165E+04  0.10100000352E+00 0.  1.
</event>
<event>
 5   0  0.2621528E-06  0.3259657E+04  0.7818609E-02  0.8173237E-01
       -2   -1    0    0    0  501  0.00000000000E+00  0.00000000000E+00  0.10642291700E+04  0.10642291700E+04  0.25500000920E-02 0.  1.
        2   -1    0    0  501    0  0.00000000000E+00  0.00000000000E+00 -0.24960234522E+04  0.24960234523E+04  0.25500000920E-02 0. -1.
    10030    2    1    2    0    0  0.00000000000E+00  0.00000000000E+00 -0.14317942823E+04  0.35602526222E+04  0.32596570168E+04 0.  0.
        2    1    3    3  502    0  0.88065292757E+03 -0.12294454916E+04 -0.52196553415E+02  0.15132119071E+04  0.25500000920E-02 0.  1.
       -2    1    3    3    0  502 -0.88065292757E+03  0.12294454916E+04 -0.13795977289E+04  0.20470407151E+04  0.25500000920E-02 0. -1.
</event>
<event>
 5   0  0.2621528E-06  0.3203437E+04  0.7818609E-02  0.8187910E-01
       -2   -1    0    0    0  501  0.00000000000E+00  0.00000000000E+00  0.13476456875E+04  0.13476456875E+04  0.25500000920E-02 0.  1.
        2   -1    0    0  501    0  0.00000000000E+00  0.00000000000E+00 -0.19036922083E+04  0.19036922083E+04  0.25500000920E-02 0. -1.
    10030    2    1    2    0    0  0.00000000000E+00  0.00000000000E+00 -0.55604652076E+03  0.32513378958E+04  0.32034372757E+04 0.  0.
        2    1    3    3  502    0  0.11925120115E+04  0.52930304810E+03 -0.12210319160E+04  0.17869430753E+04  0.25500000920E-02 0. -1.
       -2    1    3    3    0  502 -0.11925120115E+04 -0.52930304810E+03  0.66498539525E+03  0.14643948205E+04  0.25500000920E-02 0.  1.
</event>
<event>
 5   0  0.2404430E-06  0.2927674E+04  0.7818609E-02  0.8264691E-01
       -2   -1    0    0    0  501  0.00000000000E+00  0.00000000000E+00  0.20375637350E+04  0.20375637350E+04  0.25500000920E-02 0.  1.
        2   -1    0    0  501    0  0.00000000000E+00  0.00000000000E+00 -0.10516573728E+04  0.10516573728E+04  0.25500000920E-02 0. -1.
    10030    2    1    2    0    0  0.00000000000E+00  0.00000000000E+00  0.98590636214E+03  0.30892211078E+04  0.29276741106E+04 0.  0.
        4    1    3    3  502    0  0.69667873094E+03  0.10868189926E+04  0.12211649233E+04  0.17770149577E+04  0.12699999809E+01 0.  1.
       -4    1    3    3    0  502 -0.69667873094E+03 -0.10868189926E+04 -0.23525856120E+03  0.13122061501E+04  0.12699999809E+01 0. -1.
</event>
<event>
 5   0  0.2466076E-06  0.3180294E+04  0.7818609E-02  0.8194041E-01
       -2   -1    0    0    0  501  0.00000000000E+00  0.00000000000E+00  0.15229558749E+04  0.15229558749E+04  0.25500000920E-02 0.  1.
        2   -1    0    0  501    0  0.00000000000E+00  0.00000000000E+00 -0.16603022957E+04  0.16603022957E+04  0.25500000920E-02 0. -1.
    10030    2    1    2    0    0  0.00000000000E+00  0.00000000000E+00 -0.13734642077E+03  0.31832581705E+04  0.31802937822E+04 0.  0.
        3    1    3    3  502    0 -0.97293520716E+01  0.37130800779E+03 -0.16162718411E+04  0.16584025360E+04  0.10100000352E+00 0. -1.
       -3    1    3    3    0  502  0.97293520716E+01 -0.37130800779E+03  0.14789254203E+04  0.15248556345E+04  0.10100000352E+00 0.  1.
</event>
<event>
 5   0  0.2337504E-06  0.3231431E+04  0.7818609E-02  0.8180565E-01
       -2   -1    0    0    0  501  0.00000000000E+00  0.00000000000E+00  0.14654726290E+04  0.14654726290E+04  0.25500000920E-02 0. -1.
        2   -1    0    0  501    0  0.00000000000E+00  0.00000000000E+00 -0.17813615550E+04  0.17813615550E+04  0.25500000920E-02 0.  1.
    10030    2    1    2    0    0  0.00000000000E+00  0.00000000000E+00 -0.31588892601E+03  0.32468341840E+04  0.32314310150E+04 0.  0.
        1    1    3    3  502    0 -0.56374639877E+03  0.57489323412E+01  0.13634373674E+04  0.14753997788E+04  0.50400001928E-02 0. -1.
       -1    1    3    3    0  502  0.56374639877E+03 -0.57489323412E+01 -0.16793262934E+04  0.17714344053E+04  0.50400001928E-02 0.  1.
</event>
<event>
 5   0  0.2401139E-06  0.3194613E+04  0.7818609E-02  0.8190241E-01
       -2   -1    0    0    0  501  0.00000000000E+00  0.00000000000E+00  0.14583139869E+04  0.14583139869E+04  0.25500000920E-02 0. -1.
        2   -1    0    0  501    0  0.00000000000E+00  0.00000000000E+00 -0.17495459507E+04  0.17495459507E+04  0.25500000920E-02 0.  1.
    10030    2    1    2    0    0  0.00000000000E+00  0.00000000000E+00 -0.29123196387E+03  0.32078599376E+04  0.31946125466E+04 0.  0.
        5    1    3    3  502    0 -0.11704479852E+04  0.50379266220E+03 -0.11127348301E+04  0.16917317828E+04  0.46999998093E+01 0.  1.
       -5    1    3    3    0  502  0.11704479852E+04 -0.50379266220E+03  0.82150286626E+03  0.15161281548E+04  0.46999998093E+01 0. -1.
</event>
<event>
 5   0  0.8383008E-07  0.3210994E+04  0.7818609E-02  0.8185920E-01
       -1   -1    0    0    0  501  0.00000000000E+00  0.00000000000E+00  0.11810625615E+04  0.11810625616E+04  0.50400001928E-02 0.  1.
        1   -1    0    0  501    0  0.00000000000E+00  0.00000000000E+00 -0.21824593835E+04  0.21824593835E+04  0.50400001928E-02 0. -1.
    10030    2    1    2    0    0  0.00000000000E+00  0.00000000000E+00 -0.10013968219E+04  0.33635219450E+04  0.32109942821E+04 0.  0.
        4    1    3    3  502    0 -0.12828034011E+04 -0.92210793413E+03 -0.80020303068E+03  0.17709302954E+04  0.12699999809E+01 0. -1.
       -4    1    3    3    0  502  0.12828034011E+04  0.92210793413E+03 -0.20119379125E+03  0.15925916496E+04  0.12699999809E+01 0.  1.
</event>
<event>
 5   0  0.8512855E-07  0.3187773E+04  0.7818609E-02  0.8192054E-01
       -1   -1    0    0    0  501  0.00000000000E+00  0.00000000000E+00  0.12442375262E+04  0.12442375262E+04  0.50400001928E-02 0. -1.
        1   -1    0    0  501    0  0.00000000000E+00  0.00000000000E+00 -0.20417925477E+04  0.20417925477E+04  0.50400001928E-02 0.  1.
    10030    2    1    2    0    0  0.00000000000E+00  0.00000000000E+00 -0.79755502149E+03  0.32860300740E+04  0.31877734604E+04 0.  0.
        5    1    3    3  502    0  0.87812628011E+03  0.75241203865E+03  0.73194796725E+03  0.13685757401E+04  0.46999998093E+01 0. -1.
       -5    1    3    3    0  502 -0.87812628011E+03 -0.75241203865E+03 -0.15295029887E+04  0.19174543338E+04  0.46999998093E+01 0.  1.
</event>
<event>
 5   0  0.2404430E-06  0.3226624E+04  0.7818609E-02  0.8181821E-01
        2   -1    0    0  501    0  0.00000000000E+00  0.00000000000E+00  0.89913377864E+03  0.89913377865E+03  0.25500000920E-02 0.  1.
       -2   -1    0    0    0  501  0.00000000000E+00  0.00000000000E+00 -0.28947598775E+04  0.28947598775E+04  0.25500000920E-02 0. -1.
    10030    2    1    2    0    0  0.00000000000E+00  0.00000000000E+00 -0.19956260989E+04  0.37938936562E+04  0.32266244820E+04 0.  0.
        4    1    3    3  502    0 -0.59501455510E+03 -0.14709103843E+03 -0.27525267373E+04  0.28199438198E+04  0.12699999809E+01 0. -1.
       -4    1    3    3    0  502  0.59501455510E+03  0.14709103843E+03  0.75690063844E+03  0.97394983635E+03  0.12699999809E+01 0.  1.
</event>
<event>
 5   0  0.2621528E-06  0.3208888E+04  0.7818609E-02  0.8186474E-01
       -2   -1    0    0    0  501  0.00000000000E+00  0.00000000000E+00  0.21550958559E+04  0.21550958559E+04  0.25500000920E-02 0.  1.
        2   -1    0    0  501    0  0.00000000000E+00  0.00000000000E+00 -0.11944901599E+04  0.11944901599E+04  0.25500000920E-02 0. -1.
    10030    2    1    2    0    0  0.00000000000E+00  0.00000000000E+00  0.96060569603E+03  0.33495860159E+04  0.32088881524E+04 0.  0.
        2    1    3    3  502    0 -0.13655522675E+04  0.14565621606E+02  0.13594269775E+04  0.19269112226E+04  0.25500000920E-02 0.  1.
       -2    1    3    3    0  502  0.13655522675E+04 -0.14565621606E+02 -0.39882128149E+03  0.14226747932E+04  0.25500000920E-02 0. -1.
</event>
<event>
 5   0  0.8512855E-07  0.3206865E+04  0.7818609E-02  0.8187006E-01
        1   -1    0    0  501    0  0.00000000000E+00  0.00000000000E+00  0.14041642369E+04  0.14041642369E+04  0.50400001928E-02 0.  1.
       -1   -1    0    0    0  501  0.00000000000E+00  0.00000000000E+00 -0.18309794669E+04  0.18309794669E+04  0.50400001928E-02 0. -1.
    10030    2    1    2    0    0  0.00000000000E+00  0.00000000000E+00 -0.42681523002E+03  0.32351437038E+04  0.32068650648E+04 0.  0.
        5    1    3    3  502    0 -0.11832008294E+03  0.15621905795E+04 -0.55778974645E+03  0.16630064762E+04  0.46999998093E+01 0. -1.
       -5    1    3    3    0  502  0.11832008294E+03 -0.15621905795E+04  0.13097451643E+03  0.15721372276E+04  0.46999998093E+01 0.  1.
</event>
<event>
 5   0  0.8383008E-07  0.3130775E+04  0.7818609E-02  0.8207342E-01
       -1   -1    0    0    0  501  0.00000000000E+00  0.00000000000E+00  0.25251572727E+04  0.25251572727E+04  0.50400001928E-02 0.  1.
        1   -1    0    0  501    0  0.00000000000E+00  0.00000000000E+00 -0.97041028476E+03  0.97041028477E+03  0.50400001928E-02 0. -1.
    10030    2    1    2    0    0  0.00000000000E+00  0.00000000000E+00  0.15547469879E+04  0.34955675575E+04  0.31307753596E+04 0.  0.
        4    1    3    3  502    0 -0.29478573278E+03 -0.98410890550E+03  0.20961265613E+04  0.23343344105E+04  0.12699999809E+01 0.  1.
       -4    1    3    3    0  502  0.29478573278E+03  0.98410890550E+03 -0.54137957341E+03  0.11612331469E+04  0.12699999809E+01 0. -1.
</event>
<event>
 5   0  0.2401139E-06  0.3243570E+04  0.7818609E-02  0.8177404E-01
       -2   -1    0    0    0  501  0.00000000000E+00  0.00000000000E+00  0.16548432330E+04  0.16548432330E+04  0.25500000920E-02 0.  1.
        2   -1    0    0  501    0  0.00000000000E+00  0.00000000000E+00 -0.15893874358E+04  0.15893874358E+04  0.25500000920E-02 0. -1.
    10030    2    1    2    0    0  0.00000000000E+00  0.00000000000E+00  0.65455797181E+02  0.32442306688E+04  0.32435702815E+04 0.  0.
        5    1    3    3  502    0  0.88704183633E+03  0.30137671240E+03 -0.12913595210E+04  0.15954004653E+04  0.46999998093E+01 0. -1.
       -5    1    3    3    0  502 -0.88704183633E+03 -0.30137671240E+03  0.13568153182E+04  0.16488302035E+04  0.46999998093E+01 0.  1.
</event>
<event>
 5   0  0.8487944E-07  0.3160521E+04  0.7818609E-02  0.8199322E-01
       -1   -1    0    0    0  501  0.00000000000E+00  0.00000000000E+00  0.10039592485E+04  0.10039592486E+04  0.50400001928E-02 0. -1.
        1   -1    0    0  501    0  0.00000000000E+00  0.00000000000E+00 -0.24873749127E+04  0.24873749127E+04  0.50400001928E-02 0.  1.
    10030    2    1    2    0    0  0.00000000000E+00  0.00000000000E+00 -0.14834156641E+04  0.34913341612E+04  0.31605208737E+04 0.  0.
        2    1    3    3  502    0  0.85346234044E+03  0.10499491783E+04  0.16009295997E+03  0.13625054126E+04  0.25500000920E-02 0. -1.
       -2    1    3    3    0  502 -0.85346234044E+03 -0.10499491783E+04 -0.16435086241E+04  0.21288287486E+04  0.25500000920E-02 0.  1.
</event>
<event>
 5   0  0.8545153E-07  0.3173752E+04  0.7818609E-02  0.8195784E-01
       -1   -1    0    0    0  501  0.00000000000E+00  0.00000000000E+00  0.14900044895E+04  0.14900044895E+04  0.50400001928E-02 0.  1.
        1   -1    0    0  501    0  0.00000000000E+00  0.00000000000E+00 -0.16900451102E+04  0.16900451102E+04  0.50400001928E-02 0. -1.
    10030    2    1    2    0    0  0.00000000000E+00  0.00000000000E+00 -0.20004062070E+03  0.31800495996E+04  0.31737515981E+04 0.  0.
        3    1    3    3  502    0 -0.12345877138E+04  0.75469320392E+03  0.55273706647E+03  0.15489631790E+04  0.10100000352E+00 0.  1.
       -3    1    3    3    0  502  0.12345877138E+04 -0.75469320392E+03 -0.75277768717E+03  0.16310864206E+04  0.10100000352E+00 0. -1.
</event>
<event>
 5   0  0.8681172E-07  0.3279469E+04  0.7818609E-02  0.8168139E-01
        1   -1    0    0  501    0  0.00000000000E+00  0.00000000000E+00  0.23404111870E+04  0.23404111870E+04  0.50400001928E-02 0. -1.
       -1   -1    0    0    0  501  0.00000000000E+00  0.00000000000E+00 -0.11488278796E+04  0.11488278797E+04  0.50400001928E-02 0.  1.
    10030    2    1    2    0    0  0.00000000000E+00  0.00000000000E+00  0.11915833074E+04  0.34892390667E+04  0.32794692385E+04 0.  0.
        1    1    3    3  502    0  0.53120990654E+03 -0.13134064168E+04 -0.28254911105E+03  0.14446641066E+04  0.50400001928E-02 0.  1.
       -1    1    3    3    0  502 -0.53120990654E+03  0.13134064168E+04  0.14741324184E+04  0.20445749602E+04  0.50400001928E-02 0. -1.
</event>
<event>
 5   0  0.2337504E-06  0.2612047E+04  0.7818609E-02  0.8364121E-01
        2   -1    0    0  501    0  0.00000000000E+00  0.00000000000E+00  0.21107151876E+04  0.21107151876E+04  0.25500000920E-02 0.  1.
       -2   -1    0    0    0  501  0.00000000000E+00  0.00000000000E+00 -0.80811347889E+03  0.80811347890E+03  0.25500000920E-02 0. -1.
    10030    2    1    2    0    0  0.00000000000E+00  0.00000000000E+00  0.13026017087E+04  0.29188286665E+04  0.26120470081E+04 0.  0.
        1    1    3    3  502    0 -0.21353556472E+03 -0.11828400692E+04  0.12221731768E+04  0.17141806617E+04  0.50400001928E-02 0.  1.
       -1    1    3    3    0  502  0.21353556472E+03  0.11828400692E+04  0.80428531896E+02  0.12046480048E+04  0.50400001928E-02 0. -1.
</event>
<event>
 5   0  0.2466076E-06  0.3225934E+04  0.7818609E-02  0.8182001E-01
       -2   -1    0    0    0  501  0.00000000000E+00  0.00000000000E+00  0.17016921606E+04  0.17016921606E+04  0.25500000920E-02 0. -1.
        2   -1    0    0  501    0  0.00000000000E+00  0.00000000000E+00 -0.15288683106E+04  0.15288683106E+04  0.25500000920E-02 0.  1.
    10030    2    1    2    0    0  0.00000000000E+00  0.00000000000E+00  0.17282385002E+03  0.32305604712E+04  0.32259344189E+04 0.  0.
        3    1    3    3  502    0 -0.12070114035E+04  0.80471471656E+03  0.79256203401E+03  0.16530568324E+04  0.10100000352E+00 0. -1.
       -3    1    3    3    0  502  0.12070114035E+04 -0.80471471656E+03 -0.61973818398E+03  0.15775036387E+04  0.10100000352E+00 0.  1.
</event>
<event>
 5   0  0.2401139E-06  0.3226917E+04  0.7818609E-02  0.8181745E-01
        2   -1    0    0  501    0  0.00000000000E+00  0.00000000000E+00  0.15544291228E+04  0.15544291228E+04  0.25500000920E-02 0.  1.
       -2   -1    0    0    0  501  0.00000000000E+00  0.00000000000E+00 -0.16747291557E+04  0.16747291557E+04  0.25500000920E-02 0. -1.
    10030    2    1    2    0    0  0.00000000000E+00  0.00000000000E+00 -0.12030003295E+03  0.32291582785E+04  0.32269166537E+04 0.  0.
        5    1    3    3  502    0 -0.12465564269E+04  0.75138631718E+03 -0.75686736126E+03  0.16405348566E+04  0.46999998093E+01 0. -1.
       -5    1    3    3    0  502  0.12465564269E+04 -0.75138631718E+03  0.63656732831E+03  0.15886234219E+04  0.46999998093E+01 0.  1.
</event>
<event>
 5   0  0.2404430E-06  0.3034357E+04  0.7818609E-02  0.8233988E-01
       -2   -1    0    0    0  501  0.00000000000E+00  0.00000000000E+00  0.14221831873E+04  0.14221831873E+04  0.25500000920E-02 0.  1.
        2   -1    0    0  501    0  0.00000000000E+00  0.00000000000E+00 -0.16185189603E+04  0.16185189603E+04  0.25500000920E-02 0. -1.
    10030    2    1    2    0    0  0.00000000000E+00  0.00000000000E+00 -0.19633577302E+03  0.30407021476E+04  0.30343569030E+04 0.  0.
        4    1    3    3  502    0  0.95435847477E+03  0.92695410821E+03  0.63259282328E+03  0.14731664231E+04  0.12699999809E+01 0.  1.
       -4    1    3    3    0  502 -0.95435847477E+03 -0.92695410821E+03 -0.82892859630E+03  0.15675357246E+04  0.12699999809E+01 0. -1.
</event>
<event>
 5   0  0.2337504E-06  0.3063357E+04  0.7818609E-02  0.8225867E-01
        2   -1    0    0  501    0  0.00000000000E+00  0.00000000000E+00  0.19683524524E+04  0.19683524524E+04  0.25500000920E-02 0.  1.
       -2   -1    0    0    0  501  0.00000000000E+00  0.00000000000E+00 -0.11918796265E+04  0.11918796265E+04  0.25500000920E-02 0. -1.
    10030    2    1    2    0    0  0.00000000000E+00  0.00000000000E+00  0.77647282591E+03  0.31602320788E+04  0.30633571034E+04 0.  0.
        1    1    3    3  502    0 -0.42615808200E+02  0.79225789567E+03  0.17398409584E+04  0.19122069032E+04  0.50400001928E-02 0.  1.
       -1    1    3    3    0  502  0.42615808200E+02 -0.79225789567E+03 -0.96336813244E+03  0.12480251756E+04  0.50400001928E-02 0. -1.
</event>
<event>
 5   0  0.8487944E-07  0.2657729E+04  0.7818609E-02  0.8348852E-01
       -1   -1    0    0    0  501  0.00000000000E+00  0.00000000000E+00  0.22549422908E+04  0.22549422908E+04  0.50400001928E-02 0.  1.
        1   -1    0    0  501    0  0.00000000000E+00  0.00000000000E+00 -0.78311584106E+03  0.78311584107E+03  0.50400001928E-02 0. -1.
    10030    2    1    2    0    0  0.00000000000E+00  0.00000000000E+00  0.14718264497E+04  0.30380581318E+04  0.26577291274E+04 0.  0.
        2    1    3    3  502    0 -0.10012387178E+04 -0.87041132309E+03  0.64896081948E+03  0.14769038515E+04  0.25500000920E-02 0. -1.
       -2    1    3    3    0  502  0.10012387178E+04  0.87041132309E+03  0.82286563023E+03  0.15611542803E+04  0.25500000920E-02 0.  1.
</event>
<event>
 5   0  0.8545153E-07  0.3368659E+04  0.7818609E-02  0.8145641E-01
       -1   -1    0    0    0  501  0.00000000000E+00  0.00000000000E+00  0.27119935333E+04  0.27119935333E+04  0.50400001928E-02 0. -1.
        1   -1    0    0  501    0  0.00000000000E+00  0.00000000000E+00 -0.10460814972E+04  0.10460814972E+04  0.50400001928E-02 0.  1.
    10030    2    1    2    0    0  0.00000000000E+00  0.00000000000E+00  0.16659120362E+04  0.37580750305E+04  0.33686592322E+04 0.  0.
        3    1    3    3  502    0 -0.10750555643E+04 -0.50495335489E+03 -0.49935390988E+03  0.12884396355E+04  0.10100000352E+00 0.  1.
       -3    1    3    3    0  502  0.10750555643E+04  0.50495335489E+03  0.21652659461E+04  0.24696353950E+04  0.10100000352E+00 0. -1.
</event>
<event>
 5   0  0.2466076E-06  0.3025625E+04  0.7818609E-02  0.8236451E-01
        2   -1    0    0  501    0  0.00000000000E+00  0.00000000000E+00  0.12617558795E+04  0.12617558795E+04  0.25500000920E-02 0. -1.
       -2   -1    0    0    0  501  0.00000000000E+00  0.00000000000E+00 -0.18138224733E+04  0.18138224733E+04  0.25500000920E-02 0.  1.
    10030    2    1    2    0    0  0.00000000000E+00  0.00000000000E+00 -0.55206659377E+03  0.30755783528E+04  0.30256246761E+04 0.  0.
        3    1    3    3  502    0  0.10219832812E+04  0.11054153287E+04 -0.12454843313E+03  0.15105976296E+04  0.10100000352E+00 0.  1.
       -3    1    3    3    0  502 -0.10219832812E+04 -0.11054153287E+04 -0.42751816065E+03  0.15649807232E+04  0.10100000352E+00 0. -1.
</event>
<event>
 5   0  0.2466076E-06  0.3191773E+04  0.7818609E-02  0.8190993E-01
       -2   -1    0    0    0  501  0.00000000000E+00  0.00000000000E+00  0.15299178664E+04  0.15299178664E+04  0.25500000920E-02 0.  1.
        2   -1    0    0  501    0  0.00000000000E+00  0.00000000000E+00 -0.16646995858E+04  0.16646995858E+04  0.25500000920E-02 0. -1.
    10030    2    1    2    0    0  0.00000000000E+00  0.00000000000E+00 -0.13478171935E+03  0.31946174522E+04  0.31917729484E+04 0.  0.
        3    1    3    3  502    0 -0.48224520236E+03 -0.11504304998E+04 -0.10636687574E+04  0.16393419429E+04  0.10100000352E+00 0. -1.
       -3    1    3    3    0  502  0.48224520236E+03  0.11504304998E+04  0.92888703810E+03  0.15552755093E+04  0.10100000352E+00 0.  1.
</event>
<event>
 5   0  0.8383008E-07  0.3204121E+04  0.7818609E-02  0.8187730E-01
       -1   -1    0    0    0  501  0.00000000000E+00  0.00000000000E+00  0.19207688346E+04  0.19207688346E+04  0.50400001928E-02 0. -1.
        1   -1    0    0  501    0  0.00000000000E+00  0.00000000000E+00 -0.13362344179E+04  0.13362344179E+04  0.50400001928E-02 0.  1.
    10030    2    1    2    0    0  0.00000000000E+00  0.00000000000E+00  0.58453441670E+03  0.32570032525E+04  0.32041207378E+04 0.  0.
        4    1    3    3  502    0  0.10014597137E+04 -0.10966202908E+03  0.15584779444E+04  0.18557484837E+04  0.12699999809E+01 0. -1.
       -4    1    3    3    0  502 -0.10014597137E+04  0.10966202908E+03 -0.97394352772E+03  0.14012547687E+04  0.12699999809E+01 0.  1.
</event>
<event>
 5   0  0.8681172E-07  0.3272725E+04  0.7818609E-02  0.8169871E-01
        1   -1    0    0  501    0  0.00000000000E+00  0.00000000000E+00  0.16007804610E+04  0.16007804610E+04  0.50400001928E-02 0.  1.
       -1   -1    0    0    0  501  0.00000000000E+00  0.00000000000E+00 -0.16727349685E+04  0.16727349686E+04  0.50400001928E-02 0. -1.
    10030    2    1    2    0    0  0.00000000000E+00  0.00000000000E+00 -0.71954507527E+02  0.32735154296E+04  0.32727245250E+04 0.  0.
        1    1    3    3  502    0  0.89794940372E+03 -0.49102620739E+03 -0.13131027908E+04  0.16648299634E+04  0.50400001928E-02 0. -1.
       -1    1    3    3    0  502 -0.89794940372E+03  0.49102620739E+03  0.12411482832E+04  0.16086854662E+04  0.50400001928E-02 0.  1.
</event>
<event>
 5   0  0.2401139E-06  0.3196804E+04  0.7818609E-02  0.8189662E-01
        2   -1    0    0  501    0  0.00000000000E+00  0.00000000000E+00  0.26652105552E+04  0.26652105552E+04  0.25500000920E-02 0.  1.
       -2   -1    0    0    0  501  0.00000000000E+00  0.00000000000E+00 -0.95860658368E+03  0.95860658369E+03  0.25500000920E-02 0. -1.
    10030    2    1    2    0    0  0.00000000000E+00  0.00000000000E+00  0.17066039715E+04  0.36238171389E+04  0.31968036443E+04 0.  0.
        5    1    3    3  502    0 -0.63414775805E+03 -0.12459654146E+04  0.17315799556E+04  0.22255256516E+04  0.46999998093E+01 0.  1.
       -5    1    3    3    0  502  0.63414775805E+03  0.12459654146E+04 -0.24975984095E+02  0.13982914872E+04  0.46999998093E+01 0. -1.
</event>
<event>
 5   0  0.8383008E-07  0.3206603E+04  0.7818609E-02  0.8187075E-01
       -1   -1    0    0    0  501  0.00000000000E+00  0.00000000000E+00  0.99856829706E+03  0.99856829707E+03  0.50400001928E-02 0. -1.
        1   -1    0    0  501    0  0.00000000000E+00  0.00000000000E+00 -0.25742616281E+04  0.25742616281E+04  0.50400001928E-02 0.  1.
    10030    2    1    2    0    0  0.00000000000E+00  0.00000000000E+00 -0.15756933311E+04  0.35728299252E+04  0.32066032185E+04 0.  0.
        4    1    3    3  502    0 -0.80391294806E+03  0.11127148499E+04  0.13510956600E+03  0.13793718037E+04  0.12699999809E+01 0. -1.
       -4    1    3    3    0  502  0.80391294806E+03 -0.11127148499E+04 -0.17108028971E+04  0.21934581215E+04  0.12699999809E+01 0.  1.
</event>
<event>
 5   0  0.8681172E-07  0.3183221E+04  0.7818609E-02  0.8193263E-01
        1   -1    0    0  501    0  0.00000000000E+00  0.00000000000E+00  0.14156190579E+04  0.14156190579E+04  0.50400001928E-02 0. -1.
       -1   -1    0    0    0  501  0.00000000000E+00  0.00000000000E+00 -0.17894808895E+04  0.17894808895E+04  0.50400001928E-02 0.  1.
    10030    2    1    2    0    0  0.00000000000E+00  0.00000000000E+00 -0.37386183155E+03  0.32050999474E+04  0.31832205396E+04 0.  0.
        1    1    3    3  502    0 -0.49802899363E+03 -0.10676939426E+04 -0.12644359647E+04  0.17282365413E+04  0.50400001928E-02 0.  1.
       -1    1    3    3    0  502  0.49802899363E+03  0.10676939426E+04  0.89057413316E+03  0.14768634061E+04  0.50400001928E-02 0. -1.
</event>
<event>
 5   0  0.2404430E-06  0.3155573E+04  0.7818609E-02  0.8200650E-01
       -2   -1    0    0    0  501  0.00000000000E+00  0.00000000000E+00  0.15949514318E+04  0.15949514318E+04  0.25500000920E-02 0. -1.
        2   -1    0    0  501    0  0.00000000000E+00  0.00000000000E+00 -0.15608064445E+04  0.15608064445E+04  0.25500000920E-02 0.  1.
    10030    2    1    2    0    0  0.00000000000E+00  0.00000000000E+00  0.34144987341E+02  0.31557578764E+04  0.31555731483E+04 0.  0.
        4    1    3    3  502    0 -0.79657351605E+03  0.13615394804E+04 -0.15940610751E+02  0.15775217397E+04  0.12699999809E+01 0. -1.
       -4    1    3    3    0  502  0.79657351605E+03 -0.13615394804E+04  0.50085598092E+02  0.15782361367E+04  0.12699999809E+01 0.  1.
</event>
<event>
 5   0  0.8545153E-07  0.3212435E+04  0.7818609E-02  0.8185541E-01
       -1   -1    0    0    0  501  0.00000000000E+00  0.00000000000E+00  0.16285860778E+04  0.16285860778E+04  0.50400001928E-02 0.  1.
        1   -1    0    0  501    0  0.00000000000E+00  0.00000000000E+00 -0.15841562306E+04  0.15841562306E+04  0.50400001928E-02 0. -1.
    10030    2    1    2    0    0  0.00000000000E+00  0.00000000000E+00  0.44429847155E+02  0.32127423084E+04  0.32124350777E+04 0.  0.
        3    1    3    3  502    0  0.11587804872E+04  0.94838677090E+03  0.60341169658E+03  0.16144086752E+04  0.10100000352E+00 0.  1.
       -3    1    3    3    0  502 -0.11587804872E+04 -0.94838677090E+03 -0.55898184942E+03  0.15983336332E+04  0.10100000352E+00 0. -1.
</event>
<event>
 5   0  0.8545153E-07  0.2865197E+04  0.7818609E-02  0.8283308E-01
       -1   -1    0    0    0  501  0.00000000000E+00  0.00000000000E+00  0.78567246670E+03  0.78567246671E+03  0.50400001928E-02 0. -1.
        1   -1    0    0  501    0  0.00000000000E+00  0.00000000000E+00 -0.26122053953E+04  0.26122053953E+04  0.50400001928E-02 0.  1.
    10030    2    1    2    0    0  0.00000000000E+00  0.00000000000E+00 -0.18265329286E+04  0.33978778620E+04  0.28651965772E+04 0.  0.
        3    1    3    3  502    0 -0.80550431410E+02  0.15734306605E+03  0.77269036506E+03  0.79265100952E+03  0.10100000352E+00 0. -1.
       -3    1    3    3    0  502  0.80550431410E+02 -0.15734306605E+03 -0.25992232937E+04  0.26052268525E+04  0.10100000352E+00 0.  1.
</event>
<event>
 5   0  0.8681172E-07  0.3094265E+04  0.7818609E-02  0.8217313E-01
        1   -1    0    0  501    0  0.00000000000E+00  0.00000000000E+00  0.17036244161E+04  0.17036244161E+04  0.50400001928E-02 0.  1.
       -1   -1    0    0    0  501  0.00000000000E+00  0.00000000000E+00 -0.14050159896E+04  0.14050159896E+04  0.50400001928E-02 0. -1.
    10030    2    1    2    0    0  0.00000000000E+00  0.00000000000E+00  0.29860842653E+03  0.31086404057E+04  0.30942653700E+04 0.  0.
        1    1    3    3  502    0 -0.89555221815E+03  0.11982886081E+04 -0.24713028076E+03  0.15162396709E+04  0.50400001928E-02 0.  1.
       -1    1    3    3    0  502  0.89555221815E+03 -0.11982886081E+04  0.54573870730E+03  0.15924007349E+04  0.50400001928E-02 0. -1.
</event>
<event>
 5   0  0.8512855E-07  0.3173643E+04  0.7818609E-02  0.8195813E-01
        1   -1    0    0  501    0  0.00000000000E+00  0.00000000000E+00  0.26568968932E+04  0.26568968932E+04  0.50400001928E-02 0.  1.
       -1   -1    0    0    0  501  0.00000000000E+00  0.00000000000E+00 -0.94772316283E+03  0.94772316284E+03  0.50400001928E-02 0. -1.
    10030    2    1    2    0    0  0.00000000000E+00  0.00000000000E+00  0.17091737304E+04  0.36046200561E+04  0.31736431602E+04 0.  0.
        5    1    3    3  502    0 -0.53424592817E+03 -0.40626783257E+03  0.24877329709E+04  0.25766857953E+04  0.46999998093E+01 0.  1.
       -5    1    3    3    0  502  0.53424592817E+03  0.40626783257E+03 -0.77855924045E+03  0.10279342608E+04  0.46999998093E+01 0. -1.
</event>
<event>
 5   0  0.8512855E-07  0.3189148E+04  0.7818609E-02  0.8191689E-01
        1   -1    0    0  501    0  0.00000000000E+00  0.00000000000E+00  0.20059305351E+04  0.20059305351E+04  0.50400001928E-02 0. -1.
       -1   -1    0    0    0  501  0.00000000000E+00  0.00000000000E+00 -0.12675745482E+04  0.12675745482E+04  0.50400001928E-02 0.  1.
    10030    2    1    2    0    0  0.00000000000E+00  0.00000000000E+00  0.73835598690E+03  0.32735050833E+04  0.31891481570E+04 0.  0.
        5    1    3    3  502    0 -0.74840021974E+03 -0.61511801851E+03 -0.93088291621E+03  0.13435170856E+04  0.46999998093E+01 0.  1.
       -5    1    3    3    0  502  0.74840021974E+03  0.61511801851E+03  0.16692389031E+04  0.19299879977E+04  0.46999998093E+01 0. -1.
</event>
<event>
 5   0  0.8487944E-07  0.3140594E+04  0.7818609E-02  0.8204685E-01
        1   -1    0    0  501    0  0.00000000000E+00  0.00000000000E+00  0.11160789288E+04  0.11160789288E+04  0.50400001928E-02 0.  1.
       -1   -1    0    0    0  501  0.00000000000E+00  0.00000000000E+00 -0.22093717464E+04  0.22093717464E+04  0.50400001928E-02 0. -1.
    10030    2    1    2    0    0  0.00000000000E+00  0.00000000000E+00 -0.10932928177E+04  0.33254506752E+04  0.31405943718E+04 0.  0.
        2    1    3    3  502    0 -0.10628959242E+04  0.47630001163E+03 -0.16618348343E+04  0.20293606045E+04  0.25500000920E-02 0. -1.
       -2    1    3    3    0  502  0.10628959242E+04 -0.47630001163E+03  0.56854201662E+03  0.12960900707E+04  0.25500000920E-02 0.  1.
</event>
<event>
 5   0  0.8487944E-07  0.3227545E+04  0.7818609E-02  0.8181580E-01
       -1   -1    0    0    0  501  0.00000000000E+00  0.00000000000E+00  0.11499114372E+04  0.11499114372E+04  0.50400001928E-02 0.  1.
        1   -1    0    0  501    0  0.00000000000E+00  0.00000000000E+00 -0.22647496833E+04  0.22647496833E+04  0.50400001928E-02 0. -1.
    10030    2    1    2    0    0  0.00000000000E+00  0.00000000000E+00 -0.11148382461E+04  0.34146611205E+04  0.32275449265E+04 0.  0.
        2    1    3    3  502    0 -0.23743272753E+03 -0.15591761406E+04 -0.91908099609E+03  0.18254080133E+04  0.25500000920E-02 0. -1.
       -2    1    3    3    0  502  0.23743272753E+03  0.15591761406E+04 -0.19575725003E+03  0.15892531072E+04  0.25500000920E-02 0.  1.
</event>
<event>
 5   0  0.8487944E-07  0.2611164E+04  0.7818609E-02  0.8364419E-01
       -1   -1    0    0    0  501  0.00000000000E+00  0.00000000000E+00  0.17698512823E+04  0.17698512823E+04  0.50400001928E-02 0.  1.
        1   -1    0    0  501    0  0.00000000000E+00  0.00000000000E+00 -0.96310066484E+03  0.96310066485E+03  0.50400001928E-02 0. -1.
    10030    2    1    2    0    0  0.00000000000E+00  0.00000000000E+00  0.80675061746E+03  0.27329519472E+04  0.26111644503E+04 0.  0.
        2    1    3    3  502    0 -0.43467972058E+03 -0.80790741510E+03 -0.56886585213E+03  0.10794763585E+04  0.25500000920E-02 0. -1.
       -2    1    3    3    0  502  0.43467972058E+03  0.80790741510E+03  0.13756164696E+04  0.16534755887E+04  0.25500000920E-02 0.  1.
</event>
<event>
 5   0  0.2401139E-06  0.3206899E+04  0.7818609E-02  0.8186998E-01
        2   -1    0    0  501    0  0.00000000000E+00  0.00000000000E+00  0.17913403805E+04  0.17913403805E+04  0.25500000920E-02 0.  1.
       -2   -1    0    0    0  501  0.00000000000E+00  0.00000000000E+00 -0.14352660382E+04  0.14352660382E+04  0.25500000920E-02 0. -1.
    10030    2    1    2    0    0  0.00000000000E+00  0.00000000000E+00  0.35607434235E+03  0.32266064187E+04  0.32068988203E+04 0.  0.
        5    1    3    3  502    0 -0.63482993256E+02 -0.13345464243E+04 -0.71396825777E+03  0.15148653445E+04  0.46999998093E+01 0. -1.
       -5    1    3    3    0  502  0.63482993256E+02  0.13345464243E+04  0.10700426001E+04  0.17117410742E+04  0.46999998093E+01 0.  1.
</event>
<event>
 5   0  0.8681172E-07  0.3149742E+04  0.7818609E-02  0.8202218E-01
       -1   -1    0    0    0  501  0.00000000000E+00  0.00000000000E+00  0.16453314677E+04  0.16453314677E+04  0.50400001928E-02 0. -1.
        1   -1    0    0  501    0  0.00000000000E+00  0.00000000000E+00 -0.15074283331E+04  0.15074283331E+04  0.50400001928E-02 0.  1.
    10030    2    1    2    0    0  0.00000000000E+00  0.00000000000E+00  0.13790313466E+03  0.31527598008E+04  0.31497423843E+04 0.  0.
        1    1    3    3  502    0  0.15562123386E+04 -0.16192573846E+03  0.24857398542E+03  0.15842366659E+04  0.50400001928E-02 0.  1.
       -1    1    3    3    0  502 -0.15562123386E+04  0.16192573846E+03 -0.11067085076E+03  0.15685231349E+04  0.50400001928E-02 0. -1.
</event>
<event>
 5   0  0.7934375E-07  0.3214982E+04  0.7818609E-02  0.8184872E-01
       -3   -1    0    0    0  501  0.00000000000E+00  0.00000000000E+00  0.12471780709E+04  0.12471780750E+04  0.10100000352E+00 0. -1.
        3   -1    0    0  501    0  0.00000000000E+00  0.00000000000E+00 -0.20718998453E+04  0.20718998477E+04  0.10100000352E+00 0.  1.
    10030    2    1    2    0    0  0.00000000000E+00  0.00000000000E+00 -0.82472177432E+03  0.33190779227E+04  0.32149824653E+04 0.  0.
        5    1    3    3  502    0  0.11956615593E+04  0.52462591703E+03  0.55563729752E+03  0.14190115622E+04  0.46999998093E+01 0. -1.
       -5    1    3    3    0  502 -0.11956615593E+04 -0.52462591703E+03 -0.13803590718E+04  0.19000663605E+04  0.46999998093E+01 0.  1.
</event>
<event>
 5   0  0.2466076E-06  0.3184017E+04  0.7818609E-02  0.8193051E-01
        2   -1    0    0  501    0  0.00000000000E+00  0.00000000000E+00  0.31634466593E+04  0.31634466593E+04  0.25500000920E-02 0. -1.
       -2   -1    0    0    0  501  0.00000000000E+00  0.00000000000E+00 -0.80118049315E+03  0.80118049315E+03  0.25500000920E-02 0.  1.
    10030    2    1    2    0    0  0.00000000000E+00  0.00000000000E+00  0.23622661661E+04  0.39646271524E+04  0.31840174337E+04 0.  0.
        3    1    3    3  502    0 -0.14865851993E+03 -0.77231689190E+03  0.29046497478E+04  0.30092462353E+04  0.10100000352E+00 0. -1.
       -3    1    3    3    0  502  0.14865851993E+03  0.77231689190E+03 -0.54238358163E+03  0.95538091717E+03  0.10100000352E+00 0.  1.
</event>
<event>
 5   0  0.8383008E-07  0.3188270E+04  0.7818609E-02  0.8191922E-01
       -1   -1    0    0    0  501  0.00000000000E+00  0.00000000000E+00  0.21890330614E+04  0.21890330614E+04  0.50400001928E-02 0.  1.
        1   -1    0    0  501    0  0.00000000000E+00  0.00000000000E+00 -0.11609081227E+04  0.11609081227E+04  0.50400001928E-02 0. -1.
    10030    2    1    2    0    0  0.00000000000E+00  0.00000000000E+00  0.10281249387E+04  0.33499411841E+04  0.31882699144E+04 0.  0.
        4    1    3    3  502    0  0.11789856303E+04  0.93409927780E+03  0.10687687805E+04  0.18452145936E+04  0.12699999809E+01 0.  1.
       -4    1    3    3    0  502 -0.11789856303E+04 -0.93409927780E+03 -0.40643841856E+02  0.15047265905E+04  0.12699999809E+01 0. -1.
</event>
<event>
 5   0  0.2404430E-06  0.3207997E+04  0.7818609E-02  0.8186708E-01
       -2   -1    0    0    0  501  0.00000000000E+00  0.00000000000E+00  0.20096880381E+04  0.20096880381E+04  0.25500000920E-02 0.  1.
        2   -1    0    0  501    0  0.00000000000E+00  0.00000000000E+00 -0.12802044311E+04  0.12802044311E+04  0.25500000920E-02 0. -1.
    10030    2    1    2    0    0  0.00000000000E+00  0.00000000000E+00  0.72948360703E+03  0.32898924693E+04  0.32079972142E+04 0.  0.
        4    1    3    3  502    0  0.15339519714E+04 -0.45901608227E+03  0.26688304050E+03  0.16232475426E+04  0.12699999809E+01 0. -1.
       -4    1    3    3    0  502 -0.15339519714E+04  0.45901608227E+03  0.46260056653E+03  0.16666449266E+04  0.12699999809E+01 0.  1.
</event>
<event>
 5   0  0.2337504E-06  0.3160390E+04  0.7818609E-02  0.8199357E-01
       -2   -1    0    0    0  501  0.00000000000E+00  0.00000000000E+00  0.16327306057E+04  0.16327306057E+04  0.25500000920E-02 0.  1.
        2   -1    0    0  501    0  0.00000000000E+00  0.00000000000E+00 -0.15293498968E+04  0.15293498968E+04  0.25500000920E-02 0. -1.
    10030    2    1    2    0    0  0.00000000000E+00  0.00000000000E+00  0.10338070894E+03  0.31620805025E+04  0.31603900919E+04 0.  0.
        1    1    3    3  502    0 -0.37682259443E+03  0.13965461324E+04  0.68817526169E+03  0.16018494181E+04  0.50400001928E-02 0.  1.
       -1    1    3    3    0  502  0.37682259443E+03 -0.13965461324E+04 -0.58479455275E+03  0.15602310843E+04  0.50400001928E-02 0. -1.
</event>
<event>
 5   0  0.8545153E-07  0.3231859E+04  0.7818609E-02  0.8180454E-01
        1   -1    0    0  501    0  0.00000000000E+00  0.00000000000E+00  0.14062376764E+04  0.14062376764E+04  0.50400001928E-02 0.  1.
       -1   -1    0    0    0  501  0.00000000000E+00  0.00000000000E+00 -0.18568893722E+04  0.18568893722E+04  0.50400001928E-02 0. -1.
    10030    2    1    2    0    0  0.00000000000E+00  0.00000000000E+00 -0.45065169576E+03  0.32631270486E+04  0.32318587816E+04 0.  0.
        3    1    3    3  502    0 -0.68516427232E+03  0.14166128889E+04  0.14563269267E+03  0.15803325753E+04  0.10100000352E+00 0.  1.
       -3    1    3    3    0  502  0.68516427232E+03 -0.14166128889E+04 -0.59628438844E+03  0.16827944733E+04  0.10100000352E+00 0. -1.
</event>
<event>
 5   0  0.2466076E-06  0.3208070E+04  0.7818609E-02  0.8186689E-01
        2   -1    0    0  501    0  0.00000000000E+00  0.00000000000E+00  0.14432411733E+04  0.14432411733E+04  0.25500000920E-02 0.  1.
       -2   -1    0    0    0  501  0.00000000000E+00  0.00000000000E+00 -0.17827427260E+04  0.17827427260E+04  0.25500000920E-02 0. -1.
    10030    2    1    2    0    0  0.00000000000E+00  0.00000000000E+00 -0.33950155272E+03  0.32259838993E+04  0.32080696399E+04 0.  0.
        3    1    3    3  502    0 -0.74680598154E+03  0.13896538051E+04 -0.46131957873E+03  0.16436765607E+04  0.10100000352E+00 0. -1.
       -3    1    3    3    0  502  0.74680598154E+03 -0.13896538051E+04  0.12181802601E+03  0.15823073386E+04  0.10100000352E+00 0.  1.
</event>
<event>
 5   0  0.8383008E-07  0.3130039E+04  0.7818609E-02  0.8207542E-01
        1   -1    0    0  501    0  0.00000000000E+00  0.00000000000E+00  0.14764256628E+04  0.14764256628E+04  0.50400001928E-02 0.  1.
       -1   -1    0    0    0  501  0.00000000000E+00  0.00000000000E+00 -0.16589295531E+04  0.16589295531E+04  0.50400001928E-02 0. -1.
    10030    2    1    2    0    0  0.00000000000E+00  0.00000000000E+00 -0.18250389028E+03  0.31353552159E+04  0.31300390828E+04 0.  0.
        4    1    3    3  502    0  0.10937570745E+04  0.10052011369E+04  0.40207887268E+03  0.15389616293E+04  0.12699999809E+01 0.  1.
       -4    1    3    3    0  502 -0.10937570745E+04 -0.10052011369E+04 -0.58458276296E+03  0.15963935866E+04  0.12699999809E+01 0. -1.
</event>
<event>
 5   0  0.2621528E-06  0.3250373E+04  0.7818609E-02  0.8175639E-01
       -2   -1    0    0    0  501  0.00000000000E+00  0.00000000000E+00  0.15422170013E+04  0.15422170013E+04  0.25500000920E-02 0. -1.
        2   -1    0    0  501    0  0.00000000000E+00  0.00000000000E+00 -0.17126192469E+04  0.17126192469E+04  0.25500000920E-02 0.  1.
    10030    2    1    2    0    0  0.00000000000E+00  0.00000000000E+00 -0.17040224562E+03  0.32548362482E+04  0.32503726059E+04 0.  0.
        2    1    3    3  502    0 -0.13270922007E+04  0.48519371502E+02  0.85294331347E+03  0.15783029286E+04  0.25500000920E-02 0. -1.
       -2    1    3    3    0  502  0.13270922007E+04 -0.48519371502E+02 -0.10233455591E+04  0.16765333196E+04  0.25500000920E-02 0.  1.
</event>
<event>
 5   0  0.8383008E-07  0.3184927E+04  0.7818609E-02  0.8192809E-01
        1   -1    0    0  501    0  0.00000000000E+00  0.00000000000E+00  0.83579731131E+03  0.83579731133E+03  0.50400001928E-02 0.  1.
       -1   -1    0    0    0  501  0.00000000000E+00  0.00000000000E+00 -0.30341561955E+04  0.30341561955E+04  0.50400001928E-02 0. -1.
    10030    2    1    2    0    0  0.00000000000E+00  0.00000000000E+00 -0.21983588842E+04  0.38699535069E+04  0.31849267435E+04 0.  0.
        4    1    3    3  502    0  0.15247127620E+04  0.41346497925E+03 -0.13429111227E+04  0.20734305371E+04  0.12699999809E+01 0. -1.
       -4    1    3    3    0  502 -0.15247127620E+04 -0.41346497925E+03 -0.85544776148E+03  0.17965229698E+04  0.12699999809E+01 0.  1.
</event>
<event>
 5   0  0.8383008E-07  0.3135607E+04  0.7818609E-02  0.8206033E-01
        1   -1    0    0  501    0  0.00000000000E+00  0.00000000000E+00  0.10789813911E+04  0.10789813911E+04  0.50400001928E-02 0.  1.
       -1   -1    0    0    0  501  0.00000000000E+00  0.00000000000E+00 -0.22780817908E+04  0.22780817908E+04  0.50400001928E-02 0. -1.
    10030    2    1    2    0    0  0.00000000000E+00  0.00000000000E+00 -0.11991003997E+04  0.33570631819E+04  0.31356070288E+04 0.  0.
        4    1    3    3  502    0  0.62294577879E+03 -0.12884756198E+04 -0.12848976747E+04  0.19233290185E+04  0.12699999809E+01 0. -1.
       -4    1    3    3    0  502 -0.62294577879E+03  0.12884756198E+04  0.85797274941E+02  0.14337341634E+04  0.12699999809E+01 0.  1.
</event>
<event>
 5   0  0.8487944E-07  0.3192210E+04  0.7818609E-02  0.8190877E-01
        1   -1    0    0  501    0  0.00000000000E+00  0.00000000000E+00  0.20093106611E+04  0.20093106611E+04  0.50400001928E-02 0. -1.
       -1   -1    0    0    0  501  0.00000000000E+00  0.00000000000E+00 -0.12678733336E+04  0.12678733336E+04  0.50400001928E-02 0.  1.
    10030    2    1    2    0    0  0.00000000000E+00  0.00000000000E+00  0.74143732747E+03  0.32771839948E+04  0.31922101474E+04 0.  0.
        2    1    3    3  502    0 -0.13723279680E+04  0.86002258656E+02  0.12027685863E+04  0.18268368051E+04  0.25500000920E-02 0.  1.
       -2    1    3    3    0  502  0.13723279680E+04 -0.86002258656E+02 -0.46133125879E+03  0.14503471897E+04  0.25500000920E-02 0. -1.
</event>
<event>
 5   0  0.2621528E-06  0.3104125E+04  0.7818609E-02  0.8214607E-01
        2   -1    0    0  501    0  0.00000000000E+00  0.00000000000E+00  0.15720169616E+04  0.15720169616E+04  0.25500000920E-02 0. -1.
       -2   -1    0    0    0  501  0.00000000000E+00  0.00000000000E+00 -0.15323608574E+04  0.15323608574E+04  0.25500000920E-02 0.  1.
    10030    2    1    2    0    0  0.00000000000E+00  0.00000000000E+00  0.39656104146E+02  0.31043778190E+04  0.31041245202E+04 0.  0.
        2    1    3    3  502    0  0.12642045157E+04  0.77630525904E+03 -0.43631698988E+03  0.15463619979E+04  0.25500000920E-02 0.  1.
       -2    1    3    3    0  502 -0.12642045157E+04 -0.77630525904E+03  0.47597309403E+03  0.15580158212E+04  0.25500000920E-02 0. -1.
</event>
<event>
 5   0  0.2337504E-06  0.3172261E+04  0.7818609E-02  0.8196182E-01
       -2   -1    0    0    0  501  0.00000000000E+00  0.00000000000E+00  0.95234781283E+03  0.95234781283E+03  0.25500000920E-02 0. -1.
        2   -1    0    0  501    0  0.00000000000E+00  0.00000000000E+00 -0.26416929454E+04  0.26416929454E+04  0.25500000920E-02 0.  1.
    10030    2    1    2    0    0  0.00000000000E+00  0.00000000000E+00 -0.16893451326E+04  0.35940407582E+04  0.31722613377E+04 0.  0.
        1    1    3    3  502    0  0.12699720877E+04  0.86718437451E+03 -0.12848858942E+04  0.20039385230E+04  0.50400001928E-02 0. -1.
       -1    1    3    3    0  502 -0.12699720877E+04 -0.86718437451E+03 -0.40445923832E+03  0.15901022352E+04  0.50400001928E-02 0.  1.
</event>
<event>
 5   0  0.2401139E-06  0.3218365E+04  0.7818609E-02  0.8183984E-01
       -2   -1    0    0    0  501  0.00000000000E+00  0.00000000000E+00  0.11539714950E+04  0.11539714950E+04  0.25500000920E-02 0.  1.
        2   -1    0    0  501    0  0.00000000000E+00  0.00000000000E+00 -0.22439619775E+04  0.22439619775E+04  0.25500000920E-02 0. -1.
    10030    2    1    2    0    0  0.00000000000E+00  0.00000000000E+00 -0.10899904825E+04  0.33979334725E+04  0.32183649003E+04 0.  0.
        5    1    3    3  502    0  0.30108358227E+03 -0.14137773336E+04 -0.12915762224E+04  0.19384552873E+04  0.46999998093E+01 0. -1.
       -5    1    3    3    0  502 -0.30108358227E+03  0.14137773336E+04  0.20158573998E+03  0.14594781852E+04  0.46999998093E+01 0.  1.
</event>
<event>
 5   0  0.2337504E-06  0.3234145E+04  0.7818609E-02  0.8179857E-01
        2   -1    0    0  501    0  0.00000000000E+00  0.00000000000E+00  0.13700534431E+04  0.13700534431E+04  0.25500000920E-02 0.  1.
       -2   -1    0    0    0  501  0.00000000000E+00  0.00000000000E+00 -0.19086291847E+04  0.19086291847E+04  0.25500000920E-02 0. -1.
    10030    2    1    2    0    0  0.00000000000E+00  0.00000000000E+00 -0.53857574165E+03  0.32786826278E+04  0.32341453190E+04 0.  0.
        1    1    3    3  502    0 -0.15496508786E+04  0.38297412638E+03 -0.53137650674E+03  0.16823935387E+04  0.50400001928E-02 0. -1.
       -1    1    3    3    0  502  0.15496508786E+04 -0.38297412638E+03 -0.71992349115E+01  0.15962890891E+04  0.50400001928E-02 0.  1.
</event>
<event>
 5   0  0.8681172E-07  0.3191675E+04  0.7818609E-02  0.8191019E-01
       -1   -1    0    0    0  501  0.00000000000E+00  0.00000000000E+00  0.17396485775E+04  0.17396485775E+04  0.50400001928E-02 0.  1.
        1   -1    0    0  501    0  0.00000000000E+00  0.00000000000E+00 -0.14639152081E+04  0.14639152081E+04  0.50400001928E-02 0. -1.
    10030    2    1    2    0    0  0.00000000000E+00  0.00000000000E+00  0.27573336938E+03  0.32035637856E+04  0.31916754280E+04 0.  0.
        1    1    3    3  502    0  0.27380882495E+03  0.87037258796E+03 -0.11762763919E+04  0.14886725176E+04  0.50400001928E-02 0. -1.
       -1    1    3    3    0  502 -0.27380882495E+03 -0.87037258796E+03  0.14520097613E+04  0.17148912681E+04  0.50400001928E-02 0.  1.
</event>
<event>
 5   0  0.2401139E-06  0.3031373E+04  0.7818609E-02  0.8234828E-01
        2   -1    0    0  501    0  0.00000000000E+00  0.00000000000E+00  0.21819850709E+04  0.21819850709E+04  0.25500000920E-02 0. -1.
       -2   -1    0    0    0  501  0.00000000000E+00  0.00000000000E+00 -0.10528513395E+04  0.10528513395E+04  0.25500000920E-02 0.  1.
    10030    2    1    2    0    0  0.00000000000E+00  0.00000000000E+00  0.11291337314E+04  0.32348364103E+04  0.30313732232E+04 0.  0.
        5    1    3    3  502    0 -0.29916213657E+03 -0.13961558763E+04  0.21976286298E+02  0.14280246013E+04  0.46999998093E+01 0.  1.
       -5    1    3    3    0  502  0.29916213657E+03  0.13961558763E+04  0.11071574451E+04  0.18068118090E+04  0.46999998093E+01 0. -1.
</event>
<event>
 5   0  0.2404430E-06  0.3176982E+04  0.7818609E-02  0.8194923E-01
       -2   -1    0    0    0  501  0.00000000000E+00  0.00000000000E+00  0.15844590094E+04  0.15844590094E+04  0.25500000920E-02 0.  1.
        2   -1    0    0  501    0  0.00000000000E+00  0.00000000000E+00 -0.15925330415E+04  0.15925330415E+04  0.25500000920E-02 0. -1.
    10030    2    1    2    0    0  0.00000000000E+00  0.00000000000E+00 -0.80740321587E+01  0.31769920509E+04  0.31769817912E+04 0.  0.
        4    1    3    3  502    0 -0.36386701204E+02  0.15199697518E+04 -0.46411422834E+03  0.15896652692E+04  0.12699999809E+01 0.  1.
       -4    1    3    3    0  502  0.36386701204E+02 -0.15199697518E+04  0.45604019618E+03  0.15873267817E+04  0.12699999809E+01 0. -1.
</event>
<event>
 5   0  0.2404430E-06  0.3156480E+04  0.7818609E-02  0.8200406E-01
       -2   -1    0    0    0  501  0.00000000000E+00  0.00000000000E+00  0.13479876465E+04  0.13479876465E+04  0.25500000920E-02 0. -1.
        2   -1    0    0  501    0  0.00000000000E+00  0.00000000000E+00 -0.18478218583E+04  0.18478218583E+04  0.25500000920E-02 0.  1.
    10030    2    1    2    0    0  0.00000000000E+00  0.00000000000E+00 -0.49983421182E+03  0.31958095049E+04  0.31564797088E+04 0.  0.
        4    1    3    3  502    0 -0.15172633201E+04 -0.10388599335E+03 -0.67702542938E+03  0.16647057779E+04  0.12699999809E+01 0.  1.
       -4    1    3    3    0  502  0.15172633201E+04  0.10388599335E+03  0.17719121756E+03  0.15311037269E+04  0.12699999809E+01 0. -1.
</event>
<event>
 5   0  0.8487944E-07  0.3151198E+04  0.7818609E-02  0.8201826E-01
        1   -1    0    0  501    0  0.00000000000E+00  0.00000000000E+00  0.21160564460E+04  0.21160564460E+04  0.50400001928E-02 0.  1.
       -1   -1    0    0    0  501  0.00000000000E+00  0.00000000000E+00 -0.11731783811E+04  0.11731783811E+04  0.50400001928E-02 0. -1.
    10030    2    1    2    0    0  0.00000000000E+00  0.00000000000E+00  0.94287806491E+03  0.32892348271E+04  0.31511976616E+04 0.  0.
        2    1    3    3  502    0 -0.17540568565E+03 -0.15654203843E+04  0.43522726221E+03  0.16342371015E+04  0.25500000920E-02 0. -1.
       -2    1    3    3    0  502  0.17540568565E+03  0.15654203843E+04  0.50765080270E+03  0.16549977256E+04  0.25500000920E-02 0.  1.
</event>
<event>
 5   0  0.8545153E-07  0.3214788E+04  0.7818609E-02  0.8184922E-01
       -1   -1    0    0    0  501  0.00000000000E+00  0.00000000000E+00  0.11504323112E+04  0.11504323112E+04  0.50400001928E-02 0. -1.
        1   -1    0    0  501    0  0.00000000000E+00  0.00000000000E+00 -0.22458654412E+04  0.22458654412E+04  0.50400001928E-02 0.  1.
    10030    2    1    2    0    0  0.00000000000E+00  0.00000000000E+00 -0.10954331300E+04  0.33962977525E+04  0.32147884349E+04 0.  0.
        3    1    3    3  502    0  0.84871113282E+03 -0.54306527826E+03  0.77538638873E+03  0.12713986572E+04  0.10100000352E+00 0. -1.
       -3    1    3    3    0  502 -0.84871113282E+03  0.54306527826E+03 -0.18708195187E+04  0.21248990953E+04  0.10100000352E+00 0.  1.
</event>
<event>
 5   0  0.8512855E-07  0.3197730E+04  0.7818609E-02  0.8189417E-01
        1   -1    0    0  501    0  0.00000000000E+00  0.00000000000E+00  0.19170061177E+04  0.19170061177E+04  0.50400001928E-02 0. -1.
       -1   -1    0    0    0  501  0.00000000000E+00  0.00000000000E+00 -0.13335217876E+04  0.13335217876E+04  0.50400001928E-02 0.  1.
    10030    2    1    2    0    0  0.00000000000E+00  0.00000000000E+00  0.58348433005E+03  0.32505279053E+04  0.31977300855E+04 0.  0.
        5    1    3    3  502    0 -0.14347815678E+04  0.65747750167E+03  0.55184293140E+03  0.16719532061E+04  0.46999998093E+01 0.  1.
       -5    1    3    3    0  502  0.14347815678E+04 -0.65747750167E+03  0.31641398652E+02  0.15785746991E+04  0.46999998093E+01 0. -1.
</event>
<event>
 5   0  0.2404430E-06  0.3187060E+04  0.7818609E-02  0.8192243E-01
       -2   -1    0    0    0  501  0.00000000000E+00  0.00000000000E+00  0.23138399793E+04  0.23138399793E+04  0.25500000920E-02 0. -1.
        2   -1    0    0  501    0  0.00000000000E+00  0.00000000000E+00 -0.10974560763E+04  0.10974560763E+04  0.25500000920E-02 0.  1.
    10030    2    1    2    0    0  0.00000000000E+00  0.00000000000E+00  0.12163839031E+04  0.34112960556E+04  0.31870599271E+04 0.  0.
        4    1    3    3  502    0  0.13398500261E+04  0.51471887387E+03  0.13491416560E+04  0.19698523885E+04  0.12699999809E+01 0. -1.
       -4    1    3    3    0  502 -0.13398500261E+04 -0.51471887387E+03 -0.13275775296E+03  0.14414436671E+04  0.12699999809E+01 0.  1.
</event>
<event>
 5   0  0.2401139E-06  0.3189508E+04  0.7818609E-02  0.8191594E-01
       -2   -1    0    0    0  501  0.00000000000E+00  0.00000000000E+00  0.16522727399E+04  0.16522727399E+04  0.25500000920E-02 0. -1.
        2   -1    0    0  501    0  0.00000000000E+00  0.00000000000E+00 -0.15392372242E+04  0.15392372242E+04  0.25500000920E-02 0.  1.
    10030    2    1    2    0    0  0.00000000000E+00  0.00000000000E+00  0.11303551567E+03  0.31915099641E+04  0.31895076145E+04 0.  0.
        5    1    3    3  502    0  0.18502157605E+03  0.97830468319E+03 -0.11900189401E+04  0.15516056859E+04  0.46999998093E+01 0.  1.
       -5    1    3    3    0  502 -0.18502157605E+03 -0.97830468319E+03  0.13030544558E+04  0.16399042782E+04  0.46999998093E+01 0. -1.
</event>
<event>
 5   0  0.2337504E-06  0.2768459E+04  0.7818609E-02  0.8313128E-01
       -2   -1    0    0    0  501  0.00000000000E+00  0.00000000000E+00  0.10191944258E+04  0.10191944258E+04  0.25500000920E-02 0.  1.
        2   -1    0    0  501    0  0.00000000000E+00  0.00000000000E+00 -0.18800057079E+04  0.18800057079E+04  0.25500000920E-02 0. -1.
    10030    2    1    2    0    0  0.00000000000E+00  0.00000000000E+00 -0.86081128204E+03  0.28992001337E+04  0.27684590212E+04 0.  0.
        1    1    3    3  502    0  0.11438221607E+04  0.63787660986E+03 -0.89976310225E+03  0.15889585724E+04  0.50400001928E-02 0. -1.
       -1    1    3    3    0  502 -0.11438221607E+04 -0.63787660986E+03  0.38951820201E+02  0.13102415613E+04  0.50400001928E-02 0.  1.
</event>
<event>
 5   0  0.2337504E-06  0.3182450E+04  0.7818609E-02  0.8193467E-01
       -2   -1    0    0    0  501  0.00000000000E+00  0.00000000000E+00  0.19811520516E+04  0.19811520516E+04  0.25500000920E-02 0.  1.
        2   -1    0    0  501    0  0.00000000000E+00  0.00000000000E+00 -0.12780429954E+04  0.12780429954E+04  0.25500000920E-02 0. -1.
    10030    2    1    2    0    0  0.00000000000E+00  0.00000000000E+00  0.70310905621E+03  0.32591950470E+04  0.31824503153E+04 0.  0.
        1    1    3    3  502    0  0.30739370230E+03 -0.46765255201E+03  0.18770416727E+04  0.19586922266E+04  0.50400001928E-02 0.  1.
       -1    1    3    3    0  502 -0.30739370230E+03  0.46765255201E+03 -0.11739326165E+04  0.13005028203E+04  0.50400001928E-02 0. -1.
</event>
<event>
 5   0  0.7934375E-07  0.3195331E+04  0.7818609E-02  0.8190051E-01
        3   -1    0    0  501    0  0.00000000000E+00  0.00000000000E+00  0.20326205981E+04  0.20326206007E+04  0.10100000352E+00 0. -1.
       -3   -1    0    0    0  501  0.00000000000E+00  0.00000000000E+00 -0.12557851872E+04  0.12557851913E+04  0.10100000352E+00 0.  1.
    10030    2    1    2    0    0  0.00000000000E+00  0.00000000000E+00  0.77683541092E+03  0.32884057919E+04  0.31953308744E+04 0.  0.
        4    1    3    3  502    0 -0.12115191692E+04 -0.88734689252E+03  0.94961835890E+03  0.17767779393E+04  0.12699999809E+01 0. -1.
       -4    1    3    3    0  502  0.12115191692E+04  0.88734689252E+03 -0.17278294798E+03  0.15116278527E+04  0.12699999809E+01 0.  1.
</event>
<event>
 5   0  0.7934375E-07  0.3266917E+04  0.7818609E-02  0.8171365E-01
        3   -1    0    0  501    0  0.00000000000E+00  0.00000000000E+00  0.15211681255E+04  0.15211681289E+04  0.10100000352E+00 0.  1.
       -3   -1    0    0    0  501  0.00000000000E+00  0.00000000000E+00 -0.17540378345E+04  0.17540378374E+04  0.10100000352E+00 0. -1.
    10030    2    1    2    0    0  0.00000000000E+00  0.00000000000E+00 -0.23286970897E+03  0.32752059662E+04  0.32669168676E+04 0.  0.
        4    1    3    3  502    0 -0.45741672431E+03  0.25638857022E+03 -0.16673634958E+04  0.17478752240E+04  0.12699999809E+01 0. -1.
       -4    1    3    3    0  502  0.45741672431E+03 -0.25638857022E+03  0.14344937869E+04  0.15273307422E+04  0.12699999809E+01 0.  1.
</event>
<event>
 5   0  0.2404430E-06  0.3221592E+04  0.7818609E-02  0.8183138E-01
       -2   -1    0    0    0  501  0.00000000000E+00  0.00000000000E+00  0.18887167192E+04  0.18887167192E+04  0.25500000920E-02 0.  1.
        2   -1    0    0  501    0  0.00000000000E+00  0.00000000000E+00 -0.13737703736E+04  0.13737703736E+04  0.25500000920E-02 0. -1.
    10030    2    1    2    0    0  0.00000000000E+00  0.00000000000E+00  0.51494634563E+03  0.32624870928E+04  0.32215915774E+04 0.  0.
        4    1    3    3  502    0  0.11752753193E+03 -0.70297985762E+03  0.17203407189E+04  0.18621404896E+04  0.12699999809E+01 0.  1.
       -4    1    3    3    0  502 -0.11752753193E+03  0.70297985762E+03 -0.12053943733E+04  0.14003466032E+04  0.12699999809E+01 0. -1.
</event>
<event>
 5   0  0.8383008E-07  0.3188366E+04  0.7818609E-02  0.8191896E-01
       -1   -1    0    0    0  501  0.00000000000E+00  0.00000000000E+00  0.10919877916E+04  0.10919877916E+04  0.50400001928E-02 0. -1.
        1   -1    0    0  501    0  0.00000000000E+00  0.00000000000E+00 -0.23273330895E+04  0.23273330895E+04  0.50400001928E-02 0.  1.
    10030    2    1    2    0    0  0.00000000000E+00  0.00000000000E+00 -0.12353452979E+04  0.34193208811E+04  0.31883659268E+04 0.  0.
        4    1    3    3  502    0  0.38338651573E+03 -0.15199853572E+04 -0.30670851170E+03  0.15973141302E+04  0.12699999809E+01 0.  1.
       -4    1    3    3    0  502 -0.38338651573E+03  0.15199853572E+04 -0.92863678618E+03  0.18220067509E+04  0.12699999809E+01 0. -1.
</event>
<event>
 5   0  0.2404430E-06  0.3182808E+04  0.7818609E-02  0.8193372E-01
        2   -1    0    0  501    0  0.00000000000E+00  0.00000000000E+00  0.24216886542E+04  0.24216886542E+04  0.25500000920E-02 0. -1.
       -2   -1    0    0    0  501  0.00000000000E+00  0.00000000000E+00 -0.10457851936E+04  0.10457851936E+04  0.25500000920E-02 0.  1.
    10030    2    1    2    0    0  0.00000000000E+00  0.00000000000E+00  0.13759034605E+04  0.34674738478E+04  0.31828076525E+04 0.  0.
        4    1    3    3  502    0  0.84980505642E+03 -0.77500611549E+03 -0.51031269114E+03  0.12582622018E+04  0.12699999809E+01 0.  1.
       -4    1    3    3    0  502 -0.84980505642E+03  0.77500611549E+03  0.18862161517E+04  0.22092116460E+04  0.12699999809E+01 0. -1.
</event>
<event>
 5   0  0.8545153E-07  0.2916181E+04  0.7818609E-02  0.8268079E-01
        1   -1    0    0  501    0  0.00000000000E+00  0.00000000000E+00  0.14284602657E+04  0.14284602657E+04  0.50400001928E-02 0. -1.
       -1   -1    0    0    0  501  0.00000000000E+00  0.00000000000E+00 -0.14883357164E+04  0.14883357164E+04  0.50400001928E-02 0.  1.
    10030    2    1    2    0    0  0.00000000000E+00  0.00000000000E+00 -0.59875450620E+02  0.29167959821E+04  0.29161813612E+04 0.  0.
        3    1    3    3  502    0 -0.14439576286E+04  0.20141274505E+03 -0.87744435729E+01  0.14579635551E+04  0.10100000352E+00 0. -1.
       -3    1    3    3    0  502  0.14439576286E+04 -0.20141274505E+03 -0.51101007047E+02  0.14588324270E+04  0.10100000352E+00 0.  1.
</event>
<event>
 5   0  0.8383008E-07  0.3197914E+04  0.7818609E-02  0.8189368E-01
        1   -1    0    0  501    0  0.00000000000E+00  0.00000000000E+00  0.27267581368E+04  0.27267581368E+04  0.50400001928E-02 0. -1.
       -1   -1    0    0    0  501  0.00000000000E+00  0.00000000000E+00 -0.93762030853E+03  0.93762030855E+03  0.50400001928E-02 0.  1.
    10030    2    1    2    0    0  0.00000000000E+00  0.00000000000E+00  0.17891378282E+04  0.36643784453E+04  0.31979141987E+04 0.  0.
        4    1    3    3  502    0 -0.12233100663E+04  0.98558729210E+03  0.55312347050E+03  0.16654780140E+04  0.12699999809E+01 0.  1.
       -4    1    3    3    0  502  0.12233100663E+04 -0.98558729210E+03  0.12360143577E+04  0.19989004313E+04  0.12699999809E+01 0. -1.
</event>
<event>
 5   0  0.8487944E-07  0.3230107E+04  0.7818609E-02  0.8180911E-01
        1   -1    0    0  501    0  0.00000000000E+00  0.00000000000E+00  0.20834361635E+04  0.20834361635E+04  0.50400001928E-02 0.  1.
       -1   -1    0    0    0  501  0.00000000000E+00  0.00000000000E+00 -0.12519689228E+04  0.12519689228E+04  0.50400001928E-02 0. -1.
    10030    2    1    2    0    0  0.00000000000E+00  0.00000000000E+00  0.83146724073E+03  0.33354050863E+04  0.32301067037E+04 0.  0.
        2    1    3    3  502    0 -0.59964236166E+03 -0.25982569706E+03 -0.11093410467E+04  0.12875239464E+04  0.25500000920E-02 0. -1.
       -2    1    3    3    0  502  0.59964236166E+03  0.25982569706E+03  0.19408082874E+04  0.20478811399E+04  0.25500000920E-02 0.  1.
</event>
<event>
 5   0  0.2337504E-06  0.3207797E+04  0.7818609E-02  0.8186761E-01
       -2   -1    0    0    0  501  0.00000000000E+00  0.00000000000E+00  0.13954153358E+04  0.13954153358E+04  0.25500000920E-02 0. -1.
        2   -1    0    0  501    0  0.00000000000E+00  0.00000000000E+00 -0.18435306056E+04  0.18435306056E+04  0.25500000920E-02 0.  1.
    10030    2    1    2    0    0  0.00000000000E+00  0.00000000000E+00 -0.44811526981E+03  0.32389459414E+04  0.32077972998E+04 0.  0.
        1    1    3    3  502    0 -0.60426083181E+02  0.15868622760E+04  0.33126325364E+01  0.15880157959E+04  0.50400001928E-02 0. -1.
       -1    1    3    3    0  502  0.60426083181E+02 -0.15868622760E+04 -0.45142790235E+03  0.16509301455E+04  0.50400001928E-02 0.  1.
</event>
<event>
 5   0  0.8545153E-07  0.2925159E+04  0.7818609E-02  0.8265431E-01
       -1   -1    0    0    0  501  0.00000000000E+00  0.00000000000E+00  0.11711597860E+04  0.11711597860E+04  0.50400001928E-02 0.  1.
        1   -1    0    0  501    0  0.00000000000E+00  0.00000000000E+00 -0.18265137523E+04  0.18265137523E+04  0.50400001928E-02 0. -1.
    10030    2    1    2    0    0  0.00000000000E+00  0.00000000000E+00 -0.65535396626E+03  0.29976735383E+04  0.29251594522E+04 0.  0.
        3    1    3    3  502    0  0.59432523348E+03  0.82733305203E+03  0.74783342320E+03  0.12637077594E+04  0.10100000352E+00 0.  1.
       -3    1    3    3    0  502 -0.59432523348E+03 -0.82733305203E+03 -0.14031873895E+04  0.17339657789E+04  0.10100000352E+00 0. -1.
</event>
<event>
 5   0  0.2337504E-06  0.3190747E+04  0.7818609E-02  0.8191265E-01
        2   -1    0    0  501    0  0.00000000000E+00  0.00000000000E+00  0.10144284083E+04  0.10144284083E+04  0.25500000920E-02 0. -1.
       -2   -1    0    0    0  501  0.00000000000E+00  0.00000000000E+00 -0.25090160542E+04  0.25090160542E+04  0.25500000920E-02 0.  1.
    10030    2    1    2    0    0  0.00000000000E+00  0.00000000000E+00 -0.14945876459E+04  0.35234444625E+04  0.31907473496E+04 0.  0.
        1    1    3    3  502    0  0.12297369235E+04 -0.10163336138E+04 -0.75336697938E+03  0.17642983651E+04  0.50400001928E-02 0. -1.
       -1    1    3    3    0  502 -0.12297369235E+04  0.10163336138E+04 -0.74122066648E+03  0.17591460974E+04  0.50400001928E-02 0.  1.
</event>
<event>
 5   0  0.2621528E-06  0.3175187E+04  0.7818609E-02  0.8195401E-01
        2   -1    0    0  501    0  0.00000000000E+00  0.00000000000E+00  0.18942198687E+04  0.18942198687E+04  0.25500000920E-02 0. -1.
       -2   -1    0    0    0  501  0.00000000000E+00  0.00000000000E+00 -0.13306024185E+04  0.13306024185E+04  0.25500000920E-02 0.  1.
    10030    2    1    2    0    0  0.00000000000E+00  0.00000000000E+00  0.56361745024E+03  0.32248222873E+04  0.31751872629E+04 0.  0.
        2    1    3    3  502    0 -0.33321936399E+03  0.14643765077E+04 -0.24103949603E+03  0.15210304860E+04  0.25500000920E-02 0. -1.
       -2    1    3    3    0  502  0.33321936399E+03 -0.14643765077E+04  0.80465694627E+03  0.17037918012E+04  0.25500000920E-02 0.  1.
</event>
<event>
 5   0  0.2404430E-06  0.3192629E+04  0.7818609E-02  0.8190767E-01
        2   -1    0    0  501    0  0.00000000000E+00  0.00000000000E+00  0.15976693213E+04  0.15976693213E+04  0.25500000920E-02 0. -1.
       -2   -1    0    0    0  501  0.00000000000E+00  0.00000000000E+00 -0.15949606871E+04  0.15949606871E+04  0.25500000920E-02 0.  1.
    10030    2    1    2    0    0  0.00000000000E+00  0.00000000000E+00  0.27086342109E+01  0.31926300084E+04  0.31926288594E+04 0.  0.
        4    1    3    3  502    0 -0.23225362460E+03  0.15359270538E+03  0.15731963762E+04  0.15976485584E+04  0.12699999809E+01 0. -1.
       -4    1    3    3    0  502  0.23225362460E+03 -0.15359270538E+03 -0.15704877420E+04  0.15949814500E+04  0.12699999809E+01 0.  1.
</event>
<event>
 5   0  0.8383008E-07  0.3208218E+04  0.7818609E-02  0.8186650E-01
        1   -1    0    0  501    0  0.00000000000E+00  0.00000000000E+00  0.12593359781E+04  0.12593359781E+04  0.50400001928E-02 0.  1.
       -1   -1    0    0    0  501  0.00000000000E+00  0.00000000000E+00 -0.20432721117E+04  0.20432721117E+04  0.50400001928E-02 0. -1.
    10030    2    1    2    0    0  0.00000000000E+00  0.00000000000E+00 -0.78393613359E+03  0.33026080898E+04  0.32082182490E+04 0.  0.
        4    1    3    3  502    0  0.30955156760E+03 -0.14521176381E+04 -0.10170367471E+04  0.17996758502E+04  0.12699999809E+01 0. -1.
       -4    1    3    3    0  502 -0.30955156760E+03  0.14521176381E+04  0.23310061353E+03  0.15029322396E+04  0.12699999809E+01 0.  1.
</event>
<event>
 5   0  0.8681172E-07  0.3201116E+04  0.7818609E-02  0.8188522E-01
       -1   -1    0    0    0  501  0.00000000000E+00  0.00000000000E+00  0.26821037482E+04  0.26821037482E+04  0.50400001928E-02 0. -1.
        1   -1    0    0  501    0  0.00000000000E+00  0.00000000000E+00 -0.95514067036E+03  0.95514067038E+03  0.50400001928E-02 0.  1.
    10030    2    1    2    0    0  0.00000000000E+00  0.00000000000E+00  0.17269630778E+04  0.36372444186E+04  0.32011162878E+04 0.  0.
        1    1    3    3  502    0 -0.15583221152E+04 -0.28440821166E+03  0.60305999334E+03  0.16949741004E+04  0.50400001928E-02 0. -1.
       -1    1    3    3    0  502  0.15583221152E+04  0.28440821166E+03  0.11239030845E+04  0.19422703181E+04  0.50400001928E-02 0.  1.
</event>
<event>
 5   0  0.2404430E-06  0.3210832E+04  0.7818609E-02  0.8185962E-01
       -2   -1    0    0    0  501  0.00000000000E+00  0.00000000000E+00  0.10815759536E+04  0.10815759536E+04  0.25500000920E-02 0.  1.
        2   -1    0    0  501    0  0.00000000000E+00  0.00000000000E+00 -0.23829674448E+04  0.23829674448E+04  0.25500000920E-02 0. -1.
    10030    2    1    2    0    0  0.00000000000E+00  0.00000000000E+00 -0.13013914912E+04  0.34645433984E+04  0.32108318465E+04 0.  0.
        4    1    3    3  502    0 -0.10674822994E+04  0.93442678678E+03  0.16013883031E+03  0.14276967245E+04  0.12699999809E+01 0.  1.
       -4    1    3    3    0  502  0.10674822994E+04 -0.93442678678E+03 -0.14615303215E+04  0.20368466739E+04  0.12699999809E+01 0. -1.
</event>
<event>
 5   0  0.2401139E-06  0.3196340E+04  0.7818609E-02  0.8189784E-01
       -2   -1    0    0    0  501  0.00000000000E+00  0.00000000000E+00  0.20832167726E+04  0.20832167726E+04  0.25500000920E-02 0.  1.
        2   -1    0    0  501    0  0.00000000000E+00  0.00000000000E+00 -0.12260596139E+04  0.12260596139E+04  0.25500000920E-02 0. -1.
    10030    2    1    2    0    0  0.00000000000E+00  0.00000000000E+00  0.85715715866E+03  0.33092763864E+04  0.31963403773E+04 0.  0.
        5    1    3    3  502    0 -0.11472782698E+04 -0.19104401005E+03  0.15633812005E+04  0.19485707866E+04  0.46999998093E+01 0.  1.
       -5    1    3    3    0  502  0.11472782698E+04  0.19104401005E+03 -0.70622404187E+03  0.13607055999E+04  0.46999998093E+01 0. -1.
</event>
<event>
 5   0  0.8487944E-07  0.3209521E+04  0.7818609E-02  0.8186307E-01
       -1   -1    0    0    0  501  0.00000000000E+00  0.00000000000E+00  0.18442838079E+04  0.18442838079E+04  0.50400001928E-02 0. -1.
        1   -1    0    0  501    0  0.00000000000E+00  0.00000000000E+00 -0.13963447873E+04  0.13963447873E+04  0.50400001928E-02 0.  1.
    10030    2    1    2    0    0  0.00000000000E+00  0.00000000000E+00  0.44793902059E+03  0.32406285953E+04  0.32095208873E+04 0.  0.
        2    1    3    3  502    0 -0.14243501730E+04  0.59712714723E+03 -0.21605463062E+03  0.15594915353E+04  0.25500000920E-02 0. -1.
       -2    1    3    3    0  502  0.14243501730E+04 -0.59712714723E+03  0.66399365120E+03  0.16811370599E+04  0.25500000920E-02 0.  1.
</event>
<event>
 5   0  0.8545153E-07  0.3260571E+04  0.7818609E-02  0.8173001E-01
        1   -1    0    0  501    0  0.00000000000E+00  0.00000000000E+00  0.21513735054E+04  0.21513735054E+04  0.50400001928E-02 0. -1.
       -1   -1    0    0    0  501  0.00000000000E+00  0.00000000000E+00 -0.12354109516E+04  0.12354109517E+04  0.50400001928E-02 0.  1.
    10030    2    1    2    0    0  0.00000000000E+00  0.00000000000E+00  0.91596255377E+03  0.33867844571E+04  0.32605707413E+04 0.  0.
        3    1    3    3  502    0  0.13108245755E+04  0.90118543733E+03  0.82877877205E+03  0.17936751444E+04  0.10100000352E+00 0. -1.
       -3    1    3    3    0  502 -0.13108245755E+04 -0.90118543733E+03  0.87183781711E+02  0.15931093127E+04  0.10100000352E+00 0.  1.
</event>
<event>
 5   0  0.2621528E-06  0.3199172E+04  0.7818609E-02  0.8189036E-01
       -2   -1    0    0    0  501  0.00000000000E+00  0.00000000000E+00  0.11744889814E+04  0.11744889814E+04  0.25500000920E-02 0. -1.
        2   -1    0    0  501    0  0.00000000000E+00  0.00000000000E+00 -0.21785433307E+04  0.21785433307E+04  0.25500000920E-02 0.  1.
    10030    2    1    2    0    0  0.00000000000E+00  0.00000000000E+00 -0.10040543493E+04  0.33530323122E+04  0.31991718538E+04 0.  0.
        2    1    3    3  502    0  0.10184048036E+04 -0.51467483813E+03  0.67288396492E+03  0.13246929316E+04  0.25500000920E-02 0. -1.
       -2    1    3    3    0  502 -0.10184048036E+04  0.51467483813E+03 -0.16769383142E+04  0.20283393805E+04  0.25500000920E-02 0.  1.
</event>
<event>
 5   0  0.2404430E-06  0.3202415E+04  0.7818609E-02  0.8188180E-01
       -2   -1    0    0    0  501  0.00000000000E+00  0.00000000000E+00  0.11728823737E+04  0.11728823737E+04  0.25500000920E-02 0.  1.
        2   -1    0    0  501    0  0.00000000000E+00  0.00000000000E+00 -0.21859532557E+04  0.21859532557E+04  0.25500000920E-02 0. -1.
    10030    2    1    2    0    0  0.00000000000E+00  0.00000000000E+00 -0.10130708820E+04  0.33588356294E+04  0.32024153655E+04 0.  0.
        4    1    3    3  502    0 -0.38112891469E+02 -0.15986834200E+04 -0.59189334320E+03  0.17051629284E+04  0.12699999809E+01 0.  1.
       -4    1    3    3    0  502  0.38112891469E+02  0.15986834200E+04 -0.42117753876E+03  0.16536727010E+04  0.12699999809E+01 0. -1.
</event>
<event>
 5   0  0.8681172E-07  0.3197874E+04  0.7818609E-02  0.8189379E-01
        1   -1    0    0  501    0  0.00000000000E+00  0.00000000000E+00  0.21441042007E+04  0.21441042007E+04  0.50400001928E-02 0. -1.
       -1   -1    0    0    0  501  0.00000000000E+00  0.00000000000E+00 -0.11923857778E+04  0.11923857778E+04  0.50400001928E-02 0.  1.
    10030    2    1    2    0    0  0.00000000000E+00  0.00000000000E+00  0.95171842295E+03  0.33364899785E+04  0.31978738906E+04 0.  0.
        1    1    3    3  502    0  0.54500975215E+03 -0.22085890251E+03 -0.10754620799E+04  0.12257377249E+04  0.50400001928E-02 0.  1.
       -1    1    3    3    0  502 -0.54500975215E+03  0.22085890251E+03  0.20271805029E+04  0.21107522536E+04  0.50400001928E-02 0. -1.
</event>
<event>
 5   0  0.8681172E-07  0.3185856E+04  0.7818609E-02  0.8192563E-01
        1   -1    0    0  501    0  0.00000000000E+00  0.00000000000E+00  0.87282504911E+03  0.87282504912E+03  0.50400001928E-02 0. -1.
       -1   -1    0    0    0  501  0.00000000000E+00  0.00000000000E+00 -0.29071344293E+04  0.29071344293E+04  0.50400001928E-02 0.  1.
    10030    2    1    2    0    0  0.00000000000E+00  0.00000000000E+00 -0.20343093802E+04  0.37799594785E+04  0.31858560866E+04 0.  0.
        1    1    3    3  502    0 -0.65350662574E+03 -0.91837010923E+03  0.31833304202E+03  0.11712431400E+04  0.50400001928E-02 0. -1.
       -1    1    3    3    0  502  0.65350662574E+03  0.91837010923E+03 -0.23526424223E+04  0.26087163384E+04  0.50400001928E-02 0.  1.
</event>
<event>
 5   0  0.2466076E-06  0.3212883E+04  0.7818609E-02  0.8185423E-01
       -2   -1    0    0    0  501  0.00000000000E+00  0.00000000000E+00  0.12274466023E+04  0.12274466023E+04  0.25500000920E-02 0.  1.
        2   -1    0    0  501    0  0.00000000000E+00  0.00000000000E+00 -0.21024579242E+04  0.21024579242E+04  0.25500000920E-02 0. -1.
    10030    2    1    2    0    0  0.00000000000E+00  0.00000000000E+00 -0.87501132190E+03  0.33299045265E+04  0.32128833377E+04 0.  0.
        3    1    3    3  502    0 -0.11654616463E+04  0.11044084740E+04 -0.49071663467E+03  0.16789347075E+04  0.10100000352E+00 0. -1.
       -3    1    3    3    0  502  0.11654616463E+04 -0.11044084740E+04 -0.38429468724E+03  0.16509698190E+04  0.10100000352E+00 0.  1.
</event>
<event>
 5   0  0.8383008E-07  0.3203194E+04  0.7818609E-02  0.8187974E-01
        1   -1    0    0  501    0  0.00000000000E+00  0.00000000000E+00  0.24412343657E+04  0.24412343657E+04  0.50400001928E-02 0. -1.
       -1   -1    0    0    0  501  0.00000000000E+00  0.00000000000E+00 -0.10507443140E+04  0.10507443140E+04  0.50400001928E-02 0.  1.
    10030    2    1    2    0    0  0.00000000000E+00  0.00000000000E+00  0.13904900517E+04  0.34919786797E+04  0.32031941115E+04 0.  0.
        4    1    3    3  502    0 -0.67091243743E+03 -0.34369528737E+03  0.22357471631E+04  0.23594102948E+04  0.12699999809E+01 0. -1.
       -4    1    3    3    0  502  0.67091243743E+03  0.34369528737E+03 -0.84525711139E+03  0.11325683849E+04  0.12699999809E+01 0.  1.
</event>
<event>
 5   0  0.8545153E-07  0.3202632E+04  0.7818609E-02  0.8188122E-01
        1   -1    0    0  501    0  0.00000000000E+00  0.00000000000E+00  0.13447170984E+04  0.13447170984E+04  0.50400001928E-02 0. -1.
       -1   -1    0    0    0  501  0.00000000000E+00  0.00000000000E+00 -0.19068787404E+04  0.19068787404E+04  0.50400001928E-02 0.  1.
    10030    2    1    2    0    0  0.00000000000E+00  0.00000000000E+00 -0.56216164200E+03  0.32515958388E+04  0.32026316971E+04 0.  0.
        3    1    3    3  502    0  0.19202542063E+03  0.66622575568E+03  0.11844144765E+04  0.13724314853E+04  0.10100000352E+00 0. -1.
       -3    1    3    3    0  502 -0.19202542063E+03 -0.66622575568E+03 -0.17465761185E+04  0.18791643535E+04  0.10100000352E+00 0.  1.
</event>
<event>
 5   0  0.8681172E-07  0.3173598E+04  0.7818609E-02  0.8195825E-01
        1   -1    0    0  501    0  0.00000000000E+00  0.00000000000E+00  0.16510013616E+04  0.16510013616E+04  0.50400001928E-02 0.  1.
       -1   -1    0    0    0  501  0.00000000000E+00  0.00000000000E+00 -0.15250930045E+04  0.15250930045E+04  0.50400001928E-02 0. -1.
    10030    2    1    2    0    0  0.00000000000E+00  0.00000000000E+00  0.12590835711E+03  0.31760943660E+04  0.31735977230E+04 0.  0.
        1    1    3    3  502    0  0.15803479848E+04 -0.14143893470E+03  0.83607794782E+02  0.15888659442E+04  0.50400001928E-02 0.  1.
       -1    1    3    3    0  502 -0.15803479848E+04  0.14143893470E+03  0.42300562324E+02  0.15872284218E+04  0.50400001928E-02 0. -1.
</event>
<event>
 5   0  0.8545153E-07  0.3180661E+04  0.7818609E-02  0.8193943E-01
        1   -1    0    0  501    0  0.00000000000E+00  0.00000000000E+00  0.26792602112E+04  0.26792602112E+04  0.50400001928E-02 0. -1.
       -1   -1    0    0    0  501  0.00000000000E+00  0.00000000000E+00 -0.94397340034E+03  0.94397340035E+03  0.50400001928E-02 0.  1.
    10030    2    1    2    0    0  0.00000000000E+00  0.00000000000E+00  0.17352868109E+04  0.36232336116E+04  0.31806605427E+04 0.  0.
        3    1    3    3  502    0  0.81520978749E+03  0.58906756394E+03  0.22709585387E+04  0.24837109911E+04  0.10100000352E+00 0. -1.
       -3    1    3    3    0  502 -0.81520978749E+03 -0.58906756394E+03 -0.53567172779E+03  0.11395226205E+04  0.10100000352E+00 0.  1.
</event>
<event>
 5   0  0.2401139E-06  0.3325342E+04  0.7818609E-02  0.8156477E-01
        2   -1    0    0  501    0  0.00000000000E+00  0.00000000000E+00  0.22990963436E+04  0.22990963436E+04  0.25500000920E-02 0.  1.
       -2   -1    0    0    0  501  0.00000000000E+00  0.00000000000E+00 -0.12024179498E+04  0.12024179498E+04  0.25500000920E-02 0. -1.
    10030    2    1    2    0    0  0.00000000000E+00  0.00000000000E+00  0.10966783938E+04  0.35015142934E+04  0.33253419143E+04 0.  0.
        5    1    3    3  502    0  0.74153717005E+02 -0.53660470407E+03 -0.11068848296E+04  0.12323390354E+04  0.46999998093E+01 0. -1.
       -5    1    3    3    0  502 -0.74153717005E+02  0.53660470407E+03  0.22035632234E+04  0.22691752580E+04  0.46999998093E+01 0.  1.
</event>
<event>
 5   0  0.8383008E-07  0.3168331E+04  0.7818609E-02  0.8197231E-01
       -1   -1    0    0    0  501  0.00000000000E+00  0.00000000000E+00  0.16849297920E+04  0.16849297920E+04  0.50400001928E-02 0.  1.
        1   -1    0    0  501    0  0.00000000000E+00  0.00000000000E+00 -0.14894270613E+04  0.14894270613E+04  0.50400001928E-02 0. -1.
    10030    2    1    2    0    0  0.00000000000E+00  0.00000000000E+00  0.19550273074E+03  0.31743568533E+04  0.31683308089E+04 0.  0.
        4    1    3    3  502    0  0.13759797210E+04 -0.13981604320E+03  0.87169044172E+03  0.16348438940E+04  0.12699999809E+01 0. -1.
       -4    1    3    3    0  502 -0.13759797210E+04  0.13981604320E+03 -0.67618771098E+03  0.15395129593E+04  0.12699999809E+01 0.  1.
</event>
<event>
 5   0  0.8681172E-07  0.3205552E+04  0.7818609E-02  0.8187352E-01
       -1   -1    0    0    0  501  0.00000000000E+00  0.00000000000E+00  0.15956886357E+04  0.15956886357E+04  0.50400001928E-02 0.  1.
        1   -1    0    0  501    0  0.00000000000E+00  0.00000000000E+00 -0.16098946635E+04  0.16098946635E+04  0.50400001928E-02 0. -1.
    10030    2    1    2    0    0  0.00000000000E+00  0.00000000000E+00 -0.14206027796E+02  0.32055832992E+04  0.32055518210E+04 0.  0.
        1    1    3    3  502    0  0.37828762872E+03 -0.83501343059E+03 -0.13218560737E+04  0.16086181769E+04  0.50400001928E-02 0. -1.
       -1    1    3    3    0  502 -0.37828762872E+03  0.83501343059E+03  0.13076500459E+04  0.15969651223E+04  0.50400001928E-02 0.  1.
</event>
<event>
 5   0  0.8545153E-07  0.3192341E+04  0.7818609E-02  0.8190843E-01
       -1   -1    0    0    0  501  0.00000000000E+00  0.00000000000E+00  0.10402498705E+04  0.10402498705E+04  0.50400001928E-02 0.  1.
        1   -1    0    0  501    0  0.00000000000E+00  0.00000000000E+00 -0.24491813681E+04  0.24491813681E+04  0.50400001928E-02 0. -1.
    10030    2    1    2    0    0  0.00000000000E+00  0.00000000000E+00 -0.14089314976E+04  0.34894312385E+04  0.31923412104E+04 0.  0.
        3    1    3    3  502    0 -0.10781747937E+04 -0.45147677568E+03  0.48364356469E+03  0.12649914121E+04  0.10100000352E+00 0.  1.
       -3    1    3    3    0  502  0.10781747937E+04  0.45147677568E+03 -0.18925750623E+04  0.22244398264E+04  0.10100000352E+00 0. -1.
</event>
<event>
 5   0  0.2401139E-06  0.3208747E+04  0.7818609E-02  0.8186511E-01
        2   -1    0    0  501    0  0.00000000000E+00  0.00000000000E+00  0.17195417101E+04  0.17195417101E+04  0.25500000920E-02 0.  1.
       -2   -1    0    0    0  501  0.00000000000E+00  0.00000000000E+00 -0.14969192303E+04  0.14969192303E+04  0.25500000920E-02 0. -1.
    10030    2    1    2    0    0  0.00000000000E+00  0.00000000000E+00  0.22262247979E+03  0.32164609403E+04  0.32087474522E+04 0.  0.
        5    1    3    3  502    0  0.11759564885E+04  0.86494279189E+03 -0.55586613118E+03  0.15620527974E+04  0.46999998093E+01 0. -1.
       -5    1    3    3    0  502 -0.11759564885E+04 -0.86494279189E+03  0.77848861096E+03  0.16544081429E+04  0.46999998093E+01 0.  1.
</event>
<event>
 5   0  0.2404430E-06  0.3160941E+04  0.7818609E-02  0.8199209E-01
       -2   -1    0    0    0  501  0.00000000000E+00  0.00000000000E+00  0.11924303925E+04  0.11924303925E+04  0.25500000920E-02 0.  1.
        2   -1    0    0  501    0  0.00000000000E+00  0.00000000000E+00 -0.20947864856E+04  0.20947864856E+04  0.25500000920E-02 0. -1.
    10030    2    1    2    0    0  0.00000000000E+00  0.00000000000E+00 -0.90235609309E+03  0.32872168780E+04  0.31609410441E+04 0.  0.
        4    1    3    3  502    0  0.10537464366E+03  0.13132978612E+04 -0.13589946104E+04  0.18928082449E+04  0.12699999809E+01 0. -1.
       -4    1    3    3    0  502 -0.10537464366E+03 -0.13132978612E+04  0.45663851731E+03  0.13944086332E+04  0.12699999809E+01 0.  1.
</event>
<event>
 5   0  0.8512855E-07  0.3231321E+04  0.7818609E-02  0.8180594E-01
       -1   -1    0    0    0  501  0.00000000000E+00  0.00000000000E+00  0.28441664444E+04  0.28441664444E+04  0.50400001928E-02 0. -1.
        1   -1    0    0  501    0  0.00000000000E+00  0.00000000000E+00 -0.91779373680E+03  0.91779373682E+03  0.50400001928E-02 0.  1.
    10030    2    1    2    0    0  0.00000000000E+00  0.00000000000E+00  0.19263727076E+04  0.37619601812E+04  0.32313205654E+04 0.  0.
        5    1    3    3  502    0  0.11010354605E+04 -0.11221128870E+04  0.52926004862E+03  0.16587810903E+04  0.46999998093E+01 0.  1.
       -5    1    3    3    0  502 -0.11010354605E+04  0.11221128870E+04  0.13971126590E+04  0.21031790909E+04  0.46999998093E+01 0. -1.
</event>
<event>
 5   0  0.2404430E-06  0.3158603E+04  0.7818609E-02  0.8199836E-01
       -2   -1    0    0    0  501  0.00000000000E+00  0.00000000000E+00  0.12438948232E+04  0.12438948232E+04  0.25500000920E-02 0. -1.
        2   -1    0    0  501    0  0.00000000000E+00  0.00000000000E+00 -0.20051477253E+04  0.20051477253E+04  0.25500000920E-02 0.  1.
    10030    2    1    2    0    0  0.00000000000E+00  0.00000000000E+00 -0.76125290208E+03  0.32490425485E+04  0.31586027767E+04 0.  0.
        4    1    3    3  502    0  0.76035742677E+03  0.13613353284E+04 -0.12282313116E+03  0.15641177792E+04  0.12699999809E+01 0. -1.
       -4    1    3    3    0  502 -0.76035742677E+03 -0.13613353284E+04 -0.63842977093E+03  0.16849247693E+04  0.12699999809E+01 0.  1.
</event>
<event>
 5   0  0.8545153E-07  0.3213285E+04  0.7818609E-02  0.8185318E-01
       -1   -1    0    0    0  501  0.00000000000E+00  0.00000000000E+00  0.91129578652E+03  0.91129578654E+03  0.50400001928E-02 0. -1.
        1   -1    0    0  501    0  0.00000000000E+00  0.00000000000E+00 -0.28325596530E+04  0.28325596530E+04  0.50400001928E-02 0.  1.
    10030    2    1    2    0    0  0.00000000000E+00  0.00000000000E+00 -0.19212638664E+04  0.37438554395E+04  0.32132847224E+04 0.  0.
        3    1    3    3  502    0  0.12923999526E+03 -0.37878101944E+03 -0.27735499529E+04  0.28022771791E+04  0.10100000352E+00 0.  1.
       -3    1    3    3    0  502 -0.12923999526E+03  0.37878101944E+03  0.85228608647E+03  0.94157826040E+03  0.10100000352E+00 0. -1.
</event>
<event>
 5   0  0.2621528E-06  0.3193458E+04  0.7818609E-02  0.8190547E-01
       -2   -1    0    0    0  501  0.00000000000E+00  0.00000000000E+00  0.17633486265E+04  0.17633486265E+04  0.25500000920E-02 0.  1.
        2   -1    0    0  501    0  0.00000000000E+00  0.00000000000E+00 -0.14458533410E+04  0.14458533410E+04  0.25500000920E-02 0. -1.
    10030    2    1    2    0    0  0.00000000000E+00  0.00000000000E+00  0.31749528548E+03  0.32092019676E+04  0.31934580023E+04 0.  0.
        2    1    3    3  502    0  0.12029248013E+04  0.40476180106E+03  0.11323808747E+04  0.17009252301E+04  0.25500000920E-02 0. -1.
       -2    1    3    3    0  502 -0.12029248013E+04 -0.40476180106E+03 -0.81488558923E+03  0.15082767374E+04  0.25500000920E-02 0.  1.
</event>
<event>
 5   0  0.2337504E-06  0.3042411E+04  0.7818609E-02  0.8231723E-01
        2   -1    0    0  501    0  0.00000000000E+00  0.00000000000E+00  0.15090201751E+04  0.15090201751E+04  0.25500000920E-02 0.  1.
       -2   -1    0    0    0  501  0.00000000000E+00  0.00000000000E+00 -0.15334890139E+04  0.15334890139E+04  0.25500000920E-02 0. -1.
    10030    2    1    2    0    0  0.00000000000E+00  0.00000000000E+00 -0.24468838841E+02  0.30425091891E+04  0.30424107943E+04 0.  0.
        1    1    3    3  502    0  0.70886132476E+03  0.13234604159E+04  0.23279189230E+03  0.15192840140E+04  0.50400001928E-02 0. -1.
       -1    1    3    3    0  502 -0.70886132476E+03 -0.13234604159E+04 -0.25726073114E+03  0.15232251750E+04  0.50400001928E-02 0.  1.
</event>
<event>
 5   0  0.8383008E-07  0.3114967E+04  0.7818609E-02  0.8211642E-01
       -1   -1    0    0    0  501  0.00000000000E+00  0.00000000000E+00  0.11252581204E+04  0.11252581204E+04  0.50400001928E-02 0.  1.
        1   -1    0    0  501    0  0.00000000000E+00  0.00000000000E+00 -0.21557322196E+04  0.21557322196E+04  0.50400001928E-02 0. -1.
    10030    2    1    2    0    0  0.00000000000E+00  0.00000000000E+00 -0.10304740992E+04  0.32809903401E+04  0.31149672137E+04 0.  0.
        4    1    3    3  502    0  0.32549678454E+03  0.96900378231E+03  0.72248376118E+03  0.12517591162E+04  0.12699999809E+01 0.  1.
       -4    1    3    3    0  502 -0.32549678454E+03 -0.96900378231E+03 -0.17529578604E+04  0.20292312239E+04  0.12699999809E+01 0. -1.
</event>
<event>
 5   0  0.2337504E-06  0.3186674E+04  0.7818609E-02  0.8192345E-01
        2   -1    0    0  501    0  0.00000000000E+00  0.00000000000E+00  0.21534278244E+04  0.21534278244E+04  0.25500000920E-02 0. -1.
       -2   -1    0    0    0  501  0.00000000000E+00  0.00000000000E+00 -0.11789219026E+04  0.11789219026E+04  0.25500000920E-02 0.  1.
    10030    2    1    2    0    0  0.00000000000E+00  0.00000000000E+00  0.97450592187E+03  0.33323497270E+04  0.31866742713E+04 0.  0.
        1    1    3    3  502    0  0.91247770767E+02 -0.11085067606E+04  0.16802883065E+04  0.20150638171E+04  0.50400001928E-02 0. -1.
       -1    1    3    3    0  502 -0.91247770767E+02  0.11085067606E+04 -0.70578238462E+03  0.13172859099E+04  0.50400001928E-02 0.  1.
</event>
<event>
 5   0  0.8487944E-07  0.3213646E+04  0.7818609E-02  0.8185223E-01
       -1   -1    0    0    0  501  0.00000000000E+00  0.00000000000E+00  0.13101650829E+04  0.13101650829E+04  0.50400001928E-02 0. -1.
        1   -1    0    0  501    0  0.00000000000E+00  0.00000000000E+00 -0.19706528241E+04  0.19706528241E+04  0.50400001928E-02 0.  1.
    10030    2    1    2    0    0  0.00000000000E+00  0.00000000000E+00 -0.66048774120E+03  0.32808179070E+04  0.32136462286E+04 0.  0.
        2    1    3    3  502    0 -0.99152128688E+03  0.12263799453E+04 -0.15981296317E+02  0.15771422365E+04  0.25500000920E-02 0. -1.
       -2    1    3    3    0  502  0.99152128688E+03 -0.12263799453E+04 -0.64450644489E+03  0.17036756704E+04  0.25500000920E-02 0.  1.
</event>
<event>
 5   0  0.2404430E-06  0.3219430E+04  0.7818609E-02  0.8183705E-01
        2   -1    0    0  501    0  0.00000000000E+00  0.00000000000E+00  0.19405443977E+04  0.19405443977E+04  0.25500000920E-02 0.  1.
       -2   -1    0    0    0  501  0.00000000000E+00  0.00000000000E+00 -0.13352861464E+04  0.13352861464E+04  0.25500000920E-02 0. -1.
    10030    2    1    2    0    0  0.00000000000E+00  0.00000000000E+00  0.60525825130E+03  0.32758305441E+04  0.32194297947E+04 0.  0.
        4    1    3    3  502    0 -0.57543482751E+03  0.12996475730E+04  0.10714933262E+04  0.17799743301E+04  0.12699999809E+01 0.  1.
       -4    1    3    3    0  502  0.57543482751E+03 -0.12996475730E+04 -0.46623507494E+03  0.14958562140E+04  0.12699999809E+01 0. -1.
</event>
<event>
 5   0  0.2466076E-06  0.3221481E+04  0.7818609E-02  0.8183167E-01
       -2   -1    0    0    0  501  0.00000000000E+00  0.00000000000E+00  0.12296359149E+04  0.12296359149E+04  0.25500000920E-02 0.  1.
        2   -1    0    0  501    0  0.00000000000E+00  0.00000000000E+00 -0.21099620411E+04  0.21099620411E+04  0.25500000920E-02 0. -1.
    10030    2    1    2    0    0  0.00000000000E+00  0.00000000000E+00 -0.88032612620E+03  0.33395979560E+04  0.32214810909E+04 0.  0.
        3    1    3    3  502    0 -0.10892284222E+04  0.26917026807E+03  0.75789830959E+03  0.13539870925E+04  0.10100000352E+00 0.  1.
       -3    1    3    3    0  502  0.10892284222E+04 -0.26917026807E+03 -0.16382244358E+04  0.19856108635E+04  0.10100000352E+00 0. -1.
</event>
<event>
 5   0  0.8487944E-07  0.3210921E+04  0.7818609E-02  0.8185939E-01
        1   -1    0    0  501    0  0.00000000000E+00  0.00000000000E+00  0.15514917405E+04  0.15514917405E+04  0.50400001928E-02 0. -1.
       -1   -1    0    0    0  501  0.00000000000E+00  0.00000000000E+00 -0.16613068644E+04  0.16613068644E+04  0.50400001928E-02 0.  1.
    10030    2    1    2    0    0  0.00000000000E+00  0.00000000000E+00 -0.10981512393E+03  0.32127986049E+04  0.32109212874E+04 0.  0.
        2    1    3    3  502    0 -0.32675872920E+03 -0.14869908098E+04  0.45489100602E+03  0.15889741228E+04  0.25500000920E-02 0. -1.
       -2    1    3    3    0  502  0.32675872920E+03  0.14869908098E+04 -0.56470612995E+03  0.16238244821E+04  0.25500000920E-02 0.  1.
</event>
<event>
 5   0  0.8383008E-07  0.3092232E+04  0.7818609E-02  0.8217873E-01
       -1   -1    0    0    0  501  0.00000000000E+00  0.00000000000E+00  0.21220605439E+04  0.21220605439E+04  0.50400001928E-02 0.  1.
        1   -1    0    0  501    0  0.00000000000E+00  0.00000000000E+00 -0.11264874241E+04  0.11264874241E+04  0.50400001928E-02 0. -1.
    10030    2    1    2    0    0  0.00000000000E+00  0.00000000000E+00  0.99557311980E+03  0.32485479679E+04  0.30922318903E+04 0.  0.
        4    1    3    3  502    0  0.60880213060E+02  0.39806676231E+03 -0.10704261559E+04  0.11436683591E+04  0.12699999809E+01 0. -1.
       -4    1    3    3    0  502 -0.60880213060E+02 -0.39806676231E+03  0.20659992757E+04  0.21048796088E+04  0.12699999809E+01 0.  1.
</event>
<event>
 5   0  0.8545153E-07  0.3213423E+04  0.7818609E-02  0.8185281E-01
        1   -1    0    0  501    0  0.00000000000E+00  0.00000000000E+00  0.29288760916E+04  0.29288760916E+04  0.50400001928E-02 0.  1.
       -1   -1    0    0    0  501  0.00000000000E+00  0.00000000000E+00 -0.88140346445E+03  0.88140346447E+03  0.50400001928E-02 0. -1.
    10030    2    1    2    0    0  0.00000000000E+00  0.00000000000E+00  0.20474726272E+04  0.38102795561E+04  0.32134228070E+04 0.  0.
        3    1    3    3  502    0  0.11970834934E+04 -0.45928738973E+03  0.21718642748E+04  0.25220920353E+04  0.10100000352E+00 0.  1.
       -3    1    3    3    0  502 -0.11970834934E+04  0.45928738973E+03 -0.12439164761E+03  0.12881875208E+04  0.10100000352E+00 0. -1.
</event>
<event>
 5   0  0.8545153E-07  0.3200664E+04  0.7818609E-02  0.8188642E-01
        1   -1    0    0  501    0  0.00000000000E+00  0.00000000000E+00  0.17963276102E+04  0.17963276102E+04  0.50400001928E-02 0. -1.
       -1   -1    0    0    0  501  0.00000000000E+00  0.00000000000E+00 -0.14257215728E+04  0.14257215728E+04  0.50400001928E-02 0.  1.
    10030    2    1    2    0    0  0.00000000000E+00  0.00000000000E+00  0.37060603739E+03  0.32220491830E+04  0.32006643221E+04 0.  0.
        3    1    3    3  502    0 -0.13721413237E+03 -0.13805547044E+04  0.98831932660E+03  0.17033890077E+04  0.10100000352E+00 0. -1.
       -3    1    3    3    0  502  0.13721413237E+03  0.13805547044E+04 -0.61771328921E+03  0.15186601753E+04  0.10100000352E+00 0.  1.
</event>
<event>
 5   0  0.2337504E-06  0.3159615E+04  0.7818609E-02  0.8199565E-01
       -2   -1    0    0    0  501  0.00000000000E+00  0.00000000000E+00  0.14161973739E+04  0.14161973739E+04  0.25500000920E-02 0.  1.
        2   -1    0    0  501    0  0.00000000000E+00  0.00000000000E+00 -0.17623190023E+04  0.17623190023E+04  0.25500000920E-02 0. -1.
    10030    2    1    2    0    0  0.00000000000E+00  0.00000000000E+00 -0.34612162834E+03  0.31785163762E+04  0.31596148772E+04 0.  0.
        1    1    3    3  502    0  0.80276204377E+03 -0.12435665190E+04  0.38242627575E+03  0.15287689304E+04  0.50400001928E-02 0.  1.
       -1    1    3    3    0  502 -0.80276204377E+03  0.12435665190E+04 -0.72854790409E+03  0.16497474458E+04  0.50400001928E-02 0. -1.
</event>
<event>
 5   0  0.2401139E-06  0.3117296E+04  0.7818609E-02  0.8211007E-01
        2   -1    0    0  501    0  0.00000000000E+00  0.00000000000E+00  0.31106473726E+04  0.31106473726E+04  0.25500000920E-02 0.  1.
       -2   -1    0    0    0  501  0.00000000000E+00  0.00000000000E+00 -0.78098971007E+03  0.78098971008E+03  0.25500000920E-02 0. -1.
    10030    2    1    2    0    0  0.00000000000E+00  0.00000000000E+00  0.23296576625E+04  0.38916370826E+04  0.31172960011E+04 0.  0.
        5    1    3    3  502    0 -0.13958671080E+03  0.49878371990E+03  0.30000605365E+04  0.30444465772E+04  0.46999998093E+01 0.  1.
       -5    1    3    3    0  502  0.13958671080E+03 -0.49878371990E+03 -0.67040287397E+03  0.84719050543E+03  0.46999998093E+01 0. -1.
</event>
<event>
 5   0  0.2621528E-06  0.3184523E+04  0.7818609E-02  0.8192917E-01
        2   -1    0    0  501    0  0.00000000000E+00  0.00000000000E+00  0.19323681379E+04  0.19323681379E+04  0.25500000920E-02 0.  1.
       -2   -1    0    0    0  501  0.00000000000E+00  0.00000000000E+00 -0.13120149907E+04  0.13120149907E+04  0.25500000920E-02 0. -1.
    10030    2    1    2    0    0  0.00000000000E+00  0.00000000000E+00  0.62035314726E+03  0.32443831286E+04  0.31845225479E+04 0.  0.
        2    1    3    3  502    0 -0.99698424328E+03 -0.12197759825E+04  0.54574784741E+03  0.16672347591E+04  0.25500000920E-02 0.  1.
       -2    1    3    3    0  502  0.99698424328E+03  0.12197759825E+04  0.74605299849E+02  0.15771483696E+04  0.25500000920E-02 0. -1.
</event>
<event>
 5   0  0.8681172E-07  0.3134788E+04  0.7818609E-02  0.8206255E-01
       -1   -1    0    0    0  501  0.00000000000E+00  0.00000000000E+00  0.15895148429E+04  0.15895148429E+04  0.50400001928E-02 0. -1.
        1   -1    0    0  501    0  0.00000000000E+00  0.00000000000E+00 -0.15455809953E+04  0.15455809953E+04  0.50400001928E-02 0.  1.
    10030    2    1    2    0    0  0.00000000000E+00  0.00000000000E+00  0.43933847669E+02  0.31350958382E+04  0.31347879883E+04 0.  0.
        1    1    3    3  502    0  0.11585090785E+04  0.73229445089E+03  0.78251874916E+03  0.15782059563E+04  0.50400001928E-02 0. -1.
       -1    1    3    3    0  502 -0.11585090785E+04 -0.73229445089E+03 -0.73858490150E+03  0.15568898819E+04  0.50400001928E-02 0.  1.
</event>
<event>
 5   0  0.2621528E-06  0.3194094E+04  0.7818609E-02  0.8190379E-01
        2   -1    0    0  501    0  0.00000000000E+00  0.00000000000E+00  0.13215586467E+04  0.13215586468E+04  0.25500000920E-02 0.  1.
       -2   -1    0    0    0  501  0.00000000000E+00  0.00000000000E+00 -0.19299626488E+04  0.19299626488E+04  0.25500000920E-02 0. -1.
    10030    2    1    2    0    0  0.00000000000E+00  0.00000000000E+00 -0.60840400206E+03  0.32515212956E+04  0.31940938161E+04 0.  0.
        2    1    3    3  502    0  0.73358941513E+03 -0.62631753364E+03  0.99152676474E+03  0.13833121152E+04  0.25500000920E-02 0.  1.
       -2    1    3    3    0  502 -0.73358941513E+03  0.62631753364E+03 -0.15999307668E+04  0.18682091803E+04  0.25500000920E-02 0. -1.
</event>
<event>
 5   0  0.8681172E-07  0.2825868E+04  0.7818609E-02  0.8295282E-01
        1   -1    0    0  501    0  0.00000000000E+00  0.00000000000E+00  0.14941916829E+04  0.14941916829E+04  0.50400001928E-02 0.  1.
       -1   -1    0    0    0  501  0.00000000000E+00  0.00000000000E+00 -0.13360956442E+04  0.13360956442E+04  0.50400001928E-02 0. -1.
    10030    2    1    2    0    0  0.00000000000E+00  0.00000000000E+00  0.15809603871E+03  0.28302873272E+04  0.28258683616E+04 0.  0.
        1    1    3    3  502    0  0.10222619777E+04 -0.97505789218E+03  0.10409822814E+03  0.14165429345E+04  0.50400001928E-02 0.  1.
       -1    1    3    3    0  502 -0.10222619777E+04  0.97505789218E+03  0.53997810577E+02  0.14137443927E+04  0.50400001928E-02 0. -1.
</event>
<event>
 5   0  0.8512855E-07  0.3166692E+04  0.7818609E-02  0.8197670E-01
       -1   -1    0    0    0  501  0.00000000000E+00  0.00000000000E+00  0.12604620699E+04  0.12604620700E+04  0.50400001928E-02 0.  1.
        1   -1    0    0  501    0  0.00000000000E+00  0.00000000000E+00 -0.19889409533E+04  0.19889409533E+04  0.50400001928E-02 0. -1.
    10030    2    1    2    0    0  0.00000000000E+00  0.00000000000E+00 -0.72847888333E+03  0.32494030232E+04  0.31666920475E+04 0.  0.
        5    1    3    3  502    0  0.94357199335E+02  0.86005145289E+03  0.99643107717E+03  0.13196547898E+04  0.46999998093E+01 0.  1.
       -5    1    3    3    0  502 -0.94357199335E+02 -0.86005145289E+03 -0.17249099605E+04  0.19297482334E+04  0.46999998093E+01 0. -1.
</event>
<event>
 5   0  0.2404430E-06  0.3245889E+04  0.7818609E-02  0.8176802E-01
        2   -1    0    0  501    0  0.00000000000E+00  0.00000000000E+00  0.25819396384E+04  0.25819396384E+04  0.25500000920E-02 0. -1.
       -2   -1    0    0    0  501  0.00000000000E+00  0.00000000000E+00 -0.10201436266E+04  0.10201436266E+04  0.25500000920E-02 0.  1.
    10030    2    1    2    0    0  0.00000000000E+00  0.00000000000E+00  0.15617960118E+04  0.36020832649E+04  0.32458892565E+04 0.  0.
        4    1    3    3  502    0 -0.19132976768E+03  0.63318920378E+03  0.24255611250E+04  0.25141368363E+04  0.12699999809E+01 0. -1.
       -4    1    3    3    0  502  0.19132976768E+03 -0.63318920378E+03 -0.86376511323E+03  0.10879464286E+04  0.12699999809E+01 0.  1.
</event>
<event>
 5   0  0.8545153E-07  0.3276053E+04  0.7818609E-02  0.8169016E-01
       -1   -1    0    0    0  501  0.00000000000E+00  0.00000000000E+00  0.21346692162E+04  0.21346692162E+04  0.50400001928E-02 0.  1.
        1   -1    0    0  501    0  0.00000000000E+00  0.00000000000E+00 -0.12569306529E+04  0.12569306530E+04  0.50400001928E-02 0. -1.
    10030    2    1    2    0    0  0.00000000000E+00  0.00000000000E+00  0.87773856326E+03  0.33915998692E+04  0.32760532180E+04 0.  0.
        3    1    3    3  502    0 -0.50090062880E+03 -0.15593775519E+04  0.41412281423E+03  0.16893956034E+04  0.10100000352E+00 0.  1.
       -3    1    3    3    0  502  0.50090062880E+03  0.15593775519E+04  0.46361574903E+03  0.17022042657E+04  0.10100000352E+00 0. -1.
</event>
<event>
 5   0  0.7934375E-07  0.3258224E+04  0.7818609E-02  0.8173607E-01
       -3   -1    0    0    0  501  0.00000000000E+00  0.00000000000E+00  0.10014685006E+04  0.10014685057E+04  0.10100000352E+00 0.  1.
        3   -1    0    0  501    0  0.00000000000E+00  0.00000000000E+00 -0.26501136037E+04  0.26501136056E+04  0.10100000352E+00 0. -1.
    10030    2    1    2    0    0  0.00000000000E+00  0.00000000000E+00 -0.16486451031E+04  0.36515821113E+04  0.32582236325E+04 0.  0.
        5    1    3    3  502    0  0.10339076113E+04  0.68383338531E+03  0.36036167245E+03  0.12909204749E+04  0.46999998093E+01 0.  1.
       -5    1    3    3    0  502 -0.10339076113E+04 -0.68383338531E+03 -0.20090067755E+04  0.23606616364E+04  0.46999998093E+01 0. -1.
</event>
<event>
 5   0  0.8681172E-07  0.3213225E+04  0.7818609E-02  0.8185333E-01
        1   -1    0    0  501    0  0.00000000000E+00  0.00000000000E+00  0.15977806307E+04  0.15977806307E+04  0.50400001928E-02 0.  1.
       -1   -1    0    0    0  501  0.00000000000E+00  0.00000000000E+00 -0.16154927203E+04  0.16154927203E+04  0.50400001928E-02 0. -1.
    10030    2    1    2    0    0  0.00000000000E+00  0.00000000000E+00 -0.17712089590E+02  0.32132733510E+04  0.32132245347E+04 0.  0.
        1    1    3    3  502    0 -0.76087645497E+03  0.73530772749E+03 -0.12178378288E+04  0.16133007813E+04  0.50400001928E-02 0. -1.
       -1    1    3    3    0  502  0.76087645497E+03 -0.73530772749E+03  0.12001257392E+04  0.15999725697E+04  0.50400001928E-02 0.  1.
</event>
<event>
 5   0  0.8487944E-07  0.3262174E+04  0.7818609E-02  0.8172588E-01
        1   -1    0    0  501    0  0.00000000000E+00  0.00000000000E+00  0.28256220057E+04  0.28256220057E+04  0.50400001928E-02 0.  1.
       -1   -1    0    0    0  501  0.00000000000E+00  0.00000000000E+00 -0.94154293311E+03  0.94154293312E+03  0.50400001928E-02 0. -1.
    10030    2    1    2    0    0  0.00000000000E+00  0.00000000000E+00  0.18840790726E+04  0.37671649388E+04  0.32621737729E+04 0.  0.
        2    1    3    3  502    0 -0.13647120844E+03 -0.15313040423E+04  0.15713038434E+04  0.21982975752E+04  0.25500000920E-02 0.  1.
       -2    1    3    3    0  502  0.13647120844E+03  0.15313040423E+04  0.31277522914E+03  0.15688673636E+04  0.25500000920E-02 0. -1.
</event>
<event>
 5   0  0.8383008E-07  0.3168663E+04  0.7818609E-02  0.8197143E-01
        1   -1    0    0  501    0  0.00000000000E+00  0.00000000000E+00  0.27805927385E+04  0.27805927385E+04  0.50400001928E-02 0.  1.
       -1   -1    0    0    0  501  0.00000000000E+00  0.00000000000E+00 -0.90272344006E+03  0.90272344007E+03  0.50400001928E-02 0. -1.
    10030    2    1    2    0    0  0.00000000000E+00  0.00000000000E+00  0.18778692984E+04  0.36833161785E+04  0.31686629624E+04 0.  0.
        4    1    3    3  502    0 -0.85851995824E+03  0.13021496021E+04  0.61542566253E+03  0.16767231327E+04  0.12699999809E+01 0. -1.
       -4    1    3    3    0  502  0.85851995824E+03 -0.13021496021E+04  0.12624436359E+04  0.20065930458E+04  0.12699999809E+01 0.  1.
</event>
<event>
 5   0  0.7934375E-07  0.3178010E+04  0.7818609E-02  0.8194649E-01
        3   -1    0    0  501    0  0.00000000000E+00  0.00000000000E+00  0.10168514137E+04  0.10168514187E+04  0.10100000352E+00 0. -1.
       -3   -1    0    0    0  501  0.00000000000E+00  0.00000000000E+00 -0.24830937942E+04  0.24830937962E+04  0.10100000352E+00 0.  1.
    10030    2    1    2    0    0  0.00000000000E+00  0.00000000000E+00 -0.14662423805E+04  0.34999452149E+04  0.31780103507E+04 0.  0.
        4    1    3    3  502    0  0.13051018848E+04  0.16540949444E+03  0.24838718805E+03  0.13387864052E+04  0.12699999809E+01 0. -1.
       -4    1    3    3    0  502 -0.13051018848E+04 -0.16540949444E+03 -0.17146295685E+04  0.21611588097E+04  0.12699999809E+01 0.  1.
</event>
<event>
 5   0  0.2337504E-06  0.3156857E+04  0.7818609E-02  0.8200305E-01
        2   -1    0    0  501    0  0.00000000000E+00  0.00000000000E+00  0.17721327757E+04  0.17721327757E+04  0.25500000920E-02 0. -1.
       -2   -1    0    0    0  501  0.00000000000E+00  0.00000000000E+00 -0.14058970657E+04  0.14058970657E+04  0.25500000920E-02 0.  1.
    10030    2    1    2    0    0  0.00000000000E+00  0.00000000000E+00  0.36623570997E+03  0.31780298414E+04  0.31568568351E+04 0.  0.
        1    1    3    3  502    0  0.47166710177E+03  0.22013185186E+03 -0.13170135135E+04  0.14161399937E+04  0.50400001928E-02 0.  1.
       -1    1    3    3    0  502 -0.47166710177E+03 -0.22013185186E+03  0.16832492234E+04  0.17618898477E+04  0.50400001928E-02 0. -1.
</event>
<event>
 5   0  0.8487944E-07  0.3183742E+04  0.7818609E-02  0.8193124E-01
       -1   -1    0    0    0  501  0.00000000000E+00  0.00000000000E+00  0.17825307775E+04  0.17825307775E+04  0.50400001928E-02 0. -1.
        1   -1    0    0  501    0  0.00000000000E+00  0.00000000000E+00 -0.14216045568E+04  0.14216045568E+04  0.50400001928E-02 0.  1.
    10030    2    1    2    0    0  0.00000000000E+00  0.00000000000E+00  0.36092622072E+03  0.32041353343E+04  0.31837423740E+04 0.  0.
        2    1    3    3  502    0  0.23805192367E+03  0.15278424601E+04 -0.20022236479E+03  0.15591857800E+04  0.25500000920E-02 0.  1.
       -2    1    3    3    0  502 -0.23805192367E+03 -0.15278424601E+04  0.56114858551E+03  0.16449495543E+04  0.25500000920E-02 0. -1.
</event>
<event>
 5   0  0.2466076E-06  0.3196988E+04  0.7818609E-02  0.8189613E-01
        2   -1    0    0  501    0  0.00000000000E+00  0.00000000000E+00  0.19699686010E+04  0.19699686010E+04  0.25500000920E-02 0.  1.
       -2   -1    0    0    0  501  0.00000000000E+00  0.00000000000E+00 -0.12970677792E+04  0.12970677792E+04  0.25500000920E-02 0. -1.
    10030    2    1    2    0    0  0.00000000000E+00  0.00000000000E+00  0.67290082180E+03  0.32670363802E+04  0.31969878313E+04 0.  0.
        3    1    3    3  502    0 -0.74978032303E+03  0.13780532032E+04  0.64973170306E+03  0.16980437155E+04  0.10100000352E+00 0. -1.
       -3    1    3    3    0  502  0.74978032303E+03 -0.13780532032E+04  0.23169118737E+02  0.15689926647E+04  0.10100000352E+00 0.  1.
</event>
<event>
 5   0  0.8383008E-07  0.3198861E+04  0.7818609E-02  0.8189118E-01
        1   -1    0    0  501    0  0.00000000000E+00  0.00000000000E+00  0.17342628415E+04  0.17342628415E+04  0.50400001928E-02 0.  1.
       -1   -1    0    0    0  501  0.00000000000E+00  0.00000000000E+00 -0.14750809257E+04  0.14750809257E+04  0.50400001928E-02 0. -1.
    10030    2    1    2    0    0  0.00000000000E+00  0.00000000000E+00  0.25918191587E+03  0.32093437672E+04  0.31988610708E+04 0.  0.
        4    1    3    3  502    0 -0.60252782171E+03 -0.75719731421E+03  0.14072589608E+04  0.17078544857E+04  0.12699999809E+01 0.  1.
       -4    1    3    3    0  502  0.60252782171E+03  0.75719731421E+03 -0.11480770449E+04  0.15014892815E+04  0.12699999809E+01 0. -1.
</event>
<event>
 5   0  0.2337504E-06  0.3192483E+04  0.7818609E-02  0.8190805E-01
       -2   -1    0    0    0  501  0.00000000000E+00  0.00000000000E+00  0.12858541438E+04  0.12858541438E+04  0.25500000920E-02 0.  1.
        2   -1    0    0  501    0  0.00000000000E+00  0.00000000000E+00 -0.19815521767E+04  0.19815521767E+04  0.25500000920E-02 0. -1.
    10030    2    1    2    0    0  0.00000000000E+00  0.00000000000E+00 -0.69569803284E+03  0.32674063205E+04  0.31924830948E+04 0.  0.
        1    1    3    3  502    0 -0.79398200229E+03  0.74448657374E+03 -0.15428639867E+04  0.18881464350E+04  0.50400001928E-02 0. -1.
       -1    1    3    3    0  502  0.79398200229E+03 -0.74448657374E+03  0.84716595384E+03  0.13792598855E+04  0.50400001928E-02 0.  1.
</event>
<event>
 5   0  0.8545153E-07  0.3189422E+04  0.7818609E-02  0.8191616E-01
        1   -1    0    0  501    0  0.00000000000E+00  0.00000000000E+00  0.17350198563E+04  0.17350198563E+04  0.50400001928E-02 0. -1.
       -1   -1    0    0    0  501  0.00000000000E+00  0.00000000000E+00 -0.14657486394E+04  0.14657486395E+04  0.50400001928E-02 0.  1.
    10030    2    1    2    0    0  0.00000000000E+00  0.00000000000E+00  0.26927121684E+03  0.32007684957E+04  0.31894218873E+04 0.  0.
        3    1    3    3  502    0  0.21448706329E+02  0.69683960897E+03  0.15739826147E+04  0.17214722679E+04  0.10100000352E+00 0. -1.
       -3    1    3    3    0  502 -0.21448706329E+02 -0.69683960897E+03 -0.13047113979E+04  0.14792962278E+04  0.10100000352E+00 0.  1.
</event>
<event>
 5   0  0.2404430E-06  0.3200721E+04  0.7818609E-02  0.8188627E-01
       -2   -1    0    0    0  501  0.00000000000E+00  0.00000000000E+00  0.11990859590E+04  0.11990859590E+04  0.25500000920E-02 0.  1.
        2   -1    0    0  501    0  0.00000000000E+00  0.00000000000E+00 -0.21359221274E+04  0.21359221274E+04  0.25500000920E-02 0. -1.
    10030    2    1    2    0    0  0.00000000000E+00  0.00000000000E+00 -0.93683616845E+03  0.33350080864E+04  0.32007213140E+04 0.  0.
        4    1    3    3  502    0 -0.61069097143E+03  0.62027764199E+03  0.93085623927E+03  0.12744342929E+04  0.12699999809E+01 0.  1.
       -4    1    3    3    0  502  0.61069097143E+03 -0.62027764199E+03 -0.18676924077E+04  0.20605737935E+04  0.12699999809E+01 0. -1.
</event>
<event>
 5   0  0.2404430E-06  0.3185209E+04  0.7818609E-02  0.8192734E-01
        2   -1    0    0  501    0  0.00000000000E+00  0.00000000000E+00  0.20487742955E+04  0.20487742955E+04  0.25500000920E-02 0. -1.
       -2   -1    0    0    0  501  0.00000000000E+00  0.00000000000E+00 -0.12380034195E+04  0.12380034195E+04  0.25500000920E-02 0.  1.
    10030    2    1    2    0    0  0.00000000000E+00  0.00000000000E+00  0.81077087607E+03  0.32867777150E+04  0.31852093078E+04 0.  0.
        4    1    3    3  502    0 -0.71920422450E+02  0.15090699161E+04 -0.11459107826E+03  0.15151228620E+04  0.12699999809E+01 0.  1.
       -4    1    3    3    0  502  0.71920422450E+02 -0.15090699161E+04  0.92536195432E+03  0.17716548530E+04  0.12699999809E+01 0. -1.
</event>
<event>
 5   0  0.2401139E-06  0.3182441E+04  0.7818609E-02  0.8193470E-01
        2   -1    0    0  501    0  0.00000000000E+00  0.00000000000E+00  0.12955654330E+04  0.12955654330E+04  0.25500000920E-02 0. -1.
       -2   -1    0    0    0  501  0.00000000000E+00  0.00000000000E+00 -0.19543459958E+04  0.19543459958E+04  0.25500000920E-02 0.  1.
    10030    2    1    2    0    0  0.00000000000E+00  0.00000000000E+00 -0.65878056278E+03  0.32499114288E+04  0.31824412744E+04 0.  0.
        5    1    3    3  502    0  0.70821325288E+03 -0.27156736963E+03  0.10990670629E+04  0.13353970745E+04  0.46999998093E+01 0. -1.
       -5    1    3    3    0  502 -0.70821325288E+03  0.27156736963E+03 -0.17578476257E+04  0.19145143543E+04  0.46999998093E+01 0.  1.
</event>
<event>
 5   0  0.2621528E-06  0.3224452E+04  0.7818609E-02  0.8182389E-01
        2   -1    0    0  501    0  0.00000000000E+00  0.00000000000E+00  0.19310290540E+04  0.19310290540E+04  0.25500000920E-02 0. -1.
       -2   -1    0    0    0  501  0.00000000000E+00  0.00000000000E+00 -0.13460556986E+04  0.13460556986E+04  0.25500000920E-02 0.  1.
    10030    2    1    2    0    0  0.00000000000E+00  0.00000000000E+00  0.58497335533E+03  0.32770847526E+04  0.32244519921E+04 0.  0.
        2    1    3    3  502    0 -0.14235051658E+04 -0.35523190516E+03 -0.38679126330E+03  0.15172884185E+04  0.25500000920E-02 0.  1.
       -2    1    3    3    0  502  0.14235051658E+04  0.35523190516E+03  0.97176461863E+03  0.17597963341E+04  0.25500000920E-02 0. -1.
</event>
<event>
 5   0  0.2466076E-06  0.3222432E+04  0.7818609E-02  0.8182918E-01
       -2   -1    0    0    0  501  0.00000000000E+00  0.00000000000E+00  0.18346957975E+04  0.18346957975E+04  0.25500000920E-02 0. -1.
        2   -1    0    0  501    0  0.00000000000E+00  0.00000000000E+00 -0.14149579374E+04  0.14149579374E+04  0.25500000920E-02 0.  1.
    10030    2    1    2    0    0  0.00000000000E+00  0.00000000000E+00  0.41973786018E+03  0.32496537349E+04  0.32224322375E+04 0.  0.
        3    1    3    3  502    0 -0.63843380972E+03  0.75694794596E+03 -0.10718711946E+04  0.14592723496E+04  0.10100000352E+00 0.  1.
       -3    1    3    3    0  502  0.63843380972E+03 -0.75694794596E+03  0.14916090548E+04  0.17903813853E+04  0.10100000352E+00 0. -1.
</event>
<event>
 5   0  0.2466076E-06  0.3212895E+04  0.7818609E-02  0.8185420E-01
       -2   -1    0    0    0  501  0.00000000000E+00  0.00000000000E+00  0.12007827176E+04  0.12007827176E+04  0.25500000920E-02 0.  1.
        2   -1    0    0  501    0  0.00000000000E+00  0.00000000000E+00 -0.21491589925E+04  0.21491589925E+04  0.25500000920E-02 0. -1.
    10030    2    1    2    0    0  0.00000000000E+00  0.00000000000E+00 -0.94837627487E+03  0.33499417101E+04  0.32128946298E+04 0.  0.
        3    1    3    3  502    0  0.21891749711E+03 -0.82236405204E+03 -0.18948286798E+04  0.20771574905E+04  0.10100000352E+00 0. -1.
       -3    1    3    3    0  502 -0.21891749711E+03  0.82236405204E+03  0.94645240488E+03  0.12727842195E+04  0.10100000352E+00 0.  1.
</event>
<event>
 5   0  0.2404430E-06  0.3131993E+04  0.7818609E-02  0.8207012E-01
       -2   -1    0    0    0  501  0.00000000000E+00  0.00000000000E+00  0.13439850451E+04  0.13439850451E+04  0.25500000920E-02 0. -1.
        2   -1    0    0  501    0  0.00000000000E+00  0.00000000000E+00 -0.18246815775E+04  0.18246815775E+04  0.25500000920E-02 0.  1.
    10030    2    1    2    0    0  0.00000000000E+00  0.00000000000E+00 -0.48069653231E+03  0.31686666226E+04  0.31319928175E+04 0.  0.
        4    1    3    3  502    0 -0.70287823905E+03  0.92185691392E+02  0.11723571740E+04  0.13700215243E+04  0.12699999809E+01 0. -1.
       -4    1    3    3    0  502  0.70287823905E+03 -0.92185691392E+02 -0.16530537064E+04  0.17986450983E+04  0.12699999809E+01 0.  1.
</event>
<event>
 5   0  0.2401139E-06  0.3219078E+04  0.7818609E-02  0.8183797E-01
        2   -1    0    0  501    0  0.00000000000E+00  0.00000000000E+00  0.19180152302E+04  0.19180152302E+04  0.25500000920E-02 0. -1.
       -2   -1    0    0    0  501  0.00000000000E+00  0.00000000000E+00 -0.13506753320E+04  0.13506753320E+04  0.25500000920E-02 0.  1.
    10030    2    1    2    0    0  0.00000000000E+00  0.00000000000E+00  0.56733989820E+03  0.32686905621E+04  0.32190780405E+04 0.  0.
        5    1    3    3  502    0 -0.44643486186E+03  0.11072387581E+04  0.13798033602E+04  0.18245989028E+04  0.46999998093E+01 0. -1.
       -5    1    3    3    0  502  0.44643486186E+03 -0.11072387581E+04 -0.81246346205E+03  0.14440916593E+04  0.46999998093E+01 0.  1.
</event>
<event>
 5   0  0.2466076E-06  0.3246819E+04  0.7818609E-02  0.8176561E-01
       -2   -1    0    0    0  501  0.00000000000E+00  0.00000000000E+00  0.15241527985E+04  0.15241527985E+04  0.25500000920E-02 0.  1.
        2   -1    0    0  501    0  0.00000000000E+00  0.00000000000E+00 -0.17291301008E+04  0.17291301008E+04  0.25500000920E-02 0. -1.
    10030    2    1    2    0    0  0.00000000000E+00  0.00000000000E+00 -0.20497730228E+03  0.32532828993E+04  0.32468190477E+04 0.  0.
        3    1    3    3  502    0 -0.90795122000E+03  0.95417832444E+03  0.84841425192E+03  0.15667285808E+04  0.10100000352E+00 0.  1.
       -3    1    3    3    0  502  0.90795122000E+03 -0.95417832444E+03 -0.10533915542E+04  0.16865543185E+04  0.10100000352E+00 0. -1.
</event>
<event>
 5   0  0.8383008E-07  0.3197671E+04  0.7818609E-02  0.8189433E-01
        1   -1    0    0  501    0  0.00000000000E+00  0.00000000000E+00  0.23769020435E+04  0.23769020435E+04  0.50400001928E-02 0. -1.
       -1   -1    0    0    0  501  0.00000000000E+00  0.00000000000E+00 -0.10754647879E+04  0.10754647879E+04  0.50400001928E-02 0.  1.
    10030    2    1    2    0    0  0.00000000000E+00  0.00000000000E+00  0.13014372556E+04  0.34523668314E+04  0.31976706848E+04 0.  0.
        4    1    3    3  502    0 -0.14580148872E+04 -0.16535521699E+03  0.13362100614E+04  0.19845928298E+04  0.12699999809E+01 0. -1.
       -4    1    3    3    0  502  0.14580148872E+04  0.16535521699E+03 -0.34772805888E+02  0.14677740016E+04  0.12699999809E+01 0.  1.
</event>
<event>
 5   0  0.2337504E-06  0.3203968E+04  0.7818609E-02  0.8187770E-01
        2   -1    0    0  501    0  0.00000000000E+00  0.00000000000E+00  0.24861007056E+04  0.24861007056E+04  0.25500000920E-02 0. -1.
       -2   -1    0    0    0  501  0.00000000000E+00  0.00000000000E+00 -0.10322799798E+04  0.10322799799E+04  0.25500000920E-02 0.  1.
    10030    2    1    2    0    0  0.00000000000E+00  0.00000000000E+00  0.14538207257E+04  0.35183806854E+04  0.32039675318E+04 0.  0.
        1    1    3    3  502    0 -0.10440960804E+03 -0.14450571046E+04  0.14775548431E+04  0.20693621520E+04  0.50400001928E-02 0. -1.
       -1    1    3    3    0  502  0.10440960804E+03  0.14450571046E+04 -0.23734117422E+02  0.14490185334E+04  0.50400001928E-02 0.  1.
</event>
<event>
 5   0  0.2621528E-06  0.2736020E+04  0.7818609E-02  0.8323412E-01
       -2   -1    0    0    0  501  0.00000000000E+00  0.00000000000E+00  0.62382880303E+03  0.62382880303E+03  0.25500000920E-02 0.  1.
        2   -1    0    0  501    0  0.00000000000E+00  0.00000000000E+00 -0.29999428528E+04  0.29999428528E+04  0.25500000920E-02 0. -1.
    10030    2    1    2    0    0  0.00000000000E+00  0.00000000000E+00 -0.23761140498E+04  0.36237716558E+04  0.27360195606E+04 0.  0.
        2    1    3    3  502    0  0.64460772160E+03  0.12058731107E+04 -0.11318382888E+04  0.17750230945E+04  0.25500000920E-02 0. -1.
       -2    1    3    3    0  502 -0.64460772160E+03 -0.12058731107E+04 -0.12442757610E+04  0.18487485614E+04  0.25500000920E-02 0.  1.
</event>
<event>
 5   0  0.8487944E-07  0.3133671E+04  0.7818609E-02  0.8206558E-01
       -1   -1    0    0    0  501  0.00000000000E+00  0.00000000000E+00  0.14220381750E+04  0.14220381750E+04  0.50400001928E-02 0.  1.
        1   -1    0    0  501    0  0.00000000000E+00  0.00000000000E+00 -0.17263762652E+04  0.17263762652E+04  0.50400001928E-02 0. -1.
    10030    2    1    2    0    0  0.00000000000E+00  0.00000000000E+00 -0.30433809016E+03  0.31484144402E+04  0.31336706614E+04 0.  0.
        2    1    3    3  502    0 -0.13062082970E+04  0.47157192929E+03 -0.88112576758E+03  0.16446710364E+04  0.25500000920E-02 0. -1.
       -2    1    3    3    0  502  0.13062082970E+04 -0.47157192929E+03  0.57678767742E+03  0.15037434038E+04  0.25500000920E-02 0.  1.
</event>
<event>
 5   0  0.2401139E-06  0.3170716E+04  0.7818609E-02  0.8196594E-01
        2   -1    0    0  501    0  0.00000000000E+00  0.00000000000E+00  0.13734601170E+04  0.13734601171E+04  0.25500000920E-02 0.  1.
       -2   -1    0    0    0  501  0.00000000000E+00  0.00000000000E+00 -0.18299475059E+04  0.18299475059E+04  0.25500000920E-02 0. -1.
    10030    2    1    2    0    0  0.00000000000E+00  0.00000000000E+00 -0.45648738881E+03  0.32034076229E+04  0.31707159542E+04 0.  0.
        5    1    3    3  502    0 -0.10622267244E+04  0.93000688952E+03 -0.95685858391E+03  0.17055318432E+04  0.46999998093E+01 0. -1.
       -5    1    3    3    0  502  0.10622267244E+04 -0.93000688952E+03  0.50037119510E+03  0.14978757797E+04  0.46999998093E+01 0.  1.
</event>
<event>
 5   0  0.8545153E-07  0.3208843E+04  0.7818609E-02  0.8186486E-01
       -1   -1    0    0    0  501  0.00000000000E+00  0.00000000000E+00  0.18795098877E+04  0.18795098877E+04  0.50400001928E-02 0.  1.
        1   -1    0    0  501    0  0.00000000000E+00  0.00000000000E+00 -0.13695957394E+04  0.13695957394E+04  0.50400001928E-02 0. -1.
    10030    2    1    2    0    0  0.00000000000E+00  0.00000000000E+00  0.50991414830E+03  0.32491056271E+04  0.32088432398E+04 0.  0.
        3    1    3    3  502    0 -0.68814966139E+03 -0.11320304799E+04  0.11713687654E+04  0.17683743265E+04  0.10100000352E+00 0.  1.
       -3    1    3    3    0  502  0.68814966139E+03  0.11320304799E+04 -0.66145461714E+03  0.14807313006E+04  0.10100000352E+00 0. -1.
</event>
<event>
 5   0  0.8545153E-07  0.3244451E+04  0.7818609E-02  0.8177175E-01
       -1   -1    0    0    0  501  0.00000000000E+00  0.00000000000E+00  0.17256285325E+04  0.17256285325E+04  0.50400001928E-02 0.  1.
        1   -1    0    0  501    0  0.00000000000E+00  0.00000000000E+00 -0.15250185400E+04  0.15250185400E+04  0.50400001928E-02 0. -1.
    10030    2    1    2    0    0  0.00000000000E+00  0.00000000000E+00  0.20060999252E+03  0.32506470725E+04  0.32444509584E+04 0.  0.
        3    1    3    3  502    0 -0.99559324951E+03 -0.90239731379E+03 -0.81032497000E+03  0.15691250421E+04  0.10100000352E+00 0.  1.
       -3    1    3    3    0  502  0.99559324951E+03  0.90239731379E+03  0.10109349625E+04  0.16815220305E+04  0.10100000352E+00 0. -1.
</event>
<event>
 5   0  0.8383008E-07  0.3189197E+04  0.7818609E-02  0.8191676E-01
        1   -1    0    0  501    0  0.00000000000E+00  0.00000000000E+00  0.19840378462E+04  0.19840378462E+04  0.50400001928E-02 0. -1.
       -1   -1    0    0    0  501  0.00000000000E+00  0.00000000000E+00 -0.12816003884E+04  0.12816003884E+04  0.50400001928E-02 0.  1.
    10030    2    1    2    0    0  0.00000000000E+00  0.00000000000E+00  0.70243745781E+03  0.32656382346E+04  0.31891965599E+04 0.  0.
        4    1    3    3  502    0  0.39753305682E+03  0.57212906445E+03  0.18199549882E+04  0.19487436901E+04  0.12699999809E+01 0. -1.
       -4    1    3    3    0  502 -0.39753305682E+03 -0.57212906445E+03 -0.11175175304E+04  0.13168945445E+04  0.12699999809E+01 0.  1.
</event>
<event>
 5   0  0.2404430E-06  0.3288042E+04  0.7818609E-02  0.8165945E-01
       -2   -1    0    0    0  501  0.00000000000E+00  0.00000000000E+00  0.10780754893E+04  0.10780754893E+04  0.25500000920E-02 0.  1.
        2   -1    0    0  501    0  0.00000000000E+00  0.00000000000E+00 -0.25070640780E+04  0.25070640780E+04  0.25500000920E-02 0. -1.
    10030    2    1    2    0    0  0.00000000000E+00  0.00000000000E+00 -0.14289885887E+04  0.35851395674E+04  0.32880415646E+04 0.  0.
        4    1    3    3  502    0  0.10928184533E+04 -0.42853953130E+03 -0.19695443359E+04  0.22928159119E+04  0.12699999809E+01 0. -1.
       -4    1    3    3    0  502 -0.10928184533E+04  0.42853953130E+03  0.54055574721E+03  0.12923236555E+04  0.12699999809E+01 0.  1.
</event>
<event>
 5   0  0.2621528E-06  0.3209234E+04  0.7818609E-02  0.8186383E-01
       -2   -1    0    0    0  501  0.00000000000E+00  0.00000000000E+00  0.15197966065E+04  0.15197966065E+04  0.25500000920E-02 0.  1.
        2   -1    0    0  501    0  0.00000000000E+00  0.00000000000E+00 -0.16941713482E+04  0.16941713482E+04  0.25500000920E-02 0. -1.
    10030    2    1    2    0    0  0.00000000000E+00  0.00000000000E+00 -0.17437474174E+03  0.32139679547E+04  0.32092340930E+04 0.  0.
        2    1    3    3  502    0  0.15280992122E+04  0.16639720336E+03 -0.54832356382E+03  0.16320030521E+04  0.25500000920E-02 0. -1.
       -2    1    3    3    0  502 -0.15280992122E+04 -0.16639720336E+03  0.37394882209E+03  0.15819649026E+04  0.25500000920E-02 0.  1.
</event>
<event>
 5   0  0.2404430E-06  0.3265897E+04  0.7818609E-02  0.8171627E-01
       -2   -1    0    0    0  501  0.00000000000E+00  0.00000000000E+00  0.16207626859E+04  0.16207626859E+04  0.25500000920E-02 0.  1.
        2   -1    0    0  501    0  0.00000000000E+00  0.00000000000E+00 -0.16452260859E+04  0.16452260859E+04  0.25500000920E-02 0. -1.
    10030    2    1    2    0    0  0.00000000000E+00  0.00000000000E+00 -0.24463399969E+02  0.32659887717E+04  0.32658971507E+04 0.  0.
        4    1    3    3  502    0  0.45458580353E+03 -0.14618522067E+04 -0.58045474163E+03  0.16372505755E+04  0.12699999809E+01 0. -1.
       -4    1    3    3    0  502 -0.45458580353E+03  0.14618522067E+04  0.55599134166E+03  0.16287381962E+04  0.12699999809E+01 0.  1.
</event>
<event>
 5   0  0.2337504E-06  0.3153631E+04  0.7818609E-02  0.8201172E-01
       -2   -1    0    0    0  501  0.00000000000E+00  0.00000000000E+00  0.15018318774E+04  0.15018318774E+04  0.25500000920E-02 0. -1.
        2   -1    0    0  501    0  0.00000000000E+00  0.00000000000E+00 -0.16555431573E+04  0.16555431573E+04  0.25500000920E-02 0.  1.
    10030    2    1    2    0    0  0.00000000000E+00  0.00000000000E+00 -0.15371127988E+03  0.31573750347E+04  0.31536312327E+04 0.  0.
        1    1    3    3  502    0  0.21187936914E+03 -0.38721671143E+02  0.14870343271E+04  0.15025522703E+04  0.50400001928E-02 0. -1.
       -1    1    3    3    0  502 -0.21187936914E+03  0.38721671143E+02 -0.16407456070E+04  0.16548227644E+04  0.50400001928E-02 0.  1.
</event>
<event>
 5   0  0.2466076E-06  0.3208311E+04  0.7818609E-02  0.8186626E-01
        2   -1    0    0  501    0  0.00000000000E+00  0.00000000000E+00  0.19691540446E+04  0.19691540446E+04  0.25500000920E-02 0. -1.
       -2   -1    0    0    0  501  0.00000000000E+00  0.00000000000E+00 -0.13068127149E+04  0.13068127150E+04  0.25500000920E-02 0.  1.
    10030    2    1    2    0    0  0.00000000000E+00  0.00000000000E+00  0.66234132961E+03  0.32759667595E+04  0.32083114207E+04 0.  0.
        3    1    3    3  502    0 -0.81723006737E+03  0.10331943170E+03 -0.10743649869E+04  0.13538094486E+04  0.10100000352E+00 0.  1.
       -3    1    3    3    0  502  0.81723006737E+03 -0.10331943170E+03  0.17367063165E+04  0.19221573109E+04  0.10100000352E+00 0. -1.
</event>
<event>
 5   0  0.8681172E-07  0.3198818E+04  0.7818609E-02  0.8189129E-01
       -1   -1    0    0    0  501  0.00000000000E+00  0.00000000000E+00  0.12880451997E+04  0.12880451997E+04  0.50400001928E-02 0.  1.
        1   -1    0    0  501    0  0.00000000000E+00  0.00000000000E+00 -0.19860401910E+04  0.19860401910E+04  0.50400001928E-02 0. -1.
    10030    2    1    2    0    0  0.00000000000E+00  0.00000000000E+00 -0.69799499129E+03  0.32740853908E+04  0.31988182409E+04 0.  0.
        1    1    3    3  502    0 -0.26716443494E+03  0.20452866351E+03 -0.19494067454E+04  0.19782303881E+04  0.50400001928E-02 0. -1.
       -1    1    3    3    0  502  0.26716443494E+03 -0.20452866351E+03  0.12514117541E+04  0.12958550026E+04  0.50400001928E-02 0.  1.
</event>
<event>
 5   0  0.2621528E-06  0.3268683E+04  0.7818609E-02  0.8170910E-01
       -2   -1    0    0    0  501  0.00000000000E+00  0.00000000000E+00  0.16823892548E+04  0.16823892548E+04  0.25500000920E-02 0. -1.
        2   -1    0    0  501    0  0.00000000000E+00  0.00000000000E+00 -0.15876661059E+04  0.15876661059E+04  0.25500000920E-02 0.  1.
    10030    2    1    2    0    0  0.00000000000E+00  0.00000000000E+00  0.94723148923E+02  0.32700553607E+04  0.32686831580E+04 0.  0.
        2    1    3    3  502    0  0.11715714556E+04 -0.10064326968E+04  0.58198833950E+03  0.16505141248E+04  0.25500000920E-02 0.  1.
       -2    1    3    3    0  502 -0.11715714556E+04  0.10064326968E+04 -0.48726519057E+03  0.16195412359E+04  0.25500000920E-02 0. -1.
</event>
<event>
 5   0  0.8487944E-07  0.3216534E+04  0.7818609E-02  0.8184464E-01
        1   -1    0    0  501    0  0.00000000000E+00  0.00000000000E+00  0.20301882706E+04  0.20301882706E+04  0.50400001928E-02 0. -1.
       -1   -1    0    0    0  501  0.00000000000E+00  0.00000000000E+00 -0.12740308164E+04  0.12740308164E+04  0.50400001928E-02 0.  1.
    10030    2    1    2    0    0  0.00000000000E+00  0.00000000000E+00  0.75615745416E+03  0.33042190870E+04  0.32165337989E+04 0.  0.
        2    1    3    3  502    0 -0.31539654856E+03 -0.15668766261E+04  0.19447449954E+03  0.16100924430E+04  0.25500000920E-02 0. -1.
       -2    1    3    3    0  502  0.31539654856E+03  0.15668766261E+04  0.56168295462E+03  0.16941266439E+04  0.25500000920E-02 0.  1.
</event>
<event>
 5   0  0.2404430E-06  0.2991483E+04  0.7818609E-02  0.8246167E-01
       -2   -1    0    0    0  501  0.00000000000E+00  0.00000000000E+00  0.84246656983E+03  0.84246656983E+03  0.25500000920E-02 0. -1.
        2   -1    0    0  501    0  0.00000000000E+00  0.00000000000E+00 -0.26555854218E+04  0.26555854218E+04  0.25500000920E-02 0.  1.
    10030    2    1    2    0    0  0.00000000000E+00  0.00000000000E+00 -0.18131188520E+04  0.34980519917E+04  0.29914825363E+04 0.  0.
        4    1    3    3  502    0 -0.93521641454E+03  0.62443729813E+03  0.24669920014E+03  0.11512661680E+04  0.12699999809E+01 0. -1.
       -4    1    3    3    0  502  0.93521641454E+03 -0.62443729813E+03 -0.20598180521E+04  0.23467858237E+04  0.12699999809E+01 0.  1.
</event>
<event>
 5   0  0.2404430E-06  0.3223383E+04  0.7818609E-02  0.8182669E-01
       -2   -1    0    0    0  501  0.00000000000E+00  0.00000000000E+00  0.16950468646E+04  0.16950468646E+04  0.25500000920E-02 0.  1.
        2   -1    0    0  501    0  0.00000000000E+00  0.00000000000E+00 -0.15324352591E+04  0.15324352591E+04  0.25500000920E-02 0. -1.
    10030    2    1    2    0    0  0.00000000000E+00  0.00000000000E+00  0.16261160542E+03  0.32274821237E+04  0.32233830558E+04 0.  0.
        4    1    3    3  502    0 -0.12242147487E+04 -0.99765140789E+03  0.40348802505E+03  0.16299737059E+04  0.12699999809E+01 0.  1.
       -4    1    3    3    0  502  0.12242147487E+04  0.99765140789E+03 -0.24087641963E+03  0.15975084178E+04  0.12699999809E+01 0. -1.
</event>
<event>
 5   0  0.8681172E-07  0.3197777E+04  0.7818609E-02  0.8189404E-01
        1   -1    0    0  501    0  0.00000000000E+00  0.00000000000E+00  0.29496847313E+04  0.29496847313E+04  0.50400001928E-02 0. -1.
       -1   -1    0    0    0  501  0.00000000000E+00  0.00000000000E+00 -0.86668420448E+03  0.86668420450E+03  0.50400001928E-02 0.  1.
    10030    2    1    2    0    0  0.00000000000E+00  0.00000000000E+00  0.20830005268E+04  0.38163689358E+04  0.31977774562E+04 0.  0.
        1    1    3    3  502    0  0.33252876949E+03 -0.84071780110E+03  0.26153375072E+04  0.27671957069E+04  0.50400001928E-02 0. -1.
       -1    1    3    3    0  502 -0.33252876949E+03  0.84071780110E+03 -0.53233698036E+03  0.10491732289E+04  0.50400001928E-02 0.  1.
</event>
<event>
 5   0  0.8545153E-07  0.3210454E+04  0.7818609E-02  0.8186062E-01
       -1   -1    0    0    0  501  0.00000000000E+00  0.00000000000E+00  0.13035716451E+04  0.13035716451E+04  0.50400001928E-02 0.  1.
        1   -1    0    0  501    0  0.00000000000E+00  0.00000000000E+00 -0.19766879315E+04  0.19766879315E+04  0.50400001928E-02 0. -1.
    10030    2    1    2    0    0  0.00000000000E+00  0.00000000000E+00 -0.67311628637E+03  0.32802595766E+04  0.32104543845E+04 0.  0.
        3    1    3    3  502    0 -0.43680683682E+03  0.47012695420E+03 -0.18399220364E+04  0.19486232771E+04  0.10100000352E+00 0. -1.
       -3    1    3    3    0  502  0.43680683682E+03 -0.47012695420E+03  0.11668057500E+04  0.13316362995E+04  0.10100000352E+00 0.  1.
</event>
<event>
 5   0  0.2466076E-06  0.3236805E+04  0.7818609E-02  0.8179164E-01
        2   -1    0    0  501    0  0.00000000000E+00  0.00000000000E+00  0.19623572316E+04  0.19623572316E+04  0.25500000920E-02 0. -1.
       -2   -1    0    0    0  501  0.00000000000E+00  0.00000000000E+00 -0.13347346502E+04  0.13347346502E+04  0.25500000920E-02 0.  1.
    10030    2    1    2    0    0  0.00000000000E+00  0.00000000000E+00  0.62762258141E+03  0.32970918818E+04  0.32368047164E+04 0.  0.
        3    1    3    3  502    0 -0.13325232692E+04  0.82843442649E+03 -0.90191976858E+02  0.15716413283E+04  0.10100000352E+00 0.  1.
       -3    1    3    3    0  502  0.13325232692E+04 -0.82843442649E+03  0.71781455826E+03  0.17254505534E+04  0.10100000352E+00 0. -1.
</event>
<event>
 5   0  0.8512855E-07  0.3209609E+04  0.7818609E-02  0.8186284E-01
        1   -1    0    0  501    0  0.00000000000E+00  0.00000000000E+00  0.24861481243E+04  0.24861481243E+04  0.50400001928E-02 0. -1.
       -1   -1    0    0    0  501  0.00000000000E+00  0.00000000000E+00 -0.10358984696E+04  0.10358984696E+04  0.50400001928E-02 0.  1.
    10030    2    1    2    0    0  0.00000000000E+00  0.00000000000E+00  0.14502496547E+04  0.35220465938E+04  0.32096087220E+04 0.  0.
        5    1    3    3  502    0 -0.63397089283E+02  0.11934203535E+04 -0.45016324833E+03  0.12770827582E+04  0.46999998093E+01 0.  1.
       -5    1    3    3    0  502  0.63397089283E+02 -0.11934203535E+04  0.19004129031E+04  0.22449638356E+04  0.46999998093E+01 0. -1.
</event>
<event>
 5   0  0.8383008E-07  0.3173066E+04  0.7818609E-02  0.8195967E-01
        1   -1    0    0  501    0  0.00000000000E+00  0.00000000000E+00  0.12056952796E+04  0.12056952796E+04  0.50400001928E-02 0.  1.
       -1   -1    0    0    0  501  0.00000000000E+00  0.00000000000E+00 -0.20876648427E+04  0.20876648427E+04  0.50400001928E-02 0. -1.
    10030    2    1    2    0    0  0.00000000000E+00  0.00000000000E+00 -0.88196956306E+03  0.32933601223E+04  0.31730664325E+04 0.  0.
        4    1    3    3  502    0 -0.10129032303E+04  0.67887757407E+03  0.61250155513E+03  0.13645539500E+04  0.12699999809E+01 0.  1.
       -4    1    3    3    0  502  0.10129032303E+04 -0.67887757407E+03 -0.14944711182E+04  0.19288061723E+04  0.12699999809E+01 0. -1.
</event>
<event>
 5   0  0.2404430E-06  0.3161405E+04  0.7818609E-02  0.8199085E-01
       -2   -1    0    0    0  501  0.00000000000E+00  0.00000000000E+00  0.91719132567E+03  0.91719132567E+03  0.25500000920E-02 0.  1.
        2   -1    0    0  501    0  0.00000000000E+00  0.00000000000E+00 -0.27242087283E+04  0.27242087283E+04  0.25500000920E-02 0. -1.
    10030    2    1    2    0    0  0.00000000000E+00  0.00000000000E+00 -0.18070174026E+04  0.36414000539E+04  0.31614051401E+04 0.  0.
        4    1    3    3  502    0 -0.70971587122E+03 -0.64859510330E+03 -0.23486976954E+04  0.25378642011E+04  0.12699999809E+01 0. -1.
       -4    1    3    3    0  502  0.70971587122E+03  0.64859510330E+03  0.54168029284E+03  0.11035358528E+04  0.12699999809E+01 0.  1.
</event>
<event>
 5   0  0.2337504E-06  0.3104423E+04  0.7818609E-02  0.8214525E-01
       -2   -1    0    0    0  501  0.00000000000E+00  0.00000000000E+00  0.14566439968E+04  0.14566439968E+04  0.25500000920E-02 0.  1.
        2   -1    0    0  501    0  0.00000000000E+00  0.00000000000E+00 -0.16540493881E+04  0.16540493881E+04  0.25500000920E-02 0. -1.
    10030    2    1    2    0    0  0.00000000000E+00  0.00000000000E+00 -0.19740539132E+03  0.31106933849E+04  0.31044233678E+04 0.  0.
        1    1    3    3  502    0 -0.54595026812E+03 -0.10895495359E+04 -0.10619877732E+04  0.16164770078E+04  0.50400001928E-02 0. -1.
       -1    1    3    3    0  502  0.54595026812E+03  0.10895495359E+04  0.86458238186E+03  0.14942163771E+04  0.50400001928E-02 0.  1.
</event>
<event>
 5   0  0.8487944E-07  0.3057081E+04  0.7818609E-02  0.8227616E-01
       -1   -1    0    0    0  501  0.00000000000E+00  0.00000000000E+00  0.10722137076E+04  0.10722137076E+04  0.50400001928E-02 0. -1.
        1   -1    0    0  501    0  0.00000000000E+00  0.00000000000E+00 -0.21790772994E+04  0.21790772994E+04  0.50400001928E-02 0.  1.
    10030    2    1    2    0    0  0.00000000000E+00  0.00000000000E+00 -0.11068635918E+04  0.32512910071E+04  0.30570813208E+04 0.  0.
        2    1    3    3  502    0 -0.56612386196E+03 -0.33493747269E+02 -0.20630489267E+04  0.21395768114E+04  0.25500000920E-02 0.  1.
       -2    1    3    3    0  502  0.56612386196E+03  0.33493747269E+02  0.95618533486E+03  0.11117141956E+04  0.25500000920E-02 0. -1.
</event>
<event>
 5   0  0.2621528E-06  0.3196275E+04  0.7818609E-02  0.8189802E-01
       -2   -1    0    0    0  501  0.00000000000E+00  0.00000000000E+00  0.10778622382E+04  0.10778622382E+04  0.25500000920E-02 0.  1.
        2   -1    0    0  501    0  0.00000000000E+00  0.00000000000E+00 -0.23695451796E+04  0.23695451796E+04  0.25500000920E-02 0. -1.
    10030    2    1    2    0    0  0.00000000000E+00  0.00000000000E+00 -0.12916829415E+04  0.34474074178E+04  0.31962748760E+04 0.  0.
        2    1    3    3  502    0  0.50403818984E+03  0.62610247473E+03 -0.21356687011E+04  0.22819157755E+04  0.25500000920E-02 0. -1.
       -2    1    3    3    0  502 -0.50403818984E+03 -0.62610247473E+03  0.84398575966E+03  0.11654916423E+04  0.25500000920E-02 0.  1.
</event>
<event>
 5   0  0.2337504E-06  0.3109060E+04  0.7818609E-02  0.8213256E-01
       -2   -1    0    0    0  501  0.00000000000E+00  0.00000000000E+00  0.27353385492E+04  0.27353385492E+04  0.25500000920E-02 0. -1.
        2   -1    0    0  501    0  0.00000000000E+00  0.00000000000E+00 -0.88346049713E+03  0.88346049714E+03  0.25500000920E-02 0.  1.
    10030    2    1    2    0    0  0.00000000000E+00  0.00000000000E+00  0.18518780521E+04  0.36187990463E+04  0.31090600216E+04 0.  0.
        1    1    3    3  502    0  0.90110277574E+03 -0.18832117538E+03  0.23839553914E+04  0.25555223313E+04  0.50400001928E-02 0. -1.
       -1    1    3    3    0  502 -0.90110277574E+03  0.18832117538E+03 -0.53207733938E+03  0.10632767150E+04  0.50400001928E-02 0.  1.
</event>
<event>
 5   0  0.2466076E-06  0.3281451E+04  0.7818609E-02  0.8167631E-01
        2   -1    0    0  501    0  0.00000000000E+00  0.00000000000E+00  0.12149768142E+04  0.12149768142E+04  0.25500000920E-02 0. -1.
       -2   -1    0    0    0  501  0.00000000000E+00  0.00000000000E+00 -0.22156637889E+04  0.22156637889E+04  0.25500000920E-02 0.  1.
    10030    2    1    2    0    0  0.00000000000E+00  0.00000000000E+00 -0.10006869747E+04  0.34306406031E+04  0.32814509788E+04 0.  0.
        3    1    3    3  502    0 -0.32612300277E+03 -0.11703836339E+04  0.65243277801E+03  0.13790658445E+04  0.10100000352E+00 0. -1.
       -3    1    3    3    0  502  0.32612300277E+03  0.11703836339E+04 -0.16531197527E+04  0.20515747587E+04  0.10100000352E+00 0.  1.
</event>
<event>
 5   0  0.2621528E-06  0.3149260E+04  0.7818609E-02  0.8202347E-01
        2   -1    0    0  501    0  0.00000000000E+00  0.00000000000E+00  0.26324360930E+04  0.26324360930E+04  0.25500000920E-02 0.  1.
       -2   -1    0    0    0  501  0.00000000000E+00  0.00000000000E+00 -0.94188799755E+03  0.94188799756E+03  0.25500000920E-02 0. -1.
    10030    2    1    2    0    0  0.00000000000E+00  0.00000000000E+00  0.16905480955E+04  0.35743240906E+04  0.31492602054E+04 0.  0.
        2    1    3    3  502    0 -0.17349858167E+03  0.72736772366E+03 -0.72751070484E+03  0.10432820275E+04  0.25500000920E-02 0. -1.
       -2    1    3    3    0  502  0.17349858167E+03 -0.72736772366E+03  0.24180588003E+04  0.25310420631E+04  0.25500000920E-02 0.  1.
</event>
<event>
 5   0  0.8512855E-07  0.3076185E+04  0.7818609E-02  0.8222304E-01
       -1   -1    0    0    0  501  0.00000000000E+00  0.00000000000E+00  0.21061345997E+04  0.21061345997E+04  0.50400001928E-02 0. -1.
        1   -1    0    0  501    0  0.00000000000E+00  0.00000000000E+00 -0.11232563822E+04  0.11232563822E+04  0.50400001928E-02 0.  1.
    10030    2    1    2    0    0  0.00000000000E+00  0.00000000000E+00  0.98287821748E+03  0.32293909819E+04  0.30761853851E+04 0.  0.
        5    1    3    3  502    0  0.87625728171E+03  0.92107828345E+03 -0.41741148936E+03  0.13380831325E+04  0.46999998093E+01 0.  1.
       -5    1    3    3    0  502 -0.87625728171E+03 -0.92107828345E+03  0.14002897068E+04  0.18913078494E+04  0.46999998093E+01 0. -1.
</event>
<event>
 5   0  0.2404430E-06  0.3221338E+04  0.7818609E-02  0.8183204E-01
        2   -1    0    0  501    0  0.00000000000E+00  0.00000000000E+00  0.20416787851E+04  0.20416787851E+04  0.25500000920E-02 0. -1.
       -2   -1    0    0    0  501  0.00000000000E+00  0.00000000000E+00 -0.12706480589E+04  0.12706480589E+04  0.25500000920E-02 0.  1.
    10030    2    1    2    0    0  0.00000000000E+00  0.00000000000E+00  0.77103072620E+03  0.33123268439E+04  0.32213383461E+04 0.  0.
        4    1    3    3  502    0  0.15865909019E+04  0.26074166851E+03  0.48304522374E+03  0.16788660485E+04  0.12699999809E+01 0. -1.
       -4    1    3    3    0  502 -0.15865909019E+04 -0.26074166851E+03  0.28798550247E+03  0.16334607954E+04  0.12699999809E+01 0.  1.
</event>
<event>
 5   0  0.8545153E-07  0.3206355E+04  0.7818609E-02  0.8187141E-01
       -1   -1    0    0    0  501  0.00000000000E+00  0.00000000000E+00  0.13035623556E+04  0.13035623556E+04  0.50400001928E-02 0. -1.
        1   -1    0    0  501    0  0.00000000000E+00  0.00000000000E+00 -0.19716576064E+04  0.19716576064E+04  0.50400001928E-02 0.  1.
    10030    2    1    2    0    0  0.00000000000E+00  0.00000000000E+00 -0.66809525080E+03  0.32752199619E+04  0.32063553351E+04 0.  0.
        3    1    3    3  502    0  0.44930859257E+02 -0.24951163233E+03  0.12829560921E+04  0.13077657211E+04  0.10100000352E+00 0. -1.
       -3    1    3    3    0  502 -0.44930859257E+02  0.24951163233E+03 -0.19510513429E+04  0.19674542408E+04  0.10100000352E+00 0.  1.
</event>
<event>
 5   0  0.8545153E-07  0.3162774E+04  0.7818609E-02  0.8198718E-01
       -1   -1    0    0    0  501  0.00000000000E+00  0.00000000000E+00  0.16981105678E+04  0.16981105678E+04  0.50400001928E-02 0.  1.
        1   -1    0    0  501    0  0.00000000000E+00  0.00000000000E+00 -0.14726871307E+04  0.14726871307E+04  0.50400001928E-02 0. -1.
    10030    2    1    2    0    0  0.00000000000E+00  0.00000000000E+00  0.22542343712E+03  0.31707976985E+04  0.31627744654E+04 0.  0.
        3    1    3    3  502    0 -0.67736564316E+03 -0.11062902628E+04  0.10194856996E+04  0.16498646799E+04  0.10100000352E+00 0.  1.
       -3    1    3    3    0  502  0.67736564316E+03  0.11062902628E+04 -0.79406226249E+03  0.15209330186E+04  0.10100000352E+00 0. -1.
</event>
<event>
 5   0  0.2466076E-06  0.2943202E+04  0.7818609E-02  0.8260139E-01
       -2   -1    0    0    0  501  0.00000000000E+00  0.00000000000E+00  0.16094006230E+04  0.16094006230E+04  0.25500000920E-02 0.  1.
        2   -1    0    0  501    0  0.00000000000E+00  0.00000000000E+00 -0.13455997863E+04  0.13455997863E+04  0.25500000920E-02 0. -1.
    10030    2    1    2    0    0  0.00000000000E+00  0.00000000000E+00  0.26380083670E+03  0.29550004094E+04  0.29432017495E+04 0.  0.
        3    1    3    3  502    0 -0.16187052032E+03 -0.86553547558E+03  0.13157180599E+04  0.15831827905E+04  0.10100000352E+00 0.  1.
       -3    1    3    3    0  502  0.16187052032E+03  0.86553547558E+03 -0.10519172232E+04  0.13718176189E+04  0.10100000352E+00 0. -1.
</event>
<event>
 5   0  0.7934375E-07  0.3268118E+04  0.7818609E-02  0.8171056E-01
       -3   -1    0    0    0  501  0.00000000000E+00  0.00000000000E+00  0.20368879124E+04  0.20368879149E+04  0.10100000352E+00 0.  1.
        3   -1    0    0  501    0  0.00000000000E+00  0.00000000000E+00 -0.13108959639E+04  0.13108959678E+04  0.10100000352E+00 0. -1.
    10030    2    1    2    0    0  0.00000000000E+00  0.00000000000E+00  0.72599194850E+03  0.33477838826E+04  0.32681175951E+04 0.  0.
        5    1    3    3  502    0 -0.65504586024E+03 -0.56233461738E+03  0.17841949519E+04  0.19820895584E+04  0.46999998093E+01 0.  1.
       -5    1    3    3    0  502  0.65504586024E+03  0.56233461738E+03 -0.10582030034E+04  0.13656943243E+04  0.46999998093E+01 0. -1.
</event>
<event>
 5   0  0.8545153E-07  0.3190753E+04  0.7818609E-02  0.8191264E-01
       -1   -1    0    0    0  501  0.00000000000E+00  0.00000000000E+00  0.11201635776E+04  0.11201635776E+04  0.50400001928E-02 0.  1.
        1   -1    0    0  501    0  0.00000000000E+00  0.00000000000E+00 -0.22721914789E+04  0.22721914789E+04  0.50400001928E-02 0. -1.
    10030    2    1    2    0    0  0.00000000000E+00  0.00000000000E+00 -0.11520279012E+04  0.33923550565E+04  0.31907529745E+04 0.  0.
        3    1    3    3  502    0  0.47774143297E+03 -0.21112306688E+02  0.10421717152E+04  0.11466492491E+04  0.10100000352E+00 0.  1.
       -3    1    3    3    0  502 -0.47774143297E+03  0.21112306688E+02 -0.21941996165E+04  0.22457058074E+04  0.10100000352E+00 0. -1.
</event>
<event>
 5   0  0.8383008E-07  0.3176846E+04  0.7818609E-02  0.8194959E-01
        1   -1    0    0  501    0  0.00000000000E+00  0.00000000000E+00  0.23819267439E+04  0.23819267439E+04  0.50400001928E-02 0. -1.
       -1   -1    0    0    0  501  0.00000000000E+00  0.00000000000E+00 -0.10592634587E+04  0.10592634587E+04  0.50400001928E-02 0.  1.
    10030    2    1    2    0    0  0.00000000000E+00  0.00000000000E+00  0.13226632852E+04  0.34411902027E+04  0.31768462104E+04 0.  0.
        4    1    3    3  502    0 -0.10232181984E+04 -0.32441479720E+03  0.19295965453E+04  0.22080681336E+04  0.12699999809E+01 0. -1.
       -4    1    3    3    0  502  0.10232181984E+04  0.32441479720E+03 -0.60693326005E+03  0.12331220691E+04  0.12699999809E+01 0.  1.
</event>
<event>
 5   0  0.8512855E-07  0.3187780E+04  0.7818609E-02  0.8192052E-01
       -1   -1    0    0    0  501  0.00000000000E+00  0.00000000000E+00  0.88565241512E+03  0.88565241513E+03  0.50400001928E-02 0.  1.
        1   -1    0    0  501    0  0.00000000000E+00  0.00000000000E+00 -0.28684904359E+04  0.28684904359E+04  0.50400001928E-02 0. -1.
    10030    2    1    2    0    0  0.00000000000E+00  0.00000000000E+00 -0.19828380207E+04  0.37541428510E+04  0.31877800942E+04 0.  0.
        5    1    3    3  502    0 -0.21960879791E+03 -0.14729667389E+04 -0.16603133983E+04  0.22303635822E+04  0.46999998093E+01 0. -1.
       -5    1    3    3    0  502  0.21960879791E+03  0.14729667389E+04 -0.32252462246E+03  0.15237792689E+04  0.46999998093E+01 0.  1.
</event>
<event>
 5   0  0.8383008E-07  0.3135614E+04  0.7818609E-02  0.8206031E-01
       -1   -1    0    0    0  501  0.00000000000E+00  0.00000000000E+00  0.18467293713E+04  0.18467293713E+04  0.50400001928E-02 0. -1.
        1   -1    0    0  501    0  0.00000000000E+00  0.00000000000E+00 -0.13310119496E+04  0.13310119496E+04  0.50400001928E-02 0.  1.
    10030    2    1    2    0    0  0.00000000000E+00  0.00000000000E+00  0.51571742173E+03  0.31777413209E+04  0.31356140457E+04 0.  0.
        4    1    3    3  502    0  0.89595685351E+03  0.37219991480E+03  0.15059672051E+04  0.17914268882E+04  0.12699999809E+01 0. -1.
       -4    1    3    3    0  502 -0.89595685351E+03 -0.37219991480E+03 -0.99024978338E+03  0.13863144327E+04  0.12699999809E+01 0.  1.
</event>
<event>
 5   0  0.2466076E-06  0.3187414E+04  0.7818609E-02  0.8192149E-01
       -2   -1    0    0    0  501  0.00000000000E+00  0.00000000000E+00  0.12954944847E+04  0.12954944847E+04  0.25500000920E-02 0. -1.
        2   -1    0    0  501    0  0.00000000000E+00  0.00000000000E+00 -0.19605652748E+04  0.19605652748E+04  0.25500000920E-02 0.  1.
    10030    2    1    2    0    0  0.00000000000E+00  0.00000000000E+00 -0.66507079010E+03  0.32560597596E+04  0.31874136854E+04 0.  0.
        3    1    3    3  502    0 -0.69721596060E+03 -0.14118853713E+04 -0.58353235043E+03  0.16792975947E+04  0.10100000352E+00 0.  1.
       -3    1    3    3    0  502  0.69721596060E+03  0.14118853713E+04 -0.81538439665E+02  0.15767621649E+04  0.10100000352E+00 0. -1.
</event>
<event>
 5   0  0.8681172E-07  0.3176907E+04  0.7818609E-02  0.8194943E-01
       -1   -1    0    0    0  501  0.00000000000E+00  0.00000000000E+00  0.15690408103E+04  0.15690408103E+04  0.50400001928E-02 0. -1.
        1   -1    0    0  501    0  0.00000000000E+00  0.00000000000E+00 -0.16081059034E+04  0.16081059034E+04  0.50400001928E-02 0.  1.
    10030    2    1    2    0    0  0.00000000000E+00  0.00000000000E+00 -0.39065093085E+02  0.31771467137E+04  0.31769065392E+04 0.  0.
        1    1    3    3  502    0  0.41147774829E+03  0.12395534883E+04  0.88462484807E+03  0.15774561514E+04  0.50400001928E-02 0. -1.
       -1    1    3    3    0  502 -0.41147774829E+03 -0.12395534883E+04 -0.92368994115E+03  0.15996905623E+04  0.50400001928E-02 0.  1.
</event>
<event>
 5   0  0.2466076E-06  0.3170342E+04  0.7818609E-02  0.8196694E-01
       -2   -1    0    0    0  501  0.00000000000E+00  0.00000000000E+00  0.77082033602E+03  0.77082033602E+03  0.25500000920E-02 0.  1.
        2   -1    0    0  501    0  0.00000000000E+00  0.00000000000E+00 -0.32598603733E+04  0.32598603733E+04  0.25500000920E-02 0. -1.
    10030    2    1    2    0    0  0.00000000000E+00  0.00000000000E+00 -0.24890400373E+04  0.40306807093E+04  0.31703417281E+04 0.  0.
        3    1    3    3  502    0 -0.11934605964E+04  0.90973990146E+03 -0.59525909562E+03  0.16144064806E+04  0.10100000352E+00 0. -1.
       -3    1    3    3    0  502  0.11934605964E+04 -0.90973990146E+03 -0.18937809416E+04  0.24162742287E+04  0.10100000352E+00 0.  1.
</event>
<event>
 5   0  0.2404430E-06  0.3223988E+04  0.7818609E-02  0.8182511E-01
       -2   -1    0    0    0  501  0.00000000000E+00  0.00000000000E+00  0.14725716760E+04  0.14725716760E+04  0.25500000920E-02 0.  1.
        2   -1    0    0  501    0  0.00000000000E+00  0.00000000000E+00 -0.17646164882E+04  0.17646164882E+04  0.25500000920E-02 0. -1.
    10030    2    1    2    0    0  0.00000000000E+00  0.00000000000E+00 -0.29204481226E+03  0.32371881642E+04  0.32239877540E+04 0.  0.
        4    1    3    3  502    0  0.82417190773E+03  0.78198966032E+03 -0.12942760581E+04  0.17221844529E+04  0.12699999809E+01 0. -1.
       -4    1    3    3    0  502 -0.82417190773E+03 -0.78198966032E+03  0.10022312458E+04  0.15150037113E+04  0.12699999809E+01 0.  1.
</event>
<event>
 5   0  0.8383008E-07  0.3215649E+04  0.7818609E-02  0.8184696E-01
       -1   -1    0    0    0  501  0.00000000000E+00  0.00000000000E+00  0.20104331770E+04  0.20104331771E+04  0.50400001928E-02 0. -1.
        1   -1    0    0  501    0  0.00000000000E+00  0.00000000000E+00 -0.12858422918E+04  0.12858422918E+04  0.50400001928E-02 0.  1.
    10030    2    1    2    0    0  0.00000000000E+00  0.00000000000E+00  0.72459088527E+03  0.32962754688E+04  0.32156492370E+04 0.  0.
        4    1    3    3  502    0  0.15690786336E+04 -0.12595318012E+03  0.26630681740E+02  0.15743515389E+04  0.12699999809E+01 0. -1.
       -4    1    3    3    0  502 -0.15690786336E+04  0.12595318012E+03  0.69796020353E+03  0.17219239299E+04  0.12699999809E+01 0.  1.
</event>
<event>
 5   0  0.8681172E-07  0.3166937E+04  0.7818609E-02  0.8197604E-01
        1   -1    0    0  501    0  0.00000000000E+00  0.00000000000E+00  0.17125037075E+04  0.17125037075E+04  0.50400001928E-02 0.  1.
       -1   -1    0    0    0  501  0.00000000000E+00  0.00000000000E+00 -0.14641561795E+04  0.14641561796E+04  0.50400001928E-02 0. -1.
    10030    2    1    2    0    0  0.00000000000E+00  0.00000000000E+00  0.24834752799E+03  0.31766598871E+04  0.31669372497E+04 0.  0.
        1    1    3    3  502    0  0.79788381104E+03  0.13668933280E+04  0.75476393964E+02  0.15845228405E+04  0.50400001928E-02 0. -1.
       -1    1    3    3    0  502 -0.79788381104E+03 -0.13668933280E+04  0.17287113402E+03  0.15921370466E+04  0.50400001928E-02 0.  1.
</event>
<event>
 5   0  0.2621528E-06  0.2987436E+04  0.7818609E-02  0.8247328E-01
       -2   -1    0    0    0  501  0.00000000000E+00  0.00000000000E+00  0.10867985107E+04  0.10867985107E+04  0.25500000920E-02 0.  1.
        2   -1    0    0  501    0  0.00000000000E+00  0.00000000000E+00 -0.20529970812E+04  0.20529970812E+04  0.25500000920E-02 0. -1.
    10030    2    1    2    0    0  0.00000000000E+00  0.00000000000E+00 -0.96619857053E+03  0.31397955920E+04  0.29874364732E+04 0.  0.
        2    1    3    3  502    0  0.66526272022E+03 -0.13051651303E+04 -0.78981065148E+03  0.16642810368E+04  0.25500000920E-02 0. -1.
       -2    1    3    3    0  502 -0.66526272022E+03  0.13051651303E+04 -0.17638791904E+03  0.14755145551E+04  0.25500000920E-02 0.  1.
</event>
<event>
 5   0  0.2466076E-06  0.3185168E+04  0.7818609E-02  0.8192745E-01
       -2   -1    0    0    0  501  0.00000000000E+00  0.00000000000E+00  0.15323450826E+04  0.15323450826E+04  0.25500000920E-02 0. -1.
        2   -1    0    0  501    0  0.00000000000E+00  0.00000000000E+00 -0.16551913591E+04  0.16551913591E+04  0.25500000920E-02 0.  1.
    10030    2    1    2    0    0  0.00000000000E+00  0.00000000000E+00 -0.12284627647E+03  0.31875364417E+04  0.31851683408E+04 0.  0.
        3    1    3    3  502    0 -0.13042919317E+04  0.43343556040E+03  0.74371246287E+03  0.15627386428E+04  0.10100000352E+00 0. -1.
       -3    1    3    3    0  502  0.13042919317E+04 -0.43343556040E+03 -0.86655873934E+03  0.16247977988E+04  0.10100000352E+00 0.  1.
</event>
<event>
 5   0  0.8383008E-07  0.3211362E+04  0.7818609E-02  0.8185823E-01
       -1   -1    0    0    0  501  0.00000000000E+00  0.00000000000E+00  0.11422501279E+04  0.11422501280E+04  0.50400001928E-02 0.  1.
        1   -1    0    0  501    0  0.00000000000E+00  0.00000000000E+00 -0.22571335959E+04  0.22571335959E+04  0.50400001928E-02 0. -1.
    10030    2    1    2    0    0  0.00000000000E+00  0.00000000000E+00 -0.11148834679E+04  0.33993837238E+04  0.32113617913E+04 0.  0.
        4    1    3    3  502    0  0.45271896597E+03 -0.52995041952E+03 -0.20886494219E+04  0.22018764565E+04  0.12699999809E+01 0. -1.
       -4    1    3    3    0  502 -0.45271896597E+03  0.52995041952E+03  0.97376595395E+03  0.11975072673E+04  0.12699999809E+01 0.  1.
</event>
<event>
 5   0  0.8487944E-07  0.3226496E+04  0.7818609E-02  0.8181854E-01
        1   -1    0    0  501    0  0.00000000000E+00  0.00000000000E+00  0.15821664867E+04  0.15821664867E+04  0.50400001928E-02 0.  1.
       -1   -1    0    0    0  501  0.00000000000E+00  0.00000000000E+00 -0.16449404583E+04  0.16449404583E+04  0.50400001928E-02 0. -1.
    10030    2    1    2    0    0  0.00000000000E+00  0.00000000000E+00 -0.62773971628E+02  0.32271069450E+04  0.32264963448E+04 0.  0.
        2    1    3    3  502    0  0.24442758870E+03  0.12409123711E+04 -0.10330560702E+04  0.16330380287E+04  0.25500000920E-02 0. -1.
       -2    1    3    3    0  502 -0.24442758870E+03 -0.12409123711E+04  0.97028209862E+03  0.15940689163E+04  0.25500000920E-02 0.  1.
</event>
<event>
 5   0  0.8681172E-07  0.3241299E+04  0.7818609E-02  0.8177995E-01
       -1   -1    0    0    0  501  0.00000000000E+00  0.00000000000E+00  0.25857260259E+04  0.25857260259E+04  0.50400001928E-02 0. -1.
        1   -1    0    0  501    0  0.00000000000E+00  0.00000000000E+00 -0.10157706294E+04  0.10157706294E+04  0.50400001928E-02 0.  1.
    10030    2    1    2    0    0  0.00000000000E+00  0.00000000000E+00  0.15699553965E+04  0.36014966553E+04  0.32412988464E+04 0.  0.
        1    1    3    3  502    0 -0.13822293535E+04 -0.71911586308E+03  0.28953569731E+03  0.15847764922E+04  0.50400001928E-02 0.  1.
       -1    1    3    3    0  502  0.13822293535E+04  0.71911586308E+03  0.12804196992E+04  0.20167201631E+04  0.50400001928E-02 0. -1.
</event>
<event>
 5   0  0.2621528E-06  0.3180656E+04  0.7818609E-02  0.8193945E-01
       -2   -1    0    0    0  501  0.00000000000E+00  0.00000000000E+00  0.23132610024E+04  0.23132610024E+04  0.25500000920E-02 0. -1.
        2   -1    0    0  501    0  0.00000000000E+00  0.00000000000E+00 -0.10933236556E+04  0.10933236556E+04  0.25500000920E-02 0.  1.
    10030    2    1    2    0    0  0.00000000000E+00  0.00000000000E+00  0.12199373468E+04  0.34065846580E+04  0.31806558918E+04 0.  0.
        2    1    3    3  502    0  0.14650360053E+04 -0.42810827285E+03  0.10883926067E+04  0.18746214702E+04  0.25500000920E-02 0.  1.
       -2    1    3    3    0  502 -0.14650360053E+04  0.42810827285E+03  0.13154474001E+03  0.15319631878E+04  0.25500000920E-02 0. -1.
</event>
<event>
 5   0  0.8512855E-07  0.3112276E+04  0.7818609E-02  0.8212377E-01
       -1   -1    0    0    0  501  0.00000000000E+00  0.00000000000E+00  0.13428422429E+04  0.13428422429E+04  0.50400001928E-02 0. -1.
        1   -1    0    0  501    0  0.00000000000E+00  0.00000000000E+00 -0.18033136851E+04  0.18033136851E+04  0.50400001928E-02 0.  1.
    10030    2    1    2    0    0  0.00000000000E+00  0.00000000000E+00 -0.46047144216E+03  0.31461559280E+04  0.31122762047E+04 0.  0.
        5    1    3    3  502    0 -0.93801611007E+03 -0.32011451395E+03 -0.14429601036E+04  0.17505723280E+04  0.46999998093E+01 0.  1.
       -5    1    3    3    0  502  0.93801611007E+03  0.32011451395E+03  0.98248866148E+03  0.13955836000E+04  0.46999998093E+01 0. -1.
</event>
<event>
 5   0  0.8545153E-07  0.3208178E+04  0.7818609E-02  0.8186661E-01
        1   -1    0    0  501    0  0.00000000000E+00  0.00000000000E+00  0.15049075323E+04  0.15049075323E+04  0.50400001928E-02 0. -1.
       -1   -1    0    0    0  501  0.00000000000E+00  0.00000000000E+00 -0.17098074653E+04  0.17098074653E+04  0.50400001928E-02 0.  1.
    10030    2    1    2    0    0  0.00000000000E+00  0.00000000000E+00 -0.20489993300E+03  0.32147149976E+04  0.32081783824E+04 0.  0.
        3    1    3    3  502    0 -0.13497242782E+03  0.25872927166E+03  0.14780854981E+04  0.15066171187E+04  0.10100000352E+00 0. -1.
       -3    1    3    3    0  502  0.13497242782E+03 -0.25872927166E+03 -0.16829854311E+04  0.17080978789E+04  0.10100000352E+00 0.  1.
</event>
<event>
 5   0  0.2466076E-06  0.3185041E+04  0.7818609E-02  0.8192779E-01
       -2   -1    0    0    0  501  0.00000000000E+00  0.00000000000E+00  0.15146117729E+04  0.15146117729E+04  0.25500000920E-02 0. -1.
        2   -1    0    0  501    0  0.00000000000E+00  0.00000000000E+00 -0.16744365812E+04  0.16744365812E+04  0.25500000920E-02 0.  1.
    10030    2    1    2    0    0  0.00000000000E+00  0.00000000000E+00 -0.15982480833E+03  0.31890483540E+04  0.31850408844E+04 0.  0.
        3    1    3    3  502    0  0.11293238059E+04  0.71320916921E+03  0.78840523602E+03  0.15510069001E+04  0.10100000352E+00 0. -1.
       -3    1    3    3    0  502 -0.11293238059E+04 -0.71320916921E+03 -0.94823004434E+03  0.16380414540E+04  0.10100000352E+00 0.  1.
</event>
<event>
 5   0  0.2466076E-06  0.3201571E+04  0.7818609E-02  0.8188402E-01
       -2   -1    0    0    0  501  0.00000000000E+00  0.00000000000E+00  0.17411749258E+04  0.17411749258E+04  0.25500000920E-02 0. -1.
        2   -1    0    0  501    0  0.00000000000E+00  0.00000000000E+00 -0.14717152645E+04  0.14717152645E+04  0.25500000920E-02 0.  1.
    10030    2    1    2    0    0  0.00000000000E+00  0.00000000000E+00  0.26945966126E+03  0.32128901903E+04  0.32015706873E+04 0.  0.
        3    1    3    3  502    0 -0.40491909964E+03 -0.76252087878E+03 -0.12180406889E+04  0.14929905217E+04  0.10100000352E+00 0.  1.
       -3    1    3    3    0  502  0.40491909964E+03  0.76252087878E+03  0.14875003502E+04  0.17198996685E+04  0.10100000352E+00 0. -1.
</event>
<event>
 5   0  0.8681172E-07  0.2701556E+04  0.7818609E-02  0.8334500E-01
        1   -1    0    0  501    0  0.00000000000E+00  0.00000000000E+00  0.22012888002E+04  0.22012888002E+04  0.50400001928E-02 0.  1.
       -1   -1    0    0    0  501  0.00000000000E+00  0.00000000000E+00 -0.82887872754E+03  0.82887872755E+03  0.50400001928E-02 0. -1.
    10030    2    1    2    0    0  0.00000000000E+00  0.00000000000E+00  0.13724100727E+04  0.30301675278E+04  0.27015561883E+04 0.  0.
        1    1    3    3  502    0  0.12197753354E+03 -0.92448874150E+03 -0.40993038866E+03  0.10186269560E+04  0.50400001928E-02 0. -1.
       -1    1    3    3    0  502 -0.12197753354E+03  0.92448874150E+03  0.17823404613E+04  0.20115405718E+04  0.50400001928E-02 0.  1.
</event>
<event>
 5   0  0.2337504E-06  0.3204763E+04  0.7818609E-02  0.8187560E-01
        2   -1    0    0  501    0  0.00000000000E+00  0.00000000000E+00  0.28081331997E+04  0.28081331997E+04  0.25500000920E-02 0.  1.
       -2   -1    0    0    0  501  0.00000000000E+00  0.00000000000E+00 -0.91435378848E+03  0.91435378848E+03  0.25500000920E-02 0. -1.
    10030    2    1    2    0    0  0.00000000000E+00  0.00000000000E+00  0.18937794113E+04  0.37224869882E+04  0.32047634732E+04 0.  0.
        1    1    3    3  502    0 -0.97023551201E+03 -0.95544443465E+03 -0.34186191534E+02  0.13621305782E+04  0.50400001928E-02 0. -1.
       -1    1    3    3    0  502  0.97023551201E+03  0.95544443465E+03  0.19279656028E+04  0.23603564100E+04  0.50400001928E-02 0.  1.
</event>
<event>
 5   0  0.8487944E-07  0.3137816E+04  0.7818609E-02  0.8205436E-01
        1   -1    0    0  501    0  0.00000000000E+00  0.00000000000E+00  0.92097825585E+03  0.92097825587E+03  0.50400001928E-02 0. -1.
       -1   -1    0    0    0  501  0.00000000000E+00  0.00000000000E+00 -0.26726713627E+04  0.26726713627E+04  0.50400001928E-02 0.  1.
    10030    2    1    2    0    0  0.00000000000E+00  0.00000000000E+00 -0.17516931068E+04  0.35936496185E+04  0.31378159348E+04 0.  0.
        2    1    3    3  502    0 -0.36170995429E+03  0.24209373564E+03  0.85044910164E+03  0.95535707583E+03  0.25500000920E-02 0. -1.
       -2    1    3    3    0  502  0.36170995429E+03 -0.24209373564E+03 -0.26021422085E+04  0.26382925427E+04  0.25500000920E-02 0.  1.
</event>
<event>
 5   0  0.8681172E-07  0.3200344E+04  0.7818609E-02  0.8188726E-01
       -1   -1    0    0    0  501  0.00000000000E+00  0.00000000000E+00  0.26506403383E+04  0.26506403383E+04  0.50400001928E-02 0. -1.
        1   -1    0    0  501    0  0.00000000000E+00  0.00000000000E+00 -0.96601210292E+03  0.96601210293E+03  0.50400001928E-02 0.  1.
    10030    2    1    2    0    0  0.00000000000E+00  0.00000000000E+00  0.16846282353E+04  0.36166524412E+04  0.32003441361E+04 0.  0.
        1    1    3    3  502    0  0.60576565772E+03 -0.18994002643E+03 -0.81760776599E+03  0.10351384954E+04  0.50400001928E-02 0.  1.
       -1    1    3    3    0  502 -0.60576565772E+03  0.18994002643E+03  0.25022360013E+04  0.25815139458E+04  0.50400001928E-02 0. -1.
</event>
<event>
 5   0  0.8487944E-07  0.3259057E+04  0.7818609E-02  0.8173392E-01
       -1   -1    0    0    0  501  0.00000000000E+00  0.00000000000E+00  0.15490676333E+04  0.15490676333E+04  0.50400001928E-02 0.  1.
        1   -1    0    0  501    0  0.00000000000E+00  0.00000000000E+00 -0.17141683887E+04  0.17141683887E+04  0.50400001928E-02 0. -1.
    10030    2    1    2    0    0  0.00000000000E+00  0.00000000000E+00 -0.16510075539E+03  0.32632360221E+04  0.32590567771E+04 0.  0.
        2    1    3    3  502    0 -0.12498193168E+04 -0.58754649774E+03 -0.94858931784E+03  0.16754345423E+04  0.25500000920E-02 0. -1.
       -2    1    3    3    0  502  0.12498193168E+04  0.58754649774E+03  0.78348856245E+03  0.15878014798E+04  0.25500000920E-02 0.  1.
</event>
<event>
 5   0  0.2337504E-06  0.3079247E+04  0.7818609E-02  0.8221456E-01
        2   -1    0    0  501    0  0.00000000000E+00  0.00000000000E+00  0.11818326527E+04  0.11818326527E+04  0.25500000920E-02 0. -1.
       -2   -1    0    0    0  501  0.00000000000E+00  0.00000000000E+00 -0.20057332279E+04  0.20057332279E+04  0.25500000920E-02 0.  1.
    10030    2    1    2    0    0  0.00000000000E+00  0.00000000000E+00 -0.82390057512E+03  0.31875658806E+04  0.30792473245E+04 0.  0.
        1    1    3    3  502    0  0.20663205327E+03  0.13634172759E+04 -0.11207536834E+04  0.17769896715E+04  0.50400001928E-02 0.  1.
       -1    1    3    3    0  502 -0.20663205327E+03 -0.13634172759E+04  0.29685310829E+03  0.14105762091E+04  0.50400001928E-02 0. -1.
</event>
<event>
 5   0  0.8383008E-07  0.3218595E+04  0.7818609E-02  0.8183924E-01
        1   -1    0    0  501    0  0.00000000000E+00  0.00000000000E+00  0.29204317922E+04  0.29204317922E+04  0.50400001928E-02 0. -1.
       -1   -1    0    0    0  501  0.00000000000E+00  0.00000000000E+00 -0.88679969847E+03  0.88679969848E+03  0.50400001928E-02 0.  1.
    10030    2    1    2    0    0  0.00000000000E+00  0.00000000000E+00  0.20336320937E+04  0.38072314906E+04  0.32185947447E+04 0.  0.
        4    1    3    3  502    0 -0.10744110910E+04 -0.35609331544E+02 -0.39979048048E+03  0.11469355946E+04  0.12699999809E+01 0.  1.
       -4    1    3    3    0  502  0.10744110910E+04  0.35609331544E+02  0.24334225742E+04  0.26602958960E+04  0.12699999809E+01 0. -1.
</event>
<event>
 5   0  0.8487944E-07  0.3247651E+04  0.7818609E-02  0.8176345E-01
        1   -1    0    0  501    0  0.00000000000E+00  0.00000000000E+00  0.21650693095E+04  0.21650693095E+04  0.50400001928E-02 0. -1.
       -1   -1    0    0    0  501  0.00000000000E+00  0.00000000000E+00 -0.12178865887E+04  0.12178865887E+04  0.50400001928E-02 0.  1.
    10030    2    1    2    0    0  0.00000000000E+00  0.00000000000E+00  0.94718272077E+03  0.33829558982E+04  0.32476507668E+04 0.  0.
        2    1    3    3  502    0  0.89179987719E+03 -0.81625100480E+03 -0.65565730460E+03  0.13753033210E+04  0.25500000920E-02 0.  1.
       -2    1    3    3    0  502 -0.89179987719E+03  0.81625100480E+03  0.16028400254E+04  0.20076525772E+04  0.25500000920E-02 0. -1.
</event>
<event>
 5   0  0.2621528E-06  0.3186633E+04  0.7818609E-02  0.8192356E-01
        2   -1    0    0  501    0  0.00000000000E+00  0.00000000000E+00  0.14572570688E+04  0.14572570688E+04  0.25500000920E-02 0.  1.
       -2   -1    0    0    0  501  0.00000000000E+00  0.00000000000E+00 -0.17420796790E+04  0.17420796790E+04  0.25500000920E-02 0. -1.
    10030    2    1    2    0    0  0.00000000000E+00  0.00000000000E+00 -0.28482261019E+03  0.31993367478E+04  0.31866332872E+04 0.  0.
        2    1    3    3  502    0  0.29998061884E+03  0.65957412150E+03  0.12822704669E+04  0.14728353417E+04  0.25500000920E-02 0.  1.
       -2    1    3    3    0  502 -0.29998061884E+03 -0.65957412150E+03 -0.15670930771E+04  0.17265014062E+04  0.25500000920E-02 0. -1.
</event>
<event>
 5   0  0.8545153E-07  0.3216272E+04  0.7818609E-02  0.8184533E-01
       -1   -1    0    0    0  501  0.00000000000E+00  0.00000000000E+00  0.12076695065E+04  0.12076695065E+04  0.50400001928E-02 0. -1.
        1   -1    0    0  501    0  0.00000000000E+00  0.00000000000E+00 -0.21413982740E+04  0.21413982740E+04  0.50400001928E-02 0.  1.
    10030    2    1    2    0    0  0.00000000000E+00  0.00000000000E+00 -0.93372876756E+03  0.33490677805E+04  0.32162720014E+04 0.  0.
        3    1    3    3  502    0  0.46673734302E+03  0.10226933347E+04 -0.16642812172E+04  0.20083768034E+04  0.10100000352E+00 0.  1.
       -3    1    3    3    0  502 -0.46673734302E+03 -0.10226933347E+04  0.73055244968E+03  0.13406909771E+04  0.10100000352E+00 0. -1.
</event>
<event>
 5   0  0.2401139E-06  0.3262890E+04  0.7818609E-02  0.8172403E-01
       -2   -1    0    0    0  501  0.00000000000E+00  0.00000000000E+00  0.13666348332E+04  0.13666348332E+04  0.25500000920E-02 0.  1.
        2   -1    0    0  501    0  0.00000000000E+00  0.00000000000E+00 -0.19475670359E+04  0.19475670359E+04  0.25500000920E-02 0. -1.
    10030    2    1    2    0    0  0.00000000000E+00  0.00000000000E+00 -0.58093220270E+03  0.33142018691E+04  0.32628901001E+04 0.  0.
        5    1    3    3  502    0 -0.76428216556E+03  0.69415597133E+03 -0.15735056367E+04  0.18819994208E+04  0.46999998093E+01 0. -1.
       -5    1    3    3    0  502  0.76428216556E+03 -0.69415597133E+03  0.99257343400E+03  0.14322024483E+04  0.46999998093E+01 0.  1.
</event>
<event>
 5   0  0.8545153E-07  0.3034904E+04  0.7818609E-02  0.8233833E-01
       -1   -1    0    0    0  501  0.00000000000E+00  0.00000000000E+00  0.89425134528E+03  0.89425134529E+03  0.50400001928E-02 0. -1.
        1   -1    0    0  501    0  0.00000000000E+00  0.00000000000E+00 -0.25749592197E+04  0.25749592197E+04  0.50400001928E-02 0.  1.
    10030    2    1    2    0    0  0.00000000000E+00  0.00000000000E+00 -0.16807078744E+04  0.34692105650E+04  0.30349041146E+04 0.  0.
        3    1    3    3  502    0 -0.10521359946E+04  0.96398831354E+03 -0.14303518097E+04  0.20204380538E+04  0.10100000352E+00 0. -1.
       -3    1    3    3    0  502  0.10521359946E+04 -0.96398831354E+03 -0.25035606472E+03  0.14487725111E+04  0.10100000352E+00 0.  1.
</event>
<event>
 5   0  0.2621528E-06  0.3185917E+04  0.7818609E-02  0.8192546E-01
        2   -1    0    0  501    0  0.00000000000E+00  0.00000000000E+00  0.97719407008E+03  0.97719407008E+03  0.25500000920E-02 0. -1.
       -2   -1    0    0    0  501  0.00000000000E+00  0.00000000000E+00 -0.25967371196E+04  0.25967371196E+04  0.25500000920E-02 0.  1.
    10030    2    1    2    0    0  0.00000000000E+00  0.00000000000E+00 -0.16195430495E+04  0.35739311896E+04  0.31859165807E+04 0.  0.
        2    1    3    3  502    0  0.31412692315E+03 -0.11150753548E+04 -0.20362982403E+04  0.23427717119E+04  0.25500000920E-02 0.  1.
       -2    1    3    3    0  502 -0.31412692315E+03  0.11150753548E+04  0.41675519076E+03  0.12311594778E+04  0.25500000920E-02 0. -1.
</event>
<event>
 5   0  0.2404430E-06  0.3179634E+04  0.7818609E-02  0.8194217E-01
       -2   -1    0    0    0  501  0.00000000000E+00  0.00000000000E+00  0.15358205067E+04  0.15358205067E+04  0.25500000920E-02 0. -1.
        2   -1    0    0  501    0  0.00000000000E+00  0.00000000000E+00 -0.16457117618E+04  0.16457117618E+04  0.25500000920E-02 0.  1.
    10030    2    1    2    0    0  0.00000000000E+00  0.00000000000E+00 -0.10989125514E+03  0.31815322685E+04  0.31796338606E+04 0.  0.
        4    1    3    3  502    0  0.34600910615E+03 -0.42172318418E+03 -0.15491367446E+04  0.16423760264E+04  0.12699999809E+01 0.  1.
       -4    1    3    3    0  502 -0.34600910615E+03  0.42172318418E+03  0.14392454895E+04  0.15391562421E+04  0.12699999809E+01 0. -1.
</event>
<event>
 5   0  0.8681172E-07  0.3153787E+04  0.7818609E-02  0.8201130E-01
       -1   -1    0    0    0  501  0.00000000000E+00  0.00000000000E+00  0.14083560792E+04  0.14083560792E+04  0.50400001928E-02 0. -1.
        1   -1    0    0  501    0  0.00000000000E+00  0.00000000000E+00 -0.17656000678E+04  0.17656000678E+04  0.50400001928E-02 0.  1.
    10030    2    1    2    0    0  0.00000000000E+00  0.00000000000E+00 -0.35724398863E+03  0.31739561470E+04  0.31537873035E+04 0.  0.
        1    1    3    3  502    0  0.38018908710E+02 -0.15692727201E+04 -0.27557824307E+02  0.15699750766E+04  0.50400001928E-02 0.  1.
       -1    1    3    3    0  502 -0.38018908710E+02  0.15692727201E+04 -0.32968616432E+03  0.16039810704E+04  0.50400001928E-02 0. -1.
</event>
<event>
 5   0  0.2466076E-06  0.3169280E+04  0.7818609E-02  0.8196978E-01
       -2   -1    0    0    0  501  0.00000000000E+00  0.00000000000E+00  0.11491085173E+04  0.11491085173E+04  0.25500000920E-02 0. -1.
        2   -1    0    0  501    0  0.00000000000E+00  0.00000000000E+00 -0.21852447672E+04  0.21852447672E+04  0.25500000920E-02 0.  1.
    10030    2    1    2    0    0  0.00000000000E+00  0.00000000000E+00 -0.10361362499E+04  0.33343532845E+04  0.31692796496E+04 0.  0.
        3    1    3    3  502    0 -0.93535929255E+03 -0.75168629402E+03 -0.16069406072E+04  0.20055391834E+04  0.10100000352E+00 0.  1.
       -3    1    3    3    0  502  0.93535929255E+03  0.75168629402E+03  0.57080435729E+03  0.13288141011E+04  0.10100000352E+00 0. -1.
</event>
<event>
 5   0  0.2621528E-06  0.3094851E+04  0.7818609E-02  0.8217152E-01
        2   -1    0    0  501    0  0.00000000000E+00  0.00000000000E+00  0.19507770098E+04  0.19507770098E+04  0.25500000920E-02 0. -1.
       -2   -1    0    0    0  501  0.00000000000E+00  0.00000000000E+00 -0.12274727257E+04  0.12274727257E+04  0.25500000920E-02 0.  1.
    10030    2    1    2    0    0  0.00000000000E+00  0.00000000000E+00  0.72330428420E+03  0.31782497355E+04  0.30948509324E+04 0.  0.
        2    1    3    3  502    0  0.14309108828E+04 -0.11269081630E+03  0.95543782545E+03  0.17242582790E+04  0.25500000920E-02 0. -1.
       -2    1    3    3    0  502 -0.14309108828E+04  0.11269081630E+03 -0.23213354125E+03  0.14539914565E+04  0.25500000920E-02 0.  1.
</event>
<event>
 5   0  0.8545153E-07  0.3187688E+04  0.7818609E-02  0.8192076E-01
       -1   -1    0    0    0  501  0.00000000000E+00  0.00000000000E+00  0.10793617943E+04  0.10793617943E+04  0.50400001928E-02 0.  1.
        1   -1    0    0  501    0  0.00000000000E+00  0.00000000000E+00 -0.23535566621E+04  0.23535566621E+04  0.50400001928E-02 0. -1.
    10030    2    1    2    0    0  0.00000000000E+00  0.00000000000E+00 -0.12741948677E+04  0.34329184564E+04  0.31876882795E+04 0.  0.
        3    1    3    3  502    0 -0.28799014696E+02  0.12062494615E+04  0.48439619483E+03  0.13001949201E+04  0.10100000352E+00 0. -1.
       -3    1    3    3    0  502  0.28799014696E+02 -0.12062494615E+04 -0.17585910626E+04  0.21327235363E+04  0.10100000352E+00 0.  1.
</event>
<event>
 5   0  0.8545153E-07  0.3214980E+04  0.7818609E-02  0.8184872E-01
        1   -1    0    0  501    0  0.00000000000E+00  0.00000000000E+00  0.16103974688E+04  0.16103974688E+04  0.50400001928E-02 0.  1.
       -1   -1    0    0    0  501  0.00000000000E+00  0.00000000000E+00 -0.16045879550E+04  0.16045879550E+04  0.50400001928E-02 0. -1.
    10030    2    1    2    0    0  0.00000000000E+00  0.00000000000E+00  0.58095137621E+01  0.32149854238E+04  0.32149801749E+04 0.  0.
        3    1    3    3  502    0  0.79348713172E+03 -0.56834777605E+03  0.12801630218E+04  0.16098007315E+04  0.10100000352E+00 0.  1.
       -3    1    3    3    0  502 -0.79348713172E+03  0.56834777605E+03 -0.12743535080E+04  0.16051846923E+04  0.10100000352E+00 0. -1.
</event>
<event>
 5   0  0.8383008E-07  0.3099092E+04  0.7818609E-02  0.8215987E-01
       -1   -1    0    0    0  501  0.00000000000E+00  0.00000000000E+00  0.17647338606E+04  0.17647338606E+04  0.50400001928E-02 0. -1.
        1   -1    0    0  501    0  0.00000000000E+00  0.00000000000E+00 -0.13605974636E+04  0.13605974636E+04  0.50400001928E-02 0.  1.
    10030    2    1    2    0    0  0.00000000000E+00  0.00000000000E+00  0.40413639697E+03  0.31253313242E+04  0.30990917474E+04 0.  0.
        4    1    3    3  502    0  0.28635377606E+03  0.14690011091E+04 -0.20273805954E+03  0.15103201903E+04  0.12699999809E+01 0.  1.
       -4    1    3    3    0  502 -0.28635377606E+03 -0.14690011091E+04  0.60687445651E+03  0.16150111339E+04  0.12699999809E+01 0. -1.
</event>
<event>
 5   0  0.2466076E-06  0.2853373E+04  0.7818609E-02  0.8286887E-01
        2   -1    0    0  501    0  0.00000000000E+00  0.00000000000E+00  0.18098197143E+04  0.18098197143E+04  0.25500000920E-02 0.  1.
       -2   -1    0    0    0  501  0.00000000000E+00  0.00000000000E+00 -0.11246612874E+04  0.11246612874E+04  0.25500000920E-02 0. -1.
    10030    2    1    2    0    0  0.00000000000E+00  0.00000000000E+00  0.68515842689E+03  0.29344810017E+04  0.28533728602E+04 0.  0.
        3    1    3    3  502    0 -0.36153743514E+03 -0.12894195495E+04  0.84862517491E+03  0.15853948371E+04  0.10100000352E+00 0.  1.
       -3    1    3    3    0  502  0.36153743514E+03  0.12894195495E+04 -0.16346674802E+03  0.13490861646E+04  0.10100000352E+00 0. -1.
</event>
<event>
 5   0  0.2621528E-06  0.3188932E+04  0.7818609E-02  0.8191746E-01
       -2   -1    0    0    0  501  0.00000000000E+00  0.00000000000E+00  0.16885171455E+04  0.16885171455E+04  0.25500000920E-02 0.  1.
        2   -1    0    0  501    0  0.00000000000E+00  0.00000000000E+00 -0.15056531187E+04  0.15056531187E+04  0.25500000920E-02 0. -1.
    10030    2    1    2    0    0  0.00000000000E+00  0.00000000000E+00  0.18286402678E+03  0.31941702642E+04  0.31889315490E+04 0.  0.
        2    1    3    3  502    0  0.12957736260E+04  0.18391447986E+03  0.10036791205E+04  0.16493106447E+04  0.25500000920E-02 0.  1.
       -2    1    3    3    0  502 -0.12957736260E+04 -0.18391447986E+03 -0.82081509371E+03  0.15448596195E+04  0.25500000920E-02 0. -1.
</event>
<event>
 5   0  0.2404430E-06  0.3273355E+04  0.7818609E-02  0.8169708E-01
        2   -1    0    0  501    0  0.00000000000E+00  0.00000000000E+00  0.23632296092E+04  0.23632296092E+04  0.25500000920E-02 0. -1.
       -2   -1    0    0    0  501  0.00000000000E+00  0.00000000000E+00 -0.11334971283E+04  0.11334971283E+04  0.25500000920E-02 0.  1.
    10030    2    1    2    0    0  0.00000000000E+00  0.00000000000E+00  0.12297324810E+04  0.34967267375E+04  0.32733554500E+04 0.  0.
        4    1    3    3  502    0  0.12302660591E+04  0.10685579849E+04  0.77807145074E+03  0.18057595461E+04  0.12699999809E+01 0. -1.
       -4    1    3    3    0  502 -0.12302660591E+04 -0.10685579849E+04  0.45166103023E+03  0.16909671914E+04  0.12699999809E+01 0.  1.
</event>
<event>
 5   0  0.8487944E-07  0.3020610E+04  0.7818609E-02  0.8237870E-01
       -1   -1    0    0    0  501  0.00000000000E+00  0.00000000000E+00  0.13333128208E+04  0.13333128209E+04  0.50400001928E-02 0. -1.
        1   -1    0    0  501    0  0.00000000000E+00  0.00000000000E+00 -0.17107921506E+04  0.17107921507E+04  0.50400001928E-02 0.  1.
    10030    2    1    2    0    0  0.00000000000E+00  0.00000000000E+00 -0.37747932981E+03  0.30441049715E+04  0.30206099439E+04 0.  0.
        2    1    3    3  502    0  0.43284862153E+03  0.13514888387E+03 -0.16405693404E+04  0.17020842843E+04  0.25500000920E-02 0.  1.
       -2    1    3    3    0  502 -0.43284862153E+03 -0.13514888387E+03  0.12630900106E+04  0.13420206872E+04  0.25500000920E-02 0. -1.
</event>
<event>
 5   0  0.2337504E-06  0.3183000E+04  0.7818609E-02  0.8193321E-01
        2   -1    0    0  501    0  0.00000000000E+00  0.00000000000E+00  0.26235707840E+04  0.26235707840E+04  0.25500000920E-02 0. -1.
       -2   -1    0    0    0  501  0.00000000000E+00  0.00000000000E+00 -0.96542925586E+03  0.96542925586E+03  0.25500000920E-02 0.  1.
    10030    2    1    2    0    0  0.00000000000E+00  0.00000000000E+00  0.16581415282E+04  0.35890000399E+04  0.31829998365E+04 0.  0.
        1    1    3    3  502    0 -0.94966674554E+03  0.76529693229E+03  0.19818938213E+04  0.23271118240E+04  0.50400001928E-02 0. -1.
       -1    1    3    3    0  502  0.94966674554E+03 -0.76529693229E+03 -0.32375229316E+03  0.12618882159E+04  0.50400001928E-02 0.  1.
</event>
<event>
 5   0  0.2621528E-06  0.3176672E+04  0.7818609E-02  0.8195005E-01
       -2   -1    0    0    0  501  0.00000000000E+00  0.00000000000E+00  0.21386254022E+04  0.21386254022E+04  0.25500000920E-02 0.  1.
        2   -1    0    0  501    0  0.00000000000E+00  0.00000000000E+00 -0.11796416957E+04  0.11796416957E+04  0.25500000920E-02 0. -1.
    10030    2    1    2    0    0  0.00000000000E+00  0.00000000000E+00  0.95898370650E+03  0.33182670979E+04  0.31766722814E+04 0.  0.
        2    1    3    3  502    0  0.77743958409E+03  0.13518961611E+04  0.79421220477E+03  0.17500881588E+04  0.25500000920E-02 0.  1.
       -2    1    3    3    0  502 -0.77743958409E+03 -0.13518961611E+04  0.16477150173E+03  0.15681789391E+04  0.25500000920E-02 0. -1.
</event>
<event>
 5   0  0.8681172E-07  0.3164826E+04  0.7818609E-02  0.8198169E-01
        1   -1    0    0  501    0  0.00000000000E+00  0.00000000000E+00  0.18032285665E+04  0.18032285665E+04  0.50400001928E-02 0. -1.
       -1   -1    0    0    0  501  0.00000000000E+00  0.00000000000E+00 -0.13886378810E+04  0.13886378810E+04  0.50400001928E-02 0.  1.
    10030    2    1    2    0    0  0.00000000000E+00  0.00000000000E+00  0.41459068551E+03  0.31918664475E+04  0.31648263747E+04 0.  0.
        1    1    3    3  502    0  0.32321234055E+03 -0.46080039715E+03 -0.12842686058E+04  0.14021943784E+04  0.50400001928E-02 0.  1.
       -1    1    3    3    0  502 -0.32321234055E+03  0.46080039715E+03  0.16988592913E+04  0.17896720691E+04  0.50400001928E-02 0. -1.
</event>
<event>
 5   0  0.8545153E-07  0.3098165E+04  0.7818609E-02  0.8216242E-01
       -1   -1    0    0    0  501  0.00000000000E+00  0.00000000000E+00  0.14313417642E+04  0.14313417642E+04  0.50400001928E-02 0.  1.
        1   -1    0    0  501    0  0.00000000000E+00  0.00000000000E+00 -0.16765079665E+04  0.16765079665E+04  0.50400001928E-02 0. -1.
    10030    2    1    2    0    0  0.00000000000E+00  0.00000000000E+00 -0.24516620233E+03  0.31078497307E+04  0.30981645343E+04 0.  0.
        3    1    3    3  502    0 -0.13314964004E+04 -0.47981707711E+03  0.50910665836E+03  0.15040933121E+04  0.10100000352E+00 0.  1.
       -3    1    3    3    0  502  0.13314964004E+04  0.47981707711E+03 -0.75427286069E+03  0.16037564186E+04  0.10100000352E+00 0. -1.
</event>
<event>
 5   0  0.8383008E-07  0.3211441E+04  0.7818609E-02  0.8185802E-01
        1   -1    0    0  501    0  0.00000000000E+00  0.00000000000E+00  0.22206695766E+04  0.22206695766E+04  0.50400001928E-02 0.  1.
       -1   -1    0    0    0  501  0.00000000000E+00  0.00000000000E+00 -0.11610635252E+04  0.11610635252E+04  0.50400001928E-02 0. -1.
    10030    2    1    2    0    0  0.00000000000E+00  0.00000000000E+00  0.10596060515E+04  0.33817331018E+04  0.32114410765E+04 0.  0.
        4    1    3    3  502    0  0.90961413474E+03  0.10411820094E+04  0.13897326014E+04  0.19603102222E+04  0.12699999809E+01 0. -1.
       -4    1    3    3    0  502 -0.90961413474E+03 -0.10411820094E+04 -0.33012654995E+03  0.14214228796E+04  0.12699999809E+01 0.  1.
</event>
<event>
 5   0  0.8545153E-07  0.3189174E+04  0.7818609E-02  0.8191682E-01
        1   -1    0    0  501    0  0.00000000000E+00  0.00000000000E+00  0.27189338325E+04  0.27189338325E+04  0.50400001928E-02 0.  1.
       -1   -1    0    0    0  501  0.00000000000E+00  0.00000000000E+00 -0.93518539402E+03  0.93518539403E+03  0.50400001928E-02 0. -1.
    10030    2    1    2    0    0  0.00000000000E+00  0.00000000000E+00  0.17837484385E+04  0.36541192266E+04  0.31891736908E+04 0.  0.
        3    1    3    3  502    0 -0.18860831449E+03  0.73297578385E+01  0.27060888685E+04  0.27126635980E+04  0.10100000352E+00 0.  1.
       -3    1    3    3    0  502  0.18860831449E+03 -0.73297578385E+01 -0.92234042995E+03  0.94145562857E+03  0.10100000352E+00 0. -1.
</event>
<event>
 5   0  0.2466076E-06  0.3200354E+04  0.7818609E-02  0.8188724E-01
       -2   -1    0    0    0  501  0.00000000000E+00  0.00000000000E+00  0.26396171444E+04  0.26396171444E+04  0.25500000920E-02 0.  1.
        2   -1    0    0  501    0  0.00000000000E+00  0.00000000000E+00 -0.97005217474E+03  0.97005217475E+03  0.25500000920E-02 0. -1.
    10030    2    1    2    0    0  0.00000000000E+00  0.00000000000E+00  0.16695649696E+04  0.36096693191E+04  0.32003539501E+04 0.  0.
        3    1    3    3  502    0  0.14041698009E+03  0.13752972480E+04  0.17437070735E+04  0.22252356767E+04  0.10100000352E+00 0.  1.
       -3    1    3    3    0  502 -0.14041698009E+03 -0.13752972480E+04 -0.74142103828E+02  0.13844336424E+04  0.10100000352E+00 0. -1.
</event>
<event>
 5   0  0.8487944E-07  0.3185842E+04  0.7818609E-02  0.8192566E-01
        1   -1    0    0  501    0  0.00000000000E+00  0.00000000000E+00  0.17052652296E+04  0.17052652296E+04  0.50400001928E-02 0.  1.
       -1   -1    0    0    0  501  0.00000000000E+00  0.00000000000E+00 -0.14879782691E+04  0.14879782691E+04  0.50400001928E-02 0. -1.
    10030    2    1    2    0    0  0.00000000000E+00  0.00000000000E+00  0.21728696052E+03  0.31932434987E+04  0.31858421836E+04 0.  0.
        2    1    3    3  502    0 -0.56951076946E+03 -0.84880188258E+03  0.13331979499E+04  0.16799475962E+04  0.25500000920E-02 0.  1.
       -2    1    3    3    0  502  0.56951076946E+03  0.84880188258E+03 -0.11159109894E+04  0.15132959025E+04  0.25500000920E-02 0. -1.
</event>
<event>
 5   0  0.2337504E-06  0.3195854E+04  0.7818609E-02  0.8189913E-01
       -2   -1    0    0    0  501  0.00000000000E+00  0.00000000000E+00  0.19420938333E+04  0.19420938333E+04  0.25500000920E-02 0.  1.
        2   -1    0    0  501    0  0.00000000000E+00  0.00000000000E+00 -0.13147513310E+04  0.13147513310E+04  0.25500000920E-02 0. -1.
    10030    2    1    2    0    0  0.00000000000E+00  0.00000000000E+00  0.62734250227E+03  0.32568451644E+04  0.31958538467E+04 0.  0.
        1    1    3    3  502    0  0.35490879408E+03  0.10367643667E+04  0.14988493873E+04  0.18567148651E+04  0.50400001928E-02 0.  1.
       -1    1    3    3    0  502 -0.35490879408E+03 -0.10367643667E+04 -0.87150688506E+03  0.14001302993E+04  0.50400001928E-02 0. -1.
</event>
<event>
 5   0  0.8487944E-07  0.3192122E+04  0.7818609E-02  0.8190901E-01
        1   -1    0    0  501    0  0.00000000000E+00  0.00000000000E+00  0.15249167350E+04  0.15249167350E+04  0.50400001928E-02 0. -1.
       -1   -1    0    0    0  501  0.00000000000E+00  0.00000000000E+00 -0.16705239621E+04  0.16705239621E+04  0.50400001928E-02 0.  1.
    10030    2    1    2    0    0  0.00000000000E+00  0.00000000000E+00 -0.14560722707E+03  0.31954406971E+04  0.31921215178E+04 0.  0.
        2    1    3    3  502    0 -0.15401598131E+04 -0.36278599679E+03 -0.28207604668E+03  0.16072563036E+04  0.25500000920E-02 0. -1.
       -2    1    3    3    0  502  0.15401598131E+04  0.36278599679E+03  0.13646881961E+03  0.15881843936E+04  0.25500000920E-02 0.  1.
</event>
<event>
 5   0  0.8545153E-07  0.3212007E+04  0.7818609E-02  0.8185653E-01
        1   -1    0    0  501    0  0.00000000000E+00  0.00000000000E+00  0.15914278873E+04  0.15914278873E+04  0.50400001928E-02 0. -1.
       -1   -1    0    0    0  501  0.00000000000E+00  0.00000000000E+00 -0.16207126856E+04  0.16207126856E+04  0.50400001928E-02 0.  1.
    10030    2    1    2    0    0  0.00000000000E+00  0.00000000000E+00 -0.29284798274E+02  0.32121405729E+04  0.32120070766E+04 0.  0.
        3    1    3    3  502    0 -0.11668050480E+04 -0.56077940640E+03 -0.96512379414E+03  0.16147357403E+04  0.10100000352E+00 0. -1.
       -3    1    3    3    0  502  0.11668050480E+04  0.56077940640E+03  0.93583899587E+03  0.15974048326E+04  0.10100000352E+00 0.  1.
</event>
<event>
 5   0  0.2337504E-06  0.3208892E+04  0.7818609E-02  0.8186473E-01
        2   -1    0    0  501    0  0.00000000000E+00  0.00000000000E+00  0.26799942780E+04  0.26799942780E+04  0.25500000920E-02 0.  1.
       -2   -1    0    0    0  501  0.00000000000E+00  0.00000000000E+00 -0.96054194083E+03  0.96054194083E+03  0.25500000920E-02 0. -1.
    10030    2    1    2    0    0  0.00000000000E+00  0.00000000000E+00  0.17194523372E+04  0.36405362189E+04  0.32088919616E+04 0.  0.
        1    1    3    3  502    0 -0.21751555824E+03  0.13957370463E+04 -0.34392330212E+01  0.14125886694E+04  0.50400001928E-02 0. -1.
       -1    1    3    3    0  502  0.21751555824E+03 -0.13957370463E+04  0.17228915702E+04  0.22279475495E+04  0.50400001928E-02 0.  1.
</event>
<event>
 5   0  0.8383008E-07  0.3103494E+04  0.7818609E-02  0.8214780E-01
       -1   -1    0    0    0  501  0.00000000000E+00  0.00000000000E+00  0.19548894987E+04  0.19548894987E+04  0.50400001928E-02 0. -1.
        1   -1    0    0  501    0  0.00000000000E+00  0.00000000000E+00 -0.12317415179E+04  0.12317415179E+04  0.50400001928E-02 0.  1.
    10030    2    1    2    0    0  0.00000000000E+00  0.00000000000E+00  0.72314798080E+03  0.31866310166E+04  0.31034938752E+04 0.  0.
        4    1    3    3  502    0 -0.27174497017E+03  0.16562357260E+03  0.19210217762E+04  0.19472038347E+04  0.12699999809E+01 0. -1.
       -4    1    3    3    0  502  0.27174497017E+03 -0.16562357260E+03 -0.11978737954E+04  0.12394271818E+04  0.12699999809E+01 0.  1.
</event>
<event>
 5   0  0.2621528E-06  0.3216625E+04  0.7818609E-02  0.8184440E-01
       -2   -1    0    0    0  501  0.00000000000E+00  0.00000000000E+00  0.11500492255E+04  0.11500492255E+04  0.25500000920E-02 0.  1.
        2   -1    0    0  501    0  0.00000000000E+00  0.00000000000E+00 -0.22491807706E+04  0.22491807706E+04  0.25500000920E-02 0. -1.
    10030    2    1    2    0    0  0.00000000000E+00  0.00000000000E+00 -0.10991315452E+04  0.33992299961E+04  0.32166246926E+04 0.  0.
        2    1    3    3  502    0  0.11082885618E+04 -0.11569395304E+04 -0.40065506375E+03  0.16514651354E+04  0.25500000920E-02 0. -1.
       -2    1    3    3    0  502 -0.11082885618E+04  0.11569395304E+04 -0.69847648142E+03  0.17477648607E+04  0.25500000920E-02 0.  1.
</event>
<event>
 5   0  0.8512855E-07  0.3189415E+04  0.7818609E-02  0.8191618E-01
        1   -1    0    0  501    0  0.00000000000E+00  0.00000000000E+00  0.24645508402E+04  0.24645508403E+04  0.50400001928E-02 0.  1.
       -1   -1    0    0    0  501  0.00000000000E+00  0.00000000000E+00 -0.10318682366E+04  0.10318682366E+04  0.50400001928E-02 0. -1.
    10030    2    1    2    0    0  0.00000000000E+00  0.00000000000E+00  0.14326826037E+04  0.34964190768E+04  0.31894148237E+04 0.  0.
        5    1    3    3  502    0  0.59250607041E+03  0.25837183031E+03  0.23144911759E+04  0.24030628247E+04  0.46999998093E+01 0.  1.
       -5    1    3    3    0  502 -0.59250607041E+03 -0.25837183031E+03 -0.88180857217E+03  0.10933562522E+04  0.46999998093E+01 0. -1.
</event>
<event>
 5   0  0.2466076E-06  0.3338928E+04  0.7818609E-02  0.8153060E-01
        2   -1    0    0  501    0  0.00000000000E+00  0.00000000000E+00  0.22583687599E+04  0.22583687599E+04  0.25500000920E-02 0.  1.
       -2   -1    0    0    0  501  0.00000000000E+00  0.00000000000E+00 -0.12341252045E+04  0.12341252045E+04  0.25500000920E-02 0. -1.
    10030    2    1    2    0    0  0.00000000000E+00  0.00000000000E+00  0.10242435554E+04  0.34924939644E+04  0.33389278565E+04 0.  0.
        3    1    3    3  502    0 -0.15133129211E+04  0.60950825247E+03  0.14157825280E+03  0.16375776985E+04  0.10100000352E+00 0. -1.
       -3    1    3    3    0  502  0.15133129211E+04 -0.60950825247E+03  0.88266530264E+03  0.18549162659E+04  0.10100000352E+00 0.  1.
</event>
<event>
 5   0  0.8487944E-07  0.3154979E+04  0.7818609E-02  0.8200809E-01
       -1   -1    0    0    0  501  0.00000000000E+00  0.00000000000E+00  0.13159959160E+04  0.13159959160E+04  0.50400001928E-02 0. -1.
        1   -1    0    0  501    0  0.00000000000E+00  0.00000000000E+00 -0.18909430864E+04  0.18909430864E+04  0.50400001928E-02 0.  1.
    10030    2    1    2    0    0  0.00000000000E+00  0.00000000000E+00 -0.57494717038E+03  0.32069390024E+04  0.31549791626E+04 0.  0.
        2    1    3    3  502    0 -0.93989868578E+03 -0.95102778978E+03 -0.11382831523E+04  0.17560045362E+04  0.25500000920E-02 0.  1.
       -2    1    3    3    0  502  0.93989868578E+03  0.95102778978E+03  0.56333598192E+03  0.14509344661E+04  0.25500000920E-02 0. -1.
</event>
<event>
 5   0  0.2621528E-06  0.3109101E+04  0.7818609E-02  0.8213245E-01
       -2   -1    0    0    0  501  0.00000000000E+00  0.00000000000E+00  0.10261226692E+04  0.10261226692E+04  0.25500000920E-02 0.  1.
        2   -1    0    0  501    0  0.00000000000E+00  0.00000000000E+00 -0.23551051482E+04  0.23551051482E+04  0.25500000920E-02 0. -1.
    10030    2    1    2    0    0  0.00000000000E+00  0.00000000000E+00 -0.13289824790E+04  0.33812278174E+04  0.31091006937E+04 0.  0.
        2    1    3    3  502    0  0.34524695720E+03 -0.14647625014E+04 -0.10883504092E+04  0.18572106128E+04  0.25500000920E-02 0. -1.
       -2    1    3    3    0  502 -0.34524695720E+03  0.14647625014E+04 -0.24063206982E+03  0.15240172046E+04  0.25500000920E-02 0.  1.
</event>
<event>
 5   0  0.2337504E-06  0.3163107E+04  0.7818609E-02  0.8198629E-01
       -2   -1    0    0    0  501  0.00000000000E+00  0.00000000000E+00  0.17651301288E+04  0.17651301288E+04  0.25500000920E-02 0. -1.
        2   -1    0    0  501    0  0.00000000000E+00  0.00000000000E+00 -0.14170689625E+04  0.14170689625E+04  0.25500000920E-02 0.  1.
    10030    2    1    2    0    0  0.00000000000E+00  0.00000000000E+00  0.34806116631E+03  0.31821990914E+04  0.31631067768E+04 0.  0.
        1    1    3    3  502    0  0.37035302208E+03  0.10637215637E+04  0.12909779648E+04  0.17132685229E+04  0.50400001928E-02 0. -1.
       -1    1    3    3    0  502 -0.37035302208E+03 -0.10637215637E+04 -0.94291679845E+03  0.14689305685E+04  0.50400001928E-02 0.  1.
</event>
<event>
 5   0  0.8545153E-07  0.3211141E+04  0.7818609E-02  0.8185881E-01
       -1   -1    0    0    0  501  0.00000000000E+00  0.00000000000E+00  0.12339140646E+04  0.12339140646E+04  0.50400001928E-02 0.  1.
        1   -1    0    0  501    0  0.00000000000E+00  0.00000000000E+00 -0.20891703582E+04  0.20891703582E+04  0.50400001928E-02 0. -1.
    10030    2    1    2    0    0  0.00000000000E+00  0.00000000000E+00 -0.85525629360E+03  0.33230844228E+04  0.32111410361E+04 0.  0.
        3    1    3    3  502    0 -0.29794468626E+03  0.54559007348E+03  0.11043215978E+04  0.12672670460E+04  0.10100000352E+00 0.  1.
       -3    1    3    3    0  502  0.29794468626E+03 -0.54559007348E+03 -0.19595778914E+04  0.20558173768E+04  0.10100000352E+00 0. -1.
</event>
<event>
 5   0  0.8383008E-07  0.3227150E+04  0.7818609E-02  0.8181683E-01
       -1   -1    0    0    0  501  0.00000000000E+00  0.00000000000E+00  0.11154296245E+04  0.11154296245E+04  0.50400001928E-02 0.  1.
        1   -1    0    0  501    0  0.00000000000E+00  0.00000000000E+00 -0.23341899893E+04  0.23341899893E+04  0.50400001928E-02 0. -1.
    10030    2    1    2    0    0  0.00000000000E+00  0.00000000000E+00 -0.12187603648E+04  0.34496196138E+04  0.32271502372E+04 0.  0.
        4    1    3    3  502    0  0.12637848563E+04  0.46640911973E+03  0.34007004171E+03  0.13893663578E+04  0.12699999809E+01 0.  1.
       -4    1    3    3    0  502 -0.12637848563E+04 -0.46640911973E+03 -0.15588304065E+04  0.20602532561E+04  0.12699999809E+01 0. -1.
</event>
<event>
 5   0  0.2621528E-06  0.3223124E+04  0.7818609E-02  0.8182737E-01
       -2   -1    0    0    0  501  0.00000000000E+00  0.00000000000E+00  0.16967133786E+04  0.16967133786E+04  0.25500000920E-02 0. -1.
        2   -1    0    0  501    0  0.00000000000E+00  0.00000000000E+00 -0.15306838550E+04  0.15306838550E+04  0.25500000920E-02 0.  1.
    10030    2    1    2    0    0  0.00000000000E+00  0.00000000000E+00  0.16602952356E+03  0.32273972336E+04  0.32231238109E+04 0.  0.
        2    1    3    3  502    0  0.32487402510E+03 -0.96343741738E+03  0.13350233014E+04  0.16781066726E+04  0.25500000920E-02 0. -1.
       -2    1    3    3    0  502 -0.32487402510E+03  0.96343741738E+03 -0.11689937779E+04  0.15492905609E+04  0.25500000920E-02 0.  1.
</event>
<event>
 5   0  0.2404430E-06  0.3214192E+04  0.7818609E-02  0.8185079E-01
       -2   -1    0    0    0  501  0.00000000000E+00  0.00000000000E+00  0.10392477814E+04  0.10392477814E+04  0.25500000920E-02 0.  1.
        2   -1    0    0  501    0  0.00000000000E+00  0.00000000000E+00 -0.24852180636E+04  0.24852180636E+04  0.25500000920E-02 0. -1.
    10030    2    1    2    0    0  0.00000000000E+00  0.00000000000E+00 -0.14459702822E+04  0.35244658449E+04  0.32141918790E+04 0.  0.
        4    1    3    3  502    0 -0.10557227242E+04  0.93571334931E+03 -0.15671341472E+04  0.21085589844E+04  0.12699999809E+01 0. -1.
       -4    1    3    3    0  502  0.10557227242E+04 -0.93571334931E+03  0.12116386505E+03  0.14159068605E+04  0.12699999809E+01 0.  1.
</event>
<event>
 5   0  0.2466076E-06  0.3171458E+04  0.7818609E-02  0.8196396E-01
        2   -1    0    0  501    0  0.00000000000E+00  0.00000000000E+00  0.14006630251E+04  0.14006630251E+04  0.25500000920E-02 0. -1.
       -2   -1    0    0    0  501  0.00000000000E+00  0.00000000000E+00 -0.17952469884E+04  0.17952469884E+04  0.25500000920E-02 0.  1.
    10030    2    1    2    0    0  0.00000000000E+00  0.00000000000E+00 -0.39458396331E+03  0.31959100135E+04  0.31714577579E+04 0.  0.
        3    1    3    3  502    0 -0.14426379017E+04  0.64193032274E+03 -0.34421532846E+03  0.16160949407E+04  0.10100000352E+00 0. -1.
       -3    1    3    3    0  502  0.14426379017E+04 -0.64193032274E+03 -0.50368634851E+02  0.15798150728E+04  0.10100000352E+00 0.  1.
</event>
<event>
 5   0  0.2401139E-06  0.3200105E+04  0.7818609E-02  0.8188790E-01
       -2   -1    0    0    0  501  0.00000000000E+00  0.00000000000E+00  0.26936356761E+04  0.26936356761E+04  0.25500000920E-02 0. -1.
        2   -1    0    0  501    0  0.00000000000E+00  0.00000000000E+00 -0.95045048625E+03  0.95045048625E+03  0.25500000920E-02 0.  1.
    10030    2    1    2    0    0  0.00000000000E+00  0.00000000000E+00  0.17431851898E+04  0.36440861623E+04  0.32001045846E+04 0.  0.
        5    1    3    3  502    0  0.25165669787E+03  0.48223674861E+03 -0.84192193689E+03  0.10023662071E+04  0.46999998093E+01 0.  1.
       -5    1    3    3    0  502 -0.25165669787E+03 -0.48223674861E+03  0.25851071267E+04  0.26417199552E+04  0.46999998093E+01 0. -1.
</event>
<event>
 5   0  0.8383008E-07  0.3217035E+04  0.7818609E-02  0.8184333E-01
        1   -1    0    0  501    0  0.00000000000E+00  0.00000000000E+00  0.27131381873E+04  0.27131381874E+04  0.50400001928E-02 0. -1.
       -1   -1    0    0    0  501  0.00000000000E+00  0.00000000000E+00 -0.95362935783E+03  0.95362935784E+03  0.50400001928E-02 0.  1.
    10030    2    1    2    0    0  0.00000000000E+00  0.00000000000E+00  0.17595088295E+04  0.36667675452E+04  0.32170348008E+04 0.  0.
        4    1    3    3  502    0 -0.51559842810E+03  0.15143970216E+04  0.10707734787E+04  0.19250448134E+04  0.12699999809E+01 0.  1.
       -4    1    3    3    0  502  0.51559842810E+03 -0.15143970216E+04  0.68873535081E+03  0.17417227318E+04  0.12699999809E+01 0. -1.
</event>
<event>
 5   0  0.8512855E-07  0.3186949E+04  0.7818609E-02  0.8192272E-01
        1   -1    0    0  501    0  0.00000000000E+00  0.00000000000E+00  0.10703978854E+04  0.10703978855E+04  0.50400001928E-02 0.  1.
       -1   -1    0    0    0  501  0.00000000000E+00  0.00000000000E+00 -0.23721659029E+04  0.23721659029E+04  0.50400001928E-02 0. -1.
    10030    2    1    2    0    0  0.00000000000E+00  0.00000000000E+00 -0.13017680174E+04  0.34425637884E+04  0.31869492412E+04 0.  0.
        5    1    3    3  502    0  0.14142225029E+04  0.66434565730E+03 -0.31314217168E+03  0.15935684955E+04  0.46999998093E+01 0.  1.
       -5    1    3    3    0  502 -0.14142225029E+04 -0.66434565730E+03 -0.98862584576E+03  0.18489952929E+04  0.46999998093E+01 0. -1.
</event>
<event>
 5   0  0.8681172E-07  0.3175171E+04  0.7818609E-02  0.8195406E-01
       -1   -1    0    0    0  501  0.00000000000E+00  0.00000000000E+00  0.12282920055E+04  0.12282920055E+04  0.50400001928E-02 0. -1.
        1   -1    0    0  501    0  0.00000000000E+00  0.00000000000E+00 -0.20519770542E+04  0.20519770542E+04  0.50400001928E-02 0.  1.
    10030    2    1    2    0    0  0.00000000000E+00  0.00000000000E+00 -0.82368504867E+03  0.32802690597E+04  0.31751705537E+04 0.  0.
        1    1    3    3  502    0 -0.99097497013E+03  0.91305833080E+03 -0.12791053674E+04  0.18579067382E+04  0.50400001928E-02 0.  1.
       -1    1    3    3    0  502  0.99097497013E+03 -0.91305833080E+03  0.45542031878E+03  0.14223623215E+04  0.50400001928E-02 0. -1.
</event>
<event>
 5   0  0.2404430E-06  0.3183219E+04  0.7818609E-02  0.8193263E-01
       -2   -1    0    0    0  501  0.00000000000E+00  0.00000000000E+00  0.10536924927E+04  0.10536924927E+04  0.25500000920E-02 0.  1.
        2   -1    0    0  501    0  0.00000000000E+00  0.00000000000E+00 -0.24041373394E+04  0.24041373394E+04  0.25500000920E-02 0. -1.
    10030    2    1    2    0    0  0.00000000000E+00  0.00000000000E+00 -0.13504448467E+04  0.34578298320E+04  0.31832194180E+04 0.  0.
        4    1    3    3  502    0  0.11522801086E+04 -0.30156062353E+03 -0.18220106709E+04  0.21767895525E+04  0.12699999809E+01 0. -1.
       -4    1    3    3    0  502 -0.11522801086E+04  0.30156062353E+03  0.47156582421E+03  0.12810402795E+04  0.12699999809E+01 0.  1.
</event>
<event>
 5   0  0.2404430E-06  0.3104674E+04  0.7818609E-02  0.8214456E-01
        2   -1    0    0  501    0  0.00000000000E+00  0.00000000000E+00  0.23721785358E+04  0.23721785358E+04  0.25500000920E-02 0.  1.
       -2   -1    0    0    0  501  0.00000000000E+00  0.00000000000E+00 -0.10158381339E+04  0.10158381339E+04  0.25500000920E-02 0. -1.
    10030    2    1    2    0    0  0.00000000000E+00  0.00000000000E+00  0.13563404019E+04  0.33880166697E+04  0.31046735204E+04 0.  0.
        4    1    3    3  502    0  0.90476365642E+03 -0.92495077874E+03  0.16141260391E+04  0.20687038696E+04  0.12699999809E+01 0.  1.
       -4    1    3    3    0  502 -0.90476365642E+03  0.92495077874E+03 -0.25778563712E+03  0.13193128002E+04  0.12699999809E+01 0. -1.
</event>
<event>
 5   0  0.7934375E-07  0.3233076E+04  0.7818609E-02  0.8180136E-01
       -3   -1    0    0    0  501  0.00000000000E+00  0.00000000000E+00  0.21066043437E+04  0.21066043461E+04  0.10100000352E+00 0. -1.
        3   -1    0    0  501    0  0.00000000000E+00  0.00000000000E+00 -0.12404774881E+04  0.12404774923E+04  0.10100000352E+00 0.  1.
    10030    2    1    2    0    0  0.00000000000E+00  0.00000000000E+00  0.86612685551E+03  0.33470818383E+04  0.32330761053E+04 0.  0.
        1    1    3    3  502    0  0.13301320485E+04  0.34395947356E+03 -0.44881715575E+03  0.14453360250E+04  0.50400001928E-02 0.  1.
       -1    1    3    3    0  502 -0.13301320485E+04 -0.34395947356E+03  0.13149440113E+04  0.19017458133E+04  0.50400001928E-02 0. -1.
</event>
<event>
 5   0  0.2621528E-06  0.3201577E+04  0.7818609E-02  0.8188401E-01
       -2   -1    0    0    0  501  0.00000000000E+00  0.00000000000E+00  0.13062004618E+04  0.13062004618E+04  0.25500000920E-02 0.  1.
        2   -1    0    0  501    0  0.00000000000E+00  0.00000000000E+00 -0.19618146331E+04  0.19618146331E+04  0.25500000920E-02 0. -1.
    10030    2    1    2    0    0  0.00000000000E+00  0.00000000000E+00 -0.65561417126E+03  0.32680150949E+04  0.32015765990E+04 0.  0.
        2    1    3    3  502    0 -0.15589898171E+04  0.31631744038E+03 -0.51045380538E+03  0.16706492931E+04  0.25500000920E-02 0. -1.
       -2    1    3    3    0  502  0.15589898171E+04 -0.31631744038E+03 -0.14516036589E+03  0.15973658018E+04  0.25500000920E-02 0.  1.
</event>
<event>
 5   0  0.8487944E-07  0.3223572E+04  0.7818609E-02  0.8182620E-01
        1   -1    0    0  501    0  0.00000000000E+00  0.00000000000E+00  0.15907298623E+04  0.15907298623E+04  0.50400001928E-02 0. -1.
       -1   -1    0    0    0  501  0.00000000000E+00  0.00000000000E+00 -0.16331205451E+04  0.16331205451E+04  0.50400001928E-02 0.  1.
    10030    2    1    2    0    0  0.00000000000E+00  0.00000000000E+00 -0.42390682756E+02  0.32238504074E+04  0.32235716960E+04 0.  0.
        2    1    3    3  502    0 -0.92444122061E+03 -0.13174494621E+04 -0.10831753488E+03  0.16130707808E+04  0.25500000920E-02 0.  1.
       -2    1    3    3    0  502  0.92444122061E+03  0.13174494621E+04  0.65926852123E+02  0.16107796266E+04  0.25500000920E-02 0. -1.
</event>
<event>
 5   0  0.8545153E-07  0.3212997E+04  0.7818609E-02  0.8185393E-01
       -1   -1    0    0    0  501  0.00000000000E+00  0.00000000000E+00  0.13836175934E+04  0.13836175935E+04  0.50400001928E-02 0. -1.
        1   -1    0    0  501    0  0.00000000000E+00  0.00000000000E+00 -0.18652826457E+04  0.18652826457E+04  0.50400001928E-02 0.  1.
    10030    2    1    2    0    0  0.00000000000E+00  0.00000000000E+00 -0.48166505222E+03  0.32489002391E+04  0.32129972831E+04 0.  0.
        3    1    3    3  502    0  0.49268557321E+03  0.46634188809E+03 -0.17133411889E+04  0.18427565955E+04  0.10100000352E+00 0.  1.
       -3    1    3    3    0  502 -0.49268557321E+03 -0.46634188809E+03  0.12316761367E+04  0.14061436436E+04  0.10100000352E+00 0. -1.
</event>
<event>
 5   0  0.2401139E-06  0.3178651E+04  0.7818609E-02  0.8194478E-01
       -2   -1    0    0    0  501  0.00000000000E+00  0.00000000000E+00  0.16916010790E+04  0.16916010790E+04  0.25500000920E-02 0.  1.
        2   -1    0    0  501    0  0.00000000000E+00  0.00000000000E+00 -0.14932337003E+04  0.14932337003E+04  0.25500000920E-02 0. -1.
    10030    2    1    2    0    0  0.00000000000E+00  0.00000000000E+00  0.19836737866E+03  0.31848347793E+04  0.31786511219E+04 0.  0.
        5    1    3    3  502    0  0.66206342419E+03  0.54707978457E+03 -0.12406946635E+04  0.15089630898E+04  0.46999998093E+01 0. -1.
       -5    1    3    3    0  502 -0.66206342419E+03 -0.54707978457E+03  0.14390620422E+04  0.16758716895E+04  0.46999998093E+01 0.  1.
</event>
<event>
 5   0  0.2337504E-06  0.2578564E+04  0.7818609E-02  0.8375519E-01
        2   -1    0    0  501    0  0.00000000000E+00  0.00000000000E+00  0.23455312254E+04  0.23455312254E+04  0.25500000920E-02 0. -1.
       -2   -1    0    0    0  501  0.00000000000E+00  0.00000000000E+00 -0.70868698376E+03  0.70868698376E+03  0.25500000920E-02 0.  1.
    10030    2    1    2    0    0  0.00000000000E+00  0.00000000000E+00  0.16368442416E+04  0.30542182092E+04  0.25785635144E+04 0.  0.
        1    1    3    3  502    0 -0.12759826079E+04  0.75265640286E+02  0.61863367737E+03  0.14200366753E+04  0.50400001928E-02 0.  1.
       -1    1    3    3    0  502  0.12759826079E+04 -0.75265640286E+02  0.10182105643E+04  0.16341815339E+04  0.50400001928E-02 0. -1.
</event>
<event>
 5   0  0.8383008E-07  0.3264717E+04  0.7818609E-02  0.8171932E-01
        1   -1    0    0  501    0  0.00000000000E+00  0.00000000000E+00  0.18415542265E+04  0.18415542265E+04  0.50400001928E-02 0. -1.
       -1   -1    0    0    0  501  0.00000000000E+00  0.00000000000E+00 -0.14469272317E+04  0.14469272317E+04  0.50400001928E-02 0.  1.
    10030    2    1    2    0    0  0.00000000000E+00  0.00000000000E+00  0.39462699481E+03  0.32884814582E+04  0.32647174205E+04 0.  0.
        4    1    3    3  502    0  0.62453010887E+03 -0.15913710745E+03 -0.13133468110E+04  0.14629572567E+04  0.12699999809E+01 0.  1.
       -4    1    3    3    0  502 -0.62453010887E+03  0.15913710745E+03  0.17079738059E+04  0.18255242015E+04  0.12699999809E+01 0. -1.
</event>
<event>
 5   0  0.8383008E-07  0.3155430E+04  0.7818609E-02  0.8200688E-01
        1   -1    0    0  501    0  0.00000000000E+00  0.00000000000E+00  0.16461865012E+04  0.16461865012E+04  0.50400001928E-02 0. -1.
       -1   -1    0    0    0  501  0.00000000000E+00  0.00000000000E+00 -0.15120911535E+04  0.15120911535E+04  0.50400001928E-02 0.  1.
    10030    2    1    2    0    0  0.00000000000E+00  0.00000000000E+00  0.13409534772E+03  0.31582776547E+04  0.31554296351E+04 0.  0.
        4    1    3    3  502    0 -0.12849638781E+04  0.86756977453E+03  0.35949789479E+03  0.15915557895E+04  0.12699999809E+01 0. -1.
       -4    1    3    3    0  502  0.12849638781E+04 -0.86756977453E+03 -0.22540254707E+03  0.15667218652E+04  0.12699999809E+01 0.  1.
</event>
<event>
 5   0  0.8512855E-07  0.3211834E+04  0.7818609E-02  0.8185699E-01
       -1   -1    0    0    0  501  0.00000000000E+00  0.00000000000E+00  0.10931516196E+04  0.10931516197E+04  0.50400001928E-02 0. -1.
        1   -1    0    0  501    0  0.00000000000E+00  0.00000000000E+00 -0.23592049740E+04  0.23592049740E+04  0.50400001928E-02 0.  1.
    10030    2    1    2    0    0  0.00000000000E+00  0.00000000000E+00 -0.12660533543E+04  0.34523565936E+04  0.32118335812E+04 0.  0.
        5    1    3    3  502    0 -0.13605132114E+03 -0.72025900464E+03  0.90284422182E+03  0.11629414322E+04  0.46999998093E+01 0. -1.
       -5    1    3    3    0  502  0.13605132114E+03  0.72025900464E+03 -0.21688975762E+04  0.22894151615E+04  0.46999998093E+01 0.  1.
</event>
<event>
 5   0  0.2404430E-06  0.3165523E+04  0.7818609E-02  0.8197982E-01
       -2   -1    0    0    0  501  0.00000000000E+00  0.00000000000E+00  0.24206652616E+04  0.24206652616E+04  0.25500000920E-02 0.  1.
        2   -1    0    0  501    0  0.00000000000E+00  0.00000000000E+00 -0.10348950643E+04  0.10348950643E+04  0.25500000920E-02 0. -1.
    10030    2    1    2    0    0  0.00000000000E+00  0.00000000000E+00  0.13857701973E+04  0.34555603259E+04  0.31655233574E+04 0.  0.
        4    1    3    3  502    0  0.22841717105E+02  0.14484582010E+04 -0.31737683182E+01  0.14486423264E+04  0.12699999809E+01 0. -1.
       -4    1    3    3    0  502 -0.22841717105E+02 -0.14484582010E+04  0.13889439656E+04  0.20069179995E+04  0.12699999809E+01 0.  1.
</event>
<event>
 5   0  0.8512855E-07  0.3188789E+04  0.7818609E-02  0.8191784E-01
       -1   -1    0    0    0  501  0.00000000000E+00  0.00000000000E+00  0.10237115892E+04  0.10237115892E+04  0.50400001928E-02 0. -1.
        1   -1    0    0  501    0  0.00000000000E+00  0.00000000000E+00 -0.24832134228E+04  0.24832134228E+04  0.50400001928E-02 0.  1.
    10030    2    1    2    0    0  0.00000000000E+00  0.00000000000E+00 -0.14595018336E+04  0.35069250120E+04  0.31887893373E+04 0.  0.
        5    1    3    3  502    0  0.78635307588E+03  0.13534392666E+04 -0.39631424553E+03  0.16146938037E+04  0.46999998093E+01 0.  1.
       -5    1    3    3    0  502 -0.78635307588E+03 -0.13534392666E+04 -0.10631875881E+04  0.18922312083E+04  0.46999998093E+01 0. -1.
</event>
<event>
 5   0  0.2466076E-06  0.3195875E+04  0.7818609E-02  0.8189907E-01
       -2   -1    0    0    0  501  0.00000000000E+00  0.00000000000E+00  0.15813427204E+04  0.15813427204E+04  0.25500000920E-02 0.  1.
        2   -1    0    0  501    0  0.00000000000E+00  0.00000000000E+00 -0.16147068050E+04  0.16147068050E+04  0.25500000920E-02 0. -1.
    10030    2    1    2    0    0  0.00000000000E+00  0.00000000000E+00 -0.33364084637E+02  0.31960495253E+04  0.31958753740E+04 0.  0.
        3    1    3    3  502    0 -0.62118460528E+03  0.14424948520E+04 -0.31121995760E+03  0.16010994922E+04  0.10100000352E+00 0. -1.
       -3    1    3    3    0  502  0.62118460528E+03 -0.14424948520E+04  0.27785587296E+03  0.15949500331E+04  0.10100000352E+00 0.  1.
</event>
<event>
 5   0  0.2466076E-06  0.3197177E+04  0.7818609E-02  0.8189563E-01
        2   -1    0    0  501    0  0.00000000000E+00  0.00000000000E+00  0.16521270853E+04  0.16521270853E+04  0.25500000920E-02 0.  1.
       -2   -1    0    0    0  501  0.00000000000E+00  0.00000000000E+00 -0.15467847723E+04  0.15467847723E+04  0.25500000920E-02 0. -1.
    10030    2    1    2    0    0  0.00000000000E+00  0.00000000000E+00  0.10534231303E+03  0.31989118576E+04  0.31971768906E+04 0.  0.
        3    1    3    3  502    0 -0.79101206601E+03  0.21456162280E+03 -0.13205707150E+04  0.15542341529E+04  0.10100000352E+00 0. -1.
       -3    1    3    3    0  502  0.79101206601E+03 -0.21456162280E+03  0.14259130280E+04  0.16446777047E+04  0.10100000352E+00 0.  1.
</event>
<event>
 5   0  0.7934375E-07  0.3026510E+04  0.7818609E-02  0.8236201E-01
       -3   -1    0    0    0  501  0.00000000000E+00  0.00000000000E+00  0.25105558940E+04  0.25105558961E+04  0.10100000352E+00 0.  1.
        3   -1    0    0  501    0  0.00000000000E+00  0.00000000000E+00 -0.91212467507E+03  0.91212468066E+03  0.10100000352E+00 0. -1.
    10030    2    1    2    0    0  0.00000000000E+00  0.00000000000E+00  0.15984312190E+04  0.34226805767E+04  0.30265095355E+04 0.  0.
        5    1    3    3  502    0 -0.57504938053E+02  0.66837888844E+03 -0.73476249616E+03  0.99495485936E+03  0.46999998093E+01 0. -1.
       -5    1    3    3    0  502  0.57504938053E+02 -0.66837888844E+03  0.23331937151E+04  0.24277257174E+04  0.46999998093E+01 0.  1.
</event>
<event>
 5   0  0.8512855E-07  0.3207490E+04  0.7818609E-02  0.8186842E-01
       -1   -1    0    0    0  501  0.00000000000E+00  0.00000000000E+00  0.12924908542E+04  0.12924908542E+04  0.50400001928E-02 0.  1.
        1   -1    0    0  501    0  0.00000000000E+00  0.00000000000E+00 -0.19899543749E+04  0.19899543749E+04  0.50400001928E-02 0. -1.
    10030    2    1    2    0    0  0.00000000000E+00  0.00000000000E+00 -0.69746352067E+03  0.32824452291E+04  0.32074898783E+04 0.  0.
        5    1    3    3  502    0  0.15248366452E+04 -0.46436745740E+03 -0.52952894713E+03  0.16796389273E+04  0.46999998093E+01 0.  1.
       -5    1    3    3    0  502 -0.15248366452E+04  0.46436745740E+03 -0.16793457354E+03  0.16028063018E+04  0.46999998093E+01 0. -1.
</event>
<event>
 5   0  0.2466076E-06  0.3188424E+04  0.7818609E-02  0.8191881E-01
        2   -1    0    0  501    0  0.00000000000E+00  0.00000000000E+00  0.18644141364E+04  0.18644141364E+04  0.25500000920E-02 0. -1.
       -2   -1    0    0    0  501  0.00000000000E+00  0.00000000000E+00 -0.13631694631E+04  0.13631694631E+04  0.25500000920E-02 0.  1.
    10030    2    1    2    0    0  0.00000000000E+00  0.00000000000E+00  0.50124467330E+03  0.32275835995E+04  0.31884243239E+04 0.  0.
        3    1    3    3  502    0  0.11216168953E+04  0.31603615645E+03  0.13519220678E+04  0.17848239688E+04  0.10100000352E+00 0. -1.
       -3    1    3    3    0  502 -0.11216168953E+04 -0.31603615645E+03 -0.85067739450E+03  0.14427596306E+04  0.10100000352E+00 0.  1.
</event>
<event>
 5   0  0.2621528E-06  0.3063486E+04  0.7818609E-02  0.8225831E-01
        2   -1    0    0  501    0  0.00000000000E+00  0.00000000000E+00  0.11466142862E+04  0.11466142862E+04  0.25500000920E-02 0.  1.
       -2   -1    0    0    0  501  0.00000000000E+00  0.00000000000E+00 -0.20462303485E+04  0.20462303485E+04  0.25500000920E-02 0. -1.
    10030    2    1    2    0    0  0.00000000000E+00  0.00000000000E+00 -0.89961606231E+03  0.31928446348E+04  0.30634862171E+04 0.  0.
        2    1    3    3  502    0  0.54253413328E+03  0.26337670688E+03 -0.19172851631E+04  0.20098987467E+04  0.25500000920E-02 0. -1.
       -2    1    3    3    0  502 -0.54253413328E+03 -0.26337670688E+03  0.10176691008E+04  0.11829458881E+04  0.25500000920E-02 0.  1.
</event>
<event>
 5   0  0.2337504E-06  0.3219851E+04  0.7818609E-02  0.8183594E-01
        2   -1    0    0  501    0  0.00000000000E+00  0.00000000000E+00  0.22495682851E+04  0.22495682851E+04  0.25500000920E-02 0.  1.
       -2   -1    0    0    0  501  0.00000000000E+00  0.00000000000E+00 -0.11521587015E+04  0.11521587015E+04  0.25500000920E-02 0. -1.
    10030    2    1    2    0    0  0.00000000000E+00  0.00000000000E+00  0.10974095837E+04  0.34017269866E+04  0.32198507259E+04 0.  0.
        1    1    3    3  502    0 -0.89313111119E+03 -0.66877458791E+03 -0.67741849705E+03  0.13053116300E+04  0.50400001928E-02 0. -1.
       -1    1    3    3    0  502  0.89313111119E+03  0.66877458791E+03  0.17748280807E+04  0.20964153566E+04  0.50400001928E-02 0.  1.
</event>
<event>
 5   0  0.8681172E-07  0.3167192E+04  0.7818609E-02  0.8197536E-01
        1   -1    0    0  501    0  0.00000000000E+00  0.00000000000E+00  0.27042731742E+04  0.27042731742E+04  0.50400001928E-02 0.  1.
       -1   -1    0    0    0  501  0.00000000000E+00  0.00000000000E+00 -0.92733813258E+03  0.92733813260E+03  0.50400001928E-02 0. -1.
    10030    2    1    2    0    0  0.00000000000E+00  0.00000000000E+00  0.17769350416E+04  0.36316113068E+04  0.31671915859E+04 0.  0.
        1    1    3    3  502    0  0.43115910609E+03 -0.95450497627E+03 -0.47347066825E+03  0.11494139368E+04  0.50400001928E-02 0. -1.
       -1    1    3    3    0  502 -0.43115910609E+03  0.95450497627E+03  0.22504057099E+04  0.24821973700E+04  0.50400001928E-02 0.  1.
</event>
<event>
 5   0  0.2404430E-06  0.3192171E+04  0.7818609E-02  0.8190888E-01
       -2   -1    0    0    0  501  0.00000000000E+00  0.00000000000E+00  0.14912239555E+04  0.14912239555E+04  0.25500000920E-02 0.  1.
        2   -1    0    0  501    0  0.00000000000E+00  0.00000000000E+00 -0.17083210142E+04  0.17083210142E+04  0.25500000920E-02 0. -1.
    10030    2    1    2    0    0  0.00000000000E+00  0.00000000000E+00 -0.21709705871E+03  0.31995449697E+04  0.31921711859E+04 0.  0.
        4    1    3    3  502    0  0.12526831598E+03 -0.15076258400E+04  0.40140938529E+03  0.15651705760E+04  0.12699999809E+01 0.  1.
       -4    1    3    3    0  502 -0.12526831598E+03  0.15076258400E+04 -0.61850644400E+03  0.16343743937E+04  0.12699999809E+01 0. -1.
</event>
<event>
 5   0  0.2404430E-06  0.3200543E+04  0.7818609E-02  0.8188674E-01
        2   -1    0    0  501    0  0.00000000000E+00  0.00000000000E+00  0.28484005031E+04  0.28484005031E+04  0.25500000920E-02 0. -1.
       -2   -1    0    0    0  501  0.00000000000E+00  0.00000000000E+00 -0.89905532603E+03  0.89905532604E+03  0.25500000920E-02 0.  1.
    10030    2    1    2    0    0  0.00000000000E+00  0.00000000000E+00  0.19493451770E+04  0.37474558291E+04  0.32005434807E+04 0.  0.
        4    1    3    3  502    0 -0.57895932376E+03 -0.89697658989E+03  0.23704822495E+04  0.25997978016E+04  0.12699999809E+01 0. -1.
       -4    1    3    3    0  502  0.57895932376E+03  0.89697658989E+03 -0.42113707244E+03  0.11476580275E+04  0.12699999809E+01 0.  1.
</event>
<event>
 5   0  0.2401139E-06  0.3203550E+04  0.7818609E-02  0.8187880E-01
       -2   -1    0    0    0  501  0.00000000000E+00  0.00000000000E+00  0.14013632749E+04  0.14013632749E+04  0.25500000920E-02 0.  1.
        2   -1    0    0  501    0  0.00000000000E+00  0.00000000000E+00 -0.18308484215E+04  0.18308484215E+04  0.25500000920E-02 0. -1.
    10030    2    1    2    0    0  0.00000000000E+00  0.00000000000E+00 -0.42948514667E+03  0.32322116964E+04  0.32035503678E+04 0.  0.
        5    1    3    3  502    0  0.40460584470E+02 -0.15872638415E+04 -0.16228126131E+01  0.15877872291E+04  0.46999998093E+01 0.  1.
       -5    1    3    3    0  502 -0.40460584470E+02  0.15872638415E+04 -0.42786233406E+03  0.16444244672E+04  0.46999998093E+01 0. -1.
</event>
<event>
 5   0  0.8383008E-07  0.3450615E+04  0.7818609E-02  0.8125594E-01
        1   -1    0    0  501    0  0.00000000000E+00  0.00000000000E+00  0.21907912856E+04  0.21907912856E+04  0.50400001928E-02 0.  1.
       -1   -1    0    0    0  501  0.00000000000E+00  0.00000000000E+00 -0.13587267874E+04  0.13587267874E+04  0.50400001928E-02 0. -1.
    10030    2    1    2    0    0  0.00000000000E+00  0.00000000000E+00  0.83206449828E+03  0.35495180730E+04  0.34506154844E+04 0.  0.
        4    1    3    3  502    0 -0.18624323058E+03 -0.16805403059E+04  0.63000304400E+02  0.16920026335E+04  0.12699999809E+01 0. -1.
       -4    1    3    3    0  502  0.18624323058E+03  0.16805403059E+04  0.76906419388E+03  0.18575154395E+04  0.12699999809E+01 0.  1.
</event>
<event>
 5   0  0.8487944E-07  0.3195707E+04  0.7818609E-02  0.8189952E-01
        1   -1    0    0  501    0  0.00000000000E+00  0.00000000000E+00  0.17227422684E+04  0.17227422684E+04  0.50400001928E-02 0. -1.
       -1   -1    0    0    0  501  0.00000000000E+00  0.00000000000E+00 -0.14820187937E+04  0.14820187937E+04  0.50400001928E-02 0.  1.
    10030    2    1    2    0    0  0.00000000000E+00  0.00000000000E+00  0.24072347476E+03  0.32047610621E+04  0.31957073824E+04 0.  0.
        2    1    3    3  502    0  0.89809134057E+03  0.11978332366E+04  0.68030182651E+03  0.16444400548E+04  0.25500000920E-02 0. -1.
       -2    1    3    3    0  502 -0.89809134057E+03 -0.11978332366E+04 -0.43957835175E+03  0.15603210073E+04  0.25500000920E-02 0.  1.
</event>
<event>
 5   0  0.2466076E-06  0.3206246E+04  0.7818609E-02  0.8187170E-01
       -2   -1    0    0    0  501  0.00000000000E+00  0.00000000000E+00  0.16193809763E+04  0.16193809763E+04  0.25500000920E-02 0.  1.
        2   -1    0    0  501    0  0.00000000000E+00  0.00000000000E+00 -0.15870279461E+04  0.15870279461E+04  0.25500000920E-02 0. -1.
    10030    2    1    2    0    0  0.00000000000E+00  0.00000000000E+00  0.32353030222E+02  0.32064089224E+04  0.32062456953E+04 0.  0.
        3    1    3    3  502    0 -0.11711434149E+04  0.88032330855E+03  0.66694524930E+03  0.16097707916E+04  0.10100000352E+00 0.  1.
       -3    1    3    3    0  502  0.11711434149E+04 -0.88032330855E+03 -0.63459221908E+03  0.15966381307E+04  0.10100000352E+00 0. -1.
</event>
<event>
 5   0  0.2337504E-06  0.3227810E+04  0.7818609E-02  0.8181511E-01
        2   -1    0    0  501    0  0.00000000000E+00  0.00000000000E+00  0.93615857692E+03  0.93615857692E+03  0.25500000920E-02 0. -1.
       -2   -1    0    0    0  501  0.00000000000E+00  0.00000000000E+00 -0.27823171465E+04  0.27823171465E+04  0.25500000920E-02 0.  1.
    10030    2    1    2    0    0  0.00000000000E+00  0.00000000000E+00 -0.18461585696E+04  0.37184757234E+04  0.32278104408E+04 0.  0.
        1    1    3    3  502    0  0.15675842421E+04 -0.38352702662E+03 -0.94224303080E+03  0.18687523285E+04  0.50400001928E-02 0.  1.
       -1    1    3    3    0  502 -0.15675842421E+04  0.38352702662E+03 -0.90391553879E+03  0.18497233949E+04  0.50400001928E-02 0. -1.
</event>
<event>
 5   0  0.2404430E-06  0.3206416E+04  0.7818609E-02  0.8187125E-01
       -2   -1    0    0    0  501  0.00000000000E+00  0.00000000000E+00  0.11296248192E+04  0.11296248192E+04  0.25500000920E-02 0.  1.
        2   -1    0    0  501    0  0.00000000000E+00  0.00000000000E+00 -0.22753360305E+04  0.22753360305E+04  0.25500000920E-02 0. -1.
    10030    2    1    2    0    0  0.00000000000E+00  0.00000000000E+00 -0.11457112114E+04  0.34049608497E+04  0.32064161003E+04 0.  0.
        4    1    3    3  502    0  0.12068178928E+04  0.59177338803E+03 -0.15008490318E+04  0.20147343741E+04  0.12699999809E+01 0.  1.
       -4    1    3    3    0  502 -0.12068178928E+04 -0.59177338803E+03  0.35513782039E+03  0.13902264756E+04  0.12699999809E+01 0. -1.
</event>
<event>
 5   0  0.8545153E-07  0.3210944E+04  0.7818609E-02  0.8185933E-01
       -1   -1    0    0    0  501  0.00000000000E+00  0.00000000000E+00  0.21760498781E+04  0.21760498781E+04  0.50400001928E-02 0. -1.
        1   -1    0    0  501    0  0.00000000000E+00  0.00000000000E+00 -0.11845045868E+04  0.11845045868E+04  0.50400001928E-02 0.  1.
    10030    2    1    2    0    0  0.00000000000E+00  0.00000000000E+00  0.99154529134E+03  0.33605544649E+04  0.32109444478E+04 0.  0.
        3    1    3    3  502    0  0.87735877454E+03  0.95604924848E+03  0.14852065164E+04  0.19722137286E+04  0.10100000352E+00 0. -1.
       -3    1    3    3    0  502 -0.87735877454E+03 -0.95604924848E+03 -0.49366122502E+03  0.13883407363E+04  0.10100000352E+00 0.  1.
</event>
<event>
 5   0  0.8681172E-07  0.3192835E+04  0.7818609E-02  0.8190712E-01
       -1   -1    0    0    0  501  0.00000000000E+00  0.00000000000E+00  0.82454523554E+03  0.82454523556E+03  0.50400001928E-02 0.  1.
        1   -1    0    0  501    0  0.00000000000E+00  0.00000000000E+00 -0.30908531019E+04  0.30908531019E+04  0.50400001928E-02 0. -1.
    10030    2    1    2    0    0  0.00000000000E+00  0.00000000000E+00 -0.22663078664E+04  0.39153983375E+04  0.31928346020E+04 0.  0.
        1    1    3    3  502    0  0.20711553158E+03  0.47298396845E+03  0.71931701314E+03  0.88545335464E+03  0.50400001928E-02 0.  1.
       -1    1    3    3    0  502 -0.20711553158E+03 -0.47298396845E+03 -0.29856248795E+04  0.30299449828E+04  0.50400001928E-02 0. -1.
</event>
<event>
 5   0  0.8383008E-07  0.3249165E+04  0.7818609E-02  0.8175952E-01
       -1   -1    0    0    0  501  0.00000000000E+00  0.00000000000E+00  0.18415697926E+04  0.18415697926E+04  0.50400001928E-02 0. -1.
        1   -1    0    0  501    0  0.00000000000E+00  0.00000000000E+00 -0.14331626172E+04  0.14331626172E+04  0.50400001928E-02 0.  1.
    10030    2    1    2    0    0  0.00000000000E+00  0.00000000000E+00  0.40840717535E+03  0.32747324098E+04  0.32491654213E+04 0.  0.
        4    1    3    3  502    0  0.31996450488E+03  0.14431597636E+04  0.88343535631E+03  0.17220763715E+04  0.12699999809E+01 0. -1.
       -4    1    3    3    0  502 -0.31996450488E+03 -0.14431597636E+04 -0.47502818097E+03  0.15526560383E+04  0.12699999809E+01 0.  1.
</event>
<event>
 5   0  0.2337504E-06  0.3000613E+04  0.7818609E-02  0.8243556E-01
        2   -1    0    0  501    0  0.00000000000E+00  0.00000000000E+00  0.16095947175E+04  0.16095947175E+04  0.25500000920E-02 0. -1.
       -2   -1    0    0    0  501  0.00000000000E+00  0.00000000000E+00 -0.13984383147E+04  0.13984383147E+04  0.25500000920E-02 0.  1.
    10030    2    1    2    0    0  0.00000000000E+00  0.00000000000E+00  0.21115640278E+03  0.30080330322E+04  0.30006125535E+04 0.  0.
        1    1    3    3  502    0 -0.43497859597E+03  0.10351569370E+04 -0.89195176658E+03  0.14339924048E+04  0.50400001928E-02 0.  1.
       -1    1    3    3    0  502  0.43497859597E+03 -0.10351569370E+04  0.11031081694E+04  0.15740406273E+04  0.50400001928E-02 0. -1.
</event>
<event>
 5   0  0.2404430E-06  0.3188018E+04  0.7818609E-02  0.8191989E-01
        2   -1    0    0  501    0  0.00000000000E+00  0.00000000000E+00  0.22014711594E+04  0.22014711594E+04  0.25500000920E-02 0.  1.
       -2   -1    0    0    0  501  0.00000000000E+00  0.00000000000E+00 -0.11541665407E+04  0.11541665407E+04  0.25500000920E-02 0. -1.
    10030    2    1    2    0    0  0.00000000000E+00  0.00000000000E+00  0.10473046188E+04  0.33556377001E+04  0.31880177870E+04 0.  0.
        4    1    3    3  502    0  0.62123419590E+02 -0.52132566007E+03  0.21078515772E+04  0.21722522063E+04  0.12699999809E+01 0.  1.
       -4    1    3    3    0  502 -0.62123419590E+02  0.52132566007E+03 -0.10605469585E+04  0.11833854939E+04  0.12699999809E+01 0. -1.
</event>
<event>
 5   0  0.8512855E-07  0.3159510E+04  0.7818609E-02  0.8199593E-01
        1   -1    0    0  501    0  0.00000000000E+00  0.00000000000E+00  0.24137461994E+04  0.24137461994E+04  0.50400001928E-02 0.  1.
       -1   -1    0    0    0  501  0.00000000000E+00  0.00000000000E+00 -0.10339220520E+04  0.10339220520E+04  0.50400001928E-02 0. -1.
    10030    2    1    2    0    0  0.00000000000E+00  0.00000000000E+00  0.13798241474E+04  0.34476682514E+04  0.31595097236E+04 0.  0.
        5    1    3    3  502    0 -0.14368039262E+04  0.91467396039E+01 -0.26564361650E+02  0.14370862676E+04  0.46999998093E+01 0. -1.
       -5    1    3    3    0  502  0.14368039262E+04 -0.91467396039E+01  0.14063885091E+04  0.20105819838E+04  0.46999998093E+01 0.  1.
</event>
<event>
 5   0  0.2337504E-06  0.3233842E+04  0.7818609E-02  0.8179936E-01
        2   -1    0    0  501    0  0.00000000000E+00  0.00000000000E+00  0.28651859398E+04  0.28651859398E+04  0.25500000920E-02 0. -1.
       -2   -1    0    0    0  501  0.00000000000E+00  0.00000000000E+00 -0.91248316123E+03  0.91248316124E+03  0.25500000920E-02 0.  1.
    10030    2    1    2    0    0  0.00000000000E+00  0.00000000000E+00  0.19527027786E+04  0.37776691011E+04  0.32338422497E+04 0.  0.
        1    1    3    3  502    0  0.14423669572E+04 -0.47851093114E+02  0.18281703424E+04  0.23291455444E+04  0.50400001928E-02 0. -1.
       -1    1    3    3    0  502 -0.14423669572E+04  0.47851093114E+02  0.12453243621E+03  0.14485235566E+04  0.50400001928E-02 0.  1.
</event>
<event>
 5   0  0.8545153E-07  0.2635710E+04  0.7818609E-02  0.8356171E-01
       -1   -1    0    0    0  501  0.00000000000E+00  0.00000000000E+00  0.16306683472E+04  0.16306683472E+04  0.50400001928E-02 0.  1.
        1   -1    0    0  501    0  0.00000000000E+00  0.00000000000E+00 -0.10650493917E+04  0.10650493918E+04  0.50400001928E-02 0. -1.
    10030    2    1    2    0    0  0.00000000000E+00  0.00000000000E+00  0.56561895544E+03  0.26957177390E+04  0.26357104024E+04 0.  0.
        3    1    3    3  502    0 -0.92224230065E+03 -0.32773031679E+03  0.11854002644E+04  0.15372416266E+04  0.10100000352E+00 0.  1.
       -3    1    3    3    0  502  0.92224230065E+03  0.32773031679E+03 -0.61978130895E+03  0.11584761123E+04  0.10100000352E+00 0. -1.
</event>
<event>
 5   0  0.7934375E-07  0.3207712E+04  0.7818609E-02  0.8186784E-01
       -3   -1    0    0    0  501  0.00000000000E+00  0.00000000000E+00  0.16144705790E+04  0.16144705821E+04  0.10100000352E+00 0.  1.
        3   -1    0    0  501    0  0.00000000000E+00  0.00000000000E+00 -0.15933107942E+04  0.15933107974E+04  0.10100000352E+00 0. -1.
    10030    2    1    2    0    0  0.00000000000E+00  0.00000000000E+00  0.21159784814E+02  0.32077813795E+04  0.32077115896E+04 0.  0.
        4    1    3    3  502    0  0.92050608657E+03 -0.55925169879E+03 -0.11778305304E+04  0.15960514682E+04  0.12699999809E+01 0. -1.
       -4    1    3    3    0  502 -0.92050608657E+03  0.55925169879E+03  0.11989903152E+04  0.16117299113E+04  0.12699999809E+01 0.  1.
</event>
<event>
 5   0  0.8512855E-07  0.3192601E+04  0.7818609E-02  0.8190774E-01
       -1   -1    0    0    0  501  0.00000000000E+00  0.00000000000E+00  0.17390726478E+04  0.17390726478E+04  0.50400001928E-02 0.  1.
        1   -1    0    0  501    0  0.00000000000E+00  0.00000000000E+00 -0.14652494075E+04  0.14652494075E+04  0.50400001928E-02 0. -1.
    10030    2    1    2    0    0  0.00000000000E+00  0.00000000000E+00  0.27382324030E+03  0.32043220553E+04  0.31926009252E+04 0.  0.
        5    1    3    3  502    0  0.87923203648E+03  0.75095895514E+03  0.12414813444E+04  0.16965513092E+04  0.46999998093E+01 0.  1.
       -5    1    3    3    0  502 -0.87923203648E+03 -0.75095895514E+03 -0.96765810414E+03  0.15077707461E+04  0.46999998093E+01 0. -1.
</event>
<event>
 5   0  0.2401139E-06  0.3184477E+04  0.7818609E-02  0.8192929E-01
       -2   -1    0    0    0  501  0.00000000000E+00  0.00000000000E+00  0.11489983287E+04  0.11489983287E+04  0.25500000920E-02 0. -1.
        2   -1    0    0  501    0  0.00000000000E+00  0.00000000000E+00 -0.22064637629E+04  0.22064637629E+04  0.25500000920E-02 0.  1.
    10030    2    1    2    0    0  0.00000000000E+00  0.00000000000E+00 -0.10574654342E+04  0.33554620916E+04  0.31844768335E+04 0.  0.
        5    1    3    3  502    0 -0.36505594388E+03 -0.13651904374E+04  0.24427206612E+03  0.14341205336E+04  0.46999998093E+01 0. -1.
       -5    1    3    3    0  502  0.36505594388E+03  0.13651904374E+04 -0.13017375003E+04  0.19213415580E+04  0.46999998093E+01 0.  1.
</event>
<event>
 5   0  0.2401139E-06  0.3188126E+04  0.7818609E-02  0.8191960E-01
       -2   -1    0    0    0  501  0.00000000000E+00  0.00000000000E+00  0.15813564276E+04  0.15813564276E+04  0.25500000920E-02 0.  1.
        2   -1    0    0  501    0  0.00000000000E+00  0.00000000000E+00 -0.16068713671E+04  0.16068713671E+04  0.25500000920E-02 0. -1.
    10030    2    1    2    0    0  0.00000000000E+00  0.00000000000E+00 -0.25514939496E+02  0.31882277947E+04  0.31881256968E+04 0.  0.
        5    1    3    3  502    0  0.74350013007E+03 -0.80480045608E+03  0.11450870436E+04  0.15848478302E+04  0.46999998093E+01 0.  1.
       -5    1    3    3    0  502 -0.74350013007E+03  0.80480045608E+03 -0.11706019831E+04  0.16033799644E+04  0.46999998093E+01 0. -1.
</event>
<event>
 5   0  0.2404430E-06  0.3199580E+04  0.7818609E-02  0.8188928E-01
        2   -1    0    0  501    0  0.00000000000E+00  0.00000000000E+00  0.20858248892E+04  0.20858248892E+04  0.25500000920E-02 0. -1.
       -2   -1    0    0    0  501  0.00000000000E+00  0.00000000000E+00 -0.12270099599E+04  0.12270099599E+04  0.25500000920E-02 0.  1.
    10030    2    1    2    0    0  0.00000000000E+00  0.00000000000E+00  0.85881492928E+03  0.33128348491E+04  0.31995799184E+04 0.  0.
        4    1    3    3  502    0 -0.12597418395E+04  0.71822077237E+02 -0.58887694788E+03  0.13924387188E+04  0.12699999809E+01 0.  1.
       -4    1    3    3    0  502  0.12597418395E+04 -0.71822077237E+02  0.14476918772E+04  0.19203961303E+04  0.12699999809E+01 0. -1.
</event>
<event>
 5   0  0.8681172E-07  0.3247259E+04  0.7818609E-02  0.8176446E-01
        1   -1    0    0  501    0  0.00000000000E+00  0.00000000000E+00  0.23752851675E+04  0.23752851675E+04  0.50400001928E-02 0. -1.
       -1   -1    0    0    0  501  0.00000000000E+00  0.00000000000E+00 -0.11098345468E+04  0.11098345468E+04  0.50400001928E-02 0.  1.
    10030    2    1    2    0    0  0.00000000000E+00  0.00000000000E+00  0.12654506208E+04  0.34851197143E+04  0.32472594829E+04 0.  0.
        1    1    3    3  502    0 -0.60390520051E+03 -0.16952911008E+03  0.22399973504E+04  0.23261620194E+04  0.50400001928E-02 0. -1.
       -1    1    3    3    0  502  0.60390520051E+03  0.16952911008E+03 -0.97454672967E+03  0.11589576950E+04  0.50400001928E-02 0.  1.
</event>
<event>
 5   0  0.2401139E-06  0.3102185E+04  0.7818609E-02  0.8215139E-01
        2   -1    0    0  501    0  0.00000000000E+00  0.00000000000E+00  0.13586108842E+04  0.13586108842E+04  0.25500000920E-02 0.  1.
       -2   -1    0    0    0  501  0.00000000000E+00  0.00000000000E+00 -0.17708436757E+04  0.17708436758E+04  0.25500000920E-02 0. -1.
    10030    2    1    2    0    0  0.00000000000E+00  0.00000000000E+00 -0.41223279151E+03  0.31294545600E+04  0.31021847090E+04 0.  0.
        5    1    3    3  502    0 -0.27312455260E+03  0.69988649276E+03  0.11628042809E+04  0.13844038463E+04  0.46999998093E+01 0.  1.
       -5    1    3    3    0  502  0.27312455260E+03 -0.69988649276E+03 -0.15750370724E+04  0.17450507137E+04  0.46999998093E+01 0. -1.
</event>
<event>
 5   0  0.8512855E-07  0.3200573E+04  0.7818609E-02  0.8188666E-01
       -1   -1    0    0    0  501  0.00000000000E+00  0.00000000000E+00  0.19840517128E+04  0.19840517128E+04  0.50400001928E-02 0.  1.
        1   -1    0    0  501    0  0.00000000000E+00  0.00000000000E+00 -0.12907511253E+04  0.12907511253E+04  0.50400001928E-02 0. -1.
    10030    2    1    2    0    0  0.00000000000E+00  0.00000000000E+00  0.69330058753E+03  0.32748028381E+04  0.32005730617E+04 0.  0.
        5    1    3    3  502    0 -0.88286192366E+03 -0.12989559369E+04  0.32673181371E+02  0.15709300840E+04  0.46999998093E+01 0.  1.
       -5    1    3    3    0  502  0.88286192366E+03  0.12989559369E+04  0.66062740616E+03  0.17038727540E+04  0.46999998093E+01 0. -1.
</event>
<event>
 5   0  0.2466076E-06  0.3217766E+04  0.7818609E-02  0.8184141E-01
       -2   -1    0    0    0  501  0.00000000000E+00  0.00000000000E+00  0.13297792737E+04  0.13297792737E+04  0.25500000920E-02 0.  1.
        2   -1    0    0  501    0  0.00000000000E+00  0.00000000000E+00 -0.19465674971E+04  0.19465674971E+04  0.25500000920E-02 0. -1.
    10030    2    1    2    0    0  0.00000000000E+00  0.00000000000E+00 -0.61678822336E+03  0.32763467708E+04  0.32177663759E+04 0.  0.
        3    1    3    3  502    0  0.10981301618E+04  0.68426235872E+02  0.88683020083E+03  0.14131665922E+04  0.10100000352E+00 0.  1.
       -3    1    3    3    0  502 -0.10981301618E+04 -0.68426235872E+02 -0.15036184242E+04  0.18631801786E+04  0.10100000352E+00 0. -1.
</event>
<event>
 5   0  0.2401139E-06  0.3218587E+04  0.7818609E-02  0.8183926E-01
        2   -1    0    0  501    0  0.00000000000E+00  0.00000000000E+00  0.17471334159E+04  0.17471334159E+04  0.25500000920E-02 0.  1.
       -2   -1    0    0    0  501  0.00000000000E+00  0.00000000000E+00 -0.14823285466E+04  0.14823285466E+04  0.25500000920E-02 0. -1.
    10030    2    1    2    0    0  0.00000000000E+00  0.00000000000E+00  0.26480486933E+03  0.32294619626E+04  0.32185871044E+04 0.  0.
        5    1    3    3  502    0 -0.15859301830E+04 -0.24979121815E+03  0.21423801880E+02  0.16056311118E+04  0.46999998093E+01 0. -1.
       -5    1    3    3    0  502  0.15859301830E+04  0.24979121815E+03  0.24338106745E+03  0.16238308508E+04  0.46999998093E+01 0.  1.
</event>
<event>
 5   0  0.8383008E-07  0.3177732E+04  0.7818609E-02  0.8194723E-01
        1   -1    0    0  501    0  0.00000000000E+00  0.00000000000E+00  0.30251724644E+04  0.30251724644E+04  0.50400001928E-02 0.  1.
       -1   -1    0    0    0  501  0.00000000000E+00  0.00000000000E+00 -0.83449636814E+03  0.83449636815E+03  0.50400001928E-02 0. -1.
    10030    2    1    2    0    0  0.00000000000E+00  0.00000000000E+00  0.21906760963E+04  0.38596688326E+04  0.31777321691E+04 0.  0.
        4    1    3    3  502    0 -0.46857298604E+03 -0.46005289877E+03 -0.66196588956E+03  0.93242145232E+03  0.12699999809E+01 0. -1.
       -4    1    3    3    0  502  0.46857298604E+03  0.46005289877E+03  0.28526419858E+04  0.29272473802E+04  0.12699999809E+01 0.  1.
</event>
<event>
 5   0  0.2466076E-06  0.3188917E+04  0.7818609E-02  0.8191750E-01
        2   -1    0    0  501    0  0.00000000000E+00  0.00000000000E+00  0.17472340587E+04  0.17472340587E+04  0.25500000920E-02 0.  1.
       -2   -1    0    0    0  501  0.00000000000E+00  0.00000000000E+00 -0.14550411364E+04  0.14550411364E+04  0.25500000920E-02 0. -1.
    10030    2    1    2    0    0  0.00000000000E+00  0.00000000000E+00  0.29219292223E+03  0.32022751951E+04  0.31889167003E+04 0.  0.
        3    1    3    3  502    0 -0.88394244993E+03  0.39761550276E+03  0.14174351114E+04  0.17171414176E+04  0.10100000352E+00 0.  1.
       -3    1    3    3    0  502  0.88394244993E+03 -0.39761550276E+03 -0.11252421891E+04  0.14851337775E+04  0.10100000352E+00 0. -1.
</event>
<event>
 5   0  0.2621528E-06  0.3209687E+04  0.7818609E-02  0.8186264E-01
       -2   -1    0    0    0  501  0.00000000000E+00  0.00000000000E+00  0.11510806473E+04  0.11510806473E+04  0.25500000920E-02 0.  1.
        2   -1    0    0  501    0  0.00000000000E+00  0.00000000000E+00 -0.22374822607E+04  0.22374822607E+04  0.25500000920E-02 0. -1.
    10030    2    1    2    0    0  0.00000000000E+00  0.00000000000E+00 -0.10864016134E+04  0.33885629081E+04  0.32096869187E+04 0.  0.
        2    1    3    3  502    0  0.99093352105E+03 -0.82577053147E+03 -0.15512302478E+04  0.20174641249E+04  0.25500000920E-02 0. -1.
       -2    1    3    3    0  502 -0.99093352105E+03  0.82577053147E+03  0.46482863436E+03  0.13710987831E+04  0.25500000920E-02 0.  1.
</event>
<event>
 5   0  0.2404430E-06  0.3178874E+04  0.7818609E-02  0.8194419E-01
       -2   -1    0    0    0  501  0.00000000000E+00  0.00000000000E+00  0.15362955067E+04  0.15362955067E+04  0.25500000920E-02 0.  1.
        2   -1    0    0  501    0  0.00000000000E+00  0.00000000000E+00 -0.16444162084E+04  0.16444162084E+04  0.25500000920E-02 0. -1.
    10030    2    1    2    0    0  0.00000000000E+00  0.00000000000E+00 -0.10812070177E+03  0.31807117151E+04  0.31788735314E+04 0.  0.
        4    1    3    3  502    0 -0.15721308684E+04 -0.10847075486E+03 -0.26141494775E+03  0.15974043821E+04  0.12699999809E+01 0. -1.
       -4    1    3    3    0  502  0.15721308684E+04  0.10847075486E+03  0.15329424598E+03  0.15833073330E+04  0.12699999809E+01 0.  1.
</event>
<event>
 5   0  0.2401139E-06  0.3018234E+04  0.7818609E-02  0.8238543E-01
       -2   -1    0    0    0  501  0.00000000000E+00  0.00000000000E+00  0.14440792095E+04  0.14440792095E+04  0.25500000920E-02 0. -1.
        2   -1    0    0  501    0  0.00000000000E+00  0.00000000000E+00 -0.15770839204E+04  0.15770839204E+04  0.25500000920E-02 0.  1.
    10030    2    1    2    0    0  0.00000000000E+00  0.00000000000E+00 -0.13300471090E+03  0.30211631299E+04  0.30182339876E+04 0.  0.
        5    1    3    3  502    0 -0.60425054179E+03 -0.99621435290E+03  0.89351666504E+03  0.14683173618E+04  0.46999998093E+01 0. -1.
       -5    1    3    3    0  502  0.60425054179E+03  0.99621435290E+03 -0.10265213759E+04  0.15528457681E+04  0.46999998093E+01 0.  1.
</event>
<event>
 5   0  0.2337504E-06  0.3196966E+04  0.7818609E-02  0.8189619E-01
       -2   -1    0    0    0  501  0.00000000000E+00  0.00000000000E+00  0.17076662033E+04  0.17076662033E+04  0.25500000920E-02 0.  1.
        2   -1    0    0  501    0  0.00000000000E+00  0.00000000000E+00 -0.14962807960E+04  0.14962807960E+04  0.25500000920E-02 0. -1.
    10030    2    1    2    0    0  0.00000000000E+00  0.00000000000E+00  0.21138540724E+03  0.32039469993E+04  0.31969661531E+04 0.  0.
        1    1    3    3  502    0 -0.74179662810E+03  0.57354985053E+03  0.14030953100E+04  0.16875716629E+04  0.50400001928E-02 0.  1.
       -1    1    3    3    0  502  0.74179662810E+03 -0.57354985053E+03 -0.11917099027E+04  0.15163753364E+04  0.50400001928E-02 0. -1.
</event>
<event>
 5   0  0.2337504E-06  0.3222361E+04  0.7818609E-02  0.8182937E-01
       -2   -1    0    0    0  501  0.00000000000E+00  0.00000000000E+00  0.10390686835E+04  0.10390686835E+04  0.25500000920E-02 0. -1.
        2   -1    0    0  501    0  0.00000000000E+00  0.00000000000E+00 -0.24982966876E+04  0.24982966876E+04  0.25500000920E-02 0.  1.
    10030    2    1    2    0    0  0.00000000000E+00  0.00000000000E+00 -0.14592280041E+04  0.35373653711E+04  0.32223605324E+04 0.  0.
        1    1    3    3  502    0 -0.60238544965E+03 -0.14533331092E+04 -0.11112424894E+04  0.19261114263E+04  0.50400001928E-02 0.  1.
       -1    1    3    3    0  502  0.60238544965E+03  0.14533331092E+04 -0.34798551479E+03  0.16112539448E+04  0.50400001928E-02 0. -1.
</event>
<event>
 5   0  0.8681172E-07  0.3189965E+04  0.7818609E-02  0.8191472E-01
        1   -1    0    0  501    0  0.00000000000E+00  0.00000000000E+00  0.21206029394E+04  0.21206029394E+04  0.50400001928E-02 0.  1.
       -1   -1    0    0    0  501  0.00000000000E+00  0.00000000000E+00 -0.11996440968E+04  0.11996440968E+04  0.50400001928E-02 0. -1.
    10030    2    1    2    0    0  0.00000000000E+00  0.00000000000E+00  0.92095884259E+03  0.33202470362E+04  0.31899647633E+04 0.  0.
        1    1    3    3  502    0 -0.14785279373E+04  0.10122279404E+03 -0.15324448959E+03  0.14898908648E+04  0.50400001928E-02 0. -1.
       -1    1    3    3    0  502  0.14785279373E+04 -0.10122279404E+03  0.10742033322E+04  0.18303561714E+04  0.50400001928E-02 0.  1.
</event>
<event>
 5   0  0.8487944E-07  0.2743670E+04  0.7818609E-02  0.8320973E-01
        1   -1    0    0  501    0  0.00000000000E+00  0.00000000000E+00  0.21905700510E+04  0.21905700510E+04  0.50400001928E-02 0.  1.
       -1   -1    0    0    0  501  0.00000000000E+00  0.00000000000E+00 -0.85910601282E+03  0.85910601283E+03  0.50400001928E-02 0. -1.
    10030    2    1    2    0    0  0.00000000000E+00  0.00000000000E+00  0.13314640382E+04  0.30496760638E+04  0.27436704630E+04 0.  0.
        2    1    3    3  502    0  0.66948207934E+03 -0.13875854524E+03  0.19876937916E+04  0.21019959080E+04  0.25500000920E-02 0.  1.
       -2    1    3    3    0  502 -0.66948207934E+03  0.13875854524E+03 -0.65622975338E+03  0.94768015578E+03  0.25500000920E-02 0. -1.
</event>
<event>
 5   0  0.2337504E-06  0.3213791E+04  0.7818609E-02  0.8185184E-01
        2   -1    0    0  501    0  0.00000000000E+00  0.00000000000E+00  0.13732447773E+04  0.13732447773E+04  0.25500000920E-02 0. -1.
       -2   -1    0    0    0  501  0.00000000000E+00  0.00000000000E+00 -0.18803009798E+04  0.18803009798E+04  0.25500000920E-02 0.  1.
    10030    2    1    2    0    0  0.00000000000E+00  0.00000000000E+00 -0.50705620253E+03  0.32535457571E+04  0.32137912193E+04 0.  0.
        1    1    3    3  502    0  0.82543185565E+03  0.68765014417E+03 -0.14632627998E+04  0.18153067207E+04  0.50400001928E-02 0.  1.
       -1    1    3    3    0  502 -0.82543185565E+03 -0.68765014417E+03  0.95620659726E+03  0.14382390364E+04  0.50400001928E-02 0. -1.
</event>
<event>
 5   0  0.8512855E-07  0.3187958E+04  0.7818609E-02  0.8192005E-01
        1   -1    0    0  501    0  0.00000000000E+00  0.00000000000E+00  0.21129598460E+04  0.21129598460E+04  0.50400001928E-02 0. -1.
       -1   -1    0    0    0  501  0.00000000000E+00  0.00000000000E+00 -0.12024694499E+04  0.12024694500E+04  0.50400001928E-02 0.  1.
    10030    2    1    2    0    0  0.00000000000E+00  0.00000000000E+00  0.91049039604E+03  0.33154292959E+04  0.31879583835E+04 0.  0.
        5    1    3    3  502    0 -0.58265688928E+03 -0.17515909805E+03  0.19874429016E+04  0.20784901100E+04  0.46999998093E+01 0. -1.
       -5    1    3    3    0  502  0.58265688928E+03  0.17515909805E+03 -0.10769525056E+04  0.12369391859E+04  0.46999998093E+01 0.  1.
</event>
<event>
 5   0  0.2401139E-06  0.3196793E+04  0.7818609E-02  0.8189665E-01
       -2   -1    0    0    0  501  0.00000000000E+00  0.00000000000E+00  0.13351474434E+04  0.13351474434E+04  0.25500000920E-02 0.  1.
        2   -1    0    0  501    0  0.00000000000E+00  0.00000000000E+00 -0.19135504201E+04  0.19135504201E+04  0.25500000920E-02 0. -1.
    10030    2    1    2    0    0  0.00000000000E+00  0.00000000000E+00 -0.57840297669E+03  0.32486978635E+04  0.31967933629E+04 0.  0.
        5    1    3    3  502    0  0.85738015445E+03 -0.50392232627E+03  0.98243940712E+03  0.13979441043E+04  0.46999998093E+01 0.  1.
       -5    1    3    3    0  502 -0.85738015445E+03  0.50392232627E+03 -0.15608423838E+04  0.18507537592E+04  0.46999998093E+01 0. -1.
</event>
<event>
 5   0  0.8545153E-07  0.3174567E+04  0.7818609E-02  0.8195566E-01
        1   -1    0    0  501    0  0.00000000000E+00  0.00000000000E+00  0.26058766474E+04  0.26058766474E+04  0.50400001928E-02 0. -1.
       -1   -1    0    0    0  501  0.00000000000E+00  0.00000000000E+00 -0.96684108121E+03  0.96684108122E+03  0.50400001928E-02 0.  1.
    10030    2    1    2    0    0  0.00000000000E+00  0.00000000000E+00  0.16390355662E+04  0.35727177287E+04  0.31745668021E+04 0.  0.
        3    1    3    3  502    0  0.41535462108E+03 -0.72612431617E+03  0.23376627684E+04  0.24828296786E+04  0.10100000352E+00 0. -1.
       -3    1    3    3    0  502 -0.41535462108E+03  0.72612431617E+03 -0.69862720222E+03  0.10898880501E+04  0.10100000352E+00 0.  1.
</event>
<event>
 5   0  0.2621528E-06  0.3198282E+04  0.7818609E-02  0.8189271E-01
        2   -1    0    0  501    0  0.00000000000E+00  0.00000000000E+00  0.20078649630E+04  0.20078649630E+04  0.25500000920E-02 0. -1.
       -2   -1    0    0    0  501  0.00000000000E+00  0.00000000000E+00 -0.12736172876E+04  0.12736172876E+04  0.25500000920E-02 0.  1.
    10030    2    1    2    0    0  0.00000000000E+00  0.00000000000E+00  0.73424767535E+03  0.32814822506E+04  0.31982817437E+04 0.  0.
        2    1    3    3  502    0 -0.11596826225E+04  0.17296375488E+03 -0.74857926705E+03  0.13910971082E+04  0.25500000920E-02 0.  1.
       -2    1    3    3    0  502  0.11596826225E+04 -0.17296375488E+03  0.14828269424E+04  0.18903851424E+04  0.25500000920E-02 0. -1.
</event>
<event>
 5   0  0.8383008E-07  0.3229962E+04  0.7818609E-02  0.8180949E-01
        1   -1    0    0  501    0  0.00000000000E+00  0.00000000000E+00  0.30142507401E+04  0.30142507401E+04  0.50400001928E-02 0. -1.
       -1   -1    0    0    0  501  0.00000000000E+00  0.00000000000E+00 -0.86527735501E+03  0.86527735502E+03  0.50400001928E-02 0.  1.
    10030    2    1    2    0    0  0.00000000000E+00  0.00000000000E+00  0.21489733851E+04  0.38795280951E+04  0.32299615525E+04 0.  0.
        4    1    3    3  502    0 -0.29763587950E+03 -0.12315523767E+03 -0.82630270150E+03  0.88686644808E+03  0.12699999809E+01 0.  1.
       -4    1    3    3    0  502  0.29763587950E+03  0.12315523767E+03  0.29752760866E+04  0.29926616470E+04  0.12699999809E+01 0. -1.
</event>
<event>
 5   0  0.8512855E-07  0.3197877E+04  0.7818609E-02  0.8189378E-01
        1   -1    0    0  501    0  0.00000000000E+00  0.00000000000E+00  0.19609912468E+04  0.19609912468E+04  0.50400001928E-02 0.  1.
       -1   -1    0    0    0  501  0.00000000000E+00  0.00000000000E+00 -0.13037306928E+04  0.13037306928E+04  0.50400001928E-02 0. -1.
    10030    2    1    2    0    0  0.00000000000E+00  0.00000000000E+00  0.65726055398E+03  0.32647219397E+04  0.31978770939E+04 0.  0.
        5    1    3    3  502    0  0.12584325021E+04  0.44653523014E+03 -0.56926312990E+03  0.14515952174E+04  0.46999998093E+01 0. -1.
       -5    1    3    3    0  502 -0.12584325021E+04 -0.44653523014E+03  0.12265236839E+04  0.18131267223E+04  0.46999998093E+01 0.  1.
</event>
<event>
 5   0  0.8681172E-07  0.3136757E+04  0.7818609E-02  0.8205722E-01
        1   -1    0    0  501    0  0.00000000000E+00  0.00000000000E+00  0.19238076186E+04  0.19238076186E+04  0.50400001928E-02 0. -1.
       -1   -1    0    0    0  501  0.00000000000E+00  0.00000000000E+00 -0.12786161554E+04  0.12786161554E+04  0.50400001928E-02 0.  1.
    10030    2    1    2    0    0  0.00000000000E+00  0.00000000000E+00  0.64519146318E+03  0.32024237740E+04  0.31367572434E+04 0.  0.
        1    1    3    3  502    0 -0.10698350017E+04 -0.42882172693E+03  0.14085248232E+04  0.18199937313E+04  0.50400001928E-02 0. -1.
       -1    1    3    3    0  502  0.10698350017E+04  0.42882172693E+03 -0.76333335997E+03  0.13824300427E+04  0.50400001928E-02 0.  1.
</event>
<event>
 5   0  0.8487944E-07  0.3218309E+04  0.7818609E-02  0.8183999E-01
        1   -1    0    0  501    0  0.00000000000E+00  0.00000000000E+00  0.11576908920E+04  0.11576908920E+04  0.50400001928E-02 0.  1.
       -1   -1    0    0    0  501  0.00000000000E+00  0.00000000000E+00 -0.22366742473E+04  0.22366742473E+04  0.50400001928E-02 0. -1.
    10030    2    1    2    0    0  0.00000000000E+00  0.00000000000E+00 -0.10789833553E+04  0.33943651394E+04  0.32183085026E+04 0.  0.
        2    1    3    3  502    0  0.36187920777E+03 -0.12393224177E+04 -0.15525029054E+04  0.20191933754E+04  0.25500000920E-02 0. -1.
       -2    1    3    3    0  502 -0.36187920777E+03  0.12393224177E+04  0.47351955004E+03  0.13751717640E+04  0.25500000920E-02 0.  1.
</event>
<event>
 5   0  0.2466076E-06  0.3207721E+04  0.7818609E-02  0.8186781E-01
        2   -1    0    0  501    0  0.00000000000E+00  0.00000000000E+00  0.21148751741E+04  0.21148751741E+04  0.25500000920E-02 0.  1.
       -2   -1    0    0    0  501  0.00000000000E+00  0.00000000000E+00 -0.12163213748E+04  0.12163213748E+04  0.25500000920E-02 0. -1.
    10030    2    1    2    0    0  0.00000000000E+00  0.00000000000E+00  0.89855379937E+03  0.33311965489E+04  0.32077206108E+04 0.  0.
        3    1    3    3  502    0 -0.63419986942E+03 -0.13329826530E+04 -0.20201298373E+03  0.14899199587E+04  0.10100000352E+00 0. -1.
       -3    1    3    3    0  502  0.63419986942E+03  0.13329826530E+04  0.11005667831E+04  0.18412765902E+04  0.10100000352E+00 0.  1.
</event>
<event>
 5   0  0.2337504E-06  0.3027669E+04  0.7818609E-02  0.8235874E-01
       -2   -1    0    0    0  501  0.00000000000E+00  0.00000000000E+00  0.16608376996E+04  0.16608376996E+04  0.25500000920E-02 0.  1.
        2   -1    0    0  501    0  0.00000000000E+00  0.00000000000E+00 -0.13798424446E+04  0.13798424446E+04  0.25500000920E-02 0. -1.
    10030    2    1    2    0    0  0.00000000000E+00  0.00000000000E+00  0.28099525499E+03  0.30406801442E+04  0.30276686421E+04 0.  0.
        1    1    3    3  502    0  0.93247670020E+03 -0.11889128795E+04  0.23399832191E+03  0.15289806559E+04  0.50400001928E-02 0.  1.
       -1    1    3    3    0  502 -0.93247670020E+03  0.11889128795E+04  0.46996933072E+02  0.15116994884E+04  0.50400001928E-02 0. -1.
</event>
<event>
 5   0  0.8487944E-07  0.3205780E+04  0.7818609E-02  0.8187292E-01
        1   -1    0    0  501    0  0.00000000000E+00  0.00000000000E+00  0.22117781607E+04  0.22117781607E+04  0.50400001928E-02 0.  1.
       -1   -1    0    0    0  501  0.00000000000E+00  0.00000000000E+00 -0.11616248550E+04  0.11616248550E+04  0.50400001928E-02 0. -1.
    10030    2    1    2    0    0  0.00000000000E+00  0.00000000000E+00  0.10501533057E+04  0.33734030158E+04  0.32057800831E+04 0.  0.
        2    1    3    3  502    0 -0.11624264863E+03 -0.87414158064E+03  0.19335788527E+04  0.21251736484E+04  0.25500000920E-02 0.  1.
       -2    1    3    3    0  502  0.11624264863E+03  0.87414158064E+03 -0.88342554701E+03  0.12482293673E+04  0.25500000920E-02 0. -1.
</event>
<event>
 5   0  0.8383008E-07  0.3246469E+04  0.7818609E-02  0.8176652E-01
        1   -1    0    0  501    0  0.00000000000E+00  0.00000000000E+00  0.28329536766E+04  0.28329536766E+04  0.50400001928E-02 0. -1.
       -1   -1    0    0    0  501  0.00000000000E+00  0.00000000000E+00 -0.93008564065E+03  0.93008564066E+03  0.50400001928E-02 0.  1.
    10030    2    1    2    0    0  0.00000000000E+00  0.00000000000E+00  0.19028680360E+04  0.37630393173E+04  0.32464685646E+04 0.  0.
        4    1    3    3  502    0  0.36545000132E+03 -0.10575966640E+04 -0.41161329856E+03  0.11922631956E+04  0.12699999809E+01 0.  1.
       -4    1    3    3    0  502 -0.36545000132E+03  0.10575966640E+04  0.23144813345E+04  0.25707761217E+04  0.12699999809E+01 0. -1.
</event>
<event>
 5   0  0.8545153E-07  0.3202552E+04  0.7818609E-02  0.8188143E-01
       -1   -1    0    0    0  501  0.00000000000E+00  0.00000000000E+00  0.17613983434E+04  0.17613983434E+04  0.50400001928E-02 0. -1.
        1   -1    0    0  501    0  0.00000000000E+00  0.00000000000E+00 -0.14557101437E+04  0.14557101437E+04  0.50400001928E-02 0.  1.
    10030    2    1    2    0    0  0.00000000000E+00  0.00000000000E+00  0.30568819967E+03  0.32171084871E+04  0.32025523794E+04 0.  0.
        3    1    3    3  502    0 -0.37113054617E+01 -0.15455215683E+04  0.57359713319E+03  0.16485340073E+04  0.10100000352E+00 0. -1.
       -3    1    3    3    0  502  0.37113054617E+01  0.15455215683E+04 -0.26790893352E+03  0.15685744798E+04  0.10100000352E+00 0.  1.
</event>
<event>
 5   0  0.8383008E-07  0.3226514E+04  0.7818609E-02  0.8181850E-01
        1   -1    0    0  501    0  0.00000000000E+00  0.00000000000E+00  0.20145374759E+04  0.20145374759E+04  0.50400001928E-02 0.  1.
       -1   -1    0    0    0  501  0.00000000000E+00  0.00000000000E+00 -0.12919089097E+04  0.12919089097E+04  0.50400001928E-02 0. -1.
    10030    2    1    2    0    0  0.00000000000E+00  0.00000000000E+00  0.72262856622E+03  0.33064463857E+04  0.32265144749E+04 0.  0.
        4    1    3    3  502    0 -0.65351923289E+03 -0.11275667463E+04 -0.61308477938E+03  0.14402668901E+04  0.12699999809E+01 0. -1.
       -4    1    3    3    0  502  0.65351923289E+03  0.11275667463E+04  0.13357133456E+04  0.18661794956E+04  0.12699999809E+01 0.  1.
</event>
<event>
 5   0  0.2621528E-06  0.3177625E+04  0.7818609E-02  0.8194751E-01
       -2   -1    0    0    0  501  0.00000000000E+00  0.00000000000E+00  0.10268585203E+04  0.10268585203E+04  0.25500000920E-02 0. -1.
        2   -1    0    0  501    0  0.00000000000E+00  0.00000000000E+00 -0.24582986713E+04  0.24582986713E+04  0.25500000920E-02 0.  1.
    10030    2    1    2    0    0  0.00000000000E+00  0.00000000000E+00 -0.14314401510E+04  0.34851571917E+04  0.31776248590E+04 0.  0.
        2    1    3    3  502    0  0.44585804305E+03  0.15206604613E+04 -0.84138309860E+03  0.17941915036E+04  0.25500000920E-02 0.  1.
       -2    1    3    3    0  502 -0.44585804305E+03 -0.15206604613E+04 -0.59005705243E+03  0.16909656880E+04  0.25500000920E-02 0. -1.
</event>
<event>
 5   0  0.2337504E-06  0.3215274E+04  0.7818609E-02  0.8184795E-01
        2   -1    0    0  501    0  0.00000000000E+00  0.00000000000E+00  0.20459766258E+04  0.20459766258E+04  0.25500000920E-02 0. -1.
       -2   -1    0    0    0  501  0.00000000000E+00  0.00000000000E+00 -0.12632094576E+04  0.12632094576E+04  0.25500000920E-02 0.  1.
    10030    2    1    2    0    0  0.00000000000E+00  0.00000000000E+00  0.78276716819E+03  0.33091860835E+04  0.32152741867E+04 0.  0.
        1    1    3    3  502    0 -0.12934999973E+04  0.63374697957E+03 -0.34341586077E+03  0.14807808516E+04  0.50400001928E-02 0.  1.
       -1    1    3    3    0  502  0.12934999973E+04 -0.63374697957E+03  0.11261830290E+04  0.18284052318E+04  0.50400001928E-02 0. -1.
</event>
<event>
 5   0  0.8681172E-07  0.3104161E+04  0.7818609E-02  0.8214597E-01
       -1   -1    0    0    0  501  0.00000000000E+00  0.00000000000E+00  0.99351727345E+03  0.99351727346E+03  0.50400001928E-02 0.  1.
        1   -1    0    0  501    0  0.00000000000E+00  0.00000000000E+00 -0.24246723989E+04  0.24246723989E+04  0.50400001928E-02 0. -1.
    10030    2    1    2    0    0  0.00000000000E+00  0.00000000000E+00 -0.14311551254E+04  0.34181896724E+04  0.31041610208E+04 0.  0.
        1    1    3    3  502    0 -0.83802280616E+03 -0.46083970880E+03 -0.20616566885E+04  0.22726820635E+04  0.50400001928E-02 0. -1.
       -1    1    3    3    0  502  0.83802280616E+03  0.46083970880E+03  0.63050156302E+03  0.11455076088E+04  0.50400001928E-02 0.  1.
</event>
<event>
 5   0  0.2621528E-06  0.3235862E+04  0.7818609E-02  0.8179410E-01
        2   -1    0    0  501    0  0.00000000000E+00  0.00000000000E+00  0.19062891260E+04  0.19062891260E+04  0.25500000920E-02 0. -1.
       -2   -1    0    0    0  501  0.00000000000E+00  0.00000000000E+00 -0.13731920876E+04  0.13731920876E+04  0.25500000920E-02 0.  1.
    10030    2    1    2    0    0  0.00000000000E+00  0.00000000000E+00  0.53309703840E+03  0.32794812136E+04  0.32358622619E+04 0.  0.
        2    1    3    3  502    0  0.37458327706E+03 -0.14921784688E+04  0.77409041699E+03  0.17222442301E+04  0.25500000920E-02 0. -1.
       -2    1    3    3    0  502 -0.37458327706E+03  0.14921784688E+04 -0.24099337859E+03  0.15572369835E+04  0.25500000920E-02 0.  1.
</event>
<event>
 5   0  0.8545153E-07  0.3209370E+04  0.7818609E-02  0.8186347E-01
       -1   -1    0    0    0  501  0.00000000000E+00  0.00000000000E+00  0.90112502520E+03  0.90112502521E+03  0.50400001928E-02 0.  1.
        1   -1    0    0  501    0  0.00000000000E+00  0.00000000000E+00 -0.28575538866E+04  0.28575538866E+04  0.50400001928E-02 0. -1.
    10030    2    1    2    0    0  0.00000000000E+00  0.00000000000E+00 -0.19564288614E+04  0.37586789118E+04  0.32093696067E+04 0.  0.
        3    1    3    3  502    0  0.15611230445E+04 -0.26940005189E+03 -0.12775633334E+04  0.20351534657E+04  0.10100000352E+00 0.  1.
       -3    1    3    3    0  502 -0.15611230445E+04  0.26940005189E+03 -0.67886552800E+03  0.17235254461E+04  0.10100000352E+00 0. -1.
</event>
<event>
 5   0  0.2337504E-06  0.3180575E+04  0.7818609E-02  0.8193966E-01
        2   -1    0    0  501    0  0.00000000000E+00  0.00000000000E+00  0.27069488294E+04  0.27069488294E+04  0.25500000920E-02 0.  1.
       -2   -1    0    0    0  501  0.00000000000E+00  0.00000000000E+00 -0.93426743226E+03  0.93426743226E+03  0.25500000920E-02 0. -1.
    10030    2    1    2    0    0  0.00000000000E+00  0.00000000000E+00  0.17726813971E+04  0.36412162617E+04  0.31805748739E+04 0.  0.
        1    1    3    3  502    0 -0.13117768645E+04  0.38059943345E+03  0.18187969662E+04  0.22745630076E+04  0.50400001928E-02 0.  1.
       -1    1    3    3    0  502  0.13117768645E+04 -0.38059943345E+03 -0.46115569114E+02  0.13666532541E+04  0.50400001928E-02 0. -1.
</event>
<event>
 5   0  0.8545153E-07  0.3296866E+04  0.7818609E-02  0.8163693E-01
       -1   -1    0    0    0  501  0.00000000000E+00  0.00000000000E+00  0.12879675216E+04  0.12879675217E+04  0.50400001928E-02 0. -1.
        1   -1    0    0  501    0  0.00000000000E+00  0.00000000000E+00 -0.21097831412E+04  0.21097831412E+04  0.50400001928E-02 0.  1.
    10030    2    1    2    0    0  0.00000000000E+00  0.00000000000E+00 -0.82181561958E+03  0.33977506629E+04  0.32968664902E+04 0.  0.
        3    1    3    3  502    0 -0.23256561237E+03 -0.15570395416E+04  0.92794461973E+02  0.15770446159E+04  0.10100000352E+00 0. -1.
       -3    1    3    3    0  502  0.23256561237E+03  0.15570395416E+04 -0.91461008155E+03  0.18207060470E+04  0.10100000352E+00 0.  1.
</event>
<event>
 5   0  0.2401139E-06  0.3199553E+04  0.7818609E-02  0.8188935E-01
       -2   -1    0    0    0  501  0.00000000000E+00  0.00000000000E+00  0.11756495032E+04  0.11756495032E+04  0.25500000920E-02 0. -1.
        2   -1    0    0  501    0  0.00000000000E+00  0.00000000000E+00 -0.21769114358E+04  0.21769114358E+04  0.25500000920E-02 0.  1.
    10030    2    1    2    0    0  0.00000000000E+00  0.00000000000E+00 -0.10012619327E+04  0.33525609390E+04  0.31995529988E+04 0.  0.
        5    1    3    3  502    0  0.74984548620E+03  0.64266465733E+03  0.81811686653E+03  0.12824287162E+04  0.46999998093E+01 0. -1.
       -5    1    3    3    0  502 -0.74984548620E+03 -0.64266465733E+03 -0.18193787992E+04  0.20701322228E+04  0.46999998093E+01 0.  1.
</event>
<event>
 5   0  0.2337504E-06  0.3229326E+04  0.7818609E-02  0.8181115E-01
       -2   -1    0    0    0  501  0.00000000000E+00  0.00000000000E+00  0.94868255427E+03  0.94868255428E+03  0.25500000920E-02 0. -1.
        2   -1    0    0  501    0  0.00000000000E+00  0.00000000000E+00 -0.27481653902E+04  0.27481653902E+04  0.25500000920E-02 0.  1.
    10030    2    1    2    0    0  0.00000000000E+00  0.00000000000E+00 -0.17994828359E+04  0.36968479445E+04  0.32293259742E+04 0.  0.
        1    1    3    3  502    0  0.14783142708E+04 -0.54206659793E+03 -0.49035504615E+03  0.16491504938E+04  0.50400001928E-02 0.  1.
       -1    1    3    3    0  502 -0.14783142708E+04  0.54206659793E+03 -0.13091277898E+04  0.20476974507E+04  0.50400001928E-02 0. -1.
</event>
<event>
 5   0  0.8487944E-07  0.3200602E+04  0.7818609E-02  0.8188658E-01
        1   -1    0    0  501    0  0.00000000000E+00  0.00000000000E+00  0.18948079175E+04  0.18948079175E+04  0.50400001928E-02 0.  1.
       -1   -1    0    0    0  501  0.00000000000E+00  0.00000000000E+00 -0.13515687553E+04  0.13515687553E+04  0.50400001928E-02 0. -1.
    10030    2    1    2    0    0  0.00000000000E+00  0.00000000000E+00  0.54323916225E+03  0.32463766728E+04  0.32006019300E+04 0.  0.
        2    1    3    3  502    0 -0.12216355645E+04  0.45091772538E+03 -0.67186819144E+03  0.14653078565E+04  0.25500000920E-02 0. -1.
       -2    1    3    3    0  502  0.12216355645E+04 -0.45091772538E+03  0.12151073537E+04  0.17810688163E+04  0.25500000920E-02 0.  1.
</event>
<event>
 5   0  0.2621528E-06  0.3197552E+04  0.7818609E-02  0.8189464E-01
        2   -1    0    0  501    0  0.00000000000E+00  0.00000000000E+00  0.21490595596E+04  0.21490595596E+04  0.25500000920E-02 0.  1.
       -2   -1    0    0    0  501  0.00000000000E+00  0.00000000000E+00 -0.11893970229E+04  0.11893970229E+04  0.25500000920E-02 0. -1.
    10030    2    1    2    0    0  0.00000000000E+00  0.00000000000E+00  0.95966253675E+03  0.33384565825E+04  0.31975522151E+04 0.  0.
        2    1    3    3  502    0 -0.11933567562E+04 -0.54320769727E+01  0.15906487460E+04  0.19885404920E+04  0.25500000920E-02 0.  1.
       -2    1    3    3    0  502  0.11933567562E+04  0.54320769727E+01 -0.63098620930E+03  0.13499160905E+04  0.25500000920E-02 0. -1.
</event>
<event>
 5   0  0.2337504E-06  0.3196439E+04  0.7818609E-02  0.8189758E-01
       -2   -1    0    0    0  501  0.00000000000E+00  0.00000000000E+00  0.16152674841E+04  0.16152674841E+04  0.25500000920E-02 0. -1.
        2   -1    0    0  501    0  0.00000000000E+00  0.00000000000E+00 -0.15813516679E+04  0.15813516679E+04  0.25500000920E-02 0.  1.
    10030    2    1    2    0    0  0.00000000000E+00  0.00000000000E+00  0.33915816131E+02  0.31966191520E+04  0.31964392252E+04 0.  0.
        1    1    3    3  502    0  0.23896356674E+03 -0.69854243751E+03  0.14345146133E+04  0.16133497138E+04  0.50400001928E-02 0. -1.
       -1    1    3    3    0  502 -0.23896356674E+03  0.69854243751E+03 -0.14005987972E+04  0.15832694382E+04  0.50400001928E-02 0.  1.
</event>
<event>
 5   0  0.8487944E-07  0.3133838E+04  0.7818609E-02  0.8206512E-01
        1   -1    0    0  501    0  0.00000000000E+00  0.00000000000E+00  0.20971308580E+04  0.20971308580E+04  0.50400001928E-02 0.  1.
       -1   -1    0    0    0  501  0.00000000000E+00  0.00000000000E+00 -0.11707588385E+04  0.11707588385E+04  0.50400001928E-02 0. -1.
    10030    2    1    2    0    0  0.00000000000E+00  0.00000000000E+00  0.92637201949E+03  0.32678896965E+04  0.31338375755E+04 0.  0.
        2    1    3    3  502    0 -0.69785920991E+03  0.74553692501E+03 -0.77609564810E+03  0.12826368303E+04  0.25500000920E-02 0. -1.
       -2    1    3    3    0  502  0.69785920991E+03 -0.74553692501E+03  0.17024676676E+04  0.19852528662E+04  0.25500000920E-02 0.  1.
</event>
<event>
 5   0  0.8383008E-07  0.3341722E+04  0.7818609E-02  0.8152360E-01
       -1   -1    0    0    0  501  0.00000000000E+00  0.00000000000E+00  0.13716074385E+04  0.13716074385E+04  0.50400001928E-02 0.  1.
        1   -1    0    0  501    0  0.00000000000E+00  0.00000000000E+00 -0.20354043014E+04  0.20354043014E+04  0.50400001928E-02 0. -1.
    10030    2    1    2    0    0  0.00000000000E+00  0.00000000000E+00 -0.66379686295E+03  0.34070117399E+04  0.33417215205E+04 0.  0.
        4    1    3    3  502    0 -0.60856350022E+03 -0.44917578627E+03  0.11870644276E+04  0.14075624281E+04  0.12699999809E+01 0.  1.
       -4    1    3    3    0  502  0.60856350022E+03  0.44917578627E+03 -0.18508612906E+04  0.19994493118E+04  0.12699999809E+01 0. -1.
</event>
<event>
 5   0  0.2401139E-06  0.3191516E+04  0.7818609E-02  0.8191061E-01
        2   -1    0    0  501    0  0.00000000000E+00  0.00000000000E+00  0.18887829556E+04  0.18887829556E+04  0.25500000920E-02 0. -1.
       -2   -1    0    0    0  501  0.00000000000E+00  0.00000000000E+00 -0.13481926180E+04  0.13481926180E+04  0.25500000920E-02 0.  1.
    10030    2    1    2    0    0  0.00000000000E+00  0.00000000000E+00  0.54059033764E+03  0.32369755736E+04  0.31915157764E+04 0.  0.
        5    1    3    3  502    0 -0.69672471315E+03 -0.10054268836E+04 -0.76905134123E+03  0.14449119695E+04  0.46999998093E+01 0.  1.
       -5    1    3    3    0  502  0.69672471315E+03  0.10054268836E+04  0.13096416789E+04  0.17920636041E+04  0.46999998093E+01 0. -1.
</event>
<event>
 5   0  0.8512855E-07  0.3200510E+04  0.7818609E-02  0.8188683E-01
       -1   -1    0    0    0  501  0.00000000000E+00  0.00000000000E+00  0.18328791005E+04  0.18328791005E+04  0.50400001928E-02 0.  1.
        1   -1    0    0  501    0  0.00000000000E+00  0.00000000000E+00 -0.13971546115E+04  0.13971546115E+04  0.50400001928E-02 0. -1.
    10030    2    1    2    0    0  0.00000000000E+00  0.00000000000E+00  0.43572448905E+03  0.32300337120E+04  0.32005096392E+04 0.  0.
        5    1    3    3  502    0  0.12153566566E+04 -0.19943572078E+03  0.12490149325E+04  0.17541171002E+04  0.46999998093E+01 0.  1.
       -5    1    3    3    0  502 -0.12153566566E+04  0.19943572078E+03 -0.81329044349E+03  0.14759166118E+04  0.46999998093E+01 0. -1.
</event>
<event>
 5   0  0.8545153E-07  0.3163096E+04  0.7818609E-02  0.8198632E-01
       -1   -1    0    0    0  501  0.00000000000E+00  0.00000000000E+00  0.18926795071E+04  0.18926795071E+04  0.50400001928E-02 0. -1.
        1   -1    0    0  501    0  0.00000000000E+00  0.00000000000E+00 -0.13215619909E+04  0.13215619909E+04  0.50400001928E-02 0.  1.
    10030    2    1    2    0    0  0.00000000000E+00  0.00000000000E+00  0.57111751625E+03  0.32142414980E+04  0.31630955076E+04 0.  0.
        3    1    3    3  502    0  0.41822566335E+03 -0.14904301377E+04  0.61483312582E+03  0.16656273544E+04  0.10100000352E+00 0. -1.
       -3    1    3    3    0  502 -0.41822566335E+03  0.14904301377E+04 -0.43715609566E+02  0.15486141436E+04  0.10100000352E+00 0.  1.
</event>
<event>
 5   0  0.2466076E-06  0.3137344E+04  0.7818609E-02  0.8205563E-01
       -2   -1    0    0    0  501  0.00000000000E+00  0.00000000000E+00  0.16620154443E+04  0.16620154443E+04  0.25500000920E-02 0. -1.
        2   -1    0    0  501    0  0.00000000000E+00  0.00000000000E+00 -0.14805706986E+04  0.14805706986E+04  0.25500000920E-02 0.  1.
    10030    2    1    2    0    0  0.00000000000E+00  0.00000000000E+00  0.18144474566E+03  0.31425861428E+04  0.31373436964E+04 0.  0.
        3    1    3    3  502    0  0.12915270869E+04  0.20944849498E+03  0.95751248096E+03  0.16213392765E+04  0.10100000352E+00 0. -1.
       -3    1    3    3    0  502 -0.12915270869E+04 -0.20944849498E+03 -0.77606773529E+03  0.15212468663E+04  0.10100000352E+00 0.  1.
</event>
<event>
 5   0  0.2401139E-06  0.3210285E+04  0.7818609E-02  0.8186106E-01
       -2   -1    0    0    0  501  0.00000000000E+00  0.00000000000E+00  0.13575099788E+04  0.13575099788E+04  0.25500000920E-02 0. -1.
        2   -1    0    0  501    0  0.00000000000E+00  0.00000000000E+00 -0.18979469625E+04  0.18979469625E+04  0.25500000920E-02 0.  1.
    10030    2    1    2    0    0  0.00000000000E+00  0.00000000000E+00 -0.54043698369E+03  0.32554569413E+04  0.32102846857E+04 0.  0.
        5    1    3    3  502    0 -0.57042892170E+02  0.16020219406E+04 -0.18701730359E+03  0.16139162777E+04  0.46999998093E+01 0.  1.
       -5    1    3    3    0  502  0.57042892170E+02 -0.16020219406E+04 -0.35341968010E+03  0.16415406635E+04  0.46999998093E+01 0. -1.
</event>
<event>
 5   0  0.8512855E-07  0.3191256E+04  0.7818609E-02  0.8191130E-01
        1   -1    0    0  501    0  0.00000000000E+00  0.00000000000E+00  0.17110513223E+04  0.17110513223E+04  0.50400001928E-02 0. -1.
       -1   -1    0    0    0  501  0.00000000000E+00  0.00000000000E+00 -0.14879907760E+04  0.14879907760E+04  0.50400001928E-02 0.  1.
    10030    2    1    2    0    0  0.00000000000E+00  0.00000000000E+00  0.22306054626E+03  0.31990420983E+04  0.31912559188E+04 0.  0.
        5    1    3    3  502    0 -0.11343982873E+04  0.97603019336E+03  0.66651639244E+03  0.16382187290E+04  0.46999998093E+01 0. -1.
       -5    1    3    3    0  502  0.11343982873E+04 -0.97603019336E+03 -0.44345584618E+03  0.15608233693E+04  0.46999998093E+01 0.  1.
</event>
<event>
 5   0  0.8487944E-07  0.3165794E+04  0.7818609E-02  0.8197910E-01
        1   -1    0    0  501    0  0.00000000000E+00  0.00000000000E+00  0.92988262287E+03  0.92988262289E+03  0.50400001928E-02 0. -1.
       -1   -1    0    0    0  501  0.00000000000E+00  0.00000000000E+00 -0.26944943939E+04  0.26944943939E+04  0.50400001928E-02 0.  1.
    10030    2    1    2    0    0  0.00000000000E+00  0.00000000000E+00 -0.17646117710E+04  0.36243770168E+04  0.31657943801E+04 0.  0.
        2    1    3    3  502    0  0.81273994565E+03  0.11634533039E+04 -0.79768157384E+02  0.14214544553E+04  0.25500000920E-02 0. -1.
       -2    1    3    3    0  502 -0.81273994565E+03 -0.11634533039E+04 -0.16848436136E+04  0.22029225615E+04  0.25500000920E-02 0.  1.
</event>
<event>
 5   0  0.2404430E-06  0.3180144E+04  0.7818609E-02  0.8194081E-01
       -2   -1    0    0    0  501  0.00000000000E+00  0.00000000000E+00  0.12457820902E+04  0.12457820902E+04  0.25500000920E-02 0. -1.
        2   -1    0    0  501    0  0.00000000000E+00  0.00000000000E+00 -0.20295117901E+04  0.20295117901E+04  0.25500000920E-02 0.  1.
    10030    2    1    2    0    0  0.00000000000E+00  0.00000000000E+00 -0.78372969993E+03  0.32752938803E+04  0.31801442985E+04 0.  0.
        4    1    3    3  502    0 -0.15025540270E+03  0.13654738007E+03  0.12323766058E+04  0.12489898256E+04  0.12699999809E+01 0. -1.
       -4    1    3    3    0  502  0.15025540270E+03 -0.13654738007E+03 -0.20161063057E+04  0.20263040547E+04  0.12699999809E+01 0.  1.
</event>
<event>
 5   0  0.2401139E-06  0.3242663E+04  0.7818609E-02  0.8177640E-01
       -2   -1    0    0    0  501  0.00000000000E+00  0.00000000000E+00  0.17100759625E+04  0.17100759625E+04  0.25500000920E-02 0.  1.
        2   -1    0    0  501    0  0.00000000000E+00  0.00000000000E+00 -0.15371925195E+04  0.15371925195E+04  0.25500000920E-02 0. -1.
    10030    2    1    2    0    0  0.00000000000E+00  0.00000000000E+00  0.17288344298E+03  0.32472684820E+04  0.32426630890E+04 0.  0.
        5    1    3    3  502    0  0.24912339114E+03 -0.86222679890E+03 -0.12657338729E+04  0.15516448833E+04  0.46999998093E+01 0. -1.
       -5    1    3    3    0  502 -0.24912339114E+03  0.86222679890E+03  0.14386173159E+04  0.16956235987E+04  0.46999998093E+01 0.  1.
</event>
<event>
 5   0  0.8681172E-07  0.3175415E+04  0.7818609E-02  0.8195340E-01
       -1   -1    0    0    0  501  0.00000000000E+00  0.00000000000E+00  0.28271494912E+04  0.28271494912E+04  0.50400001928E-02 0. -1.
        1   -1    0    0  501    0  0.00000000000E+00  0.00000000000E+00 -0.89164558513E+03  0.89164558514E+03  0.50400001928E-02 0.  1.
    10030    2    1    2    0    0  0.00000000000E+00  0.00000000000E+00  0.19355039061E+04  0.37187950764E+04  0.31754151617E+04 0.  0.
        1    1    3    3  502    0 -0.97536377614E+03 -0.48667090980E+03 -0.38418643395E+03  0.11557604796E+04  0.50400001928E-02 0.  1.
       -1    1    3    3    0  502  0.97536377614E+03  0.48667090980E+03  0.23196903400E+04  0.25630345967E+04  0.50400001928E-02 0. -1.
</event>
<event>
 5   0  0.2621528E-06  0.3176109E+04  0.7818609E-02  0.8195155E-01
        2   -1    0    0  501    0  0.00000000000E+00  0.00000000000E+00  0.21400326338E+04  0.21400326338E+04  0.25500000920E-02 0. -1.
       -2   -1    0    0    0  501  0.00000000000E+00  0.00000000000E+00 -0.11784480982E+04  0.11784480982E+04  0.25500000920E-02 0.  1.
    10030    2    1    2    0    0  0.00000000000E+00  0.00000000000E+00  0.96158453560E+03  0.33184807320E+04  0.31761091841E+04 0.  0.
        2    1    3    3  502    0 -0.15733871040E+04 -0.17482436522E+03  0.34943124033E+03  0.16211763413E+04  0.25500000920E-02 0.  1.
       -2    1    3    3    0  502  0.15733871040E+04  0.17482436522E+03  0.61215329528E+03  0.16973043907E+04  0.25500000920E-02 0. -1.
</event>
<event>
 5   0  0.8487944E-07  0.3207186E+04  0.7818609E-02  0.8186922E-01
       -1   -1    0    0    0  501  0.00000000000E+00  0.00000000000E+00  0.10820790729E+04  0.10820790729E+04  0.50400001928E-02 0.  1.
        1   -1    0    0  501    0  0.00000000000E+00  0.00000000000E+00 -0.23764535868E+04  0.23764535868E+04  0.50400001928E-02 0. -1.
    10030    2    1    2    0    0  0.00000000000E+00  0.00000000000E+00 -0.12943745138E+04  0.34585326597E+04  0.32071861150E+04 0.  0.
        2    1    3    3  502    0  0.11487954653E+04  0.29239288073E+03 -0.18117697671E+04  0.21651176196E+04  0.25500000920E-02 0. -1.
       -2    1    3    3    0  502 -0.11487954653E+04 -0.29239288073E+03  0.51739525324E+03  0.12934150401E+04  0.25500000920E-02 0.  1.
</event>
<event>
 5   0  0.2337504E-06  0.3203093E+04  0.7818609E-02  0.8188001E-01
        2   -1    0    0  501    0  0.00000000000E+00  0.00000000000E+00  0.18332370579E+04  0.18332370579E+04  0.25500000920E-02 0. -1.
       -2   -1    0    0    0  501  0.00000000000E+00  0.00000000000E+00 -0.13991379054E+04  0.13991379054E+04  0.25500000920E-02 0.  1.
    10030    2    1    2    0    0  0.00000000000E+00  0.00000000000E+00  0.43409915246E+03  0.32323749633E+04  0.32030931658E+04 0.  0.
        1    1    3    3  502    0  0.12781215369E+04 -0.71516419892E+03 -0.43686878202E+03  0.15283680274E+04  0.50400001928E-02 0.  1.
       -1    1    3    3    0  502 -0.12781215369E+04  0.71516419892E+03  0.87096793448E+03  0.17040069359E+04  0.50400001928E-02 0. -1.
</event>
<event>
 5   0  0.8545153E-07  0.2800482E+04  0.7818609E-02  0.8303119E-01
        1   -1    0    0  501    0  0.00000000000E+00  0.00000000000E+00  0.15081299083E+04  0.15081299084E+04  0.50400001928E-02 0.  1.
       -1   -1    0    0    0  501  0.00000000000E+00  0.00000000000E+00 -0.13000704320E+04  0.13000704320E+04  0.50400001928E-02 0. -1.
    10030    2    1    2    0    0  0.00000000000E+00  0.00000000000E+00  0.20805947636E+03  0.28082003403E+04  0.28004821738E+04 0.  0.
        3    1    3    3  502    0  0.70027018289E+03 -0.10478889878E+04 -0.50775451736E+03  0.13587730936E+04  0.10100000352E+00 0. -1.
       -3    1    3    3    0  502 -0.70027018289E+03  0.10478889878E+04  0.71581399372E+03  0.14494272467E+04  0.10100000352E+00 0.  1.
</event>
<event>
 5   0  0.8545153E-07  0.3195225E+04  0.7818609E-02  0.8190079E-01
       -1   -1    0    0    0  501  0.00000000000E+00  0.00000000000E+00  0.22207841343E+04  0.22207841343E+04  0.50400001928E-02 0. -1.
        1   -1    0    0  501    0  0.00000000000E+00  0.00000000000E+00 -0.11493082155E+04  0.11493082155E+04  0.50400001928E-02 0.  1.
    10030    2    1    2    0    0  0.00000000000E+00  0.00000000000E+00  0.10714759188E+04  0.33700923498E+04  0.31952248437E+04 0.  0.
        3    1    3    3  502    0 -0.49684751157E+03 -0.54225860908E+03 -0.96014104152E+03  0.12094513958E+04  0.10100000352E+00 0.  1.
       -3    1    3    3    0  502  0.49684751157E+03  0.54225860908E+03  0.20316169603E+04  0.21606409541E+04  0.10100000352E+00 0. -1.
</event>
<event>
 5   0  0.2404430E-06  0.3207249E+04  0.7818609E-02  0.8186905E-01
        2   -1    0    0  501    0  0.00000000000E+00  0.00000000000E+00  0.17399242112E+04  0.17399242112E+04  0.25500000920E-02 0.  1.
       -2   -1    0    0    0  501  0.00000000000E+00  0.00000000000E+00 -0.14780018603E+04  0.14780018603E+04  0.25500000920E-02 0. -1.
    10030    2    1    2    0    0  0.00000000000E+00  0.00000000000E+00  0.26192235086E+03  0.32179260715E+04  0.32072488029E+04 0.  0.
        4    1    3    3  502    0  0.13755323053E+04 -0.82300089227E+03  0.84007768080E+02  0.16051412740E+04  0.12699999809E+01 0. -1.
       -4    1    3    3    0  502 -0.13755323053E+04  0.82300089227E+03  0.17791458278E+03  0.16127847975E+04  0.12699999809E+01 0.  1.
</event>
<event>
 5   0  0.2337504E-06  0.3211666E+04  0.7818609E-02  0.8185743E-01
       -2   -1    0    0    0  501  0.00000000000E+00  0.00000000000E+00  0.15526964142E+04  0.15526964142E+04  0.25500000920E-02 0. -1.
        2   -1    0    0  501    0  0.00000000000E+00  0.00000000000E+00 -0.16607878737E+04  0.16607878737E+04  0.25500000920E-02 0.  1.
    10030    2    1    2    0    0  0.00000000000E+00  0.00000000000E+00 -0.10809145952E+03  0.32134842880E+04  0.32116658458E+04 0.  0.
        1    1    3    3  502    0  0.92759005316E+03  0.64631807233E+02  0.12559315184E+04  0.15626786478E+04  0.50400001928E-02 0. -1.
       -1    1    3    3    0  502 -0.92759005316E+03 -0.64631807233E+02 -0.13640229779E+04  0.16508056402E+04  0.50400001928E-02 0.  1.
</event>
<event>
 5   0  0.8487944E-07  0.3164368E+04  0.7818609E-02  0.8198291E-01
       -1   -1    0    0    0  501  0.00000000000E+00  0.00000000000E+00  0.14721219284E+04  0.14721219284E+04  0.50400001928E-02 0. -1.
        1   -1    0    0  501    0  0.00000000000E+00  0.00000000000E+00 -0.17004744724E+04  0.17004744724E+04  0.50400001928E-02 0.  1.
    10030    2    1    2    0    0  0.00000000000E+00  0.00000000000E+00 -0.22835254404E+03  0.31725964008E+04  0.31643677154E+04 0.  0.
        2    1    3    3  502    0  0.30648792612E+03 -0.15455442383E+04 -0.25829957913E+03  0.15966716988E+04  0.25500000920E-02 0.  1.
       -2    1    3    3    0  502 -0.30648792612E+03  0.15455442383E+04  0.29947035088E+02  0.15759247020E+04  0.25500000920E-02 0. -1.
</event>
<event>
 5   0  0.8383008E-07  0.3262136E+04  0.7818609E-02  0.8172597E-01
       -1   -1    0    0    0  501  0.00000000000E+00  0.00000000000E+00  0.15660562695E+04  0.15660562695E+04  0.50400001928E-02 0.  1.
        1   -1    0    0  501    0  0.00000000000E+00  0.00000000000E+00 -0.16987780565E+04  0.16987780565E+04  0.50400001928E-02 0. -1.
    10030    2    1    2    0    0  0.00000000000E+00  0.00000000000E+00 -0.13272178696E+03  0.32648343260E+04  0.32621355127E+04 0.  0.
        4    1    3    3  502    0  0.15725615834E+03  0.12447023392E+04  0.97679071537E+03  0.15900110462E+04  0.12699999809E+01 0.  1.
       -4    1    3    3    0  502 -0.15725615834E+03 -0.12447023392E+04 -0.11095125023E+04  0.16748232798E+04  0.12699999809E+01 0. -1.
</event>
<event>
 5   0  0.8512855E-07  0.3186987E+04  0.7818609E-02  0.8192262E-01
       -1   -1    0    0    0  501  0.00000000000E+00  0.00000000000E+00  0.10870406745E+04  0.10870406745E+04  0.50400001928E-02 0. -1.
        1   -1    0    0  501    0  0.00000000000E+00  0.00000000000E+00 -0.23359022988E+04  0.23359022988E+04  0.50400001928E-02 0.  1.
    10030    2    1    2    0    0  0.00000000000E+00  0.00000000000E+00 -0.12488616243E+04  0.34229429733E+04  0.31869865456E+04 0.  0.
        5    1    3    3  502    0 -0.29133488588E+03  0.63289153147E+03 -0.21636321913E+04  0.22730495058E+04  0.46999998093E+01 0.  1.
       -5    1    3    3    0  502  0.29133488588E+03 -0.63289153147E+03  0.91477056703E+03  0.11498934675E+04  0.46999998093E+01 0. -1.
</event>
<event>
 5   0  0.2621528E-06  0.3185348E+04  0.7818609E-02  0.8192697E-01
       -2   -1    0    0    0  501  0.00000000000E+00  0.00000000000E+00  0.12061561420E+04  0.12061561420E+04  0.25500000920E-02 0. -1.
        2   -1    0    0  501    0  0.00000000000E+00  0.00000000000E+00 -0.21030536978E+04  0.21030536978E+04  0.25500000920E-02 0.  1.
    10030    2    1    2    0    0  0.00000000000E+00  0.00000000000E+00 -0.89689755573E+03  0.33092098398E+04  0.31853484171E+04 0.  0.
        2    1    3    3  502    0  0.27647807940E+03  0.20235589668E+02 -0.20777968322E+04  0.20962083111E+04  0.25500000920E-02 0.  1.
       -2    1    3    3    0  502 -0.27647807940E+03 -0.20235589668E+02  0.11808992765E+04  0.12130015287E+04  0.25500000920E-02 0. -1.
</event>
<event>
 5   0  0.8383008E-07  0.3215144E+04  0.7818609E-02  0.8184829E-01
       -1   -1    0    0    0  501  0.00000000000E+00  0.00000000000E+00  0.13942839224E+04  0.13942839224E+04  0.50400001928E-02 0. -1.
        1   -1    0    0  501    0  0.00000000000E+00  0.00000000000E+00 -0.18534870654E+04  0.18534870654E+04  0.50400001928E-02 0.  1.
    10030    2    1    2    0    0  0.00000000000E+00  0.00000000000E+00 -0.45920314295E+03  0.32477709878E+04  0.32151436769E+04 0.  0.
        4    1    3    3  502    0 -0.35542808098E+03 -0.14912385529E+04 -0.71841725619E+03  0.16929992644E+04  0.12699999809E+01 0.  1.
       -4    1    3    3    0  502  0.35542808098E+03  0.14912385529E+04  0.25921411325E+03  0.15547717234E+04  0.12699999809E+01 0. -1.
</event>
<event>
 5   0  0.2401139E-06  0.3184691E+04  0.7818609E-02  0.8192872E-01
       -2   -1    0    0    0  501  0.00000000000E+00  0.00000000000E+00  0.18791986351E+04  0.18791986351E+04  0.25500000920E-02 0. -1.
        2   -1    0    0  501    0  0.00000000000E+00  0.00000000000E+00 -0.13492791343E+04  0.13492791343E+04  0.25500000920E-02 0.  1.
    10030    2    1    2    0    0  0.00000000000E+00  0.00000000000E+00  0.52991950083E+03  0.32284777695E+04  0.31846905706E+04 0.  0.
        5    1    3    3  502    0  0.40105760037E+03 -0.15271667605E+04  0.56078428341E+02  0.15799532883E+04  0.46999998093E+01 0.  1.
       -5    1    3    3    0  502 -0.40105760037E+03  0.15271667605E+04  0.47384107249E+03  0.16485244812E+04  0.46999998093E+01 0. -1.
</event>
<event>
 5   0  0.8512855E-07  0.3406809E+04  0.7818609E-02  0.8136237E-01
        1   -1    0    0  501    0  0.00000000000E+00  0.00000000000E+00  0.22629698474E+04  0.22629698474E+04  0.50400001928E-02 0. -1.
       -1   -1    0    0    0  501  0.00000000000E+00  0.00000000000E+00 -0.12822027007E+04  0.12822027007E+04  0.50400001928E-02 0.  1.
    10030    2    1    2    0    0  0.00000000000E+00  0.00000000000E+00  0.98076714663E+03  0.35451725481E+04  0.34068085065E+04 0.  0.
        5    1    3    3  502    0  0.43998694239E+03 -0.11055757388E+04 -0.77800395291E+03  0.14216885962E+04  0.46999998093E+01 0.  1.
       -5    1    3    3    0  502 -0.43998694239E+03  0.11055757388E+04  0.17587710995E+04  0.21234839520E+04  0.46999998093E+01 0. -1.
</event>
<event>
 5   0  0.8681172E-07  0.3211666E+04  0.7818609E-02  0.8185743E-01
       -1   -1    0    0    0  501  0.00000000000E+00  0.00000000000E+00  0.15771780054E+04  0.15771780054E+04  0.50400001928E-02 0.  1.
        1   -1    0    0  501    0  0.00000000000E+00  0.00000000000E+00 -0.16350082951E+04  0.16350082951E+04  0.50400001928E-02 0. -1.
    10030    2    1    2    0    0  0.00000000000E+00  0.00000000000E+00 -0.57830289692E+02  0.32121863006E+04  0.32116656873E+04 0.  0.
        1    1    3    3  502    0  0.66261663649E+03 -0.13008182138E+04 -0.69798568271E+03  0.16181386979E+04  0.50400001928E-02 0. -1.
       -1    1    3    3    0  502 -0.66261663649E+03  0.13008182138E+04  0.64015539301E+03  0.15940476027E+04  0.50400001928E-02 0.  1.
</event>
<event>
 5   0  0.2621528E-06  0.3218986E+04  0.7818609E-02  0.8183821E-01
       -2   -1    0    0    0  501  0.00000000000E+00  0.00000000000E+00  0.12152745339E+04  0.12152745339E+04  0.25500000920E-02 0. -1.
        2   -1    0    0  501    0  0.00000000000E+00  0.00000000000E+00 -0.21315902289E+04  0.21315902289E+04  0.25500000920E-02 0.  1.
    10030    2    1    2    0    0  0.00000000000E+00  0.00000000000E+00 -0.91631569502E+03  0.33468647627E+04  0.32189857544E+04 0.  0.
        2    1    3    3  502    0  0.11648862825E+04 -0.40443017457E+02 -0.16121472928E+04  0.19893754253E+04  0.25500000920E-02 0.  1.
       -2    1    3    3    0  502 -0.11648862825E+04  0.40443017457E+02  0.69583159779E+03  0.13574893375E+04  0.25500000920E-02 0. -1.
</event>
<event>
 5   0  0.8512855E-07  0.3180450E+04  0.7818609E-02  0.8193999E-01
        1   -1    0    0  501    0  0.00000000000E+00  0.00000000000E+00  0.28213031174E+04  0.28213031174E+04  0.50400001928E-02 0. -1.
       -1   -1    0    0    0  501  0.00000000000E+00  0.00000000000E+00 -0.89632888866E+03  0.89632888867E+03  0.50400001928E-02 0.  1.
    10030    2    1    2    0    0  0.00000000000E+00  0.00000000000E+00  0.19249742288E+04  0.37176320061E+04  0.31804499605E+04 0.  0.
        5    1    3    3  502    0 -0.74018669978E+03 -0.11446580682E+04  0.19197558510E+04  0.23544857318E+04  0.46999998093E+01 0. -1.
       -5    1    3    3    0  502  0.74018669978E+03  0.11446580682E+04  0.52183777912E+01  0.13631462743E+04  0.46999998093E+01 0.  1.
</event>
<event>
 5   0  0.2337504E-06  0.3168413E+04  0.7818609E-02  0.8197209E-01
       -2   -1    0    0    0  501  0.00000000000E+00  0.00000000000E+00  0.16511528232E+04  0.16511528232E+04  0.25500000920E-02 0. -1.
        2   -1    0    0  501    0  0.00000000000E+00  0.00000000000E+00 -0.15199750086E+04  0.15199750086E+04  0.25500000920E-02 0.  1.
    10030    2    1    2    0    0  0.00000000000E+00  0.00000000000E+00  0.13117781458E+03  0.31711278318E+04  0.31684134999E+04 0.  0.
        1    1    3    3  502    0 -0.31481538083E+03  0.53934803724E+03  0.15227571862E+04  0.16458415712E+04  0.50400001928E-02 0. -1.
       -1    1    3    3    0  502  0.31481538083E+03 -0.53934803724E+03 -0.13915793716E+04  0.15252862606E+04  0.50400001928E-02 0.  1.
</event>
<event>
 5   0  0.8681172E-07  0.3213738E+04  0.7818609E-02  0.8185198E-01
       -1   -1    0    0    0  501  0.00000000000E+00  0.00000000000E+00  0.12285114938E+04  0.12285114938E+04  0.50400001928E-02 0.  1.
        1   -1    0    0  501    0  0.00000000000E+00  0.00000000000E+00 -0.21017535180E+04  0.21017535180E+04  0.50400001928E-02 0. -1.
    10030    2    1    2    0    0  0.00000000000E+00  0.00000000000E+00 -0.87324202419E+03  0.33302650117E+04  0.32137382307E+04 0.  0.
        1    1    3    3  502    0  0.23525940772E+03  0.61303012716E+03  0.10831421892E+04  0.12666293569E+04  0.50400001928E-02 0.  1.
       -1    1    3    3    0  502 -0.23525940772E+03 -0.61303012716E+03 -0.19563842134E+04  0.20636356549E+04  0.50400001928E-02 0. -1.
</event>
<event>
 5   0  0.8487944E-07  0.3206770E+04  0.7818609E-02  0.8187031E-01
        1   -1    0    0  501    0  0.00000000000E+00  0.00000000000E+00  0.16813739008E+04  0.16813739008E+04  0.50400001928E-02 0.  1.
       -1   -1    0    0    0  501  0.00000000000E+00  0.00000000000E+00 -0.15290137225E+04  0.15290137225E+04  0.50400001928E-02 0. -1.
    10030    2    1    2    0    0  0.00000000000E+00  0.00000000000E+00  0.15236017832E+03  0.32103876233E+04  0.32067701925E+04 0.  0.
        2    1    3    3  502    0  0.13704653734E+04  0.78963747647E+03 -0.18706345145E+03  0.15927006683E+04  0.25500000920E-02 0. -1.
       -2    1    3    3    0  502 -0.13704653734E+04 -0.78963747647E+03  0.33942362977E+03  0.16176869550E+04  0.25500000920E-02 0.  1.
</event>
<event>
 5   0  0.2404430E-06  0.3201843E+04  0.7818609E-02  0.8188331E-01
       -2   -1    0    0    0  501  0.00000000000E+00  0.00000000000E+00  0.13203254029E+04  0.13203254029E+04  0.25500000920E-02 0. -1.
        2   -1    0    0  501    0  0.00000000000E+00  0.00000000000E+00 -0.19411501269E+04  0.19411501269E+04  0.25500000920E-02 0.  1.
    10030    2    1    2    0    0  0.00000000000E+00  0.00000000000E+00 -0.62082472401E+03  0.32614755299E+04  0.32018431089E+04 0.  0.
        4    1    3    3  502    0  0.41376387112E+03  0.94999403822E+03 -0.15534926883E+04  0.18673591939E+04  0.12699999809E+01 0.  1.
       -4    1    3    3    0  502 -0.41376387112E+03 -0.94999403822E+03  0.93266796426E+03  0.13941163360E+04  0.12699999809E+01 0. -1.
</event>
<event>
 5   0  0.2621528E-06  0.2864811E+04  0.7818609E-02  0.8283425E-01
        2   -1    0    0  501    0  0.00000000000E+00  0.00000000000E+00  0.17456717479E+04  0.17456717479E+04  0.25500000920E-02 0. -1.
       -2   -1    0    0    0  501  0.00000000000E+00  0.00000000000E+00 -0.11753554777E+04  0.11753554777E+04  0.25500000920E-02 0.  1.
    10030    2    1    2    0    0  0.00000000000E+00  0.00000000000E+00  0.57031627014E+03  0.29210272256E+04  0.28648105356E+04 0.  0.
        2    1    3    3  502    0 -0.74016670006E+03 -0.18169989623E+03  0.15217736950E+04  0.17019567488E+04  0.25500000920E-02 0. -1.
       -2    1    3    3    0  502  0.74016670006E+03  0.18169989623E+03 -0.95145742483E+03  0.12190704768E+04  0.25500000920E-02 0.  1.
</event>
<event>
 5   0  0.2404430E-06  0.3199985E+04  0.7818609E-02  0.8188821E-01
       -2   -1    0    0    0  501  0.00000000000E+00  0.00000000000E+00  0.15710220500E+04  0.15710220500E+04  0.25500000920E-02 0. -1.
        2   -1    0    0  501    0  0.00000000000E+00  0.00000000000E+00 -0.16294969092E+04  0.16294969092E+04  0.25500000920E-02 0.  1.
    10030    2    1    2    0    0  0.00000000000E+00  0.00000000000E+00 -0.58474859205E+02  0.32005189592E+04  0.31999847342E+04 0.  0.
        4    1    3    3  502    0  0.61644868003E+03  0.49521137216E+03 -0.14204156098E+04  0.16256769038E+04  0.12699999809E+01 0.  1.
       -4    1    3    3    0  502 -0.61644868003E+03 -0.49521137216E+03  0.13619407506E+04  0.15748420553E+04  0.12699999809E+01 0. -1.
</event>
<event>
 5   0  0.8487944E-07  0.3204762E+04  0.7818609E-02  0.8187561E-01
        1   -1    0    0  501    0  0.00000000000E+00  0.00000000000E+00  0.19500708780E+04  0.19500708780E+04  0.50400001928E-02 0.  1.
       -1   -1    0    0    0  501  0.00000000000E+00  0.00000000000E+00 -0.13166825280E+04  0.13166825280E+04  0.50400001928E-02 0. -1.
    10030    2    1    2    0    0  0.00000000000E+00  0.00000000000E+00  0.63338835000E+03  0.32667534060E+04  0.32047616157E+04 0.  0.
        2    1    3    3  502    0 -0.12021934615E+04 -0.49155123110E+03 -0.63993283512E+03  0.14478970147E+04  0.25500000920E-02 0. -1.
       -2    1    3    3    0  502  0.12021934615E+04  0.49155123110E+03  0.12733211851E+04  0.18188563913E+04  0.25500000920E-02 0.  1.
</event>
<event>
 5   0  0.2337504E-06  0.3162409E+04  0.7818609E-02  0.8198816E-01
        2   -1    0    0  501    0  0.00000000000E+00  0.00000000000E+00  0.17117371287E+04  0.17117371287E+04  0.25500000920E-02 0.  1.
       -2   -1    0    0    0  501  0.00000000000E+00  0.00000000000E+00 -0.14606257318E+04  0.14606257318E+04  0.25500000920E-02 0. -1.
    10030    2    1    2    0    0  0.00000000000E+00  0.00000000000E+00  0.25111139687E+03  0.31723628605E+04  0.31624087631E+04 0.  0.
        1    1    3    3  502    0  0.61183435306E+03 -0.14094691911E+04  0.49990940089E+03  0.16158137533E+04  0.50400001928E-02 0.  1.
       -1    1    3    3    0  502 -0.61183435306E+03  0.14094691911E+04 -0.24879800401E+03  0.15565491072E+04  0.50400001928E-02 0. -1.
</event>
<event>
 5   0  0.8383008E-07  0.3193498E+04  0.7818609E-02  0.8190536E-01
       -1   -1    0    0    0  501  0.00000000000E+00  0.00000000000E+00  0.11253227949E+04  0.11253227949E+04  0.50400001928E-02 0.  1.
        1   -1    0    0  501    0  0.00000000000E+00  0.00000000000E+00 -0.22656676232E+04  0.22656676232E+04  0.50400001928E-02 0. -1.
    10030    2    1    2    0    0  0.00000000000E+00  0.00000000000E+00 -0.11403448283E+04  0.33909904182E+04  0.31934980333E+04 0.  0.
        4    1    3    3  502    0 -0.26238707710E+03  0.14199258008E+04  0.15357209287E+03  0.14521095890E+04  0.12699999809E+01 0.  1.
       -4    1    3    3    0  502  0.26238707710E+03 -0.14199258008E+04 -0.12939169212E+04  0.19388808292E+04  0.12699999809E+01 0. -1.
</event>
<event>
 5   0  0.8487944E-07  0.3056115E+04  0.7818609E-02  0.8227886E-01
       -1   -1    0    0    0  501  0.00000000000E+00  0.00000000000E+00  0.18476420269E+04  0.18476420269E+04  0.50400001928E-02 0. -1.
        1   -1    0    0  501    0  0.00000000000E+00  0.00000000000E+00 -0.12637508786E+04  0.12637508786E+04  0.50400001928E-02 0.  1.
    10030    2    1    2    0    0  0.00000000000E+00  0.00000000000E+00  0.58389114829E+03  0.31113929056E+04  0.30561146804E+04 0.  0.
        2    1    3    3  502    0 -0.95568143068E+02  0.13048235537E+04  0.10956943896E+04  0.17065298040E+04  0.25500000920E-02 0. -1.
       -2    1    3    3    0  502  0.95568143068E+02 -0.13048235537E+04 -0.51180324135E+03  0.14048631016E+04  0.25500000920E-02 0.  1.
</event>
<event>
 5   0  0.8681172E-07  0.3204449E+04  0.7818609E-02  0.8187643E-01
        1   -1    0    0  501    0  0.00000000000E+00  0.00000000000E+00  0.24189196209E+04  0.24189196209E+04  0.50400001928E-02 0.  1.
       -1   -1    0    0    0  501  0.00000000000E+00  0.00000000000E+00 -0.10612685403E+04  0.10612685403E+04  0.50400001928E-02 0. -1.
    10030    2    1    2    0    0  0.00000000000E+00  0.00000000000E+00  0.13576510806E+04  0.34801881612E+04  0.32044489668E+04 0.  0.
        1    1    3    3  502    0  0.11768947176E+03  0.60634655767E+01 -0.10565553926E+04  0.10631071794E+04  0.50400001928E-02 0. -1.
       -1    1    3    3    0  502 -0.11768947176E+03 -0.60634655767E+01  0.24142064731E+04  0.24170809818E+04  0.50400001928E-02 0.  1.
</event>
<event>
 5   0  0.2337504E-06  0.3203237E+04  0.7818609E-02  0.8187963E-01
       -2   -1    0    0    0  501  0.00000000000E+00  0.00000000000E+00  0.77415115891E+03  0.77415115891E+03  0.25500000920E-02 0.  1.
        2   -1    0    0  501    0  0.00000000000E+00  0.00000000000E+00 -0.33135415647E+04  0.33135415647E+04  0.25500000920E-02 0. -1.
    10030    2    1    2    0    0  0.00000000000E+00  0.00000000000E+00 -0.25393904058E+04  0.40876927236E+04  0.32032371391E+04 0.  0.
        1    1    3    3  502    0  0.70649951045E+03 -0.20588653971E+03 -0.30850310432E+04  0.31715843617E+04  0.50400001928E-02 0. -1.
       -1    1    3    3    0  502 -0.70649951045E+03  0.20588653971E+03  0.54564063746E+03  0.91610836191E+03  0.50400001928E-02 0.  1.
</event>
<event>
 5   0  0.8545153E-07  0.2728039E+04  0.7818609E-02  0.8325964E-01
       -1   -1    0    0    0  501  0.00000000000E+00  0.00000000000E+00  0.62926444005E+03  0.62926444007E+03  0.50400001928E-02 0.  1.
        1   -1    0    0  501    0  0.00000000000E+00  0.00000000000E+00 -0.29567052296E+04  0.29567052296E+04  0.50400001928E-02 0. -1.
    10030    2    1    2    0    0  0.00000000000E+00  0.00000000000E+00 -0.23274407895E+04  0.35859696697E+04  0.27280391938E+04 0.  0.
        3    1    3    3  502    0  0.72269571322E+03 -0.67366682164E+03 -0.23999199032E+04  0.25953288101E+04  0.10100000352E+00 0. -1.
       -3    1    3    3    0  502 -0.72269571322E+03  0.67366682164E+03  0.72479113697E+02  0.99064085955E+03  0.10100000352E+00 0.  1.
</event>
<event>
 5   0  0.8512855E-07  0.3177542E+04  0.7818609E-02  0.8194774E-01
        1   -1    0    0  501    0  0.00000000000E+00  0.00000000000E+00  0.17257830330E+04  0.17257830330E+04  0.50400001928E-02 0. -1.
       -1   -1    0    0    0  501  0.00000000000E+00  0.00000000000E+00 -0.14626365258E+04  0.14626365258E+04  0.50400001928E-02 0.  1.
    10030    2    1    2    0    0  0.00000000000E+00  0.00000000000E+00  0.26314650726E+03  0.31884195588E+04  0.31775420058E+04 0.  0.
        5    1    3    3  502    0  0.16621038616E+03  0.82979085976E+03 -0.12176458133E+04  0.14828560888E+04  0.46999998093E+01 0.  1.
       -5    1    3    3    0  502 -0.16621038616E+03 -0.82979085976E+03  0.14807923206E+04  0.17055634700E+04  0.46999998093E+01 0. -1.
</event>
<event>
 5   0  0.8545153E-07  0.3122731E+04  0.7818609E-02  0.8209527E-01
        1   -1    0    0  501    0  0.00000000000E+00  0.00000000000E+00  0.17064199225E+04  0.17064199226E+04  0.50400001928E-02 0.  1.
       -1   -1    0    0    0  501  0.00000000000E+00  0.00000000000E+00 -0.14286410719E+04  0.14286410719E+04  0.50400001928E-02 0. -1.
    10030    2    1    2    0    0  0.00000000000E+00  0.00000000000E+00  0.27777885062E+03  0.31350609945E+04  0.31227305919E+04 0.  0.
        3    1    3    3  502    0  0.40528039809E+03 -0.14546773936E+04 -0.25956948410E+03  0.15322254559E+04  0.10100000352E+00 0. -1.
       -3    1    3    3    0  502 -0.40528039809E+03  0.14546773936E+04  0.53734833473E+03  0.16028355385E+04  0.10100000352E+00 0.  1.
</event>
<event>
 5   0  0.2621528E-06  0.3196254E+04  0.7818609E-02  0.8189807E-01
        2   -1    0    0  501    0  0.00000000000E+00  0.00000000000E+00  0.18075801029E+04  0.18075801029E+04  0.25500000920E-02 0. -1.
       -2   -1    0    0    0  501  0.00000000000E+00  0.00000000000E+00 -0.14129445382E+04  0.14129445382E+04  0.25500000920E-02 0.  1.
    10030    2    1    2    0    0  0.00000000000E+00  0.00000000000E+00  0.39463556463E+03  0.32205246411E+04  0.31962543289E+04 0.  0.
        2    1    3    3  502    0 -0.23336634148E+03  0.12292419789E+04 -0.80447263325E+03  0.14875052637E+04  0.25500000920E-02 0.  1.
       -2    1    3    3    0  502  0.23336634148E+03 -0.12292419789E+04  0.11991081979E+04  0.17330193773E+04  0.25500000920E-02 0. -1.
</event>
<event>
 5   0  0.2404430E-06  0.3135777E+04  0.7818609E-02  0.8205987E-01
       -2   -1    0    0    0  501  0.00000000000E+00  0.00000000000E+00  0.20910974137E+04  0.20910974137E+04  0.25500000920E-02 0.  1.
        2   -1    0    0  501    0  0.00000000000E+00  0.00000000000E+00 -0.11755906938E+04  0.11755906938E+04  0.25500000920E-02 0. -1.
    10030    2    1    2    0    0  0.00000000000E+00  0.00000000000E+00  0.91550671993E+03  0.32666881075E+04  0.31357771983E+04 0.  0.
        4    1    3    3  502    0  0.15668681612E+04 -0.49153247647E+02  0.48686959942E+03  0.16415040348E+04  0.12699999809E+01 0.  1.
       -4    1    3    3    0  502 -0.15668681612E+04  0.49153247647E+02  0.42863712052E+03  0.16251840728E+04  0.12699999809E+01 0. -1.
</event>
<event>
 5   0  0.2404430E-06  0.3180068E+04  0.7818609E-02  0.8194101E-01
        2   -1    0    0  501    0  0.00000000000E+00  0.00000000000E+00  0.19172309567E+04  0.19172309567E+04  0.25500000920E-02 0. -1.
       -2   -1    0    0    0  501  0.00000000000E+00  0.00000000000E+00 -0.13186768444E+04  0.13186768444E+04  0.25500000920E-02 0.  1.
    10030    2    1    2    0    0  0.00000000000E+00  0.00000000000E+00  0.59855411231E+03  0.32359078011E+04  0.31800679666E+04 0.  0.
        4    1    3    3  502    0  0.87452451307E+03  0.12124348334E+04 -0.25191248902E+03  0.15159989658E+04  0.12699999809E+01 0.  1.
       -4    1    3    3    0  502 -0.87452451307E+03 -0.12124348334E+04  0.85046660133E+03  0.17199088354E+04  0.12699999809E+01 0. -1.
</event>
<event>
 5   0  0.7934375E-07  0.3199379E+04  0.7818609E-02  0.8188981E-01
       -3   -1    0    0    0  501  0.00000000000E+00  0.00000000000E+00  0.27262543262E+04  0.27262543281E+04  0.10100000352E+00 0.  1.
        3   -1    0    0  501    0  0.00000000000E+00  0.00000000000E+00 -0.93865306422E+03  0.93865306965E+03  0.10100000352E+00 0. -1.
    10030    2    1    2    0    0  0.00000000000E+00  0.00000000000E+00  0.17876012620E+04  0.36649073977E+04  0.31993793089E+04 0.  0.
        5    1    3    3  502    0  0.96437675212E+03  0.55143562658E+03  0.22123176236E+04  0.24755757165E+04  0.46999998093E+01 0.  1.
       -5    1    3    3    0  502 -0.96437675212E+03 -0.55143562658E+03 -0.42471636159E+03  0.11893316813E+04  0.46999998093E+01 0. -1.
</event>
<event>
 5   0  0.8545153E-07  0.3166562E+04  0.7818609E-02  0.8197704E-01
       -1   -1    0    0    0  501  0.00000000000E+00  0.00000000000E+00  0.18512899078E+04  0.18512899078E+04  0.50400001928E-02 0.  1.
        1   -1    0    0  501    0  0.00000000000E+00  0.00000000000E+00 -0.13540712280E+04  0.13540712280E+04  0.50400001928E-02 0. -1.
    10030    2    1    2    0    0  0.00000000000E+00  0.00000000000E+00  0.49721867984E+03  0.32053611358E+04  0.31665617941E+04 0.  0.
        3    1    3    3  502    0 -0.77570684760E+03 -0.13767889198E+04  0.14989758351E+03  0.15873683060E+04  0.10100000352E+00 0. -1.
       -3    1    3    3    0  502  0.77570684760E+03  0.13767889198E+04  0.34732109633E+03  0.16179928298E+04  0.10100000352E+00 0.  1.
</event>
<event>
 5   0  0.8383008E-07  0.3074559E+04  0.7818609E-02  0.8222755E-01
       -1   -1    0    0    0  501  0.00000000000E+00  0.00000000000E+00  0.15119927755E+04  0.15119927755E+04  0.50400001928E-02 0.  1.
        1   -1    0    0  501    0  0.00000000000E+00  0.00000000000E+00 -0.15629890396E+04  0.15629890396E+04  0.50400001928E-02 0. -1.
    10030    2    1    2    0    0  0.00000000000E+00  0.00000000000E+00 -0.50996264038E+02  0.30749818151E+04  0.30745589187E+04 0.  0.
        4    1    3    3  502    0  0.83236645966E+03  0.11113708993E+04 -0.68532164349E+03  0.15484335850E+04  0.12699999809E+01 0. -1.
       -4    1    3    3    0  502 -0.83236645966E+03 -0.11113708993E+04  0.63432537945E+03  0.15265482302E+04  0.12699999809E+01 0.  1.
</event>
<event>
 5   0  0.2401139E-06  0.3182671E+04  0.7818609E-02  0.8193409E-01
        2   -1    0    0  501    0  0.00000000000E+00  0.00000000000E+00  0.17316202486E+04  0.17316202486E+04  0.25500000920E-02 0. -1.
       -2   -1    0    0    0  501  0.00000000000E+00  0.00000000000E+00 -0.14624160247E+04  0.14624160247E+04  0.25500000920E-02 0.  1.
    10030    2    1    2    0    0  0.00000000000E+00  0.00000000000E+00  0.26920422392E+03  0.31940362733E+04  0.31826713310E+04 0.  0.
        5    1    3    3  502    0  0.37394135084E+03  0.43546206120E+03  0.16241081437E+04  0.17225587633E+04  0.46999998093E+01 0. -1.
       -5    1    3    3    0  502 -0.37394135084E+03 -0.43546206120E+03 -0.13549039198E+04  0.14714775100E+04  0.46999998093E+01 0.  1.
</event>
<event>
 5   0  0.8512855E-07  0.3175357E+04  0.7818609E-02  0.8195356E-01
        1   -1    0    0  501    0  0.00000000000E+00  0.00000000000E+00  0.17670525307E+04  0.17670525307E+04  0.50400001928E-02 0.  1.
       -1   -1    0    0    0  501  0.00000000000E+00  0.00000000000E+00 -0.14265126595E+04  0.14265126595E+04  0.50400001928E-02 0. -1.
    10030    2    1    2    0    0  0.00000000000E+00  0.00000000000E+00  0.34053987118E+03  0.31935651902E+04  0.31753568650E+04 0.  0.
        5    1    3    3  502    0 -0.16813547552E+02  0.14329391364E+04 -0.51709881284E+03  0.15234863099E+04  0.46999998093E+01 0. -1.
       -5    1    3    3    0  502  0.16813547552E+02 -0.14329391364E+04  0.85763868401E+03  0.16700788803E+04  0.46999998093E+01 0.  1.
</event>
<event>
 5   0  0.8487944E-07  0.3186422E+04  0.7818609E-02  0.8192412E-01
        1   -1    0    0  501    0  0.00000000000E+00  0.00000000000E+00  0.16923631231E+04  0.16923631231E+04  0.50400001928E-02 0.  1.
       -1   -1    0    0    0  501  0.00000000000E+00  0.00000000000E+00 -0.14998682165E+04  0.14998682165E+04  0.50400001928E-02 0. -1.
    10030    2    1    2    0    0  0.00000000000E+00  0.00000000000E+00  0.19249490665E+03  0.31922313396E+04  0.31864222314E+04 0.  0.
        2    1    3    3  502    0  0.58736183328E+03  0.13931215671E+04  0.59969722924E+03  0.16264742207E+04  0.25500000920E-02 0.  1.
       -2    1    3    3    0  502 -0.58736183328E+03 -0.13931215671E+04 -0.40720232260E+03  0.15657571189E+04  0.25500000920E-02 0. -1.
</event>
<event>
 5   0  0.2466076E-06  0.3195750E+04  0.7818609E-02  0.8189941E-01
       -2   -1    0    0    0  501  0.00000000000E+00  0.00000000000E+00  0.20843931256E+04  0.20843931256E+04  0.25500000920E-02 0. -1.
        2   -1    0    0  501    0  0.00000000000E+00  0.00000000000E+00 -0.12249148138E+04  0.12249148138E+04  0.25500000920E-02 0.  1.
    10030    2    1    2    0    0  0.00000000000E+00  0.00000000000E+00  0.85947831174E+03  0.33093079394E+04  0.31957496882E+04 0.  0.
        3    1    3    3  502    0  0.52427797056E+03 -0.19251137749E+03 -0.11205478076E+04  0.12520205350E+04  0.10100000352E+00 0.  1.
       -3    1    3    3    0  502 -0.52427797056E+03  0.19251137749E+03  0.19800261193E+04  0.20572874044E+04  0.10100000352E+00 0. -1.
</event>
<event>
 5   0  0.8545153E-07  0.3178291E+04  0.7818609E-02  0.8194574E-01
        1   -1    0    0  501    0  0.00000000000E+00  0.00000000000E+00  0.19501248672E+04  0.19501248672E+04  0.50400001928E-02 0. -1.
       -1   -1    0    0    0  501  0.00000000000E+00  0.00000000000E+00 -0.12949855961E+04  0.12949855961E+04  0.50400001928E-02 0.  1.
    10030    2    1    2    0    0  0.00000000000E+00  0.00000000000E+00  0.65513927111E+03  0.32451104634E+04  0.31782911218E+04 0.  0.
        3    1    3    3  502    0 -0.39557314572E+03 -0.26607045995E+03  0.18753930257E+04  0.19350376261E+04  0.10100000352E+00 0. -1.
       -3    1    3    3    0  502  0.39557314572E+03  0.26607045995E+03 -0.12202537546E+04  0.13100728373E+04  0.10100000352E+00 0.  1.
</event>
<event>
 5   0  0.8545153E-07  0.3242875E+04  0.7818609E-02  0.8177585E-01
       -1   -1    0    0    0  501  0.00000000000E+00  0.00000000000E+00  0.30070131543E+04  0.30070131543E+04  0.50400001928E-02 0.  1.
        1   -1    0    0  501    0  0.00000000000E+00  0.00000000000E+00 -0.87430904146E+03  0.87430904147E+03  0.50400001928E-02 0. -1.
    10030    2    1    2    0    0  0.00000000000E+00  0.00000000000E+00  0.21327041128E+04  0.38813221958E+04  0.32428745203E+04 0.  0.
        3    1    3    3  502    0  0.49860280795E+03 -0.48934080344E+03 -0.68493704150E+03  0.97836493346E+03  0.10100000352E+00 0. -1.
       -3    1    3    3    0  502 -0.49860280795E+03  0.48934080344E+03  0.28176411543E+04  0.29029572623E+04  0.10100000352E+00 0.  1.
</event>
<event>
 5   0  0.8545153E-07  0.3181348E+04  0.7818609E-02  0.8193761E-01
        1   -1    0    0  501    0  0.00000000000E+00  0.00000000000E+00  0.17912747540E+04  0.17912747540E+04  0.50400001928E-02 0. -1.
       -1   -1    0    0    0  501  0.00000000000E+00  0.00000000000E+00 -0.14125377531E+04  0.14125377531E+04  0.50400001928E-02 0.  1.
    10030    2    1    2    0    0  0.00000000000E+00  0.00000000000E+00  0.37873700090E+03  0.32038125072E+04  0.31813476492E+04 0.  0.
        3    1    3    3  502    0 -0.75043966016E+03  0.10651009888E+04 -0.72956796538E+03  0.14932746653E+04  0.10100000352E+00 0.  1.
       -3    1    3    3    0  502  0.75043966016E+03 -0.10651009888E+04  0.11083049663E+04  0.17105378418E+04  0.10100000352E+00 0. -1.
</event>
<event>
 5   0  0.8487944E-07  0.3204328E+04  0.7818609E-02  0.8187675E-01
        1   -1    0    0  501    0  0.00000000000E+00  0.00000000000E+00  0.24341380270E+04  0.24341380270E+04  0.50400001928E-02 0.  1.
       -1   -1    0    0    0  501  0.00000000000E+00  0.00000000000E+00 -0.10545540443E+04  0.10545540443E+04  0.50400001928E-02 0. -1.
    10030    2    1    2    0    0  0.00000000000E+00  0.00000000000E+00  0.13795839826E+04  0.34886920713E+04  0.32043283857E+04 0.  0.
        2    1    3    3  502    0  0.77156550402E+03  0.13332414233E+04  0.11694377172E+04  0.19340192849E+04  0.25500000920E-02 0.  1.
       -2    1    3    3    0  502 -0.77156550402E+03 -0.13332414233E+04  0.21014626540E+03  0.15546727864E+04  0.25500000920E-02 0. -1.
</event>
<event>
 5   0  0.8383008E-07  0.3196136E+04  0.7818609E-02  0.8189838E-01
        1   -1    0    0  501    0  0.00000000000E+00  0.00000000000E+00  0.15338888320E+04  0.15338888320E+04  0.50400001928E-02 0.  1.
       -1   -1    0    0    0  501  0.00000000000E+00  0.00000000000E+00 -0.16649327881E+04  0.16649327881E+04  0.50400001928E-02 0. -1.
    10030    2    1    2    0    0  0.00000000000E+00  0.00000000000E+00 -0.13104395616E+03  0.31988216201E+04  0.31961362986E+04 0.  0.
        4    1    3    3  502    0  0.89289742226E+03  0.12483660634E+04 -0.51102129502E+03  0.16176612785E+04  0.12699999809E+01 0.  1.
       -4    1    3    3    0  502 -0.89289742226E+03 -0.12483660634E+04  0.37997733886E+03  0.15811603416E+04  0.12699999809E+01 0. -1.
</event>
<event>
 5   0  0.8383008E-07  0.3196800E+04  0.7818609E-02  0.8189663E-01
       -1   -1    0    0    0  501  0.00000000000E+00  0.00000000000E+00  0.15688595255E+04  0.15688595255E+04  0.50400001928E-02 0.  1.
        1   -1    0    0  501    0  0.00000000000E+00  0.00000000000E+00 -0.16284968015E+04  0.16284968016E+04  0.50400001928E-02 0. -1.
    10030    2    1    2    0    0  0.00000000000E+00  0.00000000000E+00 -0.59637276071E+02  0.31973563270E+04  0.31968000997E+04 0.  0.
        4    1    3    3  502    0  0.52434035708E+03  0.68777504738E+03 -0.13742674557E+04  0.16237549010E+04  0.12699999809E+01 0. -1.
       -4    1    3    3    0  502 -0.52434035708E+03 -0.68777504738E+03  0.13146301796E+04  0.15736014260E+04  0.12699999809E+01 0.  1.
</event>
<event>
 5   0  0.2466076E-06  0.3206082E+04  0.7818609E-02  0.8187213E-01
       -2   -1    0    0    0  501  0.00000000000E+00  0.00000000000E+00  0.12382987638E+04  0.12382987638E+04  0.25500000920E-02 0. -1.
        2   -1    0    0  501    0  0.00000000000E+00  0.00000000000E+00 -0.20752188419E+04  0.20752188419E+04  0.25500000920E-02 0.  1.
    10030    2    1    2    0    0  0.00000000000E+00  0.00000000000E+00 -0.83692007805E+03  0.33135176057E+04  0.32060822987E+04 0.  0.
        3    1    3    3  502    0  0.82905312665E+03 -0.13703016383E+04 -0.34771744486E+03  0.16388908134E+04  0.10100000352E+00 0. -1.
       -3    1    3    3    0  502 -0.82905312665E+03  0.13703016383E+04 -0.48920263319E+03  0.16746267922E+04  0.10100000352E+00 0.  1.
</event>
<event>
 5   0  0.2404430E-06  0.3196460E+04  0.7818609E-02  0.8189753E-01
        2   -1    0    0  501    0  0.00000000000E+00  0.00000000000E+00  0.26472058599E+04  0.26472058599E+04  0.25500000920E-02 0.  1.
       -2   -1    0    0    0  501  0.00000000000E+00  0.00000000000E+00 -0.96491906971E+03  0.96491906972E+03  0.25500000920E-02 0. -1.
    10030    2    1    2    0    0  0.00000000000E+00  0.00000000000E+00  0.16822867901E+04  0.36121249296E+04  0.31964601769E+04 0.  0.
        4    1    3    3  502    0  0.81201044816E+03 -0.64946454619E+03 -0.53043389698E+03  0.11672732742E+04  0.12699999809E+01 0. -1.
       -4    1    3    3    0  502 -0.81201044816E+03  0.64946454619E+03  0.22127206871E+04  0.24448516554E+04  0.12699999809E+01 0.  1.
</event>
<event>
 5   0  0.2404430E-06  0.3157367E+04  0.7818609E-02  0.8200168E-01
        2   -1    0    0  501    0  0.00000000000E+00  0.00000000000E+00  0.16023569008E+04  0.16023569008E+04  0.25500000920E-02 0. -1.
       -2   -1    0    0    0  501  0.00000000000E+00  0.00000000000E+00 -0.15553598998E+04  0.15553598998E+04  0.25500000920E-02 0.  1.
    10030    2    1    2    0    0  0.00000000000E+00  0.00000000000E+00  0.46997000957E+02  0.31577168006E+04  0.31573670478E+04 0.  0.
        4    1    3    3  502    0  0.15435677653E+04  0.21346662852E+03 -0.22965126496E+03  0.15750907161E+04  0.12699999809E+01 0. -1.
       -4    1    3    3    0  502 -0.15435677653E+04 -0.21346662852E+03  0.27664826591E+03  0.15826260845E+04  0.12699999809E+01 0.  1.
</event>
<event>
 5   0  0.8512855E-07  0.2773472E+04  0.7818609E-02  0.8311552E-01
        1   -1    0    0  501    0  0.00000000000E+00  0.00000000000E+00  0.81465861950E+03  0.81465861951E+03  0.50400001928E-02 0.  1.
       -1   -1    0    0    0  501  0.00000000000E+00  0.00000000000E+00 -0.23605428716E+04  0.23605428716E+04  0.50400001928E-02 0. -1.
    10030    2    1    2    0    0  0.00000000000E+00  0.00000000000E+00 -0.15458842521E+04  0.31752014912E+04  0.27734719015E+04 0.  0.
        5    1    3    3  502    0  0.48095349907E+03  0.40384602206E+03 -0.21883949164E+04  0.22767306116E+04  0.46999998093E+01 0. -1.
       -5    1    3    3    0  502 -0.48095349907E+03 -0.40384602206E+03  0.64251066422E+03  0.89847087957E+03  0.46999998093E+01 0.  1.
</event>
<event>
 5   0  0.8545153E-07  0.3192737E+04  0.7818609E-02  0.8190738E-01
        1   -1    0    0  501    0  0.00000000000E+00  0.00000000000E+00  0.13499985445E+04  0.13499985445E+04  0.50400001928E-02 0.  1.
       -1   -1    0    0    0  501  0.00000000000E+00  0.00000000000E+00 -0.18877001638E+04  0.18877001638E+04  0.50400001928E-02 0. -1.
    10030    2    1    2    0    0  0.00000000000E+00  0.00000000000E+00 -0.53770161927E+03  0.32376987084E+04  0.31927370538E+04 0.  0.
        3    1    3    3  502    0 -0.26879557033E+02 -0.14421383115E+04  0.42481944324E+03  0.15036478942E+04  0.10100000352E+00 0.  1.
       -3    1    3    3    0  502  0.26879557033E+02  0.14421383115E+04 -0.96252106250E+03  0.17340508142E+04  0.10100000352E+00 0. -1.
</event>
<event>
 5   0  0.2404430E-06  0.3204946E+04  0.7818609E-02  0.8187512E-01
       -2   -1    0    0    0  501  0.00000000000E+00  0.00000000000E+00  0.19066063834E+04  0.19066063834E+04  0.25500000920E-02 0.  1.
        2   -1    0    0  501    0  0.00000000000E+00  0.00000000000E+00 -0.13468537135E+04  0.13468537135E+04  0.25500000920E-02 0. -1.
    10030    2    1    2    0    0  0.00000000000E+00  0.00000000000E+00  0.55975266986E+03  0.32534600969E+04  0.32049461073E+04 0.  0.
        4    1    3    3  502    0  0.15009014218E+04  0.68047263655E+02  0.84561183373E+03  0.17240639473E+04  0.12699999809E+01 0. -1.
       -4    1    3    3    0  502 -0.15009014218E+04 -0.68047263655E+02 -0.28585916387E+03  0.15293961496E+04  0.12699999809E+01 0.  1.
</event>
<event>
 5   0  0.2401139E-06  0.2885420E+04  0.7818609E-02  0.8277229E-01
       -2   -1    0    0    0  501  0.00000000000E+00  0.00000000000E+00  0.14051063245E+04  0.14051063245E+04  0.25500000920E-02 0.  1.
        2   -1    0    0  501    0  0.00000000000E+00  0.00000000000E+00 -0.14813198885E+04  0.14813198885E+04  0.25500000920E-02 0. -1.
    10030    2    1    2    0    0  0.00000000000E+00  0.00000000000E+00 -0.76213564014E+02  0.28864262131E+04  0.28854198613E+04 0.  0.
        5    1    3    3  502    0  0.12718865636E+04 -0.65448854771E+03  0.14994592117E+03  0.14382477391E+04  0.46999998093E+01 0. -1.
       -5    1    3    3    0  502 -0.12718865636E+04  0.65448854771E+03 -0.22615948518E+03  0.14481784740E+04  0.46999998093E+01 0.  1.
</event>
<event>
 5   0  0.8512855E-07  0.3198221E+04  0.7818609E-02  0.8189287E-01
       -1   -1    0    0    0  501  0.00000000000E+00  0.00000000000E+00  0.19129563191E+04  0.19129563191E+04  0.50400001928E-02 0.  1.
        1   -1    0    0  501    0  0.00000000000E+00  0.00000000000E+00 -0.13367555337E+04  0.13367555337E+04  0.50400001928E-02 0. -1.
    10030    2    1    2    0    0  0.00000000000E+00  0.00000000000E+00  0.57620078544E+03  0.32497118528E+04  0.31982213465E+04 0.  0.
        5    1    3    3  502    0  0.24651452639E+03 -0.14325857804E+03  0.18869133583E+04  0.19083386868E+04  0.46999998093E+01 0.  1.
       -5    1    3    3    0  502 -0.24651452639E+03  0.14325857804E+03 -0.13107125728E+04  0.13413731660E+04  0.46999998093E+01 0. -1.
</event>
<event>
 5   0  0.8545153E-07  0.3162096E+04  0.7818609E-02  0.8198900E-01
       -1   -1    0    0    0  501  0.00000000000E+00  0.00000000000E+00  0.22208810668E+04  0.22208810668E+04  0.50400001928E-02 0.  1.
        1   -1    0    0  501    0  0.00000000000E+00  0.00000000000E+00 -0.11255501134E+04  0.11255501134E+04  0.50400001928E-02 0. -1.
    10030    2    1    2    0    0  0.00000000000E+00  0.00000000000E+00  0.10953309534E+04  0.33464311803E+04  0.31620961002E+04 0.  0.
        3    1    3    3  502    0  0.15709798505E+04 -0.12780579507E+03  0.67900035899E+03  0.17162032251E+04  0.10100000352E+00 0.  1.
       -3    1    3    3    0  502 -0.15709798505E+04  0.12780579507E+03  0.41633059442E+03  0.16302279552E+04  0.10100000352E+00 0. -1.
</event>
<event>
 5   0  0.2621528E-06  0.2922722E+04  0.7818609E-02  0.8266149E-01
        2   -1    0    0  501    0  0.00000000000E+00  0.00000000000E+00  0.10294206780E+04  0.10294206780E+04  0.25500000920E-02 0.  1.
       -2   -1    0    0    0  501  0.00000000000E+00  0.00000000000E+00 -0.20745408974E+04  0.20745408974E+04  0.25500000920E-02 0. -1.
    10030    2    1    2    0    0  0.00000000000E+00  0.00000000000E+00 -0.10451202193E+04  0.31039615754E+04  0.29227215380E+04 0.  0.
        2    1    3    3  502    0 -0.10674489820E+04 -0.33884177173E+03 -0.15195581062E+04  0.18876752670E+04  0.25500000920E-02 0. -1.
       -2    1    3    3    0  502  0.10674489820E+04  0.33884177173E+03  0.47443788688E+03  0.12162863084E+04  0.25500000920E-02 0.  1.
</event>
<event>
 5   0  0.2401139E-06  0.3046336E+04  0.7818609E-02  0.8230622E-01
        2   -1    0    0  501    0  0.00000000000E+00  0.00000000000E+00  0.21180644673E+04  0.21180644673E+04  0.25500000920E-02 0. -1.
       -2   -1    0    0    0  501  0.00000000000E+00  0.00000000000E+00 -0.10953592162E+04  0.10953592162E+04  0.25500000920E-02 0.  1.
    10030    2    1    2    0    0  0.00000000000E+00  0.00000000000E+00  0.10227052511E+04  0.32134236835E+04  0.30463364455E+04 0.  0.
        5    1    3    3  502    0  0.87227476633E+02  0.34610989083E+03  0.20733189859E+04  0.21038237561E+04  0.46999998093E+01 0. -1.
       -5    1    3    3    0  502 -0.87227476633E+02 -0.34610989083E+03 -0.10506137348E+04  0.11095999275E+04  0.46999998093E+01 0.  1.
</event>
<event>
 5   0  0.2337504E-06  0.3058828E+04  0.7818609E-02  0.8227129E-01
       -2   -1    0    0    0  501  0.00000000000E+00  0.00000000000E+00  0.13869737540E+04  0.13869737540E+04  0.25500000920E-02 0. -1.
        2   -1    0    0  501    0  0.00000000000E+00  0.00000000000E+00 -0.16864828601E+04  0.16864828601E+04  0.25500000920E-02 0.  1.
    10030    2    1    2    0    0  0.00000000000E+00  0.00000000000E+00 -0.29950910613E+03  0.30734566141E+04  0.30588281832E+04 0.  0.
        1    1    3    3  502    0  0.10513584589E+04  0.10249863459E+04 -0.57976835511E+03  0.15786332583E+04  0.50400001928E-02 0.  1.
       -1    1    3    3    0  502 -0.10513584589E+04 -0.10249863459E+04  0.28025924898E+03  0.14948233558E+04  0.50400001928E-02 0. -1.
</event>
<event>
 5   0  0.2404430E-06  0.3189676E+04  0.7818609E-02  0.8191549E-01
        2   -1    0    0  501    0  0.00000000000E+00  0.00000000000E+00  0.20978312538E+04  0.20978312538E+04  0.25500000920E-02 0. -1.
       -2   -1    0    0    0  501  0.00000000000E+00  0.00000000000E+00 -0.12124467231E+04  0.12124467231E+04  0.25500000920E-02 0.  1.
    10030    2    1    2    0    0  0.00000000000E+00  0.00000000000E+00  0.88538453072E+03  0.33102779769E+04  0.31896762401E+04 0.  0.
        4    1    3    3  502    0 -0.59554659301E+03  0.11453432991E+03  0.19734930655E+04  0.20645751015E+04  0.12699999809E+01 0. -1.
       -4    1    3    3    0  502  0.59554659301E+03 -0.11453432991E+03 -0.10881085348E+04  0.12457028753E+04  0.12699999809E+01 0.  1.
</event>
<event>
 5   0  0.2401139E-06  0.3104191E+04  0.7818609E-02  0.8214589E-01
       -2   -1    0    0    0  501  0.00000000000E+00  0.00000000000E+00  0.12140738996E+04  0.12140738996E+04  0.25500000920E-02 0. -1.
        2   -1    0    0  501    0  0.00000000000E+00  0.00000000000E+00 -0.19842294469E+04  0.19842294469E+04  0.25500000920E-02 0.  1.
    10030    2    1    2    0    0  0.00000000000E+00  0.00000000000E+00 -0.77015554736E+03  0.31983033465E+04  0.31041914775E+04 0.  0.
        5    1    3    3  502    0  0.39865875384E+03 -0.15568082668E+03 -0.19222253432E+04  0.19692987793E+04  0.46999998093E+01 0.  1.
       -5    1    3    3    0  502 -0.39865875384E+03  0.15568082668E+03  0.11520697959E+04  0.12290045673E+04  0.46999998093E+01 0. -1.
</event>
<event>
 5   0  0.2466076E-06  0.3071809E+04  0.7818609E-02  0.8223517E-01
       -2   -1    0    0    0  501  0.00000000000E+00  0.00000000000E+00  0.94597742943E+03  0.94597742943E+03  0.25500000920E-02 0.  1.
        2   -1    0    0  501    0  0.00000000000E+00  0.00000000000E+00 -0.24937202608E+04  0.24937202608E+04  0.25500000920E-02 0. -1.
    10030    2    1    2    0    0  0.00000000000E+00  0.00000000000E+00 -0.15477428314E+04  0.34396976902E+04  0.30718092923E+04 0.  0.
        3    1    3    3  502    0  0.65301306484E+03 -0.20205796234E+03  0.76626024601E+03  0.10268438332E+04  0.10100000352E+00 0.  1.
       -3    1    3    3    0  502 -0.65301306484E+03  0.20205796234E+03 -0.23140030774E+04  0.24128538570E+04  0.10100000352E+00 0. -1.
</event>
<event>
 5   0  0.8383008E-07  0.3396060E+04  0.7818609E-02  0.8138874E-01
        1   -1    0    0  501    0  0.00000000000E+00  0.00000000000E+00  0.16553171088E+04  0.16553171088E+04  0.50400001928E-02 0.  1.
       -1   -1    0    0    0  501  0.00000000000E+00  0.00000000000E+00 -0.17418446975E+04  0.17418446975E+04  0.50400001928E-02 0. -1.
    10030    2    1    2    0    0  0.00000000000E+00  0.00000000000E+00 -0.86527588678E+02  0.33971618063E+04  0.33960596748E+04 0.  0.
        4    1    3    3  502    0  0.76457134361E+03  0.30795972200E+03 -0.15282977633E+04  0.17364055391E+04  0.12699999809E+01 0. -1.
       -4    1    3    3    0  502 -0.76457134361E+03 -0.30795972200E+03  0.14417701746E+04  0.16607562672E+04  0.12699999809E+01 0.  1.
</event>
<event>
 5   0  0.2401139E-06  0.3225290E+04  0.7818609E-02  0.8182170E-01
       -2   -1    0    0    0  501  0.00000000000E+00  0.00000000000E+00  0.12436236571E+04  0.12436236571E+04  0.25500000920E-02 0. -1.
        2   -1    0    0  501    0  0.00000000000E+00  0.00000000000E+00 -0.20911659599E+04  0.20911659599E+04  0.25500000920E-02 0.  1.
    10030    2    1    2    0    0  0.00000000000E+00  0.00000000000E+00 -0.84754230283E+03  0.33347896170E+04  0.32252897288E+04 0.  0.
        5    1    3    3  502    0  0.47782296325E+03  0.47222783195E+02  0.11679942671E+04  0.12628449918E+04  0.46999998093E+01 0. -1.
       -5    1    3    3    0  502 -0.47782296325E+03 -0.47222783195E+02 -0.20155365699E+04  0.20719446252E+04  0.46999998093E+01 0.  1.
</event>
<event>
 5   0  0.8512855E-07  0.3213853E+04  0.7818609E-02  0.8185168E-01
       -1   -1    0    0    0  501  0.00000000000E+00  0.00000000000E+00  0.14222262214E+04  0.14222262214E+04  0.50400001928E-02 0. -1.
        1   -1    0    0  501    0  0.00000000000E+00  0.00000000000E+00 -0.18156134485E+04  0.18156134485E+04  0.50400001928E-02 0.  1.
    10030    2    1    2    0    0  0.00000000000E+00  0.00000000000E+00 -0.39338722715E+03  0.32378396699E+04  0.32138531730E+04 0.  0.
        5    1    3    3  502    0 -0.23056250407E+03  0.10888926100E+04 -0.13643714954E+04  0.17607889857E+04  0.46999998093E+01 0.  1.
       -5    1    3    3    0  502  0.23056250407E+03 -0.10888926100E+04  0.97098426828E+03  0.14770506842E+04  0.46999998093E+01 0. -1.
</event>
<event>
 5   0  0.8512855E-07  0.3158283E+04  0.7818609E-02  0.8199922E-01
       -1   -1    0    0    0  501  0.00000000000E+00  0.00000000000E+00  0.13023973908E+04  0.13023973908E+04  0.50400001928E-02 0. -1.
        1   -1    0    0  501    0  0.00000000000E+00  0.00000000000E+00 -0.19146901349E+04  0.19146901349E+04  0.50400001928E-02 0.  1.
    10030    2    1    2    0    0  0.00000000000E+00  0.00000000000E+00 -0.61229274405E+03  0.32170875257E+04  0.31582827206E+04 0.  0.
        5    1    3    3  502    0 -0.61471027966E+03 -0.11467916395E+04  0.60531327246E+03  0.14350700471E+04  0.46999998093E+01 0. -1.
       -5    1    3    3    0  502  0.61471027966E+03  0.11467916395E+04 -0.12176060165E+04  0.17820174785E+04  0.46999998093E+01 0.  1.
</event>
<event>
 5   0  0.8512855E-07  0.3248505E+04  0.7818609E-02  0.8176123E-01
        1   -1    0    0  501    0  0.00000000000E+00  0.00000000000E+00  0.24315656422E+04  0.24315656422E+04  0.50400001928E-02 0. -1.
       -1   -1    0    0    0  501  0.00000000000E+00  0.00000000000E+00 -0.10849785948E+04  0.10849785948E+04  0.50400001928E-02 0.  1.
    10030    2    1    2    0    0  0.00000000000E+00  0.00000000000E+00  0.13465870474E+04  0.35165442370E+04  0.32485053016E+04 0.  0.
        5    1    3    3  502    0 -0.38505022765E+03 -0.10452582710E+03  0.23776854850E+04  0.24109333632E+04  0.46999998093E+01 0. -1.
       -5    1    3    3    0  502  0.38505022765E+03  0.10452582710E+03 -0.10310984375E+04  0.11056108738E+04  0.46999998093E+01 0.  1.
</event>
<event>
 5   0  0.8681172E-07  0.3202247E+04  0.7818609E-02  0.8188224E-01
        1   -1    0    0  501    0  0.00000000000E+00  0.00000000000E+00  0.19468721697E+04  0.19468721697E+04  0.50400001928E-02 0. -1.
       -1   -1    0    0    0  501  0.00000000000E+00  0.00000000000E+00 -0.13167772537E+04  0.13167772537E+04  0.50400001928E-02 0.  1.
    10030    2    1    2    0    0  0.00000000000E+00  0.00000000000E+00  0.63009491598E+03  0.32636494234E+04  0.32022473289E+04 0.  0.
        1    1    3    3  502    0 -0.88205929915E+03 -0.16395500190E+02  0.16768187654E+04  0.18947344383E+04  0.50400001928E-02 0. -1.
       -1    1    3    3    0  502  0.88205929915E+03  0.16395500190E+02 -0.10467238494E+04  0.13689149851E+04  0.50400001928E-02 0.  1.
</event>
<event>
 5   0  0.2466076E-06  0.3198768E+04  0.7818609E-02  0.8189143E-01
        2   -1    0    0  501    0  0.00000000000E+00  0.00000000000E+00  0.19081282854E+04  0.19081282854E+04  0.25500000920E-02 0.  1.
       -2   -1    0    0    0  501  0.00000000000E+00  0.00000000000E+00 -0.13405963200E+04  0.13405963200E+04  0.25500000920E-02 0. -1.
    10030    2    1    2    0    0  0.00000000000E+00  0.00000000000E+00  0.56753196543E+03  0.32487246054E+04  0.31987683614E+04 0.  0.
        3    1    3    3  502    0  0.65468872154E+03  0.31679389684E+03  0.17304607616E+04  0.18770908750E+04  0.10100000352E+00 0.  1.
       -3    1    3    3    0  502 -0.65468872154E+03 -0.31679389684E+03 -0.11629287962E+04  0.13716337304E+04  0.10100000352E+00 0. -1.
</event>
<event>
 5   0  0.7934375E-07  0.3181921E+04  0.7818609E-02  0.8193608E-01
       -4   -1    0    0    0  501  0.00000000000E+00  0.00000000000E+00  0.13239122154E+04  0.13239128246E+04  0.12699999809E+01 0. -1.
        4   -1    0    0  501    0  0.00000000000E+00  0.00000000000E+00 -0.19118742718E+04  0.19118746936E+04  0.12699999809E+01 0.  1.
    10030    2    1    2    0    0  0.00000000000E+00  0.00000000000E+00 -0.58796205634E+03  0.32357875182E+04  0.31819210366E+04 0.  0.
        1    1    3    3  502    0  0.61168107106E+03 -0.14619023845E+04 -0.15073094614E+03  0.15918643575E+04  0.50400001928E-02 0.  1.
       -1    1    3    3    0  502 -0.61168107106E+03  0.14619023845E+04 -0.43723111020E+03  0.16439231607E+04  0.50400001928E-02 0. -1.
</event>
<event>
 5   0  0.8383008E-07  0.3203920E+04  0.7818609E-02  0.8187783E-01
       -1   -1    0    0    0  501  0.00000000000E+00  0.00000000000E+00  0.19813647311E+04  0.19813647311E+04  0.50400001928E-02 0.  1.
        1   -1    0    0  501    0  0.00000000000E+00  0.00000000000E+00 -0.12952062499E+04  0.12952062499E+04  0.50400001928E-02 0. -1.
    10030    2    1    2    0    0  0.00000000000E+00  0.00000000000E+00  0.68615848119E+03  0.32765709810E+04  0.32039200883E+04 0.  0.
        4    1    3    3  502    0  0.89368787601E+02  0.14964504737E+04  0.92061810353E+03  0.17592299753E+04  0.12699999809E+01 0.  1.
       -4    1    3    3    0  502 -0.89368787601E+02 -0.14964504737E+04 -0.23445962233E+03  0.15173410058E+04  0.12699999809E+01 0. -1.
</event>
<event>
 5   0  0.2404430E-06  0.3209310E+04  0.7818609E-02  0.8186363E-01
        2   -1    0    0  501    0  0.00000000000E+00  0.00000000000E+00  0.21853619386E+04  0.21853619386E+04  0.25500000920E-02 0. -1.
       -2   -1    0    0    0  501  0.00000000000E+00  0.00000000000E+00 -0.11782565692E+04  0.11782565692E+04  0.25500000920E-02 0.  1.
    10030    2    1    2    0    0  0.00000000000E+00  0.00000000000E+00  0.10071053694E+04  0.33636185078E+04  0.32093096206E+04 0.  0.
        4    1    3    3  502    0  0.96642333106E+03  0.12082800574E+04  0.94945038967E+03  0.18153160627E+04  0.12699999809E+01 0. -1.
       -4    1    3    3    0  502 -0.96642333106E+03 -0.12082800574E+04  0.57654979754E+02  0.15483024451E+04  0.12699999809E+01 0.  1.
</event>
<event>
 5   0  0.2621528E-06  0.3225294E+04  0.7818609E-02  0.8182169E-01
        2   -1    0    0  501    0  0.00000000000E+00  0.00000000000E+00  0.93037379659E+03  0.93037379659E+03  0.25500000920E-02 0.  1.
       -2   -1    0    0    0  501  0.00000000000E+00  0.00000000000E+00 -0.27952523575E+04  0.27952523575E+04  0.25500000920E-02 0. -1.
    10030    2    1    2    0    0  0.00000000000E+00  0.00000000000E+00 -0.18648785609E+04  0.37256261541E+04  0.32252935050E+04 0.  0.
        2    1    3    3  502    0 -0.28896438582E+02  0.71424451942E+03  0.73736948193E+03  0.10269829553E+04  0.25500000920E-02 0.  1.
       -2    1    3    3    0  502  0.28896438582E+02 -0.71424451942E+03 -0.26022480428E+04  0.26986431988E+04  0.25500000920E-02 0. -1.
</event>
<event>
 5   0  0.8681172E-07  0.3206388E+04  0.7818609E-02  0.8187132E-01
       -1   -1    0    0    0  501  0.00000000000E+00  0.00000000000E+00  0.85330255751E+03  0.85330255752E+03  0.50400001928E-02 0. -1.
        1   -1    0    0  501    0  0.00000000000E+00  0.00000000000E+00 -0.30120982901E+04  0.30120982901E+04  0.50400001928E-02 0.  1.
    10030    2    1    2    0    0  0.00000000000E+00  0.00000000000E+00 -0.21587957326E+04  0.38654008477E+04  0.32063881078E+04 0.  0.
        1    1    3    3  502    0  0.12725730928E+04 -0.54233017654E+02 -0.22530725142E+04  0.25881884110E+04  0.50400001928E-02 0.  1.
       -1    1    3    3    0  502 -0.12725730928E+04  0.54233017654E+02  0.94276781603E+02  0.12772124366E+04  0.50400001928E-02 0. -1.
</event>
<event>
 5   0  0.2401139E-06  0.3213849E+04  0.7818609E-02  0.8185169E-01
       -2   -1    0    0    0  501  0.00000000000E+00  0.00000000000E+00  0.13250377375E+04  0.13250377375E+04  0.25500000920E-02 0.  1.
        2   -1    0    0  501    0  0.00000000000E+00  0.00000000000E+00 -0.19487796786E+04  0.19487796786E+04  0.25500000920E-02 0. -1.
    10030    2    1    2    0    0  0.00000000000E+00  0.00000000000E+00 -0.62374194111E+03  0.32738174161E+04  0.32138491665E+04 0.  0.
        5    1    3    3  502    0 -0.80459456760E+03 -0.48767995331E+02  0.11041877921E+04  0.13671150302E+04  0.46999998093E+01 0.  1.
       -5    1    3    3    0  502  0.80459456760E+03  0.48767995331E+02 -0.17279297332E+04  0.19067023859E+04  0.46999998093E+01 0. -1.
</event>
<event>
 5   0  0.8545153E-07  0.3010136E+04  0.7818609E-02  0.8240842E-01
       -1   -1    0    0    0  501  0.00000000000E+00  0.00000000000E+00  0.19624158872E+04  0.19624158872E+04  0.50400001928E-02 0. -1.
        1   -1    0    0  501    0  0.00000000000E+00  0.00000000000E+00 -0.11543066867E+04  0.11543066868E+04  0.50400001928E-02 0.  1.
    10030    2    1    2    0    0  0.00000000000E+00  0.00000000000E+00  0.80810920047E+03  0.31167225740E+04  0.30101360639E+04 0.  0.
        3    1    3    3  502    0 -0.41467117031E+03 -0.43213334065E+03 -0.10256120754E+04  0.11876748474E+04  0.10100000352E+00 0.  1.
       -3    1    3    3    0  502  0.41467117031E+03  0.43213334065E+03  0.18337212759E+04  0.19290477266E+04  0.10100000352E+00 0. -1.
</event>
<event>
 5   0  0.2404430E-06  0.3012516E+04  0.7818609E-02  0.8240166E-01
        2   -1    0    0  501    0  0.00000000000E+00  0.00000000000E+00  0.11880139822E+04  0.11880139822E+04  0.25500000920E-02 0.  1.
       -2   -1    0    0    0  501  0.00000000000E+00  0.00000000000E+00 -0.19097530045E+04  0.19097530045E+04  0.25500000920E-02 0. -1.
    10030    2    1    2    0    0  0.00000000000E+00  0.00000000000E+00 -0.72173902229E+03  0.30977669867E+04  0.30125160726E+04 0.  0.
        4    1    3    3  502    0 -0.64628492294E+03 -0.24183843008E+03 -0.17376544722E+04  0.18696563068E+04  0.12699999809E+01 0.  1.
       -4    1    3    3    0  502  0.64628492294E+03  0.24183843008E+03  0.10159154499E+04  0.12281106799E+04  0.12699999809E+01 0. -1.
</event>
<event>
 5   0  0.7934375E-07  0.3175566E+04  0.7818609E-02  0.8195300E-01
       -4   -1    0    0    0  501  0.00000000000E+00  0.00000000000E+00  0.18827731446E+04  0.18827735729E+04  0.12699999809E+01 0.  1.
        4   -1    0    0  501    0  0.00000000000E+00  0.00000000000E+00 -0.13390110110E+04  0.13390116133E+04  0.12699999809E+01 0. -1.
    10030    2    1    2    0    0  0.00000000000E+00  0.00000000000E+00  0.54376213360E+03  0.32217851862E+04  0.31755664893E+04 0.  0.
        3    1    3    3  502    0  0.56634084308E+03 -0.25559898849E+03  0.17543054958E+04  0.18610912326E+04  0.10100000352E+00 0.  1.
       -3    1    3    3    0  502 -0.56634084308E+03  0.25559898849E+03 -0.12105433622E+04  0.13606939536E+04  0.10100000352E+00 0. -1.
</event>
<event>
 5   0  0.8681172E-07  0.3206730E+04  0.7818609E-02  0.8187042E-01
        1   -1    0    0  501    0  0.00000000000E+00  0.00000000000E+00  0.13442280017E+04  0.13442280017E+04  0.50400001928E-02 0.  1.
       -1   -1    0    0    0  501  0.00000000000E+00  0.00000000000E+00 -0.19124573544E+04  0.19124573544E+04  0.50400001928E-02 0. -1.
    10030    2    1    2    0    0  0.00000000000E+00  0.00000000000E+00 -0.56822935266E+03  0.32566853561E+04  0.32067296286E+04 0.  0.
        1    1    3    3  502    0  0.15197061151E+04  0.32775314075E+03  0.11423283524E+03  0.15588386505E+04  0.50400001928E-02 0.  1.
       -1    1    3    3    0  502 -0.15197061151E+04 -0.32775314075E+03 -0.68246218790E+03  0.16978467056E+04  0.50400001928E-02 0. -1.
</event>
<event>
 5   0  0.8681172E-07  0.3313633E+04  0.7818609E-02  0.8159435E-01
        1   -1    0    0  501    0  0.00000000000E+00  0.00000000000E+00  0.23239406986E+04  0.23239406986E+04  0.50400001928E-02 0.  1.
       -1   -1    0    0    0  501  0.00000000000E+00  0.00000000000E+00 -0.11812012460E+04  0.11812012460E+04  0.50400001928E-02 0. -1.
    10030    2    1    2    0    0  0.00000000000E+00  0.00000000000E+00  0.11427394526E+04  0.35051419446E+04  0.33136334431E+04 0.  0.
        1    1    3    3  502    0  0.15916110844E+04 -0.11581341453E+03  0.10020222684E+03  0.15989618749E+04  0.50400001928E-02 0. -1.
       -1    1    3    3    0  502 -0.15916110844E+04  0.11581341453E+03  0.10425372258E+04  0.19061800697E+04  0.50400001928E-02 0.  1.
</event>
<event>
 5   0  0.8545153E-07  0.3191237E+04  0.7818609E-02  0.8191135E-01
       -1   -1    0    0    0  501  0.00000000000E+00  0.00000000000E+00  0.21043244989E+04  0.21043244989E+04  0.50400001928E-02 0.  1.
        1   -1    0    0  501    0  0.00000000000E+00  0.00000000000E+00 -0.12098885751E+04  0.12098885751E+04  0.50400001928E-02 0. -1.
    10030    2    1    2    0    0  0.00000000000E+00  0.00000000000E+00  0.89443592379E+03  0.33142130740E+04  0.31912368571E+04 0.  0.
        3    1    3    3  502    0  0.69149753887E+03 -0.14229616899E+04  0.66259667925E+03  0.17152326917E+04  0.10100000352E+00 0.  1.
       -3    1    3    3    0  502 -0.69149753887E+03  0.14229616899E+04  0.23183924453E+03  0.15989803822E+04  0.10100000352E+00 0. -1.
</event>
<event>
 5   0  0.2404430E-06  0.3146344E+04  0.7818609E-02  0.8203133E-01
        2   -1    0    0  501    0  0.00000000000E+00  0.00000000000E+00  0.16601412160E+04  0.16601412160E+04  0.25500000920E-02 0.  1.
       -2   -1    0    0    0  501  0.00000000000E+00  0.00000000000E+00 -0.14907590170E+04  0.14907590170E+04  0.25500000920E-02 0. -1.
    10030    2    1    2    0    0  0.00000000000E+00  0.00000000000E+00  0.16938219901E+03  0.31509002329E+04  0.31463442197E+04 0.  0.
        4    1    3    3  502    0  0.63454910203E+03  0.10259696086E+04  0.10959070260E+04  0.16298098120E+04  0.12699999809E+01 0.  1.
       -4    1    3    3    0  502 -0.63454910203E+03 -0.10259696086E+04 -0.92652482699E+03  0.15210904209E+04  0.12699999809E+01 0. -1.
</event>
<event>
 5   0  0.2337504E-06  0.3186808E+04  0.7818609E-02  0.8192310E-01
        2   -1    0    0  501    0  0.00000000000E+00  0.00000000000E+00  0.23193404076E+04  0.23193404076E+04  0.25500000920E-02 0.  1.
       -2   -1    0    0    0  501  0.00000000000E+00  0.00000000000E+00 -0.10946804855E+04  0.10946804855E+04  0.25500000920E-02 0. -1.
    10030    2    1    2    0    0  0.00000000000E+00  0.00000000000E+00  0.12246599221E+04  0.34140208930E+04  0.31868082361E+04 0.  0.
        1    1    3    3  502    0 -0.10156371004E+04 -0.13834484559E+03 -0.69460017415E+03  0.12381952261E+04  0.50400001928E-02 0. -1.
       -1    1    3    3    0  502  0.10156371004E+04  0.13834484559E+03  0.19192600962E+04  0.21758256670E+04  0.50400001928E-02 0.  1.
</event>
<event>
 5   0  0.7934375E-07  0.3116063E+04  0.7818609E-02  0.8211343E-01
        4   -1    0    0  501    0  0.00000000000E+00  0.00000000000E+00  0.15194617380E+04  0.15194622687E+04  0.12699999809E+01 0.  1.
       -4   -1    0    0    0  501  0.00000000000E+00  0.00000000000E+00 -0.15975788165E+04  0.15975793213E+04  0.12699999809E+01 0. -1.
    10030    2    1    2    0    0  0.00000000000E+00  0.00000000000E+00 -0.78117078538E+02  0.31170415900E+04  0.31160625789E+04 0.  0.
        5    1    3    3  502    0  0.37260803822E+02  0.15399121649E+04  0.19494136743E+03  0.15526564558E+04  0.46999998093E+01 0.  1.
       -5    1    3    3    0  502 -0.37260803822E+02 -0.15399121649E+04 -0.27305844596E+03  0.15643851342E+04  0.46999998093E+01 0. -1.
</event>
<event>
 5   0  0.8487944E-07  0.3183763E+04  0.7818609E-02  0.8193118E-01
       -1   -1    0    0    0  501  0.00000000000E+00  0.00000000000E+00  0.14294517177E+04  0.14294517178E+04  0.50400001928E-02 0. -1.
        1   -1    0    0  501    0  0.00000000000E+00  0.00000000000E+00 -0.17727685540E+04  0.17727685540E+04  0.50400001928E-02 0.  1.
    10030    2    1    2    0    0  0.00000000000E+00  0.00000000000E+00 -0.34331683626E+03  0.32022202718E+04  0.31837632165E+04 0.  0.
        2    1    3    3  502    0  0.10781919369E+04 -0.10927047535E+04 -0.59551040333E+03  0.16465522074E+04  0.25500000920E-02 0.  1.
       -2    1    3    3    0  502 -0.10781919369E+04  0.10927047535E+04  0.25219356707E+03  0.15556680644E+04  0.25500000920E-02 0. -1.
</event>
<event>
 5   0  0.7934375E-07  0.3164015E+04  0.7818609E-02  0.8198386E-01
        3   -1    0    0  501    0  0.00000000000E+00  0.00000000000E+00  0.23282656124E+04  0.23282656146E+04  0.10100000352E+00 0. -1.
       -3   -1    0    0    0  501  0.00000000000E+00  0.00000000000E+00 -0.10749410887E+04  0.10749410934E+04  0.10100000352E+00 0.  1.
    10030    2    1    2    0    0  0.00000000000E+00  0.00000000000E+00  0.12533245238E+04  0.34032067080E+04  0.31640154133E+04 0.  0.
        4    1    3    3  502    0  0.21498306290E+03  0.54180188466E+03  0.22085511196E+04  0.22841774582E+04  0.12699999809E+01 0. -1.
       -4    1    3    3    0  502 -0.21498306290E+03 -0.54180188466E+03 -0.95522659588E+03  0.11190292498E+04  0.12699999809E+01 0.  1.
</event>
<event>
 5   0  0.2404430E-06  0.3208580E+04  0.7818609E-02  0.8186555E-01
        2   -1    0    0  501    0  0.00000000000E+00  0.00000000000E+00  0.26838130294E+04  0.26838130294E+04  0.25500000920E-02 0.  1.
       -2   -1    0    0    0  501  0.00000000000E+00  0.00000000000E+00 -0.95898897593E+03  0.95898897593E+03  0.25500000920E-02 0. -1.
    10030    2    1    2    0    0  0.00000000000E+00  0.00000000000E+00  0.17248240535E+04  0.36428020053E+04  0.32085804392E+04 0.  0.
        4    1    3    3  502    0  0.91505176356E+02  0.42215944651E+03  0.26165462701E+04  0.26519630073E+04  0.12699999809E+01 0.  1.
       -4    1    3    3    0  502 -0.91505176356E+02 -0.42215944651E+03 -0.89172221661E+03  0.99083899806E+03  0.12699999809E+01 0. -1.
</event>
<event>
 5   0  0.8545153E-07  0.3154893E+04  0.7818609E-02  0.8200832E-01
       -1   -1    0    0    0  501  0.00000000000E+00  0.00000000000E+00  0.11266358449E+04  0.11266358449E+04  0.50400001928E-02 0. -1.
        1   -1    0    0  501    0  0.00000000000E+00  0.00000000000E+00 -0.22086443635E+04  0.22086443635E+04  0.50400001928E-02 0.  1.
    10030    2    1    2    0    0  0.00000000000E+00  0.00000000000E+00 -0.10820085186E+04  0.33352802083E+04  0.31548932841E+04 0.  0.
        3    1    3    3  502    0  0.56335475863E+03  0.14366847909E+04 -0.19534440057E+03  0.15555035254E+04  0.10100000352E+00 0.  1.
       -3    1    3    3    0  502 -0.56335475863E+03 -0.14366847909E+04 -0.88666411805E+03  0.17797766829E+04  0.10100000352E+00 0. -1.
</event>
<event>
 5   0  0.2404430E-06  0.3123835E+04  0.7818609E-02  0.8209227E-01
        2   -1    0    0  501    0  0.00000000000E+00  0.00000000000E+00  0.31153469643E+04  0.31153469643E+04  0.25500000920E-02 0.  1.
       -2   -1    0    0    0  501  0.00000000000E+00  0.00000000000E+00 -0.78308668205E+03  0.78308668206E+03  0.25500000920E-02 0. -1.
    10030    2    1    2    0    0  0.00000000000E+00  0.00000000000E+00  0.23322602823E+04  0.38984336464E+04  0.31238352823E+04 0.  0.
        4    1    3    3  502    0  0.13799940787E+04 -0.58480145759E+03  0.61758122261E+03  0.16210442873E+04  0.12699999809E+01 0. -1.
       -4    1    3    3    0  502 -0.13799940787E+04  0.58480145759E+03  0.17146790596E+04  0.22773893590E+04  0.12699999809E+01 0.  1.
</event>
<event>
 5   0  0.8545153E-07  0.3217491E+04  0.7818609E-02  0.8184213E-01
       -1   -1    0    0    0  501  0.00000000000E+00  0.00000000000E+00  0.19188006294E+04  0.19188006294E+04  0.50400001928E-02 0.  1.
        1   -1    0    0  501    0  0.00000000000E+00  0.00000000000E+00 -0.13487917282E+04  0.13487917282E+04  0.50400001928E-02 0. -1.
    10030    2    1    2    0    0  0.00000000000E+00  0.00000000000E+00  0.57000890116E+03  0.32675923576E+04  0.32174912071E+04 0.  0.
        3    1    3    3  502    0  0.50156320547E+02  0.10579604366E+04 -0.94474589665E+03  0.14192747307E+04  0.10100000352E+00 0. -1.
       -3    1    3    3    0  502 -0.50156320547E+02 -0.10579604366E+04  0.15147547978E+04  0.18483176268E+04  0.10100000352E+00 0.  1.
</event>
<event>
 5   0  0.8545153E-07  0.2702781E+04  0.7818609E-02  0.8334103E-01
       -1   -1    0    0    0  501  0.00000000000E+00  0.00000000000E+00  0.10799928334E+04  0.10799928334E+04  0.50400001928E-02 0. -1.
        1   -1    0    0  501    0  0.00000000000E+00  0.00000000000E+00 -0.16909892376E+04  0.16909892377E+04  0.50400001928E-02 0.  1.
    10030    2    1    2    0    0  0.00000000000E+00  0.00000000000E+00 -0.61099640428E+03  0.27709820710E+04  0.27027809811E+04 0.  0.
        3    1    3    3  502    0 -0.62280663363E+03 -0.50399650111E+03  0.81024418855E+03  0.11394719090E+04  0.10100000352E+00 0. -1.
       -3    1    3    3    0  502  0.62280663363E+03  0.50399650111E+03 -0.14212405928E+04  0.16315101621E+04  0.10100000352E+00 0.  1.
</event>
<event>
 5   0  0.2337504E-06  0.3194317E+04  0.7818609E-02  0.8190320E-01
       -2   -1    0    0    0  501  0.00000000000E+00  0.00000000000E+00  0.16512409668E+04  0.16512409668E+04  0.25500000920E-02 0. -1.
        2   -1    0    0  501    0  0.00000000000E+00  0.00000000000E+00 -0.15448470605E+04  0.15448470605E+04  0.25500000920E-02 0.  1.
    10030    2    1    2    0    0  0.00000000000E+00  0.00000000000E+00  0.10639390629E+03  0.31960880273E+04  0.31943166742E+04 0.  0.
        1    1    3    3  502    0 -0.47572201133E+03 -0.14940096101E+03  0.15713658386E+04  0.16485820204E+04  0.50400001928E-02 0. -1.
       -1    1    3    3    0  502  0.47572201133E+03  0.14940096101E+03 -0.14649719323E+04  0.15475060070E+04  0.50400001928E-02 0.  1.
</event>
<event>
 5   0  0.2337504E-06  0.3174467E+04  0.7818609E-02  0.8195593E-01
        2   -1    0    0  501    0  0.00000000000E+00  0.00000000000E+00  0.29650553237E+04  0.29650553237E+04  0.25500000920E-02 0. -1.
       -2   -1    0    0    0  501  0.00000000000E+00  0.00000000000E+00 -0.84966694028E+03  0.84966694029E+03  0.25500000920E-02 0.  1.
    10030    2    1    2    0    0  0.00000000000E+00  0.00000000000E+00  0.21153883834E+04  0.38147222640E+04  0.31744665597E+04 0.  0.
        1    1    3    3  502    0  0.21968584150E+03  0.90571211690E+03 -0.48624647868E+03  0.10511954841E+04  0.50400001928E-02 0.  1.
       -1    1    3    3    0  502 -0.21968584150E+03 -0.90571211690E+03  0.26016348621E+04  0.27635267800E+04  0.50400001928E-02 0. -1.
</event>
<event>
 5   0  0.2404430E-06  0.3469014E+04  0.7818609E-02  0.8121173E-01
        2   -1    0    0  501    0  0.00000000000E+00  0.00000000000E+00  0.19369654910E+04  0.19369654910E+04  0.25500000920E-02 0.  1.
       -2   -1    0    0    0  501  0.00000000000E+00  0.00000000000E+00 -0.15532097783E+04  0.15532097783E+04  0.25500000920E-02 0. -1.
    10030    2    1    2    0    0  0.00000000000E+00  0.00000000000E+00  0.38375571277E+03  0.34901752693E+04  0.34690135432E+04 0.  0.
        4    1    3    3  502    0  0.76109145216E+03  0.76818520717E+03 -0.11725451697E+04  0.15950650454E+04  0.12699999809E+01 0. -1.
       -4    1    3    3    0  502 -0.76109145216E+03 -0.76818520717E+03  0.15563008825E+04  0.18951102239E+04  0.12699999809E+01 0.  1.
</event>
<event>
 5   0  0.2404430E-06  0.3210732E+04  0.7818609E-02  0.8185989E-01
       -2   -1    0    0    0  501  0.00000000000E+00  0.00000000000E+00  0.10516959580E+04  0.10516959580E+04  0.25500000920E-02 0. -1.
        2   -1    0    0  501    0  0.00000000000E+00  0.00000000000E+00 -0.24505180111E+04  0.24505180111E+04  0.25500000920E-02 0.  1.
    10030    2    1    2    0    0  0.00000000000E+00  0.00000000000E+00 -0.13988220531E+04  0.35022139690E+04  0.32107319335E+04 0.  0.
        4    1    3    3  502    0 -0.14253002257E+04  0.55726462526E+03 -0.17043866073E+03  0.15398297132E+04  0.12699999809E+01 0.  1.
       -4    1    3    3    0  502  0.14253002257E+04 -0.55726462526E+03 -0.12283833924E+04  0.19623842558E+04  0.12699999809E+01 0. -1.
</event>
<event>
 5   0  0.8681172E-07  0.2746516E+04  0.7818609E-02  0.8320068E-01
        1   -1    0    0  501    0  0.00000000000E+00  0.00000000000E+00  0.18172277549E+04  0.18172277549E+04  0.50400001928E-02 0.  1.
       -1   -1    0    0    0  501  0.00000000000E+00  0.00000000000E+00 -0.10377551872E+04  0.10377551872E+04  0.50400001928E-02 0. -1.
    10030    2    1    2    0    0  0.00000000000E+00  0.00000000000E+00  0.77947256773E+03  0.28549829421E+04  0.27465159959E+04 0.  0.
        1    1    3    3  502    0  0.13460499918E+04  0.12030691446E+03  0.64332388626E+03  0.14967264135E+04  0.50400001928E-02 0.  1.
       -1    1    3    3    0  502 -0.13460499918E+04 -0.12030691446E+03  0.13614868147E+03  0.13582565286E+04  0.50400001928E-02 0. -1.
</event>
<event>
 5   0  0.8545153E-07  0.3180223E+04  0.7818609E-02  0.8194060E-01
       -1   -1    0    0    0  501  0.00000000000E+00  0.00000000000E+00  0.22610792743E+04  0.22610792743E+04  0.50400001928E-02 0. -1.
        1   -1    0    0  501    0  0.00000000000E+00  0.00000000000E+00 -0.11182512179E+04  0.11182512180E+04  0.50400001928E-02 0.  1.
    10030    2    1    2    0    0  0.00000000000E+00  0.00000000000E+00  0.11428280563E+04  0.33793304923E+04  0.31802230440E+04 0.  0.
        3    1    3    3  502    0 -0.12221347471E+04 -0.38495898681E+03  0.15719867922E+04  0.20280407408E+04  0.10100000352E+00 0. -1.
       -3    1    3    3    0  502  0.12221347471E+04  0.38495898681E+03 -0.42915873582E+03  0.13512897514E+04  0.10100000352E+00 0.  1.
</event>
<event>
 5   0  0.2621528E-06  0.3044596E+04  0.7818609E-02  0.8231110E-01
       -2   -1    0    0    0  501  0.00000000000E+00  0.00000000000E+00  0.12753362896E+04  0.12753362896E+04  0.25500000920E-02 0. -1.
        2   -1    0    0  501    0  0.00000000000E+00  0.00000000000E+00 -0.18170826733E+04  0.18170826733E+04  0.25500000920E-02 0.  1.
    10030    2    1    2    0    0  0.00000000000E+00  0.00000000000E+00 -0.54174638371E+03  0.30924189628E+04  0.30445961797E+04 0.  0.
        2    1    3    3  502    0  0.87870817229E+03 -0.45369818072E+03  0.90463928636E+03  0.13402769601E+04  0.25500000920E-02 0. -1.
       -2    1    3    3    0  502 -0.87870817229E+03  0.45369818072E+03 -0.14463856701E+04  0.17521420028E+04  0.25500000920E-02 0.  1.
</event>
<event>
 5   0  0.8487944E-07  0.3149934E+04  0.7818609E-02  0.8202166E-01
       -1   -1    0    0    0  501  0.00000000000E+00  0.00000000000E+00  0.85857491205E+03  0.85857491207E+03  0.50400001928E-02 0. -1.
        1   -1    0    0  501    0  0.00000000000E+00  0.00000000000E+00 -0.28891151560E+04  0.28891151560E+04  0.50400001928E-02 0.  1.
    10030    2    1    2    0    0  0.00000000000E+00  0.00000000000E+00 -0.20305402439E+04  0.37476900680E+04  0.31499344698E+04 0.  0.
        2    1    3    3  502    0 -0.12851749311E+02  0.57476516950E+03 -0.27598125765E+04  0.28190575774E+04  0.25500000920E-02 0.  1.
       -2    1    3    3    0  502  0.12851749311E+02 -0.57476516950E+03  0.72927233257E+03  0.92863249060E+03  0.25500000920E-02 0. -1.
</event>
<event>
 5   0  0.8383008E-07  0.3219606E+04  0.7818609E-02  0.8183658E-01
       -1   -1    0    0    0  501  0.00000000000E+00  0.00000000000E+00  0.18638766312E+04  0.18638766312E+04  0.50400001928E-02 0. -1.
        1   -1    0    0  501    0  0.00000000000E+00  0.00000000000E+00 -0.13903636286E+04  0.13903636286E+04  0.50400001928E-02 0.  1.
    10030    2    1    2    0    0  0.00000000000E+00  0.00000000000E+00  0.47351300263E+03  0.32542402598E+04  0.32196063587E+04 0.  0.
        4    1    3    3  502    0 -0.31188456949E+03 -0.10047176977E+04  0.14683611353E+04  0.18063265688E+04  0.12699999809E+01 0. -1.
       -4    1    3    3    0  502  0.31188456949E+03  0.10047176977E+04 -0.99484813266E+03  0.14479136910E+04  0.12699999809E+01 0.  1.
</event>
<event>
 5   0  0.8383008E-07  0.3238568E+04  0.7818609E-02  0.8178705E-01
        1   -1    0    0  501    0  0.00000000000E+00  0.00000000000E+00  0.14282188674E+04  0.14282188674E+04  0.50400001928E-02 0.  1.
       -1   -1    0    0    0  501  0.00000000000E+00  0.00000000000E+00 -0.18359096306E+04  0.18359096306E+04  0.50400001928E-02 0. -1.
    10030    2    1    2    0    0  0.00000000000E+00  0.00000000000E+00 -0.40769076318E+03  0.32641284980E+04  0.32385680621E+04 0.  0.
        4    1    3    3  502    0  0.10443536283E+03  0.26773703325E+03 -0.18100002256E+04  0.18326735370E+04  0.12699999809E+01 0. -1.
       -4    1    3    3    0  502 -0.10443536283E+03 -0.26773703325E+03  0.14023094624E+04  0.14314549609E+04  0.12699999809E+01 0.  1.
</event>
<event>
 5   0  0.2621528E-06  0.3039467E+04  0.7818609E-02  0.8232550E-01
       -2   -1    0    0    0  501  0.00000000000E+00  0.00000000000E+00  0.17385148749E+04  0.17385148749E+04  0.25500000920E-02 0.  1.
        2   -1    0    0  501    0  0.00000000000E+00  0.00000000000E+00 -0.13284843167E+04  0.13284843167E+04  0.25500000920E-02 0. -1.
    10030    2    1    2    0    0  0.00000000000E+00  0.00000000000E+00  0.41003055819E+03  0.30669991916E+04  0.30394668912E+04 0.  0.
        2    1    3    3  502    0 -0.79061344102E+03 -0.41545353807E+03 -0.10357237212E+04  0.13676238087E+04  0.25500000920E-02 0. -1.
       -2    1    3    3    0  502  0.79061344102E+03  0.41545353807E+03  0.14457542794E+04  0.16993753829E+04  0.25500000920E-02 0.  1.
</event>
<event>
 5   0  0.8681172E-07  0.3197355E+04  0.7818609E-02  0.8189516E-01
       -1   -1    0    0    0  501  0.00000000000E+00  0.00000000000E+00  0.94777159975E+03  0.94777159976E+03  0.50400001928E-02 0. -1.
        1   -1    0    0  501    0  0.00000000000E+00  0.00000000000E+00 -0.26966099280E+04  0.26966099280E+04  0.50400001928E-02 0.  1.
    10030    2    1    2    0    0  0.00000000000E+00  0.00000000000E+00 -0.17488383282E+04  0.36443815278E+04  0.31973553480E+04 0.  0.
        1    1    3    3  502    0  0.15064306315E+03  0.43793842249E+03 -0.26184744575E+04  0.26591148676E+04  0.50400001928E-02 0.  1.
       -1    1    3    3    0  502 -0.15064306315E+03 -0.43793842249E+03  0.86963612925E+03  0.98526666019E+03  0.50400001928E-02 0. -1.
</event>
<event>
 5   0  0.2621528E-06  0.3252240E+04  0.7818609E-02  0.8175155E-01
       -2   -1    0    0    0  501  0.00000000000E+00  0.00000000000E+00  0.16828453279E+04  0.16828453279E+04  0.25500000920E-02 0.  1.
        2   -1    0    0  501    0  0.00000000000E+00  0.00000000000E+00 -0.15713065614E+04  0.15713065614E+04  0.25500000920E-02 0. -1.
    10030    2    1    2    0    0  0.00000000000E+00  0.00000000000E+00  0.11153876648E+03  0.32541518893E+04  0.32522397854E+04 0.  0.
        2    1    3    3  502    0  0.14691206595E+04  0.57711389696E+03 -0.33547194198E+03  0.16136658223E+04  0.25500000920E-02 0. -1.
       -2    1    3    3    0  502 -0.14691206595E+04 -0.57711389696E+03  0.44701070846E+03  0.16404860669E+04  0.25500000920E-02 0.  1.
</event>
<event>
 5   0  0.2621528E-06  0.3194419E+04  0.7818609E-02  0.8190293E-01
       -2   -1    0    0    0  501  0.00000000000E+00  0.00000000000E+00  0.12319397231E+04  0.12319397231E+04  0.25500000920E-02 0.  1.
        2   -1    0    0  501    0  0.00000000000E+00  0.00000000000E+00 -0.20707816554E+04  0.20707816554E+04  0.25500000920E-02 0. -1.
    10030    2    1    2    0    0  0.00000000000E+00  0.00000000000E+00 -0.83884193231E+03  0.33027213785E+04  0.31944189951E+04 0.  0.
        2    1    3    3  502    0 -0.30594783277E+03 -0.59961831579E+03 -0.19169517524E+04  0.20317111562E+04  0.25500000920E-02 0. -1.
       -2    1    3    3    0  502  0.30594783277E+03  0.59961831579E+03  0.10781098201E+04  0.12710102223E+04  0.25500000920E-02 0.  1.
</event>
<event>
 5   0  0.2621528E-06  0.2858714E+04  0.7818609E-02  0.8285268E-01
       -2   -1    0    0    0  501  0.00000000000E+00  0.00000000000E+00  0.98685369551E+03  0.98685369552E+03  0.25500000920E-02 0.  1.
        2   -1    0    0  501    0  0.00000000000E+00  0.00000000000E+00 -0.20702781741E+04  0.20702781741E+04  0.25500000920E-02 0. -1.
    10030    2    1    2    0    0  0.00000000000E+00  0.00000000000E+00 -0.10834244785E+04  0.30571318696E+04  0.28587141633E+04 0.  0.
        2    1    3    3  502    0 -0.71348275808E+03  0.24779452370E+03  0.75602305603E+03  0.10686583333E+04  0.25500000920E-02 0.  1.
       -2    1    3    3    0  502  0.71348275808E+03 -0.24779452370E+03 -0.18394475346E+04  0.19884735363E+04  0.25500000920E-02 0. -1.
</event>
<event>
 5   0  0.2337504E-06  0.3183500E+04  0.7818609E-02  0.8193188E-01
       -2   -1    0    0    0  501  0.00000000000E+00  0.00000000000E+00  0.10238426828E+04  0.10238426828E+04  0.25500000920E-02 0. -1.
        2   -1    0    0  501    0  0.00000000000E+00  0.00000000000E+00 -0.24746661038E+04  0.24746661038E+04  0.25500000920E-02 0.  1.
    10030    2    1    2    0    0  0.00000000000E+00  0.00000000000E+00 -0.14508234210E+04  0.34985087866E+04  0.31835004525E+04 0.  0.
        1    1    3    3  502    0 -0.11582545426E+04  0.66370193804E+03 -0.16781546820E+04  0.21443546779E+04  0.50400001928E-02 0. -1.
       -1    1    3    3    0  502  0.11582545426E+04 -0.66370193804E+03  0.22733126097E+03  0.13541541087E+04  0.50400001928E-02 0.  1.
</event>
<event>
 5   0  0.8487944E-07  0.3205103E+04  0.7818609E-02  0.8187471E-01
       -1   -1    0    0    0  501  0.00000000000E+00  0.00000000000E+00  0.14472418254E+04  0.14472418254E+04  0.50400001928E-02 0. -1.
        1   -1    0    0  501    0  0.00000000000E+00  0.00000000000E+00 -0.17745279449E+04  0.17745279449E+04  0.50400001928E-02 0.  1.
    10030    2    1    2    0    0  0.00000000000E+00  0.00000000000E+00 -0.32728611947E+03  0.32217697703E+04  0.32051028453E+04 0.  0.
        2    1    3    3  502    0  0.15436124929E+03  0.75758517223E+03  0.12473687698E+04  0.14675460934E+04  0.25500000920E-02 0. -1.
       -2    1    3    3    0  502 -0.15436124929E+03 -0.75758517223E+03 -0.15746548892E+04  0.17542236769E+04  0.25500000920E-02 0.  1.
</event>
<event>
 5   0  0.2404430E-06  0.3174767E+04  0.7818609E-02  0.8195513E-01
        2   -1    0    0  501    0  0.00000000000E+00  0.00000000000E+00  0.24348982788E+04  0.24348982788E+04  0.25500000920E-02 0. -1.
       -2   -1    0    0    0  501  0.00000000000E+00  0.00000000000E+00 -0.10348633356E+04  0.10348633356E+04  0.25500000920E-02 0.  1.
    10030    2    1    2    0    0  0.00000000000E+00  0.00000000000E+00  0.14000349432E+04  0.34697616144E+04  0.31747673645E+04 0.  0.
        4    1    3    3  502    0  0.13225028664E+04  0.51649838979E+03 -0.75878321233E+02  0.14218099559E+04  0.12699999809E+01 0.  1.
       -4    1    3    3    0  502 -0.13225028664E+04 -0.51649838979E+03  0.14759132645E+04  0.20479516585E+04  0.12699999809E+01 0. -1.
</event>
<event>
 5   0  0.2401139E-06  0.3207759E+04  0.7818609E-02  0.8186771E-01
       -2   -1    0    0    0  501  0.00000000000E+00  0.00000000000E+00  0.12678689789E+04  0.12678689789E+04  0.25500000920E-02 0. -1.
        2   -1    0    0  501    0  0.00000000000E+00  0.00000000000E+00 -0.20289393050E+04  0.20289393050E+04  0.25500000920E-02 0.  1.
    10030    2    1    2    0    0  0.00000000000E+00  0.00000000000E+00 -0.76107032610E+03  0.32968082839E+04  0.32077588469E+04 0.  0.
        5    1    3    3  502    0 -0.52196502621E+03  0.18814401264E+03  0.11660863151E+04  0.12913655727E+04  0.46999998093E+01 0. -1.
       -5    1    3    3    0  502  0.52196502621E+03 -0.18814401264E+03 -0.19271566412E+04  0.20054427112E+04  0.46999998093E+01 0.  1.
</event>
<event>
 5   0  0.8545153E-07  0.3263183E+04  0.7818609E-02  0.8172327E-01
       -1   -1    0    0    0  501  0.00000000000E+00  0.00000000000E+00  0.13979563278E+04  0.13979563279E+04  0.50400001928E-02 0.  1.
        1   -1    0    0  501    0  0.00000000000E+00  0.00000000000E+00 -0.19042727202E+04  0.19042727203E+04  0.50400001928E-02 0. -1.
    10030    2    1    2    0    0  0.00000000000E+00  0.00000000000E+00 -0.50631639240E+03  0.33022290481E+04  0.32631825565E+04 0.  0.
        3    1    3    3  502    0 -0.16213902837E+03  0.15498503614E+04  0.23611954259E+03  0.15760957001E+04  0.10100000352E+00 0.  1.
       -3    1    3    3    0  502  0.16213902837E+03 -0.15498503614E+04 -0.74243593499E+03  0.17261333480E+04  0.10100000352E+00 0. -1.
</event>
<event>
 5   0  0.2401139E-06  0.3188283E+04  0.7818609E-02  0.8191919E-01
        2   -1    0    0  501    0  0.00000000000E+00  0.00000000000E+00  0.18691442654E+04  0.18691442654E+04  0.25500000920E-02 0.  1.
       -2   -1    0    0    0  501  0.00000000000E+00  0.00000000000E+00 -0.13595990810E+04  0.13595990810E+04  0.25500000920E-02 0. -1.
    10030    2    1    2    0    0  0.00000000000E+00  0.00000000000E+00  0.50954518442E+03  0.32287433464E+04  0.31882828140E+04 0.  0.
        5    1    3    3  502    0 -0.10823444062E+04 -0.11303375822E+04 -0.52612341206E+02  0.15658616197E+04  0.46999998093E+01 0.  1.
       -5    1    3    3    0  502  0.10823444062E+04  0.11303375822E+04  0.56215752563E+03  0.16628817267E+04  0.46999998093E+01 0. -1.
</event>
<event>
 5   0  0.8512855E-07  0.3165185E+04  0.7818609E-02  0.8198073E-01
       -1   -1    0    0    0  501  0.00000000000E+00  0.00000000000E+00  0.16397491816E+04  0.16397491816E+04  0.50400001928E-02 0.  1.
        1   -1    0    0  501    0  0.00000000000E+00  0.00000000000E+00 -0.15274277127E+04  0.15274277127E+04  0.50400001928E-02 0. -1.
    10030    2    1    2    0    0  0.00000000000E+00  0.00000000000E+00  0.11232146886E+03  0.31671768943E+04  0.31651845708E+04 0.  0.
        5    1    3    3  502    0 -0.11879822600E+04 -0.25989423615E+03  0.10695812215E+04  0.16195286177E+04  0.46999998093E+01 0.  1.
       -5    1    3    3    0  502  0.11879822600E+04  0.25989423615E+03 -0.95725975260E+03  0.15476482766E+04  0.46999998093E+01 0. -1.
</event>
<event>
 5   0  0.2401139E-06  0.3124973E+04  0.7818609E-02  0.8208918E-01
        2   -1    0    0  501    0  0.00000000000E+00  0.00000000000E+00  0.20316632406E+04  0.20316632406E+04  0.25500000920E-02 0.  1.
       -2   -1    0    0    0  501  0.00000000000E+00  0.00000000000E+00 -0.12016575273E+04  0.12016575273E+04  0.25500000920E-02 0. -1.
    10030    2    1    2    0    0  0.00000000000E+00  0.00000000000E+00  0.83000571330E+03  0.32333207679E+04  0.31249725925E+04 0.  0.
        5    1    3    3  502    0  0.30063047832E+03 -0.14901055616E+04  0.78884460724E+03  0.17126269802E+04  0.46999998093E+01 0. -1.
       -5    1    3    3    0  502 -0.30063047832E+03  0.14901055616E+04  0.41161106061E+02  0.15206937876E+04  0.46999998093E+01 0.  1.
</event>
<event>
 5   0  0.2621528E-06  0.3199047E+04  0.7818609E-02  0.8189069E-01
       -2   -1    0    0    0  501  0.00000000000E+00  0.00000000000E+00  0.17061872910E+04  0.17061872910E+04  0.25500000920E-02 0. -1.
        2   -1    0    0  501    0  0.00000000000E+00  0.00000000000E+00 -0.14995280975E+04  0.14995280975E+04  0.25500000920E-02 0.  1.
    10030    2    1    2    0    0  0.00000000000E+00  0.00000000000E+00  0.20665919356E+03  0.32057153885E+04  0.31990472222E+04 0.  0.
        2    1    3    3  502    0  0.13849334540E+04 -0.60260985853E+02  0.90299279268E+03  0.16544086684E+04  0.25500000920E-02 0. -1.
       -2    1    3    3    0  502 -0.13849334540E+04  0.60260985853E+02 -0.69633359911E+03  0.15513067201E+04  0.25500000920E-02 0.  1.
</event>
<event>
 5   0  0.8681172E-07  0.3129751E+04  0.7818609E-02  0.8207620E-01
        1   -1    0    0  501    0  0.00000000000E+00  0.00000000000E+00  0.23974963867E+04  0.23974963867E+04  0.50400001928E-02 0.  1.
       -1   -1    0    0    0  501  0.00000000000E+00  0.00000000000E+00 -0.10214136064E+04  0.10214136065E+04  0.50400001928E-02 0. -1.
    10030    2    1    2    0    0  0.00000000000E+00  0.00000000000E+00  0.13760827803E+04  0.34189099932E+04  0.31297510641E+04 0.  0.
        1    1    3    3  502    0  0.52841609412E+03  0.13098940568E+04  0.14239180969E+04  0.20056392385E+04  0.50400001928E-02 0.  1.
       -1    1    3    3    0  502 -0.52841609412E+03 -0.13098940568E+04 -0.47835316576E+02  0.14132707547E+04  0.50400001928E-02 0. -1.
</event>
<event>
 5   0  0.8545153E-07  0.2764601E+04  0.7818609E-02  0.8314343E-01
       -1   -1    0    0    0  501  0.00000000000E+00  0.00000000000E+00  0.91906772364E+03  0.91906772365E+03  0.50400001928E-02 0.  1.
        1   -1    0    0  501    0  0.00000000000E+00  0.00000000000E+00 -0.20790143241E+04  0.20790143241E+04  0.50400001928E-02 0. -1.
    10030    2    1    2    0    0  0.00000000000E+00  0.00000000000E+00 -0.11599466004E+04  0.29980820477E+04  0.27646012098E+04 0.  0.
        3    1    3    3  502    0 -0.13483189016E+04 -0.30066071435E+03 -0.52691007723E+03  0.14785110637E+04  0.10100000352E+00 0.  1.
       -3    1    3    3    0  502  0.13483189016E+04  0.30066071435E+03 -0.63303652319E+03  0.15195709841E+04  0.10100000352E+00 0. -1.
</event>
<event>
 5   0  0.2404430E-06  0.3214392E+04  0.7818609E-02  0.8185027E-01
        2   -1    0    0  501    0  0.00000000000E+00  0.00000000000E+00  0.15128492507E+04  0.15128492507E+04  0.25500000920E-02 0.  1.
       -2   -1    0    0    0  501  0.00000000000E+00  0.00000000000E+00 -0.17074267231E+04  0.17074267231E+04  0.25500000920E-02 0. -1.
    10030    2    1    2    0    0  0.00000000000E+00  0.00000000000E+00 -0.19457747242E+03  0.32202759738E+04  0.32143921595E+04 0.  0.
        4    1    3    3  502    0  0.74056740511E+03  0.88509363654E+03 -0.12179277076E+04  0.16778499161E+04  0.12699999809E+01 0. -1.
       -4    1    3    3    0  502 -0.74056740511E+03 -0.88509363654E+03  0.10233502352E+04  0.15424260578E+04  0.12699999809E+01 0.  1.
</event>
<event>
 5   0  0.2404430E-06  0.3209424E+04  0.7818609E-02  0.8186333E-01
        2   -1    0    0  501    0  0.00000000000E+00  0.00000000000E+00  0.16105331995E+04  0.16105331995E+04  0.25500000920E-02 0.  1.
       -2   -1    0    0    0  501  0.00000000000E+00  0.00000000000E+00 -0.15989120958E+04  0.15989120958E+04  0.25500000920E-02 0. -1.
    10030    2    1    2    0    0  0.00000000000E+00  0.00000000000E+00  0.11621103766E+02  0.32094452953E+04  0.32094242558E+04 0.  0.
        4    1    3    3  502    0 -0.81628399038E+03  0.40445058368E+03 -0.13152581270E+04  0.15999391805E+04  0.12699999809E+01 0. -1.
       -4    1    3    3    0  502  0.81628399038E+03 -0.40445058368E+03  0.13268792308E+04  0.16095061148E+04  0.12699999809E+01 0.  1.
</event>
<event>
 5   0  0.2337504E-06  0.3179756E+04  0.7818609E-02  0.8194184E-01
       -2   -1    0    0    0  501  0.00000000000E+00  0.00000000000E+00  0.11769251815E+04  0.11769251815E+04  0.25500000920E-02 0. -1.
        2   -1    0    0  501    0  0.00000000000E+00  0.00000000000E+00 -0.21477248777E+04  0.21477248777E+04  0.25500000920E-02 0.  1.
    10030    2    1    2    0    0  0.00000000000E+00  0.00000000000E+00 -0.97079969626E+03  0.33246500592E+04  0.31797556456E+04 0.  0.
        1    1    3    3  502    0 -0.13244460080E+04  0.28965932383E+03 -0.13536944691E+04  0.19158675496E+04  0.50400001928E-02 0.  1.
       -1    1    3    3    0  502  0.13244460080E+04 -0.28965932383E+03  0.38289477284E+03  0.14087825095E+04  0.50400001928E-02 0. -1.
</event>
<event>
 5   0  0.2401139E-06  0.3230498E+04  0.7818609E-02  0.8180809E-01
        2   -1    0    0  501    0  0.00000000000E+00  0.00000000000E+00  0.17270306479E+04  0.17270306479E+04  0.25500000920E-02 0.  1.
       -2   -1    0    0    0  501  0.00000000000E+00  0.00000000000E+00 -0.15107019923E+04  0.15107019923E+04  0.25500000920E-02 0. -1.
    10030    2    1    2    0    0  0.00000000000E+00  0.00000000000E+00  0.21632865562E+03  0.32377326401E+04  0.32304975719E+04 0.  0.
        5    1    3    3  502    0  0.34926051419E+03  0.19145262174E+03 -0.14607071115E+04  0.15140423933E+04  0.46999998093E+01 0. -1.
       -5    1    3    3    0  502 -0.34926051419E+03 -0.19145262174E+03  0.16770357671E+04  0.17236902469E+04  0.46999998093E+01 0.  1.
</event>
<event>
 5   0  0.8545153E-07  0.3209623E+04  0.7818609E-02  0.8186280E-01
        1   -1    0    0  501    0  0.00000000000E+00  0.00000000000E+00  0.18452573129E+04  0.18452573129E+04  0.50400001928E-02 0.  1.
       -1   -1    0    0    0  501  0.00000000000E+00  0.00000000000E+00 -0.13956969188E+04  0.13956969188E+04  0.50400001928E-02 0. -1.
    10030    2    1    2    0    0  0.00000000000E+00  0.00000000000E+00  0.44956039410E+03  0.32409542316E+04  0.32096229971E+04 0.  0.
        3    1    3    3  502    0 -0.81508986892E+03  0.20115718480E+03 -0.11562637828E+04  0.14289092529E+04  0.10100000352E+00 0. -1.
       -3    1    3    3    0  502  0.81508986892E+03 -0.20115718480E+03  0.16058241769E+04  0.18120449787E+04  0.10100000352E+00 0.  1.
</event>
<event>
 5   0  0.8681172E-07  0.3169541E+04  0.7818609E-02  0.8196908E-01
        1   -1    0    0  501    0  0.00000000000E+00  0.00000000000E+00  0.92428437622E+03  0.92428437624E+03  0.50400001928E-02 0. -1.
       -1   -1    0    0    0  501  0.00000000000E+00  0.00000000000E+00 -0.27172352534E+04  0.27172352535E+04  0.50400001928E-02 0.  1.
    10030    2    1    2    0    0  0.00000000000E+00  0.00000000000E+00 -0.17929508772E+04  0.36415196297E+04  0.31695413494E+04 0.  0.
        1    1    3    3  502    0 -0.14391041361E+04 -0.35571564276E+02 -0.16578938118E+04  0.21956543311E+04  0.50400001928E-02 0.  1.
       -1    1    3    3    0  502  0.14391041361E+04  0.35571564276E+02 -0.13505706541E+03  0.14458652985E+04  0.50400001928E-02 0. -1.
</event>
<event>
 5   0  0.2621528E-06  0.3247778E+04  0.7818609E-02  0.8176312E-01
        2   -1    0    0  501    0  0.00000000000E+00  0.00000000000E+00  0.14502849163E+04  0.14502849163E+04  0.25500000920E-02 0. -1.
       -2   -1    0    0    0  501  0.00000000000E+00  0.00000000000E+00 -0.18182742854E+04  0.18182742854E+04  0.25500000920E-02 0.  1.
    10030    2    1    2    0    0  0.00000000000E+00  0.00000000000E+00 -0.36798936909E+03  0.32685592017E+04  0.32477781758E+04 0.  0.
        2    1    3    3  502    0  0.63593681977E+03 -0.74874943801E+03 -0.14853167969E+04  0.17807884059E+04  0.25500000920E-02 0.  1.
       -2    1    3    3    0  502 -0.63593681977E+03  0.74874943801E+03  0.11173274278E+04  0.14877707957E+04  0.25500000920E-02 0. -1.
</event>
<event>
 5   0  0.8512855E-07  0.3203976E+04  0.7818609E-02  0.8187768E-01
        1   -1    0    0  501    0  0.00000000000E+00  0.00000000000E+00  0.18886836495E+04  0.18886836495E+04  0.50400001928E-02 0.  1.
       -1   -1    0    0    0  501  0.00000000000E+00  0.00000000000E+00 -0.13588116871E+04  0.13588116871E+04  0.50400001928E-02 0. -1.
    10030    2    1    2    0    0  0.00000000000E+00  0.00000000000E+00  0.52987196237E+03  0.32474953366E+04  0.32039759151E+04 0.  0.
        5    1    3    3  502    0  0.97531333273E+03 -0.11994896429E+04  0.69055854699E+03  0.16931936384E+04  0.46999998093E+01 0.  1.
       -5    1    3    3    0  502 -0.97531333273E+03  0.11994896429E+04 -0.16068658462E+03  0.15543016982E+04  0.46999998093E+01 0. -1.
</event>
<event>
 5   0  0.8545153E-07  0.3166578E+04  0.7818609E-02  0.8197700E-01
        1   -1    0    0  501    0  0.00000000000E+00  0.00000000000E+00  0.14475256495E+04  0.14475256495E+04  0.50400001928E-02 0.  1.
       -1   -1    0    0    0  501  0.00000000000E+00  0.00000000000E+00 -0.17317857837E+04  0.17317857837E+04  0.50400001928E-02 0. -1.
    10030    2    1    2    0    0  0.00000000000E+00  0.00000000000E+00 -0.28426013420E+03  0.31793114333E+04  0.31665781793E+04 0.  0.
        3    1    3    3  502    0  0.98808439234E+03 -0.92011540264E+03  0.68816640575E+03  0.15154194577E+04  0.10100000352E+00 0. -1.
       -3    1    3    3    0  502 -0.98808439234E+03  0.92011540264E+03 -0.97242653995E+03  0.16638919756E+04  0.10100000352E+00 0.  1.
</event>
<event>
 5   0  0.8487944E-07  0.2949812E+04  0.7818609E-02  0.8258209E-01
        1   -1    0    0  501    0  0.00000000000E+00  0.00000000000E+00  0.12014918255E+04  0.12014918255E+04  0.50400001928E-02 0.  1.
       -1   -1    0    0    0  501  0.00000000000E+00  0.00000000000E+00 -0.18105395103E+04  0.18105395103E+04  0.50400001928E-02 0. -1.
    10030    2    1    2    0    0  0.00000000000E+00  0.00000000000E+00 -0.60904768477E+03  0.30120313359E+04  0.29498124832E+04 0.  0.
        2    1    3    3  502    0 -0.47567140095E+03 -0.13884692270E+04 -0.15571613812E+03  0.14759260116E+04  0.25500000920E-02 0. -1.
       -2    1    3    3    0  502  0.47567140095E+03  0.13884692270E+04 -0.45333154666E+03  0.15361053243E+04  0.25500000920E-02 0.  1.
</event>
<event>
 5   0  0.2621528E-06  0.3163475E+04  0.7818609E-02  0.8198531E-01
       -2   -1    0    0    0  501  0.00000000000E+00  0.00000000000E+00  0.15357486822E+04  0.15357486822E+04  0.25500000920E-02 0.  1.
        2   -1    0    0  501    0  0.00000000000E+00  0.00000000000E+00 -0.16291030693E+04  0.16291030693E+04  0.25500000920E-02 0. -1.
    10030    2    1    2    0    0  0.00000000000E+00  0.00000000000E+00 -0.93354387134E+02  0.31648517515E+04  0.31634746036E+04 0.  0.
        2    1    3    3  502    0  0.10725573151E+04 -0.94046945464E+03 -0.73037128752E+03  0.16025929636E+04  0.25500000920E-02 0. -1.
       -2    1    3    3    0  502 -0.10725573151E+04  0.94046945464E+03  0.63701690038E+03  0.15622587880E+04  0.25500000920E-02 0.  1.
</event>
<event>
 5   0  0.2466076E-06  0.3187246E+04  0.7818609E-02  0.8192194E-01
        2   -1    0    0  501    0  0.00000000000E+00  0.00000000000E+00  0.20490161546E+04  0.20490161546E+04  0.25500000920E-02 0.  1.
       -2   -1    0    0    0  501  0.00000000000E+00  0.00000000000E+00 -0.12394405198E+04  0.12394405198E+04  0.25500000920E-02 0. -1.
    10030    2    1    2    0    0  0.00000000000E+00  0.00000000000E+00  0.80957563479E+03  0.32884566743E+04  0.31872456119E+04 0.  0.
        3    1    3    3  502    0  0.27411738730E+03 -0.15373404390E+04  0.76764887156E+02  0.15634733210E+04  0.10100000352E+00 0.  1.
       -3    1    3    3    0  502 -0.27411738730E+03  0.15373404390E+04  0.73281074764E+03  0.17249833533E+04  0.10100000352E+00 0. -1.
</event>
<event>
 5   0  0.8512855E-07  0.2564765E+04  0.7818609E-02  0.8380269E-01
        1   -1    0    0  501    0  0.00000000000E+00  0.00000000000E+00  0.12833216780E+04  0.12833216780E+04  0.50400001928E-02 0. -1.
       -1   -1    0    0    0  501  0.00000000000E+00  0.00000000000E+00 -0.12814435750E+04  0.12814435750E+04  0.50400001928E-02 0.  1.
    10030    2    1    2    0    0  0.00000000000E+00  0.00000000000E+00  0.18781029708E+01  0.25647652530E+04  0.25647645654E+04 0.  0.
        5    1    3    3  502    0 -0.40558825402E+03  0.98869705661E+03 -0.70790422939E+03  0.12818635612E+04  0.46999998093E+01 0.  1.
       -5    1    3    3    0  502  0.40558825402E+03 -0.98869705661E+03  0.70978233236E+03  0.12829016918E+04  0.46999998093E+01 0. -1.
</event>
<event>
 5   0  0.8681172E-07  0.3332905E+04  0.7818609E-02  0.8154573E-01
       -1   -1    0    0    0  501  0.00000000000E+00  0.00000000000E+00  0.24473428879E+04  0.24473428879E+04  0.50400001928E-02 0. -1.
        1   -1    0    0  501    0  0.00000000000E+00  0.00000000000E+00 -0.11347262958E+04  0.11347262958E+04  0.50400001928E-02 0.  1.
    10030    2    1    2    0    0  0.00000000000E+00  0.00000000000E+00  0.13126165921E+04  0.35820691837E+04  0.33329052370E+04 0.  0.
        1    1    3    3  502    0  0.11943847617E+04 -0.11606602219E+04  0.59384992130E+03  0.17681472899E+04  0.50400001928E-02 0.  1.
       -1    1    3    3    0  502 -0.11943847617E+04  0.11606602219E+04  0.71876667082E+03  0.18139218938E+04  0.50400001928E-02 0. -1.
</event>
<event>
 5   0  0.8512855E-07  0.3179615E+04  0.7818609E-02  0.8194222E-01
        1   -1    0    0  501    0  0.00000000000E+00  0.00000000000E+00  0.13223379820E+04  0.13223379820E+04  0.50400001928E-02 0.  1.
       -1   -1    0    0    0  501  0.00000000000E+00  0.00000000000E+00 -0.19113785740E+04  0.19113785740E+04  0.50400001928E-02 0. -1.
    10030    2    1    2    0    0  0.00000000000E+00  0.00000000000E+00 -0.58904059194E+03  0.32337165560E+04  0.31796153770E+04 0.  0.
        5    1    3    3  502    0  0.15310716823E+04 -0.39277415632E+03 -0.12128600006E+03  0.15853026266E+04  0.46999998093E+01 0. -1.
       -5    1    3    3    0  502 -0.15310716823E+04  0.39277415632E+03 -0.46775459189E+03  0.16484139293E+04  0.46999998093E+01 0.  1.
</event>
<event>
 5   0  0.2401139E-06  0.3193376E+04  0.7818609E-02  0.8190569E-01
        2   -1    0    0  501    0  0.00000000000E+00  0.00000000000E+00  0.17802675828E+04  0.17802675828E+04  0.25500000920E-02 0. -1.
       -2   -1    0    0    0  501  0.00000000000E+00  0.00000000000E+00 -0.14320387044E+04  0.14320387044E+04  0.25500000920E-02 0.  1.
    10030    2    1    2    0    0  0.00000000000E+00  0.00000000000E+00  0.34822887838E+03  0.32123062873E+04  0.31933756953E+04 0.  0.
        5    1    3    3  502    0  0.50678719315E+03  0.47346503426E+03  0.16208291394E+04  0.17629837172E+04  0.46999998093E+01 0. -1.
       -5    1    3    3    0  502 -0.50678719315E+03 -0.47346503426E+03 -0.12726002610E+04  0.14493225701E+04  0.46999998093E+01 0.  1.
</event>
<event>
 5   0  0.2621528E-06  0.3203490E+04  0.7818609E-02  0.8187896E-01
        2   -1    0    0  501    0  0.00000000000E+00  0.00000000000E+00  0.17842499542E+04  0.17842499542E+04  0.25500000920E-02 0. -1.
       -2   -1    0    0    0  501  0.00000000000E+00  0.00000000000E+00 -0.14379080750E+04  0.14379080750E+04  0.25500000920E-02 0.  1.
    10030    2    1    2    0    0  0.00000000000E+00  0.00000000000E+00  0.34634187917E+03  0.32221580292E+04  0.32034902322E+04 0.  0.
        2    1    3    3  502    0  0.39045331269E+03  0.13983842887E+04  0.85361517958E+03  0.16842183003E+04  0.25500000920E-02 0. -1.
       -2    1    3    3    0  502 -0.39045331269E+03 -0.13983842887E+04 -0.50727330041E+03  0.15379397289E+04  0.25500000920E-02 0.  1.
</event>
<event>
 5   0  0.2621528E-06  0.3178006E+04  0.7818609E-02  0.8194650E-01
       -2   -1    0    0    0  501  0.00000000000E+00  0.00000000000E+00  0.13294275466E+04  0.13294275466E+04  0.25500000920E-02 0. -1.
        2   -1    0    0  501    0  0.00000000000E+00  0.00000000000E+00 -0.18992620294E+04  0.18992620294E+04  0.25500000920E-02 0.  1.
    10030    2    1    2    0    0  0.00000000000E+00  0.00000000000E+00 -0.56983448288E+03  0.32286895760E+04  0.31780064569E+04 0.  0.
        2    1    3    3  502    0 -0.66773276217E+01 -0.15833157245E+04 -0.14862111375E+03  0.15902897553E+04  0.25500000920E-02 0. -1.
       -2    1    3    3    0  502  0.66773276217E+01  0.15833157245E+04 -0.42121336913E+03  0.16383998207E+04  0.25500000920E-02 0.  1.
</event>
<event>
 5   0  0.2401139E-06  0.3139768E+04  0.7818609E-02  0.8204908E-01
        2   -1    0    0  501    0  0.00000000000E+00  0.00000000000E+00  0.12957027582E+04  0.12957027582E+04  0.25500000920E-02 0.  1.
       -2   -1    0    0    0  501  0.00000000000E+00  0.00000000000E+00 -0.19020837072E+04  0.19020837072E+04  0.25500000920E-02 0. -1.
    10030    2    1    2    0    0  0.00000000000E+00  0.00000000000E+00 -0.60638094906E+03  0.31977864654E+04  0.31397675747E+04 0.  0.
        5    1    3    3  502    0 -0.32810936117E+02 -0.10936748830E+04  0.84336133376E+03  0.13814780985E+04  0.46999998093E+01 0.  1.
       -5    1    3    3    0  502  0.32810936117E+02  0.10936748830E+04 -0.14497422828E+04  0.18163083669E+04  0.46999998093E+01 0. -1.
</event>
<event>
 5   0  0.2337504E-06  0.3212846E+04  0.7818609E-02  0.8185433E-01
        2   -1    0    0  501    0  0.00000000000E+00  0.00000000000E+00  0.15928669897E+04  0.15928669897E+04  0.25500000920E-02 0.  1.
       -2   -1    0    0    0  501  0.00000000000E+00  0.00000000000E+00 -0.16200938825E+04  0.16200938826E+04  0.25500000920E-02 0. -1.
    10030    2    1    2    0    0  0.00000000000E+00  0.00000000000E+00 -0.27226892861E+02  0.32129608722E+04  0.32128455087E+04 0.  0.
        1    1    3    3  502    0  0.18402475614E+03  0.81074382781E+03 -0.13882257881E+04  0.16181290134E+04  0.50400001928E-02 0. -1.
       -1    1    3    3    0  502 -0.18402475614E+03 -0.81074382781E+03  0.13609988952E+04  0.15948318589E+04  0.50400001928E-02 0.  1.
</event>
<event>
 5   0  0.2621528E-06  0.3207894E+04  0.7818609E-02  0.8186735E-01
       -2   -1    0    0    0  501  0.00000000000E+00  0.00000000000E+00  0.16928809775E+04  0.16928809775E+04  0.25500000920E-02 0. -1.
        2   -1    0    0  501    0  0.00000000000E+00  0.00000000000E+00 -0.15196853192E+04  0.15196853192E+04  0.25500000920E-02 0.  1.
    10030    2    1    2    0    0  0.00000000000E+00  0.00000000000E+00  0.17319565832E+03  0.32125662967E+04  0.32078942431E+04 0.  0.
        2    1    3    3  502    0  0.64391391795E+02  0.44020296358E+03 -0.14566596696E+04  0.15230831538E+04  0.25500000920E-02 0.  1.
       -2    1    3    3    0  502 -0.64391391795E+02 -0.44020296358E+03  0.16298553279E+04  0.16894831429E+04  0.25500000920E-02 0. -1.
</event>
<event>
 5   0  0.2337504E-06  0.3245609E+04  0.7818609E-02  0.8176875E-01
       -2   -1    0    0    0  501  0.00000000000E+00  0.00000000000E+00  0.16041024776E+04  0.16041024776E+04  0.25500000920E-02 0. -1.
        2   -1    0    0  501    0  0.00000000000E+00  0.00000000000E+00 -0.16417250184E+04  0.16417250185E+04  0.25500000920E-02 0.  1.
    10030    2    1    2    0    0  0.00000000000E+00  0.00000000000E+00 -0.37622540819E+02  0.32458274961E+04  0.32456094464E+04 0.  0.
        1    1    3    3  502    0 -0.45074752765E+02  0.79407777790E+03  0.13958168720E+04  0.16065167260E+04  0.50400001928E-02 0. -1.
       -1    1    3    3    0  502  0.45074752765E+02 -0.79407777790E+03 -0.14334394128E+04  0.16393107701E+04  0.50400001928E-02 0.  1.
</event>
<event>
 5   0  0.8383008E-07  0.3120045E+04  0.7818609E-02  0.8210258E-01
        1   -1    0    0  501    0  0.00000000000E+00  0.00000000000E+00  0.24959055084E+04  0.24959055084E+04  0.50400001928E-02 0. -1.
       -1   -1    0    0    0  501  0.00000000000E+00  0.00000000000E+00 -0.97506519412E+03  0.97506519413E+03  0.50400001928E-02 0.  1.
    10030    2    1    2    0    0  0.00000000000E+00  0.00000000000E+00  0.15208403143E+04  0.34709707026E+04  0.31200452491E+04 0.  0.
        4    1    3    3  502    0 -0.53592126554E+03 -0.14589792790E+04  0.90899626440E+03  0.18005854495E+04  0.12699999809E+01 0. -1.
       -4    1    3    3    0  502  0.53592126554E+03  0.14589792790E+04  0.61184404991E+03  0.16703852531E+04  0.12699999809E+01 0.  1.
</event>
<event>
 5   0  0.8383008E-07  0.3198668E+04  0.7818609E-02  0.8189169E-01
        1   -1    0    0  501    0  0.00000000000E+00  0.00000000000E+00  0.10094828934E+04  0.10094828934E+04  0.50400001928E-02 0. -1.
       -1   -1    0    0    0  501  0.00000000000E+00  0.00000000000E+00 -0.25338412136E+04  0.25338412136E+04  0.50400001928E-02 0.  1.
    10030    2    1    2    0    0  0.00000000000E+00  0.00000000000E+00 -0.15243583203E+04  0.35433241070E+04  0.31986680726E+04 0.  0.
        4    1    3    3  502    0 -0.12393076699E+04 -0.42544266017E+03  0.25368410841E+03  0.13346318584E+04  0.12699999809E+01 0. -1.
       -4    1    3    3    0  502  0.12393076699E+04  0.42544266017E+03 -0.17780424287E+04  0.22086922486E+04  0.12699999809E+01 0.  1.
</event>
<event>
 5   0  0.8383008E-07  0.3242737E+04  0.7818609E-02  0.8177621E-01
       -1   -1    0    0    0  501  0.00000000000E+00  0.00000000000E+00  0.12013084975E+04  0.12013084975E+04  0.50400001928E-02 0.  1.
        1   -1    0    0  501    0  0.00000000000E+00  0.00000000000E+00 -0.21883102386E+04  0.21883102386E+04  0.50400001928E-02 0. -1.
    10030    2    1    2    0    0  0.00000000000E+00  0.00000000000E+00 -0.98700174110E+03  0.33896187361E+04  0.32427369210E+04 0.  0.
        4    1    3    3  502    0  0.40024645598E+02  0.59819967664E+03  0.10811839154E+04  0.12362868183E+04  0.12699999809E+01 0.  1.
       -4    1    3    3    0  502 -0.40024645598E+02 -0.59819967664E+03 -0.20681856565E+04  0.21533319177E+04  0.12699999809E+01 0. -1.
</event>
<event>
 5   0  0.2404430E-06  0.3264990E+04  0.7818609E-02  0.8171861E-01
        2   -1    0    0  501    0  0.00000000000E+00  0.00000000000E+00  0.15173247160E+04  0.15173247160E+04  0.25500000920E-02 0. -1.
       -2   -1    0    0    0  501  0.00000000000E+00  0.00000000000E+00 -0.17564066996E+04  0.17564066996E+04  0.25500000920E-02 0.  1.
    10030    2    1    2    0    0  0.00000000000E+00  0.00000000000E+00 -0.23908198360E+03  0.32737314156E+04  0.32649896151E+04 0.  0.
        4    1    3    3  502    0  0.21945855947E+03  0.12467291087E+04  0.91401575464E+03  0.15613846234E+04  0.12699999809E+01 0. -1.
       -4    1    3    3    0  502 -0.21945855947E+03 -0.12467291087E+04 -0.11530977382E+04  0.17123467921E+04  0.12699999809E+01 0.  1.
</event>
<event>
 5   0  0.8512855E-07  0.3185841E+04  0.7818609E-02  0.8192567E-01
        1   -1    0    0  501    0  0.00000000000E+00  0.00000000000E+00  0.19655048968E+04  0.19655048968E+04  0.50400001928E-02 0.  1.
       -1   -1    0    0    0  501  0.00000000000E+00  0.00000000000E+00 -0.12909638476E+04  0.12909638476E+04  0.50400001928E-02 0. -1.
    10030    2    1    2    0    0  0.00000000000E+00  0.00000000000E+00  0.67454104919E+03  0.32564687445E+04  0.31858410281E+04 0.  0.
        5    1    3    3  502    0  0.28825767557E+03  0.15655964003E+04  0.27954648142E+03  0.16162774828E+04  0.46999998093E+01 0. -1.
       -5    1    3    3    0  502 -0.28825767557E+03 -0.15655964003E+04  0.39499456777E+03  0.16401912616E+04  0.46999998093E+01 0.  1.
</event>
<event>
 5   0  0.8487944E-07  0.3191198E+04  0.7818609E-02  0.8191146E-01
        1   -1    0    0  501    0  0.00000000000E+00  0.00000000000E+00  0.16968947209E+04  0.16968947209E+04  0.50400001928E-02 0.  1.
       -1   -1    0    0    0  501  0.00000000000E+00  0.00000000000E+00 -0.15003498950E+04  0.15003498950E+04  0.50400001928E-02 0. -1.
    10030    2    1    2    0    0  0.00000000000E+00  0.00000000000E+00  0.19654482588E+03  0.31972446159E+04  0.31911977791E+04 0.  0.
        2    1    3    3  502    0  0.32577785078E+02  0.13550440492E+04 -0.74518389672E+03  0.15467723579E+04  0.25500000920E-02 0.  1.
       -2    1    3    3    0  502 -0.32577785078E+02 -0.13550440492E+04  0.94172872260E+03  0.16504722580E+04  0.25500000920E-02 0. -1.
</event>
<event>
 5   0  0.8383008E-07  0.3216839E+04  0.7818609E-02  0.8184384E-01
       -1   -1    0    0    0  501  0.00000000000E+00  0.00000000000E+00  0.18315176685E+04  0.18315176685E+04  0.50400001928E-02 0. -1.
        1   -1    0    0  501    0  0.00000000000E+00  0.00000000000E+00 -0.14124966025E+04  0.14124966025E+04  0.50400001928E-02 0.  1.
    10030    2    1    2    0    0  0.00000000000E+00  0.00000000000E+00  0.41902106600E+03  0.32440142711E+04  0.32168385003E+04 0.  0.
        4    1    3    3  502    0  0.63708223705E+03 -0.38364677448E+02  0.16983518004E+04  0.18143169723E+04  0.12699999809E+01 0. -1.
       -4    1    3    3    0  502 -0.63708223705E+03  0.38364677448E+02 -0.12793307344E+04  0.14296972988E+04  0.12699999809E+01 0.  1.
</event>
<event>
 5   0  0.8383008E-07  0.3205093E+04  0.7818609E-02  0.8187473E-01
       -1   -1    0    0    0  501  0.00000000000E+00  0.00000000000E+00  0.16837112751E+04  0.16837112751E+04  0.50400001928E-02 0.  1.
        1   -1    0    0  501    0  0.00000000000E+00  0.00000000000E+00 -0.15252942552E+04  0.15252942552E+04  0.50400001928E-02 0. -1.
    10030    2    1    2    0    0  0.00000000000E+00  0.00000000000E+00  0.15841701995E+03  0.32090055303E+04  0.32050929068E+04 0.  0.
        4    1    3    3  502    0  0.72687979088E+02 -0.98765352325E+03 -0.11822543443E+04  0.15422288974E+04  0.12699999809E+01 0. -1.
       -4    1    3    3    0  502 -0.72687979088E+02  0.98765352325E+03  0.13406713643E+04  0.16667766330E+04  0.12699999809E+01 0.  1.
</event>
<event>
 5   0  0.2466076E-06  0.3206993E+04  0.7818609E-02  0.8186973E-01
        2   -1    0    0  501    0  0.00000000000E+00  0.00000000000E+00  0.21277742770E+04  0.21277742770E+04  0.25500000920E-02 0.  1.
       -2   -1    0    0    0  501  0.00000000000E+00  0.00000000000E+00 -0.12083996450E+04  0.12083996450E+04  0.25500000920E-02 0. -1.
    10030    2    1    2    0    0  0.00000000000E+00  0.00000000000E+00  0.91937463195E+03  0.33361739220E+04  0.32069934088E+04 0.  0.
        3    1    3    3  502    0  0.34007099675E+03 -0.12460313145E+04 -0.52883098935E+03  0.13956735095E+04  0.10100000352E+00 0.  1.
       -3    1    3    3    0  502 -0.34007099675E+03  0.12460313145E+04  0.14482056213E+04  0.19405004126E+04  0.10100000352E+00 0. -1.
</event>
<event>
 5   0  0.8487944E-07  0.3200412E+04  0.7818609E-02  0.8188708E-01
        1   -1    0    0  501    0  0.00000000000E+00  0.00000000000E+00  0.20502969352E+04  0.20502969352E+04  0.50400001928E-02 0. -1.
       -1   -1    0    0    0  501  0.00000000000E+00  0.00000000000E+00 -0.12489211080E+04  0.12489211080E+04  0.50400001928E-02 0.  1.
    10030    2    1    2    0    0  0.00000000000E+00  0.00000000000E+00  0.80137582723E+03  0.32992180433E+04  0.32004119236E+04 0.  0.
        2    1    3    3  502    0 -0.39206912624E+03 -0.15512263805E+04  0.42671897510E+03  0.16559319330E+04  0.25500000920E-02 0.  1.
       -2    1    3    3    0  502  0.39206912624E+03  0.15512263805E+04  0.37465685213E+03  0.16432861102E+04  0.25500000920E-02 0. -1.
</event>
<event>
 5   0  0.2466076E-06  0.2884350E+04  0.7818609E-02  0.8277549E-01
        2   -1    0    0  501    0  0.00000000000E+00  0.00000000000E+00  0.28208985741E+04  0.28208985741E+04  0.25500000920E-02 0. -1.
       -2   -1    0    0    0  501  0.00000000000E+00  0.00000000000E+00 -0.73730724691E+03  0.73730724692E+03  0.25500000920E-02 0.  1.
    10030    2    1    2    0    0  0.00000000000E+00  0.00000000000E+00  0.20835913272E+04  0.35582058210E+04  0.28843501601E+04 0.  0.
        3    1    3    3  502    0  0.13630268708E+04 -0.12118433338E+03  0.16035232320E+04  0.21080357347E+04  0.10100000352E+00 0. -1.
       -3    1    3    3    0  502 -0.13630268708E+04  0.12118433338E+03  0.48006809526E+03  0.14501700864E+04  0.10100000352E+00 0.  1.
</event>
<event>
 5   0  0.8512855E-07  0.3211978E+04  0.7818609E-02  0.8185661E-01
        1   -1    0    0  501    0  0.00000000000E+00  0.00000000000E+00  0.28319419308E+04  0.28319419308E+04  0.50400001928E-02 0.  1.
       -1   -1    0    0    0  501  0.00000000000E+00  0.00000000000E+00 -0.91075343620E+03  0.91075343621E+03  0.50400001928E-02 0. -1.
    10030    2    1    2    0    0  0.00000000000E+00  0.00000000000E+00  0.19211884946E+04  0.37426953671E+04  0.32119781099E+04 0.  0.
        5    1    3    3  502    0  0.24710359079E+03  0.34522373128E+03 -0.84417431946E+03  0.94492961688E+03  0.46999998093E+01 0. -1.
       -5    1    3    3    0  502 -0.24710359079E+03 -0.34522373128E+03  0.27653628141E+04  0.27977657502E+04  0.46999998093E+01 0.  1.
</event>
<event>
 5   0  0.2466076E-06  0.3239275E+04  0.7818609E-02  0.8178521E-01
        2   -1    0    0  501    0  0.00000000000E+00  0.00000000000E+00  0.31360586074E+04  0.31360586074E+04  0.25500000920E-02 0.  1.
       -2   -1    0    0    0  501  0.00000000000E+00  0.00000000000E+00 -0.83647218911E+03  0.83647218911E+03  0.25500000920E-02 0. -1.
    10030    2    1    2    0    0  0.00000000000E+00  0.00000000000E+00  0.22995864183E+04  0.39725307965E+04  0.32392751093E+04 0.  0.
        3    1    3    3  502    0  0.41327376220E+03 -0.77978273063E+03  0.28152884781E+04  0.29503737957E+04  0.10100000352E+00 0.  1.
       -3    1    3    3    0  502 -0.41327376220E+03  0.77978273063E+03 -0.51570205981E+03  0.10221570008E+04  0.10100000352E+00 0. -1.
</event>
<event>
 5   0  0.8545153E-07  0.3170590E+04  0.7818609E-02  0.8196628E-01
        1   -1    0    0  501    0  0.00000000000E+00  0.00000000000E+00  0.15148276506E+04  0.15148276506E+04  0.50400001928E-02 0. -1.
       -1   -1    0    0    0  501  0.00000000000E+00  0.00000000000E+00 -0.16590402003E+04  0.16590402003E+04  0.50400001928E-02 0.  1.
    10030    2    1    2    0    0  0.00000000000E+00  0.00000000000E+00 -0.14421254976E+03  0.31738678509E+04  0.31705898309E+04 0.  0.
        3    1    3    3  502    0 -0.26283749556E+03 -0.43904794670E+03  0.14298827089E+04  0.15186873345E+04  0.10100000352E+00 0. -1.
       -3    1    3    3    0  502  0.26283749556E+03  0.43904794670E+03 -0.15740952586E+04  0.16551805164E+04  0.10100000352E+00 0.  1.
</event>
<event>
 5   0  0.8512855E-07  0.3205340E+04  0.7818609E-02  0.8187408E-01
        1   -1    0    0  501    0  0.00000000000E+00  0.00000000000E+00  0.19405553007E+04  0.19405553007E+04  0.50400001928E-02 0. -1.
       -1   -1    0    0    0  501  0.00000000000E+00  0.00000000000E+00 -0.13236162342E+04  0.13236162343E+04  0.50400001928E-02 0.  1.
    10030    2    1    2    0    0  0.00000000000E+00  0.00000000000E+00  0.61693906648E+03  0.32641715350E+04  0.32053396073E+04 0.  0.
        5    1    3    3  502    0  0.14420694815E+04  0.69215599165E+03  0.40971312844E+03  0.16512211372E+04  0.46999998093E+01 0. -1.
       -5    1    3    3    0  502 -0.14420694815E+04 -0.69215599165E+03  0.20722593805E+03  0.16129503978E+04  0.46999998093E+01 0.  1.
</event>
<event>
 5   0  0.2401139E-06  0.3209532E+04  0.7818609E-02  0.8186304E-01
       -2   -1    0    0    0  501  0.00000000000E+00  0.00000000000E+00  0.15258935327E+04  0.15258935327E+04  0.25500000920E-02 0.  1.
        2   -1    0    0  501    0  0.00000000000E+00  0.00000000000E+00 -0.16877157244E+04  0.16877157244E+04  0.25500000920E-02 0. -1.
    10030    2    1    2    0    0  0.00000000000E+00  0.00000000000E+00 -0.16182219171E+03  0.32136092570E+04  0.32095323702E+04 0.  0.
        5    1    3    3  502    0  0.88406027433E+03 -0.15919212527E+03  0.12505704227E+04  0.15397575048E+04  0.46999998093E+01 0.  1.
       -5    1    3    3    0  502 -0.88406027433E+03  0.15919212527E+03 -0.14123926144E+04  0.16738517523E+04  0.46999998093E+01 0. -1.
</event>
<event>
 5   0  0.8545153E-07  0.3228383E+04  0.7818609E-02  0.8181361E-01
       -1   -1    0    0    0  501  0.00000000000E+00  0.00000000000E+00  0.20636895419E+04  0.20636895419E+04  0.50400001928E-02 0.  1.
        1   -1    0    0  501    0  0.00000000000E+00  0.00000000000E+00 -0.12626001424E+04  0.12626001424E+04  0.50400001928E-02 0. -1.
    10030    2    1    2    0    0  0.00000000000E+00  0.00000000000E+00  0.80108939948E+03  0.33262896843E+04  0.32283833165E+04 0.  0.
        3    1    3    3  502    0 -0.22612772702E+03 -0.15924561569E+04  0.54092776313E+03  0.16969540995E+04  0.10100000352E+00 0.  1.
       -3    1    3    3    0  502  0.22612772702E+03  0.15924561569E+04  0.26016163634E+03  0.16293355848E+04  0.10100000352E+00 0. -1.
</event>
<event>
 5   0  0.8487944E-07  0.2760509E+04  0.7818609E-02  0.8315635E-01
        1   -1    0    0  501    0  0.00000000000E+00  0.00000000000E+00  0.14943443041E+04  0.14943443041E+04  0.50400001928E-02 0.  1.
       -1   -1    0    0    0  501  0.00000000000E+00  0.00000000000E+00 -0.12748748713E+04  0.12748748713E+04  0.50400001928E-02 0. -1.
    10030    2    1    2    0    0  0.00000000000E+00  0.00000000000E+00  0.21946943275E+03  0.27692191754E+04  0.27605086505E+04 0.  0.
        2    1    3    3  502    0  0.12519247029E+04  0.27810735618E+03  0.62168103959E+03  0.14251829631E+04  0.25500000920E-02 0.  1.
       -2    1    3    3    0  502 -0.12519247029E+04 -0.27810735618E+03 -0.40221160684E+03  0.13440362123E+04  0.25500000920E-02 0. -1.
</event>
<event>
 5   0  0.2621528E-06  0.3161131E+04  0.7818609E-02  0.8199158E-01
        2   -1    0    0  501    0  0.00000000000E+00  0.00000000000E+00  0.19525693716E+04  0.19525693716E+04  0.25500000920E-02 0.  1.
       -2   -1    0    0    0  501  0.00000000000E+00  0.00000000000E+00 -0.12794360546E+04  0.12794360546E+04  0.25500000920E-02 0. -1.
    10030    2    1    2    0    0  0.00000000000E+00  0.00000000000E+00  0.67313331696E+03  0.32320054262E+04  0.31611312236E+04 0.  0.
        2    1    3    3  502    0 -0.22396698304E+03  0.31358301975E+03  0.19038049652E+04  0.19424131552E+04  0.25500000920E-02 0.  1.
       -2    1    3    3    0  502  0.22396698304E+03 -0.31358301975E+03 -0.12306716483E+04  0.12895922711E+04  0.25500000920E-02 0. -1.
</event>
<event>
 5   0  0.2621528E-06  0.3196828E+04  0.7818609E-02  0.8189655E-01
       -2   -1    0    0    0  501  0.00000000000E+00  0.00000000000E+00  0.15819194881E+04  0.15819194881E+04  0.25500000920E-02 0.  1.
        2   -1    0    0  501    0  0.00000000000E+00  0.00000000000E+00 -0.16150805537E+04  0.16150805537E+04  0.25500000920E-02 0. -1.
    10030    2    1    2    0    0  0.00000000000E+00  0.00000000000E+00 -0.33161065660E+02  0.31970000418E+04  0.31968280546E+04 0.  0.
        2    1    3    3  502    0 -0.92338476520E+03 -0.90282142627E+03 -0.95854492420E+03  0.16082706004E+04  0.25500000920E-02 0. -1.
       -2    1    3    3    0  502  0.92338476520E+03  0.90282142627E+03  0.92538385854E+03  0.15887294414E+04  0.25500000920E-02 0.  1.
</event>
<event>
 5   0  0.2404430E-06  0.3259497E+04  0.7818609E-02  0.8173279E-01
        2   -1    0    0  501    0  0.00000000000E+00  0.00000000000E+00  0.13612749924E+04  0.13612749924E+04  0.25500000920E-02 0. -1.
       -2   -1    0    0    0  501  0.00000000000E+00  0.00000000000E+00 -0.19511704048E+04  0.19511704048E+04  0.25500000920E-02 0.  1.
    10030    2    1    2    0    0  0.00000000000E+00  0.00000000000E+00 -0.58989541241E+03  0.33124453972E+04  0.32594965734E+04 0.  0.
        4    1    3    3  502    0 -0.15460223853E+04 -0.51415023104E+03 -0.33485635724E+03  0.16633298136E+04  0.12699999809E+01 0.  1.
       -4    1    3    3    0  502  0.15460223853E+04  0.51415023104E+03 -0.25503905517E+03  0.16491155837E+04  0.12699999809E+01 0. -1.
</event>
<event>
 5   0  0.2337504E-06  0.3098130E+04  0.7818609E-02  0.8216251E-01
       -2   -1    0    0    0  501  0.00000000000E+00  0.00000000000E+00  0.89997020345E+03  0.89997020346E+03  0.25500000920E-02 0.  1.
        2   -1    0    0  501    0  0.00000000000E+00  0.00000000000E+00 -0.26663131049E+04  0.26663131049E+04  0.25500000920E-02 0. -1.
    10030    2    1    2    0    0  0.00000000000E+00  0.00000000000E+00 -0.17663429015E+04  0.35662833084E+04  0.30981299828E+04 0.  0.
        1    1    3    3  502    0  0.14263010669E+03  0.34778291619E+03 -0.26130180995E+04  0.26399166450E+04  0.50400001928E-02 0. -1.
       -1    1    3    3    0  502 -0.14263010669E+03 -0.34778291619E+03  0.84667519801E+03  0.92636666341E+03  0.50400001928E-02 0.  1.
</event>
<event>
 5   0  0.7934375E-07  0.3195190E+04  0.7818609E-02  0.8190089E-01
        4   -1    0    0  501    0  0.00000000000E+00  0.00000000000E+00  0.13249305491E+04  0.13249311578E+04  0.12699999809E+01 0.  1.
       -4   -1    0    0    0  501  0.00000000000E+00  0.00000000000E+00 -0.19263707088E+04  0.19263711275E+04  0.12699999809E+01 0. -1.
    10030    2    1    2    0    0  0.00000000000E+00  0.00000000000E+00 -0.60144015973E+03  0.32513022853E+04  0.31951895538E+04 0.  0.
        5    1    3    3  502    0  0.17444390310E+03  0.13550317337E+04  0.54192006058E+03  0.14697758729E+04  0.46999998093E+01 0.  1.
       -5    1    3    3    0  502 -0.17444390310E+03 -0.13550317337E+04 -0.11433602203E+04  0.17815264124E+04  0.46999998093E+01 0. -1.
</event>
<event>
 5   0  0.2404430E-06  0.3157897E+04  0.7818609E-02  0.8200026E-01
       -2   -1    0    0    0  501  0.00000000000E+00  0.00000000000E+00  0.27628029452E+04  0.27628029452E+04  0.25500000920E-02 0.  1.
        2   -1    0    0  501    0  0.00000000000E+00  0.00000000000E+00 -0.90237304098E+03  0.90237304098E+03  0.25500000920E-02 0. -1.
    10030    2    1    2    0    0  0.00000000000E+00  0.00000000000E+00  0.18604299042E+04  0.36651759862E+04  0.31578973354E+04 0.  0.
        4    1    3    3  502    0 -0.10337848659E+04 -0.40916384074E+03 -0.37102088087E+03  0.11720854510E+04  0.12699999809E+01 0. -1.
       -4    1    3    3    0  502  0.10337848659E+04  0.40916384074E+03  0.22314507851E+04  0.24930905352E+04  0.12699999809E+01 0.  1.
</event>
<event>
 5   0  0.2466076E-06  0.3216306E+04  0.7818609E-02  0.8184524E-01
        2   -1    0    0  501    0  0.00000000000E+00  0.00000000000E+00  0.29371035966E+04  0.29371035966E+04  0.25500000920E-02 0.  1.
       -2   -1    0    0    0  501  0.00000000000E+00  0.00000000000E+00 -0.88051263740E+03  0.88051263741E+03  0.25500000920E-02 0. -1.
    10030    2    1    2    0    0  0.00000000000E+00  0.00000000000E+00  0.20565909592E+04  0.38176162340E+04  0.32163064743E+04 0.  0.
        3    1    3    3  502    0  0.12668732129E+04  0.98797691267E+03  0.94360709006E+03  0.18631855700E+04  0.10100000352E+00 0.  1.
       -3    1    3    3    0  502 -0.12668732129E+04 -0.98797691267E+03  0.11129838692E+04  0.19544306641E+04  0.10100000352E+00 0. -1.
</event>
<event>
 5   0  0.8545153E-07  0.3163634E+04  0.7818609E-02  0.8198488E-01
        1   -1    0    0  501    0  0.00000000000E+00  0.00000000000E+00  0.19922120209E+04  0.19922120209E+04  0.50400001928E-02 0.  1.
       -1   -1    0    0    0  501  0.00000000000E+00  0.00000000000E+00 -0.12559634370E+04  0.12559634370E+04  0.50400001928E-02 0. -1.
    10030    2    1    2    0    0  0.00000000000E+00  0.00000000000E+00  0.73624858384E+03  0.32481754579E+04  0.31636342753E+04 0.  0.
        3    1    3    3  502    0  0.84548148946E+03 -0.18096738340E+03 -0.99186969120E+03  0.13158243186E+04  0.10100000352E+00 0. -1.
       -3    1    3    3    0  502 -0.84548148946E+03  0.18096738340E+03  0.17281182750E+04  0.19323511393E+04  0.10100000352E+00 0.  1.
</event>
<event>
 5   0  0.2401139E-06  0.3209349E+04  0.7818609E-02  0.8186352E-01
        2   -1    0    0  501    0  0.00000000000E+00  0.00000000000E+00  0.24298076999E+04  0.24298076999E+04  0.25500000920E-02 0.  1.
       -2   -1    0    0    0  501  0.00000000000E+00  0.00000000000E+00 -0.10597468223E+04  0.10597468223E+04  0.25500000920E-02 0. -1.
    10030    2    1    2    0    0  0.00000000000E+00  0.00000000000E+00  0.13700608776E+04  0.34895545222E+04  0.32093494598E+04 0.  0.
        5    1    3    3  502    0  0.74562537380E+03 -0.13263710702E+04  0.13088515848E+03  0.15272100146E+04  0.46999998093E+01 0.  1.
       -5    1    3    3    0  502 -0.74562537380E+03  0.13263710702E+04  0.12391757191E+04  0.19623445076E+04  0.46999998093E+01 0. -1.
</event>
<event>
 5   0  0.8383008E-07  0.3197571E+04  0.7818609E-02  0.8189459E-01
       -1   -1    0    0    0  501  0.00000000000E+00  0.00000000000E+00  0.15073109413E+04  0.15073109413E+04  0.50400001928E-02 0. -1.
        1   -1    0    0  501    0  0.00000000000E+00  0.00000000000E+00 -0.16958110038E+04  0.16958110039E+04  0.50400001928E-02 0.  1.
    10030    2    1    2    0    0  0.00000000000E+00  0.00000000000E+00 -0.18850006251E+03  0.32031219452E+04  0.31975706282E+04 0.  0.
        4    1    3    3  502    0  0.14267398481E+04 -0.63015465547E+03  0.25768793956E+03  0.15808498256E+04  0.12699999809E+01 0. -1.
       -4    1    3    3    0  502 -0.14267398481E+04  0.63015465547E+03 -0.44618800207E+03  0.16222721196E+04  0.12699999809E+01 0.  1.
</event>
<event>
 5   0  0.2337504E-06  0.3099183E+04  0.7818609E-02  0.8215962E-01
        2   -1    0    0  501    0  0.00000000000E+00  0.00000000000E+00  0.18682795625E+04  0.18682795625E+04  0.25500000920E-02 0. -1.
       -2   -1    0    0    0  501  0.00000000000E+00  0.00000000000E+00 -0.12852645917E+04  0.12852645917E+04  0.25500000920E-02 0.  1.
    10030    2    1    2    0    0  0.00000000000E+00  0.00000000000E+00  0.58301497077E+03  0.31535441541E+04  0.30991828400E+04 0.  0.
        1    1    3    3  502    0  0.73170510504E+03  0.63690369840E+03  0.15210884443E+04  0.18040922197E+04  0.50400001928E-02 0. -1.
       -1    1    3    3    0  502 -0.73170510504E+03 -0.63690369840E+03 -0.93807347349E+03  0.13494519345E+04  0.50400001928E-02 0.  1.
</event>
<event>
 5   0  0.2621528E-06  0.3246783E+04  0.7818609E-02  0.8176570E-01
        2   -1    0    0  501    0  0.00000000000E+00  0.00000000000E+00  0.17129976191E+04  0.17129976191E+04  0.25500000920E-02 0.  1.
       -2   -1    0    0    0  501  0.00000000000E+00  0.00000000000E+00 -0.15384729630E+04  0.15384729630E+04  0.25500000920E-02 0. -1.
    10030    2    1    2    0    0  0.00000000000E+00  0.00000000000E+00  0.17452465614E+03  0.32514705821E+04  0.32467833452E+04 0.  0.
        2    1    3    3  502    0 -0.83977348468E+03 -0.13485151723E+04  0.42194211166E+03  0.16436994315E+04  0.25500000920E-02 0.  1.
       -2    1    3    3    0  502  0.83977348468E+03  0.13485151723E+04 -0.24741745552E+03  0.16077711506E+04  0.25500000920E-02 0. -1.
</event>
<event>
 5   0  0.8512855E-07  0.3205811E+04  0.7818609E-02  0.8187284E-01
        1   -1    0    0  501    0  0.00000000000E+00  0.00000000000E+00  0.22859762823E+04  0.22859762823E+04  0.50400001928E-02 0. -1.
       -1   -1    0    0    0  501  0.00000000000E+00  0.00000000000E+00 -0.11239423519E+04  0.11239423519E+04  0.50400001928E-02 0.  1.
    10030    2    1    2    0    0  0.00000000000E+00  0.00000000000E+00  0.11620339304E+04  0.34099186341E+04  0.32058106987E+04 0.  0.
        5    1    3    3  502    0  0.26414214093E+03 -0.15765485243E+04  0.70690400292E+03  0.17478591704E+04  0.46999998093E+01 0. -1.
       -5    1    3    3    0  502 -0.26414214093E+03  0.15765485243E+04  0.45512992745E+03  0.16620594638E+04  0.46999998093E+01 0.  1.
</event>
<event>
 5   0  0.2404430E-06  0.3202634E+04  0.7818609E-02  0.8188122E-01
       -2   -1    0    0    0  501  0.00000000000E+00  0.00000000000E+00  0.10125934743E+04  0.10125934743E+04  0.25500000920E-02 0. -1.
        2   -1    0    0  501    0  0.00000000000E+00  0.00000000000E+00 -0.25323249128E+04  0.25323249128E+04  0.25500000920E-02 0.  1.
    10030    2    1    2    0    0  0.00000000000E+00  0.00000000000E+00 -0.15197314385E+04  0.35449183871E+04  0.32026337171E+04 0.  0.
        4    1    3    3  502    0  0.77030356710E+02  0.15985682141E+04 -0.81906090257E+03  0.17978365849E+04  0.12699999809E+01 0. -1.
       -4    1    3    3    0  502 -0.77030356710E+02 -0.15985682141E+04 -0.70067053594E+03  0.17470818022E+04  0.12699999809E+01 0.  1.
</event>
<event>
 5   0  0.2401139E-06  0.3211017E+04  0.7818609E-02  0.8185914E-01
        2   -1    0    0  501    0  0.00000000000E+00  0.00000000000E+00  0.19289709889E+04  0.19289709889E+04  0.25500000920E-02 0.  1.
       -2   -1    0    0    0  501  0.00000000000E+00  0.00000000000E+00 -0.13362859920E+04  0.13362859920E+04  0.25500000920E-02 0. -1.
    10030    2    1    2    0    0  0.00000000000E+00  0.00000000000E+00  0.59268499693E+03  0.32652569809E+04  0.32110166063E+04 0.  0.
        5    1    3    3  502    0  0.35604090961E+03 -0.14867993251E+04 -0.20213941384E+03  0.15421477864E+04  0.46999998093E+01 0.  1.
       -5    1    3    3    0  502 -0.35604090961E+03  0.14867993251E+04  0.79482441077E+03  0.17231091946E+04  0.46999998093E+01 0. -1.
</event>
<event>
 5   0  0.8383008E-07  0.3228705E+04  0.7818609E-02  0.8181277E-01
        1   -1    0    0  501    0  0.00000000000E+00  0.00000000000E+00  0.23130894036E+04  0.23130894036E+04  0.50400001928E-02 0.  1.
       -1   -1    0    0    0  501  0.00000000000E+00  0.00000000000E+00 -0.11266896638E+04  0.11266896638E+04  0.50400001928E-02 0. -1.
    10030    2    1    2    0    0  0.00000000000E+00  0.00000000000E+00  0.11863997397E+04  0.34397790674E+04  0.32287049555E+04 0.  0.
        4    1    3    3  502    0 -0.11149378423E+04 -0.79842276948E+03  0.15006879925E+04  0.20328874476E+04  0.12699999809E+01 0.  1.
       -4    1    3    3    0  502  0.11149378423E+04  0.79842276948E+03 -0.31428825271E+03  0.14068916198E+04  0.12699999809E+01 0. -1.
</event>
<event>
 5   0  0.2466076E-06  0.3210323E+04  0.7818609E-02  0.8186096E-01
        2   -1    0    0  501    0  0.00000000000E+00  0.00000000000E+00  0.15015933920E+04  0.15015933920E+04  0.25500000920E-02 0.  1.
       -2   -1    0    0    0  501  0.00000000000E+00  0.00000000000E+00 -0.17158733837E+04  0.17158733837E+04  0.25500000920E-02 0. -1.
    10030    2    1    2    0    0  0.00000000000E+00  0.00000000000E+00 -0.21427999175E+03  0.32174667757E+04  0.32103234320E+04 0.  0.
        3    1    3    3  502    0 -0.14255320465E+04 -0.38052955747E+03 -0.74068561800E+03  0.16509268774E+04  0.10100000352E+00 0. -1.
       -3    1    3    3    0  502  0.14255320465E+04  0.38052955747E+03  0.52640562625E+03  0.15665398984E+04  0.10100000352E+00 0.  1.
</event>
<event>
 5   0  0.7934375E-07  0.2836327E+04  0.7818609E-02  0.8292078E-01
       -3   -1    0    0    0  501  0.00000000000E+00  0.00000000000E+00  0.14674286838E+04  0.14674286872E+04  0.10100000352E+00 0.  1.
        3   -1    0    0  501    0  0.00000000000E+00  0.00000000000E+00 -0.13705522741E+04  0.13705522778E+04  0.10100000352E+00 0. -1.
    10030    2    1    2    0    0  0.00000000000E+00  0.00000000000E+00  0.96876409711E+02  0.28379809650E+04  0.28363270120E+04 0.  0.
        2    1    3    3  502    0  0.13938306271E+04  0.19766873396E+02  0.30942201874E+03  0.14278993424E+04  0.25500000920E-02 0. -1.
       -2    1    3    3    0  502 -0.13938306271E+04 -0.19766873396E+02 -0.21254560903E+03  0.14100816226E+04  0.25500000920E-02 0.  1.
</event>
<event>
 5   0  0.8545153E-07  0.3221253E+04  0.7818609E-02  0.8183227E-01
       -1   -1    0    0    0  501  0.00000000000E+00  0.00000000000E+00  0.14330585579E+04  0.14330585579E+04  0.50400001928E-02 0.  1.
        1   -1    0    0  501    0  0.00000000000E+00  0.00000000000E+00 -0.18101971092E+04  0.18101971092E+04  0.50400001928E-02 0. -1.
    10030    2    1    2    0    0  0.00000000000E+00  0.00000000000E+00 -0.37713855127E+03  0.32432556671E+04  0.32212534571E+04 0.  0.
        3    1    3    3  502    0 -0.46171485330E+03 -0.10076693552E+04  0.98797574705E+03  0.14848145413E+04  0.10100000352E+00 0.  1.
       -3    1    3    3    0  502  0.46171485330E+03  0.10076693552E+04 -0.13651142983E+04  0.17584411258E+04  0.10100000352E+00 0. -1.
</event>
<event>
 5   0  0.8545153E-07  0.3198405E+04  0.7818609E-02  0.8189239E-01
       -1   -1    0    0    0  501  0.00000000000E+00  0.00000000000E+00  0.15584519293E+04  0.15584519293E+04  0.50400001928E-02 0.  1.
        1   -1    0    0  501    0  0.00000000000E+00  0.00000000000E+00 -0.16410184980E+04  0.16410184980E+04  0.50400001928E-02 0. -1.
    10030    2    1    2    0    0  0.00000000000E+00  0.00000000000E+00 -0.82566568701E+02  0.31994704273E+04  0.31984048801E+04 0.  0.
        3    1    3    3  502    0  0.13570620649E+04 -0.25543790126E+03  0.76557235288E+03  0.15789132361E+04  0.10100000352E+00 0.  1.
       -3    1    3    3    0  502 -0.13570620649E+04  0.25543790126E+03 -0.84813892158E+03  0.16205571912E+04  0.10100000352E+00 0. -1.
</event>
<event>
 5   0  0.8681172E-07  0.3196561E+04  0.7818609E-02  0.8189726E-01
        1   -1    0    0  501    0  0.00000000000E+00  0.00000000000E+00  0.23375070268E+04  0.23375070268E+04  0.50400001928E-02 0. -1.
       -1   -1    0    0    0  501  0.00000000000E+00  0.00000000000E+00 -0.10928312148E+04  0.10928312148E+04  0.50400001928E-02 0.  1.
    10030    2    1    2    0    0  0.00000000000E+00  0.00000000000E+00  0.12446758120E+04  0.34303382416E+04  0.31965610545E+04 0.  0.
        1    1    3    3  502    0  0.10052958775E+04  0.11083164300E+04  0.12251255112E+04  0.19338866638E+04  0.50400001928E-02 0.  1.
       -1    1    3    3    0  502 -0.10052958775E+04 -0.11083164300E+04  0.19550300839E+02  0.14964515778E+04  0.50400001928E-02 0. -1.
</event>
<event>
 5   0  0.2466076E-06  0.2620196E+04  0.7818609E-02  0.8361373E-01
       -2   -1    0    0    0  501  0.00000000000E+00  0.00000000000E+00  0.16288120699E+04  0.16288120699E+04  0.25500000920E-02 0. -1.
        2   -1    0    0  501    0  0.00000000000E+00  0.00000000000E+00 -0.10537472060E+04  0.10537472060E+04  0.25500000920E-02 0.  1.
    10030    2    1    2    0    0  0.00000000000E+00  0.00000000000E+00  0.57506486386E+03  0.26825592759E+04  0.26201955406E+04 0.  0.
        3    1    3    3  502    0  0.92053220001E+03 -0.25122276540E+03 -0.63153300474E+03  0.11442579934E+04  0.10100000352E+00 0.  1.
       -3    1    3    3    0  502 -0.92053220001E+03  0.25122276540E+03  0.12065978686E+04  0.15383012825E+04  0.10100000352E+00 0. -1.
</event>
<event>
 5   0  0.7934375E-07  0.3126447E+04  0.7818609E-02  0.8208517E-01
        3   -1    0    0  501    0  0.00000000000E+00  0.00000000000E+00  0.16388573259E+04  0.16388573291E+04  0.10100000352E+00 0.  1.
       -3   -1    0    0    0  501  0.00000000000E+00  0.00000000000E+00 -0.14910800494E+04  0.14910800528E+04  0.10100000352E+00 0. -1.
    10030    2    1    2    0    0  0.00000000000E+00  0.00000000000E+00  0.14777727659E+03  0.31299373818E+04  0.31264468476E+04 0.  0.
        3    1    3    3  502    0 -0.11321138299E+04 -0.10548431150E+04  0.29615394542E+03  0.15754627545E+04  0.10100000352E+00 0. -1.
       -3    1    3    3    0  502  0.11321138299E+04  0.10548431150E+04 -0.14837666882E+03  0.15544746274E+04  0.10100000352E+00 0.  1.
</event>
<event>
 5   0  0.2466076E-06  0.3202119E+04  0.7818609E-02  0.8188258E-01
       -2   -1    0    0    0  501  0.00000000000E+00  0.00000000000E+00  0.14231217313E+04  0.14231217313E+04  0.25500000920E-02 0.  1.
        2   -1    0    0  501    0  0.00000000000E+00  0.00000000000E+00 -0.18012456635E+04  0.18012456635E+04  0.25500000920E-02 0. -1.
    10030    2    1    2    0    0  0.00000000000E+00  0.00000000000E+00 -0.37812393223E+03  0.32243673949E+04  0.32021192028E+04 0.  0.
        3    1    3    3  502    0 -0.27005570593E+03 -0.10257851597E+04  0.10185312872E+04  0.14705683498E+04  0.10100000352E+00 0.  1.
       -3    1    3    3    0  502  0.27005570593E+03  0.10257851597E+04 -0.13966552194E+04  0.17537990451E+04  0.10100000352E+00 0. -1.
</event>
<event>
 5   0  0.2401139E-06  0.3151456E+04  0.7818609E-02  0.8201756E-01
        2   -1    0    0  501    0  0.00000000000E+00  0.00000000000E+00  0.35343934571E+04  0.35343934571E+04  0.25500000920E-02 0. -1.
       -2   -1    0    0    0  501  0.00000000000E+00  0.00000000000E+00 -0.70250220327E+03  0.70250220328E+03  0.25500000920E-02 0.  1.
    10030    2    1    2    0    0  0.00000000000E+00  0.00000000000E+00  0.28318912539E+04  0.42368956604E+04  0.31514562925E+04 0.  0.
        5    1    3    3  502    0  0.60739428054E+03 -0.10391580208E+03 -0.53378113097E+03  0.81527338465E+03  0.46999998093E+01 0.  1.
       -5    1    3    3    0  502 -0.60739428054E+03  0.10391580208E+03  0.33656723848E+04  0.34216222757E+04  0.46999998093E+01 0. -1.
</event>
<event>
 5   0  0.8487944E-07  0.3018899E+04  0.7818609E-02  0.8238355E-01
        1   -1    0    0  501    0  0.00000000000E+00  0.00000000000E+00  0.84085107584E+03  0.84085107585E+03  0.50400001928E-02 0. -1.
       -1   -1    0    0    0  501  0.00000000000E+00  0.00000000000E+00 -0.27096806150E+04  0.27096806150E+04  0.50400001928E-02 0.  1.
    10030    2    1    2    0    0  0.00000000000E+00  0.00000000000E+00 -0.18688295391E+04  0.35505316908E+04  0.30188990446E+04 0.  0.
        2    1    3    3  502    0  0.71810218589E+03  0.98698226769E+03  0.11002237277E+03  0.12255242424E+04  0.25500000920E-02 0. -1.
       -2    1    3    3    0  502 -0.71810218589E+03 -0.98698226769E+03 -0.19788519119E+04  0.23250074485E+04  0.25500000920E-02 0.  1.
</event>
<event>
 5   0  0.8383008E-07  0.3230829E+04  0.7818609E-02  0.8180722E-01
       -1   -1    0    0    0  501  0.00000000000E+00  0.00000000000E+00  0.17456804647E+04  0.17456804647E+04  0.50400001928E-02 0. -1.
        1   -1    0    0  501    0  0.00000000000E+00  0.00000000000E+00 -0.14948694150E+04  0.14948694150E+04  0.50400001928E-02 0.  1.
    10030    2    1    2    0    0  0.00000000000E+00  0.00000000000E+00  0.25081104968E+03  0.32405498798E+04  0.32308292033E+04 0.  0.
        4    1    3    3  502    0 -0.37971019296E+03  0.29256757634E+03 -0.14218917632E+04  0.15005177162E+04  0.12699999809E+01 0.  1.
       -4    1    3    3    0  502  0.37971019296E+03 -0.29256757634E+03  0.16727028129E+04  0.17400321636E+04  0.12699999809E+01 0. -1.
</event>
<event>
 5   0  0.2621528E-06  0.3192487E+04  0.7818609E-02  0.8190804E-01
        2   -1    0    0  501    0  0.00000000000E+00  0.00000000000E+00  0.16523021781E+04  0.16523021781E+04  0.25500000920E-02 0.  1.
       -2   -1    0    0    0  501  0.00000000000E+00  0.00000000000E+00 -0.15420871811E+04  0.15420871811E+04  0.25500000920E-02 0. -1.
    10030    2    1    2    0    0  0.00000000000E+00  0.00000000000E+00  0.11021499694E+03  0.31943893592E+04  0.31924874366E+04 0.  0.
        2    1    3    3  502    0  0.79477113995E+03 -0.43244697776E+03  0.13709279856E+04  0.16425940141E+04  0.25500000920E-02 0.  1.
       -2    1    3    3    0  502 -0.79477113995E+03  0.43244697776E+03 -0.12607129886E+04  0.15517953451E+04  0.25500000920E-02 0. -1.
</event>
<event>
 5   0  0.2466076E-06  0.3213882E+04  0.7818609E-02  0.8185161E-01
        2   -1    0    0  501    0  0.00000000000E+00  0.00000000000E+00  0.21102669910E+04  0.21102669910E+04  0.25500000920E-02 0. -1.
       -2   -1    0    0    0  501  0.00000000000E+00  0.00000000000E+00 -0.12236647216E+04  0.12236647216E+04  0.25500000920E-02 0.  1.
    10030    2    1    2    0    0  0.00000000000E+00  0.00000000000E+00  0.88660226944E+03  0.33339317126E+04  0.32138819332E+04 0.  0.
        3    1    3    3  502    0  0.15722586502E+04 -0.32662578032E+03  0.38125389532E+03  0.16504654514E+04  0.10100000352E+00 0. -1.
       -3    1    3    3    0  502 -0.15722586502E+04  0.32662578032E+03  0.50534837412E+03  0.16834662613E+04  0.10100000352E+00 0.  1.
</event>
<event>
 5   0  0.8681172E-07  0.3193396E+04  0.7818609E-02  0.8190563E-01
       -1   -1    0    0    0  501  0.00000000000E+00  0.00000000000E+00  0.11814566956E+04  0.11814566956E+04  0.50400001928E-02 0. -1.
        1   -1    0    0  501    0  0.00000000000E+00  0.00000000000E+00 -0.21578822862E+04  0.21578822862E+04  0.50400001928E-02 0.  1.
    10030    2    1    2    0    0  0.00000000000E+00  0.00000000000E+00 -0.97642559063E+03  0.33393389818E+04  0.31933959825E+04 0.  0.
        1    1    3    3  502    0  0.13929035742E+04 -0.16858821558E+03  0.30874768164E+03  0.14366375619E+04  0.50400001928E-02 0. -1.
       -1    1    3    3    0  502 -0.13929035742E+04  0.16858821558E+03 -0.12851732723E+04  0.19027014199E+04  0.50400001928E-02 0.  1.
</event>
<event>
 5   0  0.2401139E-06  0.2961994E+04  0.7818609E-02  0.8254668E-01
       -2   -1    0    0    0  501  0.00000000000E+00  0.00000000000E+00  0.98410928875E+03  0.98410928876E+03  0.25500000920E-02 0. -1.
        2   -1    0    0  501    0  0.00000000000E+00  0.00000000000E+00 -0.22287692031E+04  0.22287692031E+04  0.25500000920E-02 0.  1.
    10030    2    1    2    0    0  0.00000000000E+00  0.00000000000E+00 -0.12446599144E+04  0.32128784919E+04  0.29619942439E+04 0.  0.
        5    1    3    3  502    0  0.76449200027E+02  0.94921713919E+03 -0.18526281413E+04  0.20830532344E+04  0.46999998093E+01 0.  1.
       -5    1    3    3    0  502 -0.76449200027E+02 -0.94921713919E+03  0.60796822690E+03  0.11298252575E+04  0.46999998093E+01 0. -1.
</event>
<event>
 5   0  0.8383008E-07  0.3189366E+04  0.7818609E-02  0.8191631E-01
       -1   -1    0    0    0  501  0.00000000000E+00  0.00000000000E+00  0.12921666014E+04  0.12921666014E+04  0.50400001928E-02 0.  1.
        1   -1    0    0  501    0  0.00000000000E+00  0.00000000000E+00 -0.19680230640E+04  0.19680230640E+04  0.50400001928E-02 0. -1.
    10030    2    1    2    0    0  0.00000000000E+00  0.00000000000E+00 -0.67585646259E+03  0.32601896655E+04  0.31893658769E+04 0.  0.
        4    1    3    3  502    0 -0.23761217995E+02  0.12625381100E+04 -0.13334358674E+04  0.18364694117E+04  0.12699999809E+01 0. -1.
       -4    1    3    3    0  502  0.23761217995E+02 -0.12625381100E+04  0.65757940478E+03  0.14237202538E+04  0.12699999809E+01 0.  1.
</event>
<event>
 5   0  0.8512855E-07  0.3088510E+04  0.7818609E-02  0.8218898E-01
       -1   -1    0    0    0  501  0.00000000000E+00  0.00000000000E+00  0.15714730057E+04  0.15714730057E+04  0.50400001928E-02 0.  1.
        1   -1    0    0  501    0  0.00000000000E+00  0.00000000000E+00 -0.15175083219E+04  0.15175083219E+04  0.50400001928E-02 0. -1.
    10030    2    1    2    0    0  0.00000000000E+00  0.00000000000E+00  0.53964683793E+02  0.30889813276E+04  0.30885099086E+04 0.  0.
        5    1    3    3  502    0  0.20574818104E+03 -0.15233195491E+04 -0.12091352349E+03  0.15419069144E+04  0.46999998093E+01 0. -1.
       -5    1    3    3    0  502 -0.20574818104E+03  0.15233195491E+04  0.17487820728E+03  0.15470744132E+04  0.46999998093E+01 0.  1.
</event>
<event>
 5   0  0.2621528E-06  0.3236157E+04  0.7818609E-02  0.8179333E-01
        2   -1    0    0  501    0  0.00000000000E+00  0.00000000000E+00  0.16604832595E+04  0.16604832595E+04  0.25500000920E-02 0. -1.
       -2   -1    0    0    0  501  0.00000000000E+00  0.00000000000E+00 -0.15767567677E+04  0.15767567677E+04  0.25500000920E-02 0.  1.
    10030    2    1    2    0    0  0.00000000000E+00  0.00000000000E+00  0.83726491769E+02  0.32372400272E+04  0.32361571143E+04 0.  0.
        2    1    3    3  502    0 -0.35860601112E+03  0.14016991506E+04 -0.68282340080E+03  0.15998770505E+04  0.25500000920E-02 0.  1.
       -2    1    3    3    0  502  0.35860601112E+03 -0.14016991506E+04  0.76654989257E+03  0.16373629768E+04  0.25500000920E-02 0. -1.
</event>
<event>
 5   0  0.8681172E-07  0.3168984E+04  0.7818609E-02  0.8197057E-01
       -1   -1    0    0    0  501  0.00000000000E+00  0.00000000000E+00  0.11378721158E+04  0.11378721158E+04  0.50400001928E-02 0.  1.
        1   -1    0    0  501    0  0.00000000000E+00  0.00000000000E+00 -0.22064124177E+04  0.22064124177E+04  0.50400001928E-02 0. -1.
    10030    2    1    2    0    0  0.00000000000E+00  0.00000000000E+00 -0.10685403020E+04  0.33442845335E+04  0.31689841691E+04 0.  0.
        1    1    3    3  502    0 -0.55909437642E+03 -0.85359872476E+03  0.74497226934E+03  0.12634084798E+04  0.50400001928E-02 0.  1.
       -1    1    3    3    0  502  0.55909437642E+03  0.85359872476E+03 -0.18135125713E+04  0.20808760537E+04  0.50400001928E-02 0. -1.
</event>
<event>
 5   0  0.8487944E-07  0.3340484E+04  0.7818609E-02  0.8152670E-01
       -1   -1    0    0    0  501  0.00000000000E+00  0.00000000000E+00  0.36606161572E+04  0.36606161572E+04  0.50400001928E-02 0. -1.
        1   -1    0    0  501    0  0.00000000000E+00  0.00000000000E+00 -0.76208696361E+03  0.76208696363E+03  0.50400001928E-02 0.  1.
    10030    2    1    2    0    0  0.00000000000E+00  0.00000000000E+00  0.28985291936E+04  0.44227031208E+04  0.33404837088E+04 0.  0.
        2    1    3    3  502    0  0.90399283493E+03 -0.43198082704E+03  0.32185857867E+04  0.33709204896E+04  0.25500000920E-02 0. -1.
       -2    1    3    3    0  502 -0.90399283493E+03  0.43198082704E+03 -0.32005659315E+03  0.10517826312E+04  0.25500000920E-02 0.  1.
</event>
<event>
 5   0  0.2401139E-06  0.3198210E+04  0.7818609E-02  0.8189290E-01
        2   -1    0    0  501    0  0.00000000000E+00  0.00000000000E+00  0.15763922311E+04  0.15763922311E+04  0.25500000920E-02 0. -1.
       -2   -1    0    0    0  501  0.00000000000E+00  0.00000000000E+00 -0.16221454834E+04  0.16221454834E+04  0.25500000920E-02 0.  1.
    10030    2    1    2    0    0  0.00000000000E+00  0.00000000000E+00 -0.45753252279E+02  0.31985377146E+04  0.31982104608E+04 0.  0.
        5    1    3    3  502    0  0.11694287603E+04 -0.25617036659E+03  0.10373868257E+04  0.15841023951E+04  0.46999998093E+01 0. -1.
       -5    1    3    3    0  502 -0.11694287603E+04  0.25617036659E+03 -0.10831400780E+04  0.16144353194E+04  0.46999998093E+01 0.  1.
</event>
<event>
 5   0  0.2404430E-06  0.3183113E+04  0.7818609E-02  0.8193291E-01
       -2   -1    0    0    0  501  0.00000000000E+00  0.00000000000E+00  0.10267787467E+04  0.10267787467E+04  0.25500000920E-02 0.  1.
        2   -1    0    0  501    0  0.00000000000E+00  0.00000000000E+00 -0.24669892917E+04  0.24669892917E+04  0.25500000920E-02 0. -1.
    10030    2    1    2    0    0  0.00000000000E+00  0.00000000000E+00 -0.14402105450E+04  0.34937680383E+04  0.31831130504E+04 0.  0.
        4    1    3    3  502    0  0.89329000256E+03 -0.15590942984E+03  0.71551159075E+03  0.11550901386E+04  0.12699999809E+01 0.  1.
       -4    1    3    3    0  502 -0.89329000256E+03  0.15590942984E+03 -0.21557221358E+04  0.23386778997E+04  0.12699999809E+01 0. -1.
</event>
<event>
 5   0  0.8487944E-07  0.3466625E+04  0.7818609E-02  0.8121745E-01
        1   -1    0    0  501    0  0.00000000000E+00  0.00000000000E+00  0.16549206998E+04  0.16549206998E+04  0.50400001928E-02 0.  1.
       -1   -1    0    0    0  501  0.00000000000E+00  0.00000000000E+00 -0.18154174195E+04  0.18154174195E+04  0.50400001928E-02 0. -1.
    10030    2    1    2    0    0  0.00000000000E+00  0.00000000000E+00 -0.16049671962E+03  0.34703381193E+04  0.34666247944E+04 0.  0.
        2    1    3    3  502    0  0.29343106559E+03  0.16905644741E+04 -0.32599417311E+03  0.17465343490E+04  0.25500000920E-02 0. -1.
       -2    1    3    3    0  502 -0.29343106559E+03 -0.16905644741E+04  0.16549745349E+03  0.17238037703E+04  0.25500000920E-02 0.  1.
</event>
<event>
 5   0  0.8545153E-07  0.3149864E+04  0.7818609E-02  0.8202185E-01
        1   -1    0    0  501    0  0.00000000000E+00  0.00000000000E+00  0.25040198763E+04  0.25040198763E+04  0.50400001928E-02 0. -1.
       -1   -1    0    0    0  501  0.00000000000E+00  0.00000000000E+00 -0.99057131654E+03  0.99057131656E+03  0.50400001928E-02 0.  1.
    10030    2    1    2    0    0  0.00000000000E+00  0.00000000000E+00  0.15134485598E+04  0.34945911929E+04  0.31498636577E+04 0.  0.
        3    1    3    3  502    0  0.68882689960E+02  0.14624143899E+04  0.14007834192E+04  0.20262267569E+04  0.10100000352E+00 0. -1.
       -3    1    3    3    0  502 -0.68882689960E+02 -0.14624143899E+04  0.11266514056E+03  0.14683644360E+04  0.10100000352E+00 0.  1.
</event>
<event>
 5   0  0.8487944E-07  0.3197509E+04  0.7818609E-02  0.8189475E-01
        1   -1    0    0  501    0  0.00000000000E+00  0.00000000000E+00  0.10417141611E+04  0.10417141611E+04  0.50400001928E-02 0. -1.
       -1   -1    0    0    0  501  0.00000000000E+00  0.00000000000E+00 -0.24536641404E+04  0.24536641404E+04  0.50400001928E-02 0.  1.
    10030    2    1    2    0    0  0.00000000000E+00  0.00000000000E+00 -0.14119499793E+04  0.34953783016E+04  0.31975094569E+04 0.  0.
        2    1    3    3  502    0 -0.11790687219E+04  0.54974849895E+03  0.30989049688E+03  0.13373326374E+04  0.25500000920E-02 0. -1.
       -2    1    3    3    0  502  0.11790687219E+04 -0.54974849895E+03 -0.17218404762E+04  0.21580456642E+04  0.25500000920E-02 0.  1.
</event>
<event>
 5   0  0.2466076E-06  0.3152840E+04  0.7818609E-02  0.8201384E-01
       -2   -1    0    0    0  501  0.00000000000E+00  0.00000000000E+00  0.10002370290E+04  0.10002370290E+04  0.25500000920E-02 0. -1.
        2   -1    0    0  501    0  0.00000000000E+00  0.00000000000E+00 -0.24845114793E+04  0.24845114793E+04  0.25500000920E-02 0.  1.
    10030    2    1    2    0    0  0.00000000000E+00  0.00000000000E+00 -0.14842744504E+04  0.34847485083E+04  0.31528402310E+04 0.  0.
        3    1    3    3  502    0 -0.45128090664E+03 -0.59666810540E+03  0.79153902513E+03  0.10891286991E+04  0.10100000352E+00 0. -1.
       -3    1    3    3    0  502  0.45128090664E+03  0.59666810540E+03 -0.22758134755E+04  0.23956198092E+04  0.10100000352E+00 0.  1.
</event>
<event>
 5   0  0.7934375E-07  0.3139447E+04  0.7818609E-02  0.8204995E-01
        3   -1    0    0  501    0  0.00000000000E+00  0.00000000000E+00  0.96017057377E+03  0.96017057908E+03  0.10100000352E+00 0. -1.
       -3   -1    0    0    0  501  0.00000000000E+00  0.00000000000E+00 -0.25662430577E+04  0.25662430597E+04  0.10100000352E+00 0.  1.
    10030    2    1    2    0    0  0.00000000000E+00  0.00000000000E+00 -0.16060724839E+04  0.35264136388E+04  0.31394465003E+04 0.  0.
        4    1    3    3  502    0 -0.99313245190E+03 -0.56838373189E+03  0.40396224420E+03  0.12134905197E+04  0.12699999809E+01 0. -1.
       -4    1    3    3    0  502  0.99313245190E+03  0.56838373189E+03 -0.20100347281E+04  0.23129231191E+04  0.12699999809E+01 0.  1.
</event>
<event>
 5   0  0.8383008E-07  0.3185686E+04  0.7818609E-02  0.8192608E-01
        1   -1    0    0  501    0  0.00000000000E+00  0.00000000000E+00  0.22073845201E+04  0.22073845201E+04  0.50400001928E-02 0. -1.
       -1   -1    0    0    0  501  0.00000000000E+00  0.00000000000E+00 -0.11493912335E+04  0.11493912335E+04  0.50400001928E-02 0.  1.
    10030    2    1    2    0    0  0.00000000000E+00  0.00000000000E+00  0.10579932866E+04  0.33567757536E+04  0.31856857449E+04 0.  0.
        4    1    3    3  502    0 -0.13634168699E+04  0.77111310653E+03  0.22428462080E+03  0.15823483145E+04  0.12699999809E+01 0.  1.
       -4    1    3    3    0  502  0.13634168699E+04 -0.77111310653E+03  0.83370866584E+03  0.17744274391E+04  0.12699999809E+01 0. -1.
</event>
<event>
 5   0  0.8545153E-07  0.3216658E+04  0.7818609E-02  0.8184432E-01
       -1   -1    0    0    0  501  0.00000000000E+00  0.00000000000E+00  0.17067360906E+04  0.17067360906E+04  0.50400001928E-02 0.  1.
        1   -1    0    0  501    0  0.00000000000E+00  0.00000000000E+00 -0.15155956377E+04  0.15155956377E+04  0.50400001928E-02 0. -1.
    10030    2    1    2    0    0  0.00000000000E+00  0.00000000000E+00  0.19114045285E+03  0.32223317283E+04  0.32166577522E+04 0.  0.
        3    1    3    3  502    0  0.10086910897E+03  0.14892809311E+03  0.16966283252E+04  0.17061365239E+04  0.10100000352E+00 0.  1.
       -3    1    3    3    0  502 -0.10086910897E+03 -0.14892809311E+03 -0.15054878723E+04  0.15161952044E+04  0.10100000352E+00 0. -1.
</event>
<event>
 5   0  0.2337504E-06  0.3250824E+04  0.7818609E-02  0.8175522E-01
       -2   -1    0    0    0  501  0.00000000000E+00  0.00000000000E+00  0.17956258529E+04  0.17956258529E+04  0.25500000920E-02 0. -1.
        2   -1    0    0  501    0  0.00000000000E+00  0.00000000000E+00 -0.14713332464E+04  0.14713332464E+04  0.25500000920E-02 0.  1.
    10030    2    1    2    0    0  0.00000000000E+00  0.00000000000E+00  0.32429260654E+03  0.32669590993E+04  0.32508239051E+04 0.  0.
        1    1    3    3  502    0 -0.26918838502E+02  0.13840003980E+04 -0.69401074433E+03  0.15484936676E+04  0.50400001928E-02 0.  1.
       -1    1    3    3    0  502  0.26918838502E+02 -0.13840003980E+04  0.10183033509E+04  0.17184654317E+04  0.50400001928E-02 0. -1.
</event>
<event>
 5   0  0.8681172E-07  0.3209397E+04  0.7818609E-02  0.8186340E-01
        1   -1    0    0  501    0  0.00000000000E+00  0.00000000000E+00  0.16779239411E+04  0.16779239411E+04  0.50400001928E-02 0.  1.
       -1   -1    0    0    0  501  0.00000000000E+00  0.00000000000E+00 -0.15346690372E+04  0.15346690372E+04  0.50400001928E-02 0. -1.
    10030    2    1    2    0    0  0.00000000000E+00  0.00000000000E+00  0.14325490387E+03  0.32125929782E+04  0.32093974008E+04 0.  0.
        1    1    3    3  502    0  0.98509692103E+03 -0.12496324028E+04  0.27934511258E+03  0.16155589677E+04  0.50400001928E-02 0. -1.
       -1    1    3    3    0  502 -0.98509692103E+03  0.12496324028E+04 -0.13609020871E+03  0.15970340106E+04  0.50400001928E-02 0.  1.
</event>
<event>
 5   0  0.2466076E-06  0.3214417E+04  0.7818609E-02  0.8185020E-01
       -2   -1    0    0    0  501  0.00000000000E+00  0.00000000000E+00  0.12053015725E+04  0.12053015725E+04  0.25500000920E-02 0. -1.
        2   -1    0    0  501    0  0.00000000000E+00  0.00000000000E+00 -0.21431305681E+04  0.21431305681E+04  0.25500000920E-02 0.  1.
    10030    2    1    2    0    0  0.00000000000E+00  0.00000000000E+00 -0.93782899560E+03  0.33484321405E+04  0.32144166772E+04 0.  0.
        3    1    3    3  502    0  0.12552445896E+03  0.85691016228E+02 -0.21356279799E+04  0.21410292429E+04  0.10100000352E+00 0.  1.
       -3    1    3    3    0  502 -0.12552445896E+03 -0.85691016228E+02  0.11977989843E+04  0.12074028976E+04  0.10100000352E+00 0. -1.
</event>
<event>
 5   0  0.2466076E-06  0.3169682E+04  0.7818609E-02  0.8196870E-01
       -2   -1    0    0    0  501  0.00000000000E+00  0.00000000000E+00  0.15061544129E+04  0.15061544129E+04  0.25500000920E-02 0.  1.
        2   -1    0    0  501    0  0.00000000000E+00  0.00000000000E+00 -0.16676386243E+04  0.16676386243E+04  0.25500000920E-02 0. -1.
    10030    2    1    2    0    0  0.00000000000E+00  0.00000000000E+00 -0.16148421143E+03  0.31737930372E+04  0.31696821753E+04 0.  0.
        3    1    3    3  502    0  0.11798834392E+04 -0.93177870649E+03  0.42129101633E+03  0.15613528168E+04  0.10100000352E+00 0. -1.
       -3    1    3    3    0  502 -0.11798834392E+04  0.93177870649E+03 -0.58277522776E+03  0.16124402204E+04  0.10100000352E+00 0.  1.
</event>
<event>
 5   0  0.2404430E-06  0.3198224E+04  0.7818609E-02  0.8189286E-01
       -2   -1    0    0    0  501  0.00000000000E+00  0.00000000000E+00  0.10629353609E+04  0.10629353609E+04  0.25500000920E-02 0.  1.
        2   -1    0    0  501    0  0.00000000000E+00  0.00000000000E+00 -0.24057524802E+04  0.24057524802E+04  0.25500000920E-02 0. -1.
    10030    2    1    2    0    0  0.00000000000E+00  0.00000000000E+00 -0.13428171193E+04  0.34686878411E+04  0.31982241202E+04 0.  0.
        4    1    3    3  502    0  0.44490958471E+03  0.13304857859E+04 -0.15037885666E+04  0.20565793520E+04  0.12699999809E+01 0. -1.
       -4    1    3    3    0  502 -0.44490958471E+03 -0.13304857859E+04  0.16097144732E+03  0.14121084891E+04  0.12699999809E+01 0.  1.
</event>
<event>
 5   0  0.8545153E-07  0.3228243E+04  0.7818609E-02  0.8181398E-01
       -1   -1    0    0    0  501  0.00000000000E+00  0.00000000000E+00  0.14865155471E+04  0.14865155471E+04  0.50400001928E-02 0. -1.
        1   -1    0    0  501    0  0.00000000000E+00  0.00000000000E+00 -0.17526810143E+04  0.17526810143E+04  0.50400001928E-02 0.  1.
    10030    2    1    2    0    0  0.00000000000E+00  0.00000000000E+00 -0.26616546720E+03  0.32391965614E+04  0.32282426036E+04 0.  0.
        3    1    3    3  502    0 -0.73370813722E+03 -0.62130169208E+03  0.11678675409E+04  0.15126989213E+04  0.10100000352E+00 0. -1.
       -3    1    3    3    0  502  0.73370813722E+03  0.62130169208E+03 -0.14340330081E+04  0.17264976402E+04  0.10100000352E+00 0.  1.
</event>
<event>
 5   0  0.2404430E-06  0.3174501E+04  0.7818609E-02  0.8195584E-01
       -2   -1    0    0    0  501  0.00000000000E+00  0.00000000000E+00  0.12828683070E+04  0.12828683070E+04  0.25500000920E-02 0.  1.
        2   -1    0    0  501    0  0.00000000000E+00  0.00000000000E+00 -0.19638525608E+04  0.19638525608E+04  0.25500000920E-02 0. -1.
    10030    2    1    2    0    0  0.00000000000E+00  0.00000000000E+00 -0.68098425380E+03  0.32467208677E+04  0.31745010378E+04 0.  0.
        4    1    3    3  502    0 -0.35118754441E+03  0.12285638237E+04  0.62255655718E+03  0.14213655546E+04  0.12699999809E+01 0.  1.
       -4    1    3    3    0  502  0.35118754441E+03 -0.12285638237E+04 -0.13035408110E+04  0.18253553131E+04  0.12699999809E+01 0. -1.
</event>
<event>
 5   0  0.8512855E-07  0.3300392E+04  0.7818609E-02  0.8162796E-01
       -1   -1    0    0    0  501  0.00000000000E+00  0.00000000000E+00  0.12740861643E+04  0.12740861644E+04  0.50400001928E-02 0.  1.
        1   -1    0    0  501    0  0.00000000000E+00  0.00000000000E+00 -0.21373336272E+04  0.21373336272E+04  0.50400001928E-02 0. -1.
    10030    2    1    2    0    0  0.00000000000E+00  0.00000000000E+00 -0.86324746285E+03  0.34114197916E+04  0.33003922210E+04 0.  0.
        5    1    3    3  502    0  0.14706246754E+04  0.67884751388E+03 -0.75776027867E+03  0.17882375717E+04  0.46999998093E+01 0. -1.
       -5    1    3    3    0  502 -0.14706246754E+04 -0.67884751388E+03 -0.10548718418E+03  0.16231822199E+04  0.46999998093E+01 0.  1.
</event>
<event>
 5   0  0.2337504E-06  0.3184506E+04  0.7818609E-02  0.8192921E-01
        2   -1    0    0  501    0  0.00000000000E+00  0.00000000000E+00  0.13667089479E+04  0.13667089479E+04  0.25500000920E-02 0.  1.
       -2   -1    0    0    0  501  0.00000000000E+00  0.00000000000E+00 -0.18550180192E+04  0.18550180192E+04  0.25500000920E-02 0. -1.
    10030    2    1    2    0    0  0.00000000000E+00  0.00000000000E+00 -0.48830907126E+03  0.32217269671E+04  0.31845060687E+04 0.  0.
        1    1    3    3  502    0  0.90234397904E+03 -0.34704907643E+03 -0.15240907587E+04  0.18048602048E+04  0.50400001928E-02 0. -1.
       -1    1    3    3    0  502 -0.90234397904E+03  0.34704907643E+03  0.10357816875E+04  0.14168667623E+04  0.50400001928E-02 0.  1.
</event>
<event>
 5   0  0.8487944E-07  0.3203646E+04  0.7818609E-02  0.8187855E-01
        1   -1    0    0  501    0  0.00000000000E+00  0.00000000000E+00  0.18520624825E+04  0.18520624825E+04  0.50400001928E-02 0.  1.
       -1   -1    0    0    0  501  0.00000000000E+00  0.00000000000E+00 -0.13853944136E+04  0.13853944136E+04  0.50400001928E-02 0. -1.
    10030    2    1    2    0    0  0.00000000000E+00  0.00000000000E+00  0.46666806890E+03  0.32374568960E+04  0.32036460583E+04 0.  0.
        2    1    3    3  502    0  0.87666625190E+02 -0.62855708126E+03 -0.12529250071E+04  0.14044894144E+04  0.25500000920E-02 0. -1.
       -2    1    3    3    0  502 -0.87666625190E+02  0.62855708126E+03  0.17195930760E+04  0.18329674816E+04  0.25500000920E-02 0.  1.
</event>
<event>
 5   0  0.2401139E-06  0.3103291E+04  0.7818609E-02  0.8214835E-01
        2   -1    0    0  501    0  0.00000000000E+00  0.00000000000E+00  0.32054082389E+04  0.32054082389E+04  0.25500000920E-02 0. -1.
       -2   -1    0    0    0  501  0.00000000000E+00  0.00000000000E+00 -0.75110653369E+03  0.75110653369E+03  0.25500000920E-02 0.  1.
    10030    2    1    2    0    0  0.00000000000E+00  0.00000000000E+00  0.24543017052E+04  0.39565147726E+04  0.31032905577E+04 0.  0.
        5    1    3    3  502    0 -0.14911197740E+04 -0.31626211095E+03  0.85737140710E+03  0.17488761314E+04  0.46999998093E+01 0.  1.
       -5    1    3    3    0  502  0.14911197740E+04  0.31626211095E+03  0.15969302981E+04  0.22076386412E+04  0.46999998093E+01 0. -1.
</event>
<event>
 5   0  0.8545153E-07  0.3206216E+04  0.7818609E-02  0.8187178E-01
       -1   -1    0    0    0  501  0.00000000000E+00  0.00000000000E+00  0.11909899693E+04  0.11909899693E+04  0.50400001928E-02 0.  1.
        1   -1    0    0  501    0  0.00000000000E+00  0.00000000000E+00 -0.21578308373E+04  0.21578308373E+04  0.50400001928E-02 0. -1.
    10030    2    1    2    0    0  0.00000000000E+00  0.00000000000E+00 -0.96684086801E+03  0.33488208067E+04  0.32062157649E+04 0.  0.
        3    1    3    3  502    0 -0.26962726017E+03  0.10198071339E+04  0.77743736794E+03  0.13103870883E+04  0.10100000352E+00 0.  1.
       -3    1    3    3    0  502  0.26962726017E+03 -0.10198071339E+04 -0.17442782360E+04  0.20384337184E+04  0.10100000352E+00 0. -1.
</event>
<event>
 5   0  0.8545153E-07  0.3200402E+04  0.7818609E-02  0.8188711E-01
       -1   -1    0    0    0  501  0.00000000000E+00  0.00000000000E+00  0.13895663676E+04  0.13895663676E+04  0.50400001928E-02 0.  1.
        1   -1    0    0  501    0  0.00000000000E+00  0.00000000000E+00 -0.18427647682E+04  0.18427647682E+04  0.50400001928E-02 0. -1.
    10030    2    1    2    0    0  0.00000000000E+00  0.00000000000E+00 -0.45319840060E+03  0.32323311357E+04  0.32004024404E+04 0.  0.
        3    1    3    3  502    0  0.12526438431E+04 -0.39764485105E+03  0.69541909902E+03  0.14868913070E+04  0.10100000352E+00 0.  1.
       -3    1    3    3    0  502 -0.12526438431E+04  0.39764485105E+03 -0.11486174996E+04  0.17454398288E+04  0.10100000352E+00 0. -1.
</event>
<event>
 5   0  0.8545153E-07  0.3217369E+04  0.7818609E-02  0.8184245E-01
       -1   -1    0    0    0  501  0.00000000000E+00  0.00000000000E+00  0.22086156948E+04  0.22086156948E+04  0.50400001928E-02 0. -1.
        1   -1    0    0  501    0  0.00000000000E+00  0.00000000000E+00 -0.11717136733E+04  0.11717136733E+04  0.50400001928E-02 0.  1.
    10030    2    1    2    0    0  0.00000000000E+00  0.00000000000E+00  0.10369020215E+04  0.33803293682E+04  0.32173686197E+04 0.  0.
        3    1    3    3  502    0 -0.29982627946E+03  0.13455035375E+04 -0.35275899856E+03  0.14229246251E+04  0.10100000352E+00 0.  1.
       -3    1    3    3    0  502  0.29982627946E+03 -0.13455035375E+04  0.13896610201E+04  0.19574047431E+04  0.10100000352E+00 0. -1.
</event>
<event>
 5   0  0.8487944E-07  0.2942335E+04  0.7818609E-02  0.8260392E-01
       -1   -1    0    0    0  501  0.00000000000E+00  0.00000000000E+00  0.12251365584E+04  0.12251365584E+04  0.50400001928E-02 0. -1.
        1   -1    0    0  501    0  0.00000000000E+00  0.00000000000E+00 -0.17666062054E+04  0.17666062054E+04  0.50400001928E-02 0.  1.
    10030    2    1    2    0    0  0.00000000000E+00  0.00000000000E+00 -0.54146964706E+03  0.29917427638E+04  0.29423350228E+04 0.  0.
        2    1    3    3  502    0  0.46228549853E+03  0.77835208295E+03  0.90839061596E+03  0.12824637844E+04  0.25500000920E-02 0. -1.
       -2    1    3    3    0  502 -0.46228549853E+03 -0.77835208295E+03 -0.14498602630E+04  0.17092789794E+04  0.25500000920E-02 0.  1.
</event>
<event>
 5   0  0.8512855E-07  0.3099182E+04  0.7818609E-02  0.8215962E-01
        1   -1    0    0  501    0  0.00000000000E+00  0.00000000000E+00  0.16818680733E+04  0.16818680733E+04  0.50400001928E-02 0. -1.
       -1   -1    0    0    0  501  0.00000000000E+00  0.00000000000E+00 -0.14277174946E+04  0.14277174946E+04  0.50400001928E-02 0.  1.
    10030    2    1    2    0    0  0.00000000000E+00  0.00000000000E+00  0.25415057867E+03  0.31095855679E+04  0.30991821320E+04 0.  0.
        5    1    3    3  502    0  0.85828219470E+02 -0.53993834110E+03  0.15818771264E+04  0.16736956797E+04  0.46999998093E+01 0. -1.
       -5    1    3    3    0  502 -0.85828219470E+02  0.53993834110E+03 -0.13277265477E+04  0.14358898882E+04  0.46999998093E+01 0.  1.
</event>
<event>
 5   0  0.2401139E-06  0.2720397E+04  0.7818609E-02  0.8328417E-01
        2   -1    0    0  501    0  0.00000000000E+00  0.00000000000E+00  0.26987757492E+04  0.26987757492E+04  0.25500000920E-02 0. -1.
       -2   -1    0    0    0  501  0.00000000000E+00  0.00000000000E+00 -0.68554783421E+03  0.68554783421E+03  0.25500000920E-02 0.  1.
    10030    2    1    2    0    0  0.00000000000E+00  0.00000000000E+00  0.20132279150E+04  0.33843235834E+04  0.27203969342E+04 0.  0.
        5    1    3    3  502    0 -0.47056574991E+03  0.12269743535E+04  0.56991768527E+03  0.14323848809E+04  0.46999998093E+01 0.  1.
       -5    1    3    3    0  502  0.47056574991E+03 -0.12269743535E+04  0.14433102297E+04  0.19519387025E+04  0.46999998093E+01 0. -1.
</event>
<event>
 5   0  0.7934375E-07  0.3257128E+04  0.7818609E-02  0.8173891E-01
       -3   -1    0    0    0  501  0.00000000000E+00  0.00000000000E+00  0.19568443366E+04  0.19568443392E+04  0.10100000352E+00 0. -1.
        3   -1    0    0  501    0  0.00000000000E+00  0.00000000000E+00 -0.13553560178E+04  0.13553560216E+04  0.10100000352E+00 0.  1.
    10030    2    1    2    0    0  0.00000000000E+00  0.00000000000E+00  0.60148831880E+03  0.33122003608E+04  0.32571280344E+04 0.  0.
        4    1    3    3  502    0  0.47569527376E+03  0.10780666436E+04 -0.84240973753E+03  0.14485059407E+04  0.12699999809E+01 0.  1.
       -4    1    3    3    0  502 -0.47569527376E+03 -0.10780666436E+04  0.14438980563E+04  0.18636944201E+04  0.12699999809E+01 0. -1.
</event>
<event>
 5   0  0.2337504E-06  0.3239401E+04  0.7818609E-02  0.8178488E-01
        2   -1    0    0  501    0  0.00000000000E+00  0.00000000000E+00  0.12052594968E+04  0.12052594968E+04  0.25500000920E-02 0. -1.
       -2   -1    0    0    0  501  0.00000000000E+00  0.00000000000E+00 -0.21766513852E+04  0.21766513852E+04  0.25500000920E-02 0.  1.
    10030    2    1    2    0    0  0.00000000000E+00  0.00000000000E+00 -0.97139188840E+03  0.33819108819E+04  0.32394010268E+04 0.  0.
        1    1    3    3  502    0 -0.68254866736E+03  0.63861736846E+03  0.89526797890E+03  0.12942988761E+04  0.50400001928E-02 0.  1.
       -1    1    3    3    0  502  0.68254866736E+03 -0.63861736846E+03 -0.18666598673E+04  0.20876120058E+04  0.50400001928E-02 0. -1.
</event>
<event>
 5   0  0.8681172E-07  0.3319926E+04  0.7818609E-02  0.8157844E-01
        1   -1    0    0  501    0  0.00000000000E+00  0.00000000000E+00  0.23733903331E+04  0.23733903331E+04  0.50400001928E-02 0.  1.
       -1   -1    0    0    0  501  0.00000000000E+00  0.00000000000E+00 -0.11609876085E+04  0.11609876085E+04  0.50400001928E-02 0. -1.
    10030    2    1    2    0    0  0.00000000000E+00  0.00000000000E+00  0.12124027246E+04  0.35343779416E+04  0.33199257624E+04 0.  0.
        1    1    3    3  502    0 -0.65078177774E+03 -0.51401358856E+03 -0.92465208768E+03  0.12420581205E+04  0.50400001928E-02 0. -1.
       -1    1    3    3    0  502  0.65078177774E+03  0.51401358856E+03  0.21370548123E+04  0.22923198211E+04  0.50400001928E-02 0.  1.
</event>
<event>
 5   0  0.2404430E-06  0.3211265E+04  0.7818609E-02  0.8185848E-01
        2   -1    0    0  501    0  0.00000000000E+00  0.00000000000E+00  0.12565198646E+04  0.12565198646E+04  0.25500000920E-02 0. -1.
       -2   -1    0    0    0  501  0.00000000000E+00  0.00000000000E+00 -0.20517429900E+04  0.20517429900E+04  0.25500000920E-02 0.  1.
    10030    2    1    2    0    0  0.00000000000E+00  0.00000000000E+00 -0.79522312537E+03  0.33082628547E+04  0.32112650617E+04 0.  0.
        4    1    3    3  502    0 -0.13994033824E+04  0.21170483751E+03  0.38351618595E+03  0.14663679766E+04  0.12699999809E+01 0. -1.
       -4    1    3    3    0  502  0.13994033824E+04 -0.21170483751E+03 -0.11787393113E+04  0.18418948781E+04  0.12699999809E+01 0.  1.
</event>
<event>
 5   0  0.2466076E-06  0.3184693E+04  0.7818609E-02  0.8192871E-01
        2   -1    0    0  501    0  0.00000000000E+00  0.00000000000E+00  0.18546639931E+04  0.18546639931E+04  0.25500000920E-02 0.  1.
       -2   -1    0    0    0  501  0.00000000000E+00  0.00000000000E+00 -0.13671305680E+04  0.13671305680E+04  0.25500000920E-02 0. -1.
    10030    2    1    2    0    0  0.00000000000E+00  0.00000000000E+00  0.48753342509E+03  0.32217945611E+04  0.31846932903E+04 0.  0.
        3    1    3    3  502    0  0.14220003409E+04  0.67809714443E+03  0.94062311675E+01  0.15754330180E+04  0.10100000352E+00 0. -1.
       -3    1    3    3    0  502 -0.14220003409E+04 -0.67809714443E+03  0.47812719392E+03  0.16463615431E+04  0.10100000352E+00 0.  1.
</event>
<event>
 5   0  0.8545153E-07  0.3216928E+04  0.7818609E-02  0.8184361E-01
        1   -1    0    0  501    0  0.00000000000E+00  0.00000000000E+00  0.14460196842E+04  0.14460196842E+04  0.50400001928E-02 0. -1.
       -1   -1    0    0    0  501  0.00000000000E+00  0.00000000000E+00 -0.17891569112E+04  0.17891569112E+04  0.50400001928E-02 0.  1.
    10030    2    1    2    0    0  0.00000000000E+00  0.00000000000E+00 -0.34313722701E+03  0.32351765954E+04  0.32169277963E+04 0.  0.
        3    1    3    3  502    0 -0.11015299147E+04  0.60247290135E+03  0.83952735435E+03  0.15103469597E+04  0.10100000352E+00 0. -1.
       -3    1    3    3    0  502  0.11015299147E+04 -0.60247290135E+03 -0.11826645814E+04  0.17248296357E+04  0.10100000352E+00 0.  1.
</event>
<event>
 5   0  0.8512855E-07  0.3214893E+04  0.7818609E-02  0.8184895E-01
        1   -1    0    0  501    0  0.00000000000E+00  0.00000000000E+00  0.18859775610E+04  0.18859775610E+04  0.50400001928E-02 0.  1.
       -1   -1    0    0    0  501  0.00000000000E+00  0.00000000000E+00 -0.13700502690E+04  0.13700502690E+04  0.50400001928E-02 0. -1.
    10030    2    1    2    0    0  0.00000000000E+00  0.00000000000E+00  0.51592729206E+03  0.32560278300E+04  0.32148928846E+04 0.  0.
        5    1    3    3  502    0 -0.10306895868E+04 -0.10068258808E+04  0.97971260056E+03  0.17423771831E+04  0.46999998093E+01 0.  1.
       -5    1    3    3    0  502  0.10306895868E+04  0.10068258808E+04 -0.46378530851E+03  0.15136506469E+04  0.46999998093E+01 0. -1.
</event>
<event>
 5   0  0.8383008E-07  0.3198699E+04  0.7818609E-02  0.8189161E-01
       -1   -1    0    0    0  501  0.00000000000E+00  0.00000000000E+00  0.14299176708E+04  0.14299176708E+04  0.50400001928E-02 0. -1.
        1   -1    0    0  501    0  0.00000000000E+00  0.00000000000E+00 -0.17888570375E+04  0.17888570375E+04  0.50400001928E-02 0.  1.
    10030    2    1    2    0    0  0.00000000000E+00  0.00000000000E+00 -0.35893936678E+03  0.32187747083E+04  0.31986986657E+04 0.  0.
        4    1    3    3  502    0 -0.10147839045E+04 -0.86754816198E+03  0.70667674009E+03  0.15105693675E+04  0.12699999809E+01 0. -1.
       -4    1    3    3    0  502  0.10147839045E+04  0.86754816198E+03 -0.10656161069E+04  0.17082053408E+04  0.12699999809E+01 0.  1.
</event>
<event>
 5   0  0.2401139E-06  0.3201628E+04  0.7818609E-02  0.8188387E-01
       -2   -1    0    0    0  501  0.00000000000E+00  0.00000000000E+00  0.13617455753E+04  0.13617455753E+04  0.25500000920E-02 0. -1.
        2   -1    0    0  501    0  0.00000000000E+00  0.00000000000E+00 -0.18818529898E+04  0.18818529898E+04  0.25500000920E-02 0.  1.
    10030    2    1    2    0    0  0.00000000000E+00  0.00000000000E+00 -0.52010741449E+03  0.32435985651E+04  0.32016276999E+04 0.  0.
        5    1    3    3  502    0 -0.14823414672E+04 -0.57426177027E+03 -0.69249743771E+02  0.15912040797E+04  0.46999998093E+01 0. -1.
       -5    1    3    3    0  502  0.14823414672E+04  0.57426177027E+03 -0.45085767072E+03  0.16523944854E+04  0.46999998093E+01 0.  1.
</event>
<event>
 5   0  0.2621528E-06  0.3304885E+04  0.7818609E-02  0.8161654E-01
       -2   -1    0    0    0  501  0.00000000000E+00  0.00000000000E+00  0.15668999446E+04  0.15668999446E+04  0.25500000920E-02 0. -1.
        2   -1    0    0  501    0  0.00000000000E+00  0.00000000000E+00 -0.17426550440E+04  0.17426550440E+04  0.25500000920E-02 0.  1.
    10030    2    1    2    0    0  0.00000000000E+00  0.00000000000E+00 -0.17575509946E+03  0.33095549886E+04  0.33048849250E+04 0.  0.
        2    1    3    3  502    0 -0.27157253467E+03 -0.11429799914E+04 -0.12515915874E+04  0.17165769438E+04  0.25500000920E-02 0.  1.
       -2    1    3    3    0  502  0.27157253467E+03  0.11429799914E+04  0.10758364879E+04  0.15929780448E+04  0.25500000920E-02 0. -1.
</event>
<event>
 5   0  0.2466076E-06  0.3210716E+04  0.7818609E-02  0.8185993E-01
        2   -1    0    0  501    0  0.00000000000E+00  0.00000000000E+00  0.16655621967E+04  0.16655621967E+04  0.25500000920E-02 0.  1.
       -2   -1    0    0    0  501  0.00000000000E+00  0.00000000000E+00 -0.15473302097E+04  0.15473302097E+04  0.25500000920E-02 0. -1.
    10030    2    1    2    0    0  0.00000000000E+00  0.00000000000E+00  0.11823198700E+03  0.32128924064E+04  0.32107162460E+04 0.  0.
        3    1    3    3  502    0 -0.41936796333E+02  0.44175836334E+03  0.16029726042E+04  0.16632589475E+04  0.10100000352E+00 0.  1.
       -3    1    3    3    0  502  0.41936796333E+02 -0.44175836334E+03 -0.14847406172E+04  0.15496334589E+04  0.10100000352E+00 0. -1.
</event>
<event>
 5   0  0.2621528E-06  0.3203447E+04  0.7818609E-02  0.8187907E-01
       -2   -1    0    0    0  501  0.00000000000E+00  0.00000000000E+00  0.12736596862E+04  0.12736596862E+04  0.25500000920E-02 0. -1.
        2   -1    0    0  501    0  0.00000000000E+00  0.00000000000E+00 -0.20142888332E+04  0.20142888332E+04  0.25500000920E-02 0.  1.
    10030    2    1    2    0    0  0.00000000000E+00  0.00000000000E+00 -0.74062914699E+03  0.32879485194E+04  0.32034471953E+04 0.  0.
        2    1    3    3  502    0  0.94658644884E+03  0.12579950381E+04 -0.67679045860E+02  0.15758038819E+04  0.25500000920E-02 0. -1.
       -2    1    3    3    0  502 -0.94658644884E+03 -0.12579950381E+04 -0.67295010113E+03  0.17121446375E+04  0.25500000920E-02 0.  1.
</event>
<event>
 5   0  0.2466076E-06  0.3188276E+04  0.7818609E-02  0.8191920E-01
        2   -1    0    0  501    0  0.00000000000E+00  0.00000000000E+00  0.10867701218E+04  0.10867701219E+04  0.25500000920E-02 0.  1.
       -2   -1    0    0    0  501  0.00000000000E+00  0.00000000000E+00 -0.23383743080E+04  0.23383743080E+04  0.25500000920E-02 0. -1.
    10030    2    1    2    0    0  0.00000000000E+00  0.00000000000E+00 -0.12516041862E+04  0.34251444299E+04  0.31882756039E+04 0.  0.
        3    1    3    3  502    0 -0.41527950466E+03 -0.18847016861E+03  0.10151959679E+04  0.11129244965E+04  0.10100000352E+00 0.  1.
       -3    1    3    3    0  502  0.41527950466E+03  0.18847016861E+03 -0.22668001541E+04  0.23122199334E+04  0.10100000352E+00 0. -1.
</event>
<event>
 5   0  0.2401139E-06  0.3065617E+04  0.7818609E-02  0.8225238E-01
        2   -1    0    0  501    0  0.00000000000E+00  0.00000000000E+00  0.12578196847E+04  0.12578196847E+04  0.25500000920E-02 0. -1.
       -2   -1    0    0    0  501  0.00000000000E+00  0.00000000000E+00 -0.18679168774E+04  0.18679168774E+04  0.25500000920E-02 0.  1.
    10030    2    1    2    0    0  0.00000000000E+00  0.00000000000E+00 -0.61009719277E+03  0.31257365621E+04  0.30656174698E+04 0.  0.
        5    1    3    3  502    0  0.57744882699E+03 -0.68014655988E+03  0.96576197482E+03  0.13148249970E+04  0.46999998093E+01 0. -1.
       -5    1    3    3    0  502 -0.57744882699E+03  0.68014655988E+03 -0.15758591676E+04  0.18109115651E+04  0.46999998093E+01 0.  1.
</event>
<event>
 5   0  0.2404430E-06  0.3180654E+04  0.7818609E-02  0.8193945E-01
        2   -1    0    0  501    0  0.00000000000E+00  0.00000000000E+00  0.10119936530E+04  0.10119936530E+04  0.25500000920E-02 0.  1.
       -2   -1    0    0    0  501  0.00000000000E+00  0.00000000000E+00 -0.24991651541E+04  0.24991651541E+04  0.25500000920E-02 0. -1.
    10030    2    1    2    0    0  0.00000000000E+00  0.00000000000E+00 -0.14871715011E+04  0.35111588071E+04  0.31806535642E+04 0.  0.
        4    1    3    3  502    0 -0.13499930815E+04 -0.59491116403E+03 -0.13992169953E+04  0.20332757870E+04  0.12699999809E+01 0. -1.
       -4    1    3    3    0  502  0.13499930815E+04  0.59491116403E+03 -0.87954505787E+02  0.14778830201E+04  0.12699999809E+01 0.  1.
</event>
<event>
 5   0  0.2404430E-06  0.3167384E+04  0.7818609E-02  0.8197485E-01
       -2   -1    0    0    0  501  0.00000000000E+00  0.00000000000E+00  0.88926639618E+03  0.88926639618E+03  0.25500000920E-02 0.  1.
        2   -1    0    0  501    0  0.00000000000E+00  0.00000000000E+00 -0.28203922543E+04  0.28203922543E+04  0.25500000920E-02 0. -1.
    10030    2    1    2    0    0  0.00000000000E+00  0.00000000000E+00 -0.19311258581E+04  0.37096586505E+04  0.31673838137E+04 0.  0.
        4    1    3    3  502    0 -0.41449310636E+02  0.14678924274E+04 -0.27103464388E+03  0.14932808225E+04  0.12699999809E+01 0.  1.
       -4    1    3    3    0  502  0.41449310636E+02 -0.14678924274E+04 -0.16600912142E+04  0.22163778280E+04  0.12699999809E+01 0. -1.
</event>
<event>
 5   0  0.8681172E-07  0.3206598E+04  0.7818609E-02  0.8187077E-01
        1   -1    0    0  501    0  0.00000000000E+00  0.00000000000E+00  0.31492647895E+04  0.31492647895E+04  0.50400001928E-02 0.  1.
       -1   -1    0    0    0  501  0.00000000000E+00  0.00000000000E+00 -0.81624372873E+03  0.81624372875E+03  0.50400001928E-02 0. -1.
    10030    2    1    2    0    0  0.00000000000E+00  0.00000000000E+00  0.23330210608E+04  0.39655085183E+04  0.32065979696E+04 0.  0.
        1    1    3    3  502    0 -0.14549398398E+04  0.65937416665E+03  0.13367198756E+04  0.20828932414E+04  0.50400001928E-02 0.  1.
       -1    1    3    3    0  502  0.14549398398E+04 -0.65937416665E+03  0.99630118519E+03  0.18826152769E+04  0.50400001928E-02 0. -1.
</event>
<event>
 5   0  0.2621528E-06  0.3170220E+04  0.7818609E-02  0.8196727E-01
        2   -1    0    0  501    0  0.00000000000E+00  0.00000000000E+00  0.15436539822E+04  0.15436539822E+04  0.25500000920E-02 0.  1.
       -2   -1    0    0    0  501  0.00000000000E+00  0.00000000000E+00 -0.16276791680E+04  0.16276791680E+04  0.25500000920E-02 0. -1.
    10030    2    1    2    0    0  0.00000000000E+00  0.00000000000E+00 -0.84025185797E+02  0.31713331501E+04  0.31702198216E+04 0.  0.
        2    1    3    3  502    0 -0.37343539953E+03  0.19919890858E+03 -0.15701089395E+04  0.16261538318E+04  0.25500000920E-02 0. -1.
       -2    1    3    3    0  502  0.37343539953E+03 -0.19919890858E+03  0.14860837537E+04  0.15451793183E+04  0.25500000920E-02 0.  1.
</event>
<event>
 5   0  0.8512855E-07  0.3191437E+04  0.7818609E-02  0.8191082E-01
        1   -1    0    0  501    0  0.00000000000E+00  0.00000000000E+00  0.23781534093E+04  0.23781534093E+04  0.50400001928E-02 0. -1.
       -1   -1    0    0    0  501  0.00000000000E+00  0.00000000000E+00 -0.10707117542E+04  0.10707117543E+04  0.50400001928E-02 0.  1.
    10030    2    1    2    0    0  0.00000000000E+00  0.00000000000E+00  0.13074416551E+04  0.34488651636E+04  0.31914365472E+04 0.  0.
        5    1    3    3  502    0  0.34434622406E+03  0.15247859063E+04  0.10001204432E+04  0.18557503531E+04  0.46999998093E+01 0.  1.
       -5    1    3    3    0  502 -0.34434622406E+03 -0.15247859063E+04  0.30732121188E+03  0.15931148105E+04  0.46999998093E+01 0. -1.
</event>
<event>
 5   0  0.8681172E-07  0.3190639E+04  0.7818609E-02  0.8191294E-01
        1   -1    0    0  501    0  0.00000000000E+00  0.00000000000E+00  0.16603730123E+04  0.16603730123E+04  0.50400001928E-02 0. -1.
       -1   -1    0    0    0  501  0.00000000000E+00  0.00000000000E+00 -0.15328151018E+04  0.15328151018E+04  0.50400001928E-02 0.  1.
    10030    2    1    2    0    0  0.00000000000E+00  0.00000000000E+00  0.12755791048E+03  0.31931881141E+04  0.31906393265E+04 0.  0.
        1    1    3    3  502    0  0.15023547110E+04  0.42690960695E+03 -0.26163204009E+03  0.15835949023E+04  0.50400001928E-02 0.  1.
       -1    1    3    3    0  502 -0.15023547110E+04 -0.42690960695E+03  0.38918995057E+03  0.16095932119E+04  0.50400001928E-02 0. -1.
</event>
<event>
 5   0  0.8512855E-07  0.3204285E+04  0.7818609E-02  0.8187686E-01
       -1   -1    0    0    0  501  0.00000000000E+00  0.00000000000E+00  0.22698035137E+04  0.22698035137E+04  0.50400001928E-02 0. -1.
        1   -1    0    0  501    0  0.00000000000E+00  0.00000000000E+00 -0.11308734356E+04  0.11308734357E+04  0.50400001928E-02 0.  1.
    10030    2    1    2    0    0  0.00000000000E+00  0.00000000000E+00  0.11389300780E+04  0.34006769494E+04  0.32042849423E+04 0.  0.
        5    1    3    3  502    0  0.97078962400E+03  0.12743174617E+04  0.54524248442E+03  0.16922260322E+04  0.46999998093E+01 0.  1.
       -5    1    3    3    0  502 -0.97078962400E+03 -0.12743174617E+04  0.59368759362E+03  0.17084509171E+04  0.46999998093E+01 0. -1.
</event>
<event>
 5   0  0.2337504E-06  0.3193197E+04  0.7818609E-02  0.8190616E-01
       -2   -1    0    0    0  501  0.00000000000E+00  0.00000000000E+00  0.15544048986E+04  0.15544048986E+04  0.25500000920E-02 0.  1.
        2   -1    0    0  501    0  0.00000000000E+00  0.00000000000E+00 -0.16399371306E+04  0.16399371306E+04  0.25500000920E-02 0. -1.
    10030    2    1    2    0    0  0.00000000000E+00  0.00000000000E+00 -0.85532231976E+02  0.31943420292E+04  0.31931967113E+04 0.  0.
        1    1    3    3  502    0 -0.30901872810E+03  0.10981178099E+04  0.10746712460E+04  0.15672503265E+04  0.50400001928E-02 0.  1.
       -1    1    3    3    0  502  0.30901872810E+03 -0.10981178099E+04 -0.11602034780E+04  0.16270917028E+04  0.50400001928E-02 0. -1.
</event>
<event>
 5   0  0.2466076E-06  0.3253831E+04  0.7818609E-02  0.8174744E-01
       -2   -1    0    0    0  501  0.00000000000E+00  0.00000000000E+00  0.15369617782E+04  0.15369617782E+04  0.25500000920E-02 0. -1.
        2   -1    0    0  501    0  0.00000000000E+00  0.00000000000E+00 -0.17221334123E+04  0.17221334123E+04  0.25500000920E-02 0.  1.
    10030    2    1    2    0    0  0.00000000000E+00  0.00000000000E+00 -0.18517163412E+03  0.32590951906E+04  0.32538305007E+04 0.  0.
        3    1    3    3  502    0  0.38037260613E+03 -0.34753898718E+03 -0.16382568507E+04  0.17173678075E+04  0.10100000352E+00 0.  1.
       -3    1    3    3    0  502 -0.38037260613E+03  0.34753898718E+03  0.14530852166E+04  0.15417273831E+04  0.10100000352E+00 0. -1.
</event>
<event>
 5   0  0.2401139E-06  0.3144892E+04  0.7818609E-02  0.8203525E-01
       -2   -1    0    0    0  501  0.00000000000E+00  0.00000000000E+00  0.14611663757E+04  0.14611663757E+04  0.25500000920E-02 0.  1.
        2   -1    0    0  501    0  0.00000000000E+00  0.00000000000E+00 -0.16922003715E+04  0.16922003715E+04  0.25500000920E-02 0. -1.
    10030    2    1    2    0    0  0.00000000000E+00  0.00000000000E+00 -0.23103399583E+03  0.31533667471E+04  0.31448919115E+04 0.  0.
        5    1    3    3  502    0 -0.13457899167E+04 -0.77919374537E+03 -0.34910572256E+03  0.15937974427E+04  0.46999998093E+01 0.  1.
       -5    1    3    3    0  502  0.13457899167E+04  0.77919374537E+03  0.11807172673E+03  0.15595693045E+04  0.46999998093E+01 0. -1.
</event>
<event>
 5   0  0.8512855E-07  0.3197016E+04  0.7818609E-02  0.8189606E-01
        1   -1    0    0  501    0  0.00000000000E+00  0.00000000000E+00  0.16478342749E+04  0.16478342749E+04  0.50400001928E-02 0. -1.
       -1   -1    0    0    0  501  0.00000000000E+00  0.00000000000E+00 -0.15506585433E+04  0.15506585433E+04  0.50400001928E-02 0.  1.
    10030    2    1    2    0    0  0.00000000000E+00  0.00000000000E+00  0.97175731549E+02  0.31984928182E+04  0.31970162942E+04 0.  0.
        5    1    3    3  502    0 -0.36553686965E+03 -0.14391427012E+04  0.64085560678E+03  0.16172405252E+04  0.46999998093E+01 0.  1.
       -5    1    3    3    0  502  0.36553686965E+03  0.14391427012E+04 -0.54367987523E+03  0.15812522930E+04  0.46999998093E+01 0. -1.
</event>
<event>
 5   0  0.2466076E-06  0.3183351E+04  0.7818609E-02  0.8193228E-01
        2   -1    0    0  501    0  0.00000000000E+00  0.00000000000E+00  0.14252724356E+04  0.14252724357E+04  0.25500000920E-02 0.  1.
       -2   -1    0    0    0  501  0.00000000000E+00  0.00000000000E+00 -0.17775061572E+04  0.17775061572E+04  0.25500000920E-02 0. -1.
    10030    2    1    2    0    0  0.00000000000E+00  0.00000000000E+00 -0.35223372159E+03  0.32027785929E+04  0.31833507693E+04 0.  0.
        3    1    3    3  502    0  0.13624094946E+04  0.54986504097E+03  0.43992657609E+03  0.15336383526E+04  0.10100000352E+00 0.  1.
       -3    1    3    3    0  502 -0.13624094946E+04 -0.54986504097E+03 -0.79216029767E+03  0.16691402402E+04  0.10100000352E+00 0. -1.
</event>
<event>
 5   0  0.2404430E-06  0.3159787E+04  0.7818609E-02  0.8199519E-01
       -2   -1    0    0    0  501  0.00000000000E+00  0.00000000000E+00  0.18355953614E+04  0.18355953614E+04  0.25500000920E-02 0.  1.
        2   -1    0    0  501    0  0.00000000000E+00  0.00000000000E+00 -0.13598117329E+04  0.13598117329E+04  0.25500000920E-02 0. -1.
    10030    2    1    2    0    0  0.00000000000E+00  0.00000000000E+00  0.47578362856E+03  0.31954070943E+04  0.31597874038E+04 0.  0.
        4    1    3    3  502    0 -0.82851174671E+03 -0.87989425548E+03  0.12669168764E+04  0.17509213574E+04  0.12699999809E+01 0.  1.
       -4    1    3    3    0  502  0.82851174671E+03  0.87989425548E+03 -0.79113324785E+03  0.14444857369E+04  0.12699999809E+01 0. -1.
</event>
<event>
 5   0  0.2401139E-06  0.3085662E+04  0.7818609E-02  0.8219684E-01
       -2   -1    0    0    0  501  0.00000000000E+00  0.00000000000E+00  0.10321555317E+04  0.10321555317E+04  0.25500000920E-02 0.  1.
        2   -1    0    0  501    0  0.00000000000E+00  0.00000000000E+00 -0.23061705877E+04  0.23061705877E+04  0.25500000920E-02 0. -1.
    10030    2    1    2    0    0  0.00000000000E+00  0.00000000000E+00 -0.12740150559E+04  0.33383261194E+04  0.30856615039E+04 0.  0.
        5    1    3    3  502    0  0.11729880823E+04  0.99332470261E+03 -0.78098192220E+03  0.17241084243E+04  0.46999998093E+01 0.  1.
       -5    1    3    3    0  502 -0.11729880823E+04 -0.99332470261E+03 -0.49303313375E+03  0.16142176951E+04  0.46999998093E+01 0. -1.
</event>
<event>
 5   0  0.8512855E-07  0.3207249E+04  0.7818609E-02  0.8186905E-01
       -1   -1    0    0    0  501  0.00000000000E+00  0.00000000000E+00  0.13064620237E+04  0.13064620237E+04  0.50400001928E-02 0. -1.
        1   -1    0    0  501    0  0.00000000000E+00  0.00000000000E+00 -0.19683779898E+04  0.19683779898E+04  0.50400001928E-02 0.  1.
    10030    2    1    2    0    0  0.00000000000E+00  0.00000000000E+00 -0.66191596607E+03  0.32748400135E+04  0.32072487225E+04 0.  0.
        5    1    3    3  502    0  0.11608797185E+04 -0.57559275056E+03  0.63374958213E+03  0.14424317516E+04  0.46999998093E+01 0. -1.
       -5    1    3    3    0  502 -0.11608797185E+04  0.57559275056E+03 -0.12956655482E+04  0.18324082618E+04  0.46999998093E+01 0.  1.
</event>
<event>
 5   0  0.2466076E-06  0.3182282E+04  0.7818609E-02  0.8193512E-01
       -2   -1    0    0    0  501  0.00000000000E+00  0.00000000000E+00  0.14097495438E+04  0.14097495438E+04  0.25500000920E-02 0.  1.
        2   -1    0    0  501    0  0.00000000000E+00  0.00000000000E+00 -0.17958724852E+04  0.17958724852E+04  0.25500000920E-02 0. -1.
    10030    2    1    2    0    0  0.00000000000E+00  0.00000000000E+00 -0.38612294137E+03  0.32056220290E+04  0.31822824618E+04 0.  0.
        3    1    3    3  502    0 -0.17478539777E+03  0.13340007014E+04  0.66265255728E+03  0.14997387201E+04  0.10100000352E+00 0.  1.
       -3    1    3    3    0  502  0.17478539777E+03 -0.13340007014E+04 -0.10487754986E+04  0.17058833089E+04  0.10100000352E+00 0. -1.
</event>
<event>
 5   0  0.2337504E-06  0.2733661E+04  0.7818609E-02  0.8324165E-01
       -2   -1    0    0    0  501  0.00000000000E+00  0.00000000000E+00  0.10893797750E+04  0.10893797750E+04  0.25500000920E-02 0. -1.
        2   -1    0    0  501    0  0.00000000000E+00  0.00000000000E+00 -0.17149445227E+04  0.17149445227E+04  0.25500000920E-02 0.  1.
    10030    2    1    2    0    0  0.00000000000E+00  0.00000000000E+00 -0.62556474771E+03  0.28043242976E+04  0.27336611920E+04 0.  0.
        1    1    3    3  502    0  0.12878615782E+02  0.10258954229E+04  0.61366719482E+03  0.11954976802E+04  0.50400001928E-02 0.  1.
       -1    1    3    3    0  502 -0.12878615782E+02 -0.10258954229E+04 -0.12392319425E+04  0.16088266174E+04  0.50400001928E-02 0. -1.
</event>
<event>
 5   0  0.2404430E-06  0.3298163E+04  0.7818609E-02  0.8163363E-01
       -2   -1    0    0    0  501  0.00000000000E+00  0.00000000000E+00  0.13314516818E+04  0.13314516818E+04  0.25500000920E-02 0.  1.
        2   -1    0    0  501    0  0.00000000000E+00  0.00000000000E+00 -0.20424851176E+04  0.20424851176E+04  0.25500000920E-02 0. -1.
    10030    2    1    2    0    0  0.00000000000E+00  0.00000000000E+00 -0.71103343574E+03  0.33739367994E+04  0.32981632736E+04 0.  0.
        4    1    3    3  502    0 -0.19506460393E+02  0.15370152106E+04  0.25542464158E+03  0.15582168078E+04  0.12699999809E+01 0.  1.
       -4    1    3    3    0  502  0.19506460393E+02 -0.15370152106E+04 -0.96645807733E+03  0.18157199916E+04  0.12699999809E+01 0. -1.
</event>
<event>
 5   0  0.2337504E-06  0.3188821E+04  0.7818609E-02  0.8191776E-01
       -2   -1    0    0    0  501  0.00000000000E+00  0.00000000000E+00  0.19440550099E+04  0.19440550099E+04  0.25500000920E-02 0. -1.
        2   -1    0    0  501    0  0.00000000000E+00  0.00000000000E+00 -0.13076508629E+04  0.13076508629E+04  0.25500000920E-02 0.  1.
    10030    2    1    2    0    0  0.00000000000E+00  0.00000000000E+00  0.63640414700E+03  0.32517058728E+04  0.31888212313E+04 0.  0.
        1    1    3    3  502    0 -0.13480146413E+04  0.84850498076E+03  0.39060247433E+03  0.16400227037E+04  0.50400001928E-02 0. -1.
       -1    1    3    3    0  502  0.13480146413E+04 -0.84850498076E+03  0.24580167267E+03  0.16116831692E+04  0.50400001928E-02 0.  1.
</event>
<event>
 5   0  0.2466076E-06  0.3152086E+04  0.7818609E-02  0.8201587E-01
        2   -1    0    0  501    0  0.00000000000E+00  0.00000000000E+00  0.16236700332E+04  0.16236700332E+04  0.25500000920E-02 0. -1.
       -2   -1    0    0    0  501  0.00000000000E+00  0.00000000000E+00 -0.15298132591E+04  0.15298132591E+04  0.25500000920E-02 0.  1.
    10030    2    1    2    0    0  0.00000000000E+00  0.00000000000E+00  0.93856774092E+02  0.31534832922E+04  0.31520862584E+04 0.  0.
        3    1    3    3  502    0 -0.22490907561E+03 -0.54731886867E+03 -0.14144619547E+04  0.15332464472E+04  0.10100000352E+00 0.  1.
       -3    1    3    3    0  502  0.22490907561E+03  0.54731886867E+03  0.15083187288E+04  0.16202368451E+04  0.10100000352E+00 0. -1.
</event>
<event>
 5   0  0.2621528E-06  0.3161697E+04  0.7818609E-02  0.8199007E-01
       -2   -1    0    0    0  501  0.00000000000E+00  0.00000000000E+00  0.10927958482E+04  0.10927958482E+04  0.25500000920E-02 0.  1.
        2   -1    0    0  501    0  0.00000000000E+00  0.00000000000E+00 -0.22868692412E+04  0.22868692412E+04  0.25500000920E-02 0. -1.
    10030    2    1    2    0    0  0.00000000000E+00  0.00000000000E+00 -0.11940733930E+04  0.33796650894E+04  0.31616965144E+04 0.  0.
        2    1    3    3  502    0 -0.76082276916E+03  0.13235112143E+02  0.88415167035E+03  0.11665121647E+04  0.25500000920E-02 0.  1.
       -2    1    3    3    0  502  0.76082276916E+03 -0.13235112143E+02 -0.20782250633E+04  0.22131529247E+04  0.25500000920E-02 0. -1.
</event>
<event>
 5   0  0.2337504E-06  0.3456469E+04  0.7818609E-02  0.8124184E-01
        2   -1    0    0  501    0  0.00000000000E+00  0.00000000000E+00  0.23519486461E+04  0.23519486461E+04  0.25500000920E-02 0. -1.
       -2   -1    0    0    0  501  0.00000000000E+00  0.00000000000E+00 -0.12699231809E+04  0.12699231809E+04  0.25500000920E-02 0.  1.
    10030    2    1    2    0    0  0.00000000000E+00  0.00000000000E+00  0.10820254652E+04  0.36218718270E+04  0.34564687796E+04 0.  0.
        1    1    3    3  502    0  0.50823227783E+03  0.26693365889E+03  0.22491228636E+04  0.23212296918E+04  0.50400001928E-02 0. -1.
       -1    1    3    3    0  502 -0.50823227783E+03 -0.26693365889E+03 -0.11670973984E+04  0.13006421352E+04  0.50400001928E-02 0.  1.
</event>
<event>
 5   0  0.2621528E-06  0.3217811E+04  0.7818609E-02  0.8184129E-01
       -2   -1    0    0    0  501  0.00000000000E+00  0.00000000000E+00  0.14026574256E+04  0.14026574256E+04  0.25500000920E-02 0. -1.
        2   -1    0    0  501    0  0.00000000000E+00  0.00000000000E+00 -0.18454807529E+04  0.18454807529E+04  0.25500000920E-02 0.  1.
    10030    2    1    2    0    0  0.00000000000E+00  0.00000000000E+00 -0.44282332734E+03  0.32481381785E+04  0.32178112324E+04 0.  0.
        2    1    3    3  502    0 -0.54330187419E+03  0.14472448890E+04  0.22875394443E+03  0.15626973675E+04  0.25500000920E-02 0. -1.
       -2    1    3    3    0  502  0.54330187419E+03 -0.14472448890E+04 -0.67157727177E+03  0.16854408110E+04  0.25500000920E-02 0.  1.
</event>
<event>
 5   0  0.8681172E-07  0.3191958E+04  0.7818609E-02  0.8190944E-01
       -1   -1    0    0    0  501  0.00000000000E+00  0.00000000000E+00  0.20069569748E+04  0.20069569748E+04  0.50400001928E-02 0. -1.
        1   -1    0    0  501    0  0.00000000000E+00  0.00000000000E+00 -0.12691600068E+04  0.12691600068E+04  0.50400001928E-02 0.  1.
    10030    2    1    2    0    0  0.00000000000E+00  0.00000000000E+00  0.73779696798E+03  0.32761169816E+04  0.31919583504E+04 0.  0.
        1    1    3    3  502    0  0.24361943312E+03  0.11866883176E+04 -0.69751978378E+03  0.13978960763E+04  0.50400001928E-02 0.  1.
       -1    1    3    3    0  502 -0.24361943312E+03 -0.11866883176E+04  0.14353167518E+04  0.18782209053E+04  0.50400001928E-02 0. -1.
</event>
<event>
 5   0  0.8487944E-07  0.3198715E+04  0.7818609E-02  0.8189157E-01
        1   -1    0    0  501    0  0.00000000000E+00  0.00000000000E+00  0.19183438239E+04  0.19183438239E+04  0.50400001928E-02 0.  1.
       -1   -1    0    0    0  501  0.00000000000E+00  0.00000000000E+00 -0.13334127803E+04  0.13334127803E+04  0.50400001928E-02 0. -1.
    10030    2    1    2    0    0  0.00000000000E+00  0.00000000000E+00  0.58493104355E+03  0.32517566042E+04  0.31987148493E+04 0.  0.
        2    1    3    3  502    0 -0.88591984851E+03  0.93558585678E+03  0.12556841637E+04  0.17991435719E+04  0.25500000920E-02 0.  1.
       -2    1    3    3    0  502  0.88591984851E+03 -0.93558585678E+03 -0.67075312012E+03  0.14526130323E+04  0.25500000920E-02 0. -1.
</event>
<event>
 5   0  0.8383008E-07  0.3207014E+04  0.7818609E-02  0.8186967E-01
        1   -1    0    0  501    0  0.00000000000E+00  0.00000000000E+00  0.17890422766E+04  0.17890422766E+04  0.50400001928E-02 0.  1.
       -1   -1    0    0    0  501  0.00000000000E+00  0.00000000000E+00 -0.14372133158E+04  0.14372133158E+04  0.50400001928E-02 0. -1.
    10030    2    1    2    0    0  0.00000000000E+00  0.00000000000E+00  0.35182896076E+03  0.32262555924E+04  0.32070144262E+04 0.  0.
        4    1    3    3  502    0 -0.13812208553E+04  0.74422418082E+03 -0.15712018182E+03  0.15768097688E+04  0.12699999809E+01 0. -1.
       -4    1    3    3    0  502  0.13812208553E+04 -0.74422418082E+03  0.50894914258E+03  0.16494458236E+04  0.12699999809E+01 0.  1.
</event>
<event>
 5   0  0.8512855E-07  0.3166632E+04  0.7818609E-02  0.8197686E-01
       -1   -1    0    0    0  501  0.00000000000E+00  0.00000000000E+00  0.13643146414E+04  0.13643146414E+04  0.50400001928E-02 0.  1.
        1   -1    0    0  501    0  0.00000000000E+00  0.00000000000E+00 -0.18374719301E+04  0.18374719301E+04  0.50400001928E-02 0. -1.
    10030    2    1    2    0    0  0.00000000000E+00  0.00000000000E+00 -0.47315728878E+03  0.32017865715E+04  0.31666321904E+04 0.  0.
        5    1    3    3  502    0  0.83709936323E+03  0.13388064999E+04 -0.11810455689E+03  0.15833852862E+04  0.46999998093E+01 0. -1.
       -5    1    3    3    0  502 -0.83709936323E+03 -0.13388064999E+04 -0.35505273189E+03  0.16184012854E+04  0.46999998093E+01 0.  1.
</event>
<event>
 5   0  0.2466076E-06  0.3110504E+04  0.7818609E-02  0.8212861E-01
        2   -1    0    0  501    0  0.00000000000E+00  0.00000000000E+00  0.17338844134E+04  0.17338844134E+04  0.25500000920E-02 0.  1.
       -2   -1    0    0    0  501  0.00000000000E+00  0.00000000000E+00 -0.13950233102E+04  0.13950233102E+04  0.25500000920E-02 0. -1.
    10030    2    1    2    0    0  0.00000000000E+00  0.00000000000E+00  0.33886110316E+03  0.31289077236E+04  0.31105042510E+04 0.  0.
        3    1    3    3  502    0 -0.14348930412E+04 -0.13257070592E+03  0.75797008313E+03  0.16281927677E+04  0.10100000352E+00 0. -1.
       -3    1    3    3    0  502  0.14348930412E+04  0.13257070592E+03 -0.41910897997E+03  0.15007149559E+04  0.10100000352E+00 0.  1.
</event>
<event>
 5   0  0.2466076E-06  0.3209597E+04  0.7818609E-02  0.8186287E-01
       -2   -1    0    0    0  501  0.00000000000E+00  0.00000000000E+00  0.12051866047E+04  0.12051866047E+04  0.25500000920E-02 0.  1.
        2   -1    0    0  501    0  0.00000000000E+00  0.00000000000E+00 -0.21369128845E+04  0.21369128845E+04  0.25500000920E-02 0. -1.
    10030    2    1    2    0    0  0.00000000000E+00  0.00000000000E+00 -0.93172627984E+03  0.33420994893E+04  0.32095973479E+04 0.  0.
        3    1    3    3  502    0 -0.77241221617E+03 -0.11384177294E+04 -0.13262700290E+04  0.19109180407E+04  0.10100000352E+00 0. -1.
       -3    1    3    3    0  502  0.77241221617E+03  0.11384177294E+04  0.39454374916E+03  0.14311814485E+04  0.10100000352E+00 0.  1.
</event>
<event>
 5   0  0.8545153E-07  0.3097879E+04  0.7818609E-02  0.8216320E-01
        1   -1    0    0  501    0  0.00000000000E+00  0.00000000000E+00  0.18206431032E+04  0.18206431032E+04  0.50400001928E-02 0. -1.
       -1   -1    0    0    0  501  0.00000000000E+00  0.00000000000E+00 -0.13177831624E+04  0.13177831624E+04  0.50400001928E-02 0.  1.
    10030    2    1    2    0    0  0.00000000000E+00  0.00000000000E+00  0.50285994083E+03  0.31384262656E+04  0.30978785167E+04 0.  0.
        3    1    3    3  502    0  0.11007561267E+04  0.10890377139E+04  0.21160097553E+03  0.15628314611E+04  0.10100000352E+00 0.  1.
       -3    1    3    3    0  502 -0.11007561267E+04 -0.10890377139E+04  0.29125896531E+03  0.15755948045E+04  0.10100000352E+00 0. -1.
</event>
<event>
 5   0  0.8383008E-07  0.3009362E+04  0.7818609E-02  0.8241062E-01
       -1   -1    0    0    0  501  0.00000000000E+00  0.00000000000E+00  0.16238012670E+04  0.16238012670E+04  0.50400001928E-02 0.  1.
        1   -1    0    0  501    0  0.00000000000E+00  0.00000000000E+00 -0.13942995068E+04  0.13942995068E+04  0.50400001928E-02 0. -1.
    10030    2    1    2    0    0  0.00000000000E+00  0.00000000000E+00  0.22950176020E+03  0.30181007739E+04  0.30093622619E+04 0.  0.
        4    1    3    3  502    0  0.14481964083E+04  0.60618636164E+02  0.51980015862E+03  0.15398510558E+04  0.12699999809E+01 0.  1.
       -4    1    3    3    0  502 -0.14481964083E+04 -0.60618636164E+02 -0.29029839841E+03  0.14782497181E+04  0.12699999809E+01 0. -1.
</event>
<event>
 5   0  0.8512855E-07  0.3218006E+04  0.7818609E-02  0.8184078E-01
        1   -1    0    0  501    0  0.00000000000E+00  0.00000000000E+00  0.96526648579E+03  0.96526648580E+03  0.50400001928E-02 0.  1.
       -1   -1    0    0    0  501  0.00000000000E+00  0.00000000000E+00 -0.26820479935E+04  0.26820479935E+04  0.50400001928E-02 0. -1.
    10030    2    1    2    0    0  0.00000000000E+00  0.00000000000E+00 -0.17167815077E+04  0.36473144793E+04  0.32180062408E+04 0.  0.
        5    1    3    3  502    0  0.19758400861E+03 -0.13623251686E+04  0.85745472262E+02  0.13792547559E+04  0.46999998093E+01 0.  1.
       -5    1    3    3    0  502 -0.19758400861E+03  0.13623251686E+04 -0.18025269800E+04  0.22680597234E+04  0.46999998093E+01 0. -1.
</event>
<event>
 5   0  0.2404430E-06  0.3167242E+04  0.7818609E-02  0.8197523E-01
       -2   -1    0    0    0  501  0.00000000000E+00  0.00000000000E+00  0.14919119179E+04  0.14919119179E+04  0.25500000920E-02 0.  1.
        2   -1    0    0  501    0  0.00000000000E+00  0.00000000000E+00 -0.16809669879E+04  0.16809669880E+04  0.25500000920E-02 0. -1.
    10030    2    1    2    0    0  0.00000000000E+00  0.00000000000E+00 -0.18905507002E+03  0.31728789059E+04  0.31672415020E+04 0.  0.
        4    1    3    3  502    0  0.10467148523E+04  0.10709344820E+04 -0.61055643738E+03  0.16171868855E+04  0.12699999809E+01 0. -1.
       -4    1    3    3    0  502 -0.10467148523E+04 -0.10709344820E+04  0.42150136735E+03  0.15556920204E+04  0.12699999809E+01 0.  1.
</event>
<event>
 5   0  0.2404430E-06  0.3235927E+04  0.7818609E-02  0.8179393E-01
       -2   -1    0    0    0  501  0.00000000000E+00  0.00000000000E+00  0.15140322080E+04  0.15140322080E+04  0.25500000920E-02 0. -1.
        2   -1    0    0  501    0  0.00000000000E+00  0.00000000000E+00 -0.17290291542E+04  0.17290291542E+04  0.25500000920E-02 0.  1.
    10030    2    1    2    0    0  0.00000000000E+00  0.00000000000E+00 -0.21499694619E+03  0.32430613621E+04  0.32359269633E+04 0.  0.
        4    1    3    3  502    0 -0.11721968046E+04 -0.99425187060E+03  0.39881044926E+03  0.15879652131E+04  0.12699999809E+01 0. -1.
       -4    1    3    3    0  502  0.11721968046E+04  0.99425187060E+03 -0.61380739545E+03  0.16550961490E+04  0.12699999809E+01 0.  1.
</event>
<event>
 5   0  0.2466076E-06  0.3079324E+04  0.7818609E-02  0.8221435E-01
       -2   -1    0    0    0  501  0.00000000000E+00  0.00000000000E+00  0.11712064327E+04  0.11712064327E+04  0.25500000920E-02 0. -1.
        2   -1    0    0  501    0  0.00000000000E+00  0.00000000000E+00 -0.20240323055E+04  0.20240323055E+04  0.25500000920E-02 0.  1.
    10030    2    1    2    0    0  0.00000000000E+00  0.00000000000E+00 -0.85282587277E+03  0.31952387382E+04  0.30793243779E+04 0.  0.
        3    1    3    3  502    0 -0.40219781545E+03 -0.43048073719E+03  0.10496254150E+04  0.12036570400E+04  0.10100000352E+00 0. -1.
       -3    1    3    3    0  502  0.40219781545E+03  0.43048073719E+03 -0.19024512878E+04  0.19915816982E+04  0.10100000352E+00 0.  1.
</event>
<event>
 5   0  0.8681172E-07  0.3110137E+04  0.7818609E-02  0.8212962E-01
        1   -1    0    0  501    0  0.00000000000E+00  0.00000000000E+00  0.11237174319E+04  0.11237174319E+04  0.50400001928E-02 0. -1.
       -1   -1    0    0    0  501  0.00000000000E+00  0.00000000000E+00 -0.21519977682E+04  0.21519977682E+04  0.50400001928E-02 0.  1.
    10030    2    1    2    0    0  0.00000000000E+00  0.00000000000E+00 -0.10282803363E+04  0.32757152001E+04  0.31101365922E+04 0.  0.
        1    1    3    3  502    0  0.12585682291E+04 -0.88355145305E+03 -0.27034278903E+03  0.15613271218E+04  0.50400001928E-02 0. -1.
       -1    1    3    3    0  502 -0.12585682291E+04  0.88355145305E+03 -0.75793754723E+03  0.17143880783E+04  0.50400001928E-02 0.  1.
</event>
<event>
 5   0  0.2404430E-06  0.3193871E+04  0.7818609E-02  0.8190438E-01
       -2   -1    0    0    0  501  0.00000000000E+00  0.00000000000E+00  0.17146739250E+04  0.17146739250E+04  0.25500000920E-02 0. -1.
        2   -1    0    0  501    0  0.00000000000E+00  0.00000000000E+00 -0.14872812681E+04  0.14872812681E+04  0.25500000920E-02 0.  1.
    10030    2    1    2    0    0  0.00000000000E+00  0.00000000000E+00  0.22739265693E+03  0.32019551931E+04  0.31938706358E+04 0.  0.
        4    1    3    3  502    0 -0.13063258465E+04  0.90343346505E+03 -0.52619813681E+02  0.15891663540E+04  0.12699999809E+01 0.  1.
       -4    1    3    3    0  502  0.13063258465E+04 -0.90343346505E+03  0.28001247061E+03  0.16127888391E+04  0.12699999809E+01 0. -1.
</event>
<event>
 5   0  0.8383008E-07  0.3250797E+04  0.7818609E-02  0.8175529E-01
        1   -1    0    0  501    0  0.00000000000E+00  0.00000000000E+00  0.20517517609E+04  0.20517517610E+04  0.50400001928E-02 0.  1.
       -1   -1    0    0    0  501  0.00000000000E+00  0.00000000000E+00 -0.12876411694E+04  0.12876411694E+04  0.50400001928E-02 0. -1.
    10030    2    1    2    0    0  0.00000000000E+00  0.00000000000E+00  0.76411059155E+03  0.33393929304E+04  0.32507968480E+04 0.  0.
        4    1    3    3  502    0 -0.25778939094E+02 -0.15239515708E+04 -0.19797971017E+03  0.15369744703E+04  0.12699999809E+01 0. -1.
       -4    1    3    3    0  502  0.25778939094E+02  0.15239515708E+04  0.96209030171E+03  0.18024184601E+04  0.12699999809E+01 0.  1.
</event>
<event>
 5   0  0.2337504E-06  0.3199192E+04  0.7818609E-02  0.8189031E-01
        2   -1    0    0  501    0  0.00000000000E+00  0.00000000000E+00  0.18924304910E+04  0.18924304910E+04  0.25500000920E-02 0.  1.
       -2   -1    0    0    0  501  0.00000000000E+00  0.00000000000E+00 -0.13520744239E+04  0.13520744239E+04  0.25500000920E-02 0. -1.
    10030    2    1    2    0    0  0.00000000000E+00  0.00000000000E+00  0.54035606713E+03  0.32445049150E+04  0.31991916891E+04 0.  0.
        1    1    3    3  502    0  0.86413966347E+03 -0.98952075267E+03 -0.65533656630E+03  0.14681126296E+04  0.50400001928E-02 0. -1.
       -1    1    3    3    0  502 -0.86413966347E+03  0.98952075267E+03  0.11956926334E+04  0.17763922854E+04  0.50400001928E-02 0.  1.
</event>
<event>
 5   0  0.2401139E-06  0.3231315E+04  0.7818609E-02  0.8180595E-01
       -2   -1    0    0    0  501  0.00000000000E+00  0.00000000000E+00  0.12669060958E+04  0.12669060958E+04  0.25500000920E-02 0. -1.
        2   -1    0    0  501    0  0.00000000000E+00  0.00000000000E+00 -0.20604131192E+04  0.20604131192E+04  0.25500000920E-02 0.  1.
    10030    2    1    2    0    0  0.00000000000E+00  0.00000000000E+00 -0.79350702341E+03  0.33273192150E+04  0.32313154848E+04 0.  0.
        5    1    3    3  502    0  0.64579611194E+03  0.58459630138E+02  0.11270292423E+04  0.13002642615E+04  0.46999998093E+01 0. -1.
       -5    1    3    3    0  502 -0.64579611194E+03 -0.58459630138E+02 -0.19205362657E+04  0.20270549535E+04  0.46999998093E+01 0.  1.
</event>
<event>
 5   0  0.8681172E-07  0.3209748E+04  0.7818609E-02  0.8186248E-01
        1   -1    0    0  501    0  0.00000000000E+00  0.00000000000E+00  0.15696071747E+04  0.15696071747E+04  0.50400001928E-02 0.  1.
       -1   -1    0    0    0  501  0.00000000000E+00  0.00000000000E+00 -0.16409329997E+04  0.16409329997E+04  0.50400001928E-02 0. -1.
    10030    2    1    2    0    0  0.00000000000E+00  0.00000000000E+00 -0.71325824981E+02  0.32105401744E+04  0.32097477842E+04 0.  0.
        1    1    3    3  502    0  0.13633823184E+04 -0.66148393696E+03  0.49290662629E+03  0.15935273098E+04  0.50400001928E-02 0.  1.
       -1    1    3    3    0  502 -0.13633823184E+04  0.66148393696E+03 -0.56423245127E+03  0.16170128645E+04  0.50400001928E-02 0. -1.
</event>
<event>
 5   0  0.8681172E-07  0.3185226E+04  0.7818609E-02  0.8192730E-01
       -1   -1    0    0    0  501  0.00000000000E+00  0.00000000000E+00  0.14100296918E+04  0.14100296918E+04  0.50400001928E-02 0.  1.
        1   -1    0    0  501    0  0.00000000000E+00  0.00000000000E+00 -0.17988387024E+04  0.17988387024E+04  0.50400001928E-02 0. -1.
    10030    2    1    2    0    0  0.00000000000E+00  0.00000000000E+00 -0.38880901068E+03  0.32088683942E+04  0.31852258828E+04 0.  0.
        1    1    3    3  502    0 -0.96080755780E+03  0.11683733946E+04  0.30745821362E+03  0.15436249886E+04  0.50400001928E-02 0.  1.
       -1    1    3    3    0  502  0.96080755780E+03 -0.11683733946E+04 -0.69626722430E+03  0.16652434056E+04  0.50400001928E-02 0. -1.
</event>
<event>
 5   0  0.8383008E-07  0.3180653E+04  0.7818609E-02  0.8193945E-01
        1   -1    0    0  501    0  0.00000000000E+00  0.00000000000E+00  0.16767589798E+04  0.16767589798E+04  0.50400001928E-02 0. -1.
       -1   -1    0    0    0  501  0.00000000000E+00  0.00000000000E+00 -0.15083497062E+04  0.15083497062E+04  0.50400001928E-02 0.  1.
    10030    2    1    2    0    0  0.00000000000E+00  0.00000000000E+00  0.16840927364E+03  0.31851086860E+04  0.31806533382E+04 0.  0.
        4    1    3    3  502    0  0.14467810382E+04 -0.23692128853E+03 -0.53296234485E+03  0.15599222876E+04  0.12699999809E+01 0.  1.
       -4    1    3    3    0  502 -0.14467810382E+04  0.23692128853E+03  0.70137161848E+03  0.16251863984E+04  0.12699999809E+01 0. -1.
</event>
<event>
 5   0  0.2404430E-06  0.3207965E+04  0.7818609E-02  0.8186717E-01
       -2   -1    0    0    0  501  0.00000000000E+00  0.00000000000E+00  0.18318933659E+04  0.18318933659E+04  0.25500000920E-02 0.  1.
        2   -1    0    0  501    0  0.00000000000E+00  0.00000000000E+00 -0.14044265944E+04  0.14044265944E+04  0.25500000920E-02 0. -1.
    10030    2    1    2    0    0  0.00000000000E+00  0.00000000000E+00  0.42746677148E+03  0.32363199603E+04  0.32079649382E+04 0.  0.
        4    1    3    3  502    0 -0.91308300337E+03  0.12487630575E+04 -0.21383869943E+03  0.15616844582E+04  0.12699999809E+01 0. -1.
       -4    1    3    3    0  502  0.91308300337E+03 -0.12487630575E+04  0.64130547091E+03  0.16746355020E+04  0.12699999809E+01 0.  1.
</event>
<event>
 5   0  0.8681172E-07  0.3183486E+04  0.7818609E-02  0.8193192E-01
       -1   -1    0    0    0  501  0.00000000000E+00  0.00000000000E+00  0.11301097859E+04  0.11301097859E+04  0.50400001928E-02 0. -1.
        1   -1    0    0  501    0  0.00000000000E+00  0.00000000000E+00 -0.22419465172E+04  0.22419465172E+04  0.50400001928E-02 0.  1.
    10030    2    1    2    0    0  0.00000000000E+00  0.00000000000E+00 -0.11118367313E+04  0.33720563031E+04  0.31834859500E+04 0.  0.
        1    1    3    3  502    0  0.79160283765E+03  0.58793705623E+03 -0.18794694716E+04  0.21224303356E+04  0.50400001928E-02 0.  1.
       -1    1    3    3    0  502 -0.79160283765E+03 -0.58793705623E+03  0.76763274028E+03  0.12496259675E+04  0.50400001928E-02 0. -1.
</event>
<event>
 5   0  0.2337504E-06  0.3207764E+04  0.7818609E-02  0.8186770E-01
        2   -1    0    0  501    0  0.00000000000E+00  0.00000000000E+00  0.18157462374E+04  0.18157462374E+04  0.25500000920E-02 0.  1.
       -2   -1    0    0    0  501  0.00000000000E+00  0.00000000000E+00 -0.14167380155E+04  0.14167380155E+04  0.25500000920E-02 0. -1.
    10030    2    1    2    0    0  0.00000000000E+00  0.00000000000E+00  0.39900822192E+03  0.32324842529E+04  0.32077635331E+04 0.  0.
        1    1    3    3  502    0  0.12503273624E+04 -0.79703648585E+02 -0.80959487954E+03  0.14916819547E+04  0.50400001928E-02 0. -1.
       -1    1    3    3    0  502 -0.12503273624E+04  0.79703648585E+02  0.12086031015E+04  0.17408022983E+04  0.50400001928E-02 0.  1.
</event>
<event>
 5   0  0.8512855E-07  0.3200718E+04  0.7818609E-02  0.8188628E-01
        1   -1    0    0  501    0  0.00000000000E+00  0.00000000000E+00  0.19769443718E+04  0.19769443718E+04  0.50400001928E-02 0.  1.
       -1   -1    0    0    0  501  0.00000000000E+00  0.00000000000E+00 -0.12955086912E+04  0.12955086912E+04  0.50400001928E-02 0. -1.
    10030    2    1    2    0    0  0.00000000000E+00  0.00000000000E+00  0.68143568063E+03  0.32724530630E+04  0.32007178043E+04 0.  0.
        5    1    3    3  502    0  0.69210810470E+03 -0.49762830102E+03 -0.10440673470E+04  0.13478673042E+04  0.46999998093E+01 0. -1.
       -5    1    3    3    0  502 -0.69210810470E+03  0.49762830102E+03  0.17255030276E+04  0.19245857588E+04  0.46999998093E+01 0.  1.
</event>
<event>
 5   0  0.2466076E-06  0.3112258E+04  0.7818609E-02  0.8212382E-01
        2   -1    0    0  501    0  0.00000000000E+00  0.00000000000E+00  0.26861112551E+04  0.26861112551E+04  0.25500000920E-02 0.  1.
       -2   -1    0    0    0  501  0.00000000000E+00  0.00000000000E+00 -0.90150287680E+03  0.90150287680E+03  0.25500000920E-02 0. -1.
    10030    2    1    2    0    0  0.00000000000E+00  0.00000000000E+00  0.17846083783E+04  0.35876141319E+04  0.31122577167E+04 0.  0.
        3    1    3    3  502    0 -0.12460876206E+04  0.35641858184E+03 -0.10050171747E+03  0.12999496794E+04  0.10100000352E+00 0. -1.
       -3    1    3    3    0  502  0.12460876206E+04 -0.35641858184E+03  0.18851100957E+04  0.22876644524E+04  0.10100000352E+00 0.  1.
</event>
<event>
 5   0  0.8681172E-07  0.3068460E+04  0.7818609E-02  0.8224448E-01
       -1   -1    0    0    0  501  0.00000000000E+00  0.00000000000E+00  0.87045865977E+03  0.87045865978E+03  0.50400001928E-02 0.  1.
        1   -1    0    0  501    0  0.00000000000E+00  0.00000000000E+00 -0.27041621383E+04  0.27041621383E+04  0.50400001928E-02 0. -1.
    10030    2    1    2    0    0  0.00000000000E+00  0.00000000000E+00 -0.18337034785E+04  0.35746207981E+04  0.30684597770E+04 0.  0.
        1    1    3    3  502    0 -0.36446611995E+03  0.33814489070E+03 -0.26077178669E+04  0.26546883043E+04  0.50400001928E-02 0. -1.
       -1    1    3    3    0  502  0.36446611995E+03 -0.33814489070E+03  0.77401438836E+03  0.91993249378E+03  0.50400001928E-02 0.  1.
</event>
<event>
 5   0  0.7934375E-07  0.3151438E+04  0.7818609E-02  0.8201761E-01
        3   -1    0    0  501    0  0.00000000000E+00  0.00000000000E+00  0.27539035507E+04  0.27539035526E+04  0.10100000352E+00 0.  1.
       -3   -1    0    0    0  501  0.00000000000E+00  0.00000000000E+00 -0.90158946143E+03  0.90158946709E+03  0.10100000352E+00 0. -1.
    10030    2    1    2    0    0  0.00000000000E+00  0.00000000000E+00  0.18523140893E+04  0.36554930197E+04  0.31514380418E+04 0.  0.
        2    1    3    3  502    0  0.10747569540E+04 -0.14491485020E+03 -0.39983124799E+03  0.11558407550E+04  0.25500000920E-02 0. -1.
       -2    1    3    3    0  502 -0.10747569540E+04  0.14491485020E+03  0.22521453373E+04  0.24996522647E+04  0.25500000920E-02 0.  1.
</event>
<event>
 5   0  0.2401139E-06  0.3327795E+04  0.7818609E-02  0.8155859E-01
       -2   -1    0    0    0  501  0.00000000000E+00  0.00000000000E+00  0.14395885654E+04  0.14395885654E+04  0.25500000920E-02 0.  1.
        2   -1    0    0  501    0  0.00000000000E+00  0.00000000000E+00 -0.19231567743E+04  0.19231567743E+04  0.25500000920E-02 0. -1.
    10030    2    1    2    0    0  0.00000000000E+00  0.00000000000E+00 -0.48356820894E+03  0.33627453397E+04  0.33277947664E+04 0.  0.
        5    1    3    3  502    0 -0.14098670800E+04  0.18145728567E+03 -0.11156676153E+04  0.18070385296E+04  0.46999998093E+01 0. -1.
       -5    1    3    3    0  502  0.14098670800E+04 -0.18145728567E+03  0.63209940631E+03  0.15557068102E+04  0.46999998093E+01 0.  1.
</event>
<event>
 5   0  0.8681172E-07  0.3174592E+04  0.7818609E-02  0.8195560E-01
       -1   -1    0    0    0  501  0.00000000000E+00  0.00000000000E+00  0.11198236301E+04  0.11198236301E+04  0.50400001928E-02 0.  1.
        1   -1    0    0  501    0  0.00000000000E+00  0.00000000000E+00 -0.22499161249E+04  0.22499161249E+04  0.50400001928E-02 0. -1.
    10030    2    1    2    0    0  0.00000000000E+00  0.00000000000E+00 -0.11300924949E+04  0.33697397550E+04  0.31745924100E+04 0.  0.
        1    1    3    3  502    0  0.70303389416E+03  0.14218774439E+04 -0.50209533632E+03  0.16637583504E+04  0.50400001928E-02 0.  1.
       -1    1    3    3    0  502 -0.70303389416E+03 -0.14218774439E+04 -0.62799715853E+03  0.17059814046E+04  0.50400001928E-02 0. -1.
</event>
<event>
 5   0  0.8512855E-07  0.3186860E+04  0.7818609E-02  0.8192296E-01
        1   -1    0    0  501    0  0.00000000000E+00  0.00000000000E+00  0.17608420954E+04  0.17608420954E+04  0.50400001928E-02 0.  1.
       -1   -1    0    0    0  501  0.00000000000E+00  0.00000000000E+00 -0.14419346917E+04  0.14419346918E+04  0.50400001928E-02 0. -1.
    10030    2    1    2    0    0  0.00000000000E+00  0.00000000000E+00  0.31890740362E+03  0.32027767871E+04  0.31868600873E+04 0.  0.
        5    1    3    3  502    0 -0.14649705149E+04 -0.60433494935E+03  0.32653044003E+03  0.16180245853E+04  0.46999998093E+01 0.  1.
       -5    1    3    3    0  502  0.14649705149E+04  0.60433494935E+03 -0.76230364100E+01  0.15847522018E+04  0.46999998093E+01 0. -1.
</event>
<event>
 5   0  0.8545153E-07  0.2963199E+04  0.7818609E-02  0.8254318E-01
        1   -1    0    0  501    0  0.00000000000E+00  0.00000000000E+00  0.13415971252E+04  0.13415971252E+04  0.50400001928E-02 0. -1.
       -1   -1    0    0    0  501  0.00000000000E+00  0.00000000000E+00 -0.16362118462E+04  0.16362118462E+04  0.50400001928E-02 0.  1.
    10030    2    1    2    0    0  0.00000000000E+00  0.00000000000E+00 -0.29461472093E+03  0.29778089714E+04  0.29631990207E+04 0.  0.
        3    1    3    3  502    0  0.89251787210E+03 -0.89733572128E+03 -0.92138929065E+03  0.15654896307E+04  0.10100000352E+00 0.  1.
       -3    1    3    3    0  502 -0.89251787210E+03  0.89733572128E+03  0.62677456972E+03  0.14123193407E+04  0.10100000352E+00 0. -1.
</event>
<event>
 5   0  0.2404430E-06  0.3018008E+04  0.7818609E-02  0.8238607E-01
        2   -1    0    0  501    0  0.00000000000E+00  0.00000000000E+00  0.20079412489E+04  0.20079412489E+04  0.25500000920E-02 0.  1.
       -2   -1    0    0    0  501  0.00000000000E+00  0.00000000000E+00 -0.11340436768E+04  0.11340436768E+04  0.25500000920E-02 0. -1.
    10030    2    1    2    0    0  0.00000000000E+00  0.00000000000E+00  0.87389757205E+03  0.31419849257E+04  0.30180080031E+04 0.  0.
        4    1    3    3  502    0  0.12555320996E+04  0.37502386482E+03 -0.34218445240E+03  0.13542878441E+04  0.12699999809E+01 0. -1.
       -4    1    3    3    0  502 -0.12555320996E+04 -0.37502386482E+03  0.12160820244E+04  0.17876970816E+04  0.12699999809E+01 0.  1.
</event>
<event>
 5   0  0.8487944E-07  0.3175731E+04  0.7818609E-02  0.8195256E-01
        1   -1    0    0  501    0  0.00000000000E+00  0.00000000000E+00  0.25521671218E+04  0.25521671218E+04  0.50400001928E-02 0. -1.
       -1   -1    0    0    0  501  0.00000000000E+00  0.00000000000E+00 -0.98791215320E+03  0.98791215321E+03  0.50400001928E-02 0.  1.
    10030    2    1    2    0    0  0.00000000000E+00  0.00000000000E+00  0.15642549686E+04  0.35400792750E+04  0.31757310444E+04 0.  0.
        2    1    3    3  502    0  0.36340409048E+03 -0.20889129967E+03  0.24893809018E+04  0.25244237723E+04  0.25500000920E-02 0. -1.
       -2    1    3    3    0  502 -0.36340409048E+03  0.20889129967E+03 -0.92512593314E+03  0.10156555027E+04  0.25500000920E-02 0.  1.
</event>
<event>
 5   0  0.7934375E-07  0.3222304E+04  0.7818609E-02  0.8182952E-01
       -3   -1    0    0    0  501  0.00000000000E+00  0.00000000000E+00  0.11894912891E+04  0.11894912934E+04  0.10100000352E+00 0. -1.
        3   -1    0    0  501    0  0.00000000000E+00  0.00000000000E+00 -0.21822858617E+04  0.21822858641E+04  0.10100000352E+00 0.  1.
    10030    2    1    2    0    0  0.00000000000E+00  0.00000000000E+00 -0.99279457260E+03  0.33717771575E+04  0.32223035450E+04 0.  0.
        5    1    3    3  502    0 -0.13883800745E+03 -0.15987376717E+04 -0.34639554198E+03  0.16417216867E+04  0.46999998093E+01 0.  1.
       -5    1    3    3    0  502  0.13883800745E+03  0.15987376717E+04 -0.64639903062E+03  0.17300554708E+04  0.46999998093E+01 0. -1.
</event>
<event>
 5   0  0.2337504E-06  0.3173171E+04  0.7818609E-02  0.8195939E-01
       -2   -1    0    0    0  501  0.00000000000E+00  0.00000000000E+00  0.13326782272E+04  0.13326782272E+04  0.25500000920E-02 0.  1.
        2   -1    0    0  501    0  0.00000000000E+00  0.00000000000E+00 -0.18888683254E+04  0.18888683254E+04  0.25500000920E-02 0. -1.
    10030    2    1    2    0    0  0.00000000000E+00  0.00000000000E+00 -0.55619009824E+03  0.32215465526E+04  0.31731710898E+04 0.  0.
        1    1    3    3  502    0  0.88499110360E+03 -0.10094799177E+04  0.58036945779E+03  0.14625620210E+04  0.50400001928E-02 0.  1.
       -1    1    3    3    0  502 -0.88499110360E+03  0.10094799177E+04 -0.11365595560E+04  0.17589845315E+04  0.50400001928E-02 0. -1.
</event>
<event>
 5   0  0.2337504E-06  0.3211265E+04  0.7818609E-02  0.8185848E-01
       -2   -1    0    0    0  501  0.00000000000E+00  0.00000000000E+00  0.10824986297E+04  0.10824986297E+04  0.25500000920E-02 0. -1.
        2   -1    0    0  501    0  0.00000000000E+00  0.00000000000E+00 -0.23815793108E+04  0.23815793108E+04  0.25500000920E-02 0.  1.
    10030    2    1    2    0    0  0.00000000000E+00  0.00000000000E+00 -0.12990806811E+04  0.34640779405E+04  0.32112653833E+04 0.  0.
        1    1    3    3  502    0  0.26172784052E+03 -0.11929409075E+04 -0.17739270501E+04  0.21537006873E+04  0.50400001928E-02 0.  1.
       -1    1    3    3    0  502 -0.26172784052E+03  0.11929409075E+04  0.47484636902E+03  0.13103772532E+04  0.50400001928E-02 0. -1.
</event>
<event>
 5   0  0.2404430E-06  0.3171038E+04  0.7818609E-02  0.8196508E-01
       -2   -1    0    0    0  501  0.00000000000E+00  0.00000000000E+00  0.19335639319E+04  0.19335639319E+04  0.25500000920E-02 0. -1.
        2   -1    0    0  501    0  0.00000000000E+00  0.00000000000E+00 -0.13001227607E+04  0.13001227607E+04  0.25500000920E-02 0.  1.
    10030    2    1    2    0    0  0.00000000000E+00  0.00000000000E+00  0.63344117125E+03  0.32336866926E+04  0.31710379859E+04 0.  0.
        4    1    3    3  502    0  0.13301274678E+02 -0.12686636476E+04 -0.65295178529E+03  0.14268959393E+04  0.12699999809E+01 0.  1.
       -4    1    3    3    0  502 -0.13301274678E+02  0.12686636476E+04  0.12863929565E+04  0.18067907533E+04  0.12699999809E+01 0. -1.
</event>
<event>
 5   0  0.2404430E-06  0.3208120E+04  0.7818609E-02  0.8186676E-01
        2   -1    0    0  501    0  0.00000000000E+00  0.00000000000E+00  0.13841562850E+04  0.13841562850E+04  0.25500000920E-02 0. -1.
       -2   -1    0    0    0  501  0.00000000000E+00  0.00000000000E+00 -0.18589007760E+04  0.18589007760E+04  0.25500000920E-02 0.  1.
    10030    2    1    2    0    0  0.00000000000E+00  0.00000000000E+00 -0.47474449105E+03  0.32430570610E+04  0.32081204418E+04 0.  0.
        4    1    3    3  502    0 -0.64083319811E+03 -0.42778961588E+03  0.11848377781E+04  0.14133341136E+04  0.12699999809E+01 0. -1.
       -4    1    3    3    0  502  0.64083319811E+03  0.42778961588E+03 -0.16595822692E+04  0.18297229474E+04  0.12699999809E+01 0.  1.
</event>
<event>
 5   0  0.2466076E-06  0.3114441E+04  0.7818609E-02  0.8211786E-01
        2   -1    0    0  501    0  0.00000000000E+00  0.00000000000E+00  0.24189122084E+04  0.24189122084E+04  0.25500000920E-02 0. -1.
       -2   -1    0    0    0  501  0.00000000000E+00  0.00000000000E+00 -0.10024900161E+04  0.10024900161E+04  0.25500000920E-02 0.  1.
    10030    2    1    2    0    0  0.00000000000E+00  0.00000000000E+00  0.14164221923E+04  0.34214022245E+04  0.31144407772E+04 0.  0.
        3    1    3    3  502    0  0.11276954099E+04 -0.10139458602E+03 -0.46625126407E+03  0.12244868521E+04  0.10100000352E+00 0.  1.
       -3    1    3    3    0  502 -0.11276954099E+04  0.10139458602E+03  0.18826734564E+04  0.21969153723E+04  0.10100000352E+00 0. -1.
</event>
<event>
 5   0  0.8545153E-07  0.2950239E+04  0.7818609E-02  0.8258085E-01
        1   -1    0    0  501    0  0.00000000000E+00  0.00000000000E+00  0.17077374040E+04  0.17077374040E+04  0.50400001928E-02 0. -1.
       -1   -1    0    0    0  501  0.00000000000E+00  0.00000000000E+00 -0.12741876748E+04  0.12741876748E+04  0.50400001928E-02 0.  1.
    10030    2    1    2    0    0  0.00000000000E+00  0.00000000000E+00  0.43354972925E+03  0.29819250788E+04  0.29502392798E+04 0.  0.
        3    1    3    3  502    0  0.12484668255E+04  0.58497659421E+03  0.74691830805E+03  0.15680414533E+04  0.10100000352E+00 0. -1.
       -3    1    3    3    0  502 -0.12484668255E+04 -0.58497659421E+03 -0.31336857880E+03  0.14138836255E+04  0.10100000352E+00 0.  1.
</event>
<event>
 5   0  0.8383008E-07  0.3157162E+04  0.7818609E-02  0.8200223E-01
       -1   -1    0    0    0  501  0.00000000000E+00  0.00000000000E+00  0.15298833551E+04  0.15298833552E+04  0.50400001928E-02 0.  1.
        1   -1    0    0  501    0  0.00000000000E+00  0.00000000000E+00 -0.16288288023E+04  0.16288288023E+04  0.50400001928E-02 0. -1.
    10030    2    1    2    0    0  0.00000000000E+00  0.00000000000E+00 -0.98945447145E+02  0.31587121575E+04  0.31571620630E+04 0.  0.
        4    1    3    3  502    0 -0.12144050987E+04 -0.99149919700E+03  0.13518782507E+03  0.15735716578E+04  0.12699999809E+01 0. -1.
       -4    1    3    3    0  502  0.12144050987E+04  0.99149919700E+03 -0.23413327222E+03  0.15851404996E+04  0.12699999809E+01 0.  1.
</event>
<event>
 5   0  0.2466076E-06  0.3190875E+04  0.7818609E-02  0.8191231E-01
       -2   -1    0    0    0  501  0.00000000000E+00  0.00000000000E+00  0.14719360154E+04  0.14719360154E+04  0.25500000920E-02 0. -1.
        2   -1    0    0  501    0  0.00000000000E+00  0.00000000000E+00 -0.17293016177E+04  0.17293016177E+04  0.25500000920E-02 0.  1.
    10030    2    1    2    0    0  0.00000000000E+00  0.00000000000E+00 -0.25736560230E+03  0.32012376331E+04  0.31908753236E+04 0.  0.
        3    1    3    3  502    0 -0.34973064489E+02 -0.76718855390E+03 -0.15316590071E+04  0.17134120102E+04  0.10100000352E+00 0.  1.
       -3    1    3    3    0  502  0.34973064489E+02  0.76718855390E+03  0.12742934048E+04  0.14878256229E+04  0.10100000352E+00 0. -1.
</event>
<event>
 5   0  0.2621528E-06  0.3277655E+04  0.7818609E-02  0.8168605E-01
       -2   -1    0    0    0  501  0.00000000000E+00  0.00000000000E+00  0.11739457684E+04  0.11739457684E+04  0.25500000920E-02 0.  1.
        2   -1    0    0  501    0  0.00000000000E+00  0.00000000000E+00 -0.22878014155E+04  0.22878014155E+04  0.25500000920E-02 0. -1.
    10030    2    1    2    0    0  0.00000000000E+00  0.00000000000E+00 -0.11138556471E+04  0.34617471839E+04  0.32776545216E+04 0.  0.
        2    1    3    3  502    0 -0.10197539382E+04 -0.81280063622E+03 -0.16052553263E+04  0.20681846222E+04  0.25500000920E-02 0. -1.
       -2    1    3    3    0  502  0.10197539382E+04  0.81280063622E+03  0.49139967922E+03  0.13935625617E+04  0.25500000920E-02 0.  1.
</event>
<event>
 5   0  0.8681172E-07  0.3213647E+04  0.7818609E-02  0.8185222E-01
       -1   -1    0    0    0  501  0.00000000000E+00  0.00000000000E+00  0.10464562560E+04  0.10464562560E+04  0.50400001928E-02 0.  1.
        1   -1    0    0  501    0  0.00000000000E+00  0.00000000000E+00 -0.24672626424E+04  0.24672626424E+04  0.50400001928E-02 0. -1.
    10030    2    1    2    0    0  0.00000000000E+00  0.00000000000E+00 -0.14208063864E+04  0.35137188983E+04  0.32136474152E+04 0.  0.
        1    1    3    3  502    0 -0.10077352270E+04  0.10889536271E+04 -0.13848760211E+04  0.20295890923E+04  0.50400001928E-02 0. -1.
       -1    1    3    3    0  502  0.10077352270E+04 -0.10889536271E+04 -0.35930365269E+02  0.14841298060E+04  0.50400001928E-02 0.  1.
</event>
<event>
 5   0  0.2337504E-06  0.3207206E+04  0.7818609E-02  0.8186917E-01
        2   -1    0    0  501    0  0.00000000000E+00  0.00000000000E+00  0.20598193963E+04  0.20598193963E+04  0.25500000920E-02 0.  1.
       -2   -1    0    0    0  501  0.00000000000E+00  0.00000000000E+00 -0.12484311822E+04  0.12484311822E+04  0.25500000920E-02 0. -1.
    10030    2    1    2    0    0  0.00000000000E+00  0.00000000000E+00  0.81138821405E+03  0.33082505785E+04  0.32072061138E+04 0.  0.
        1    1    3    3  502    0 -0.13748744689E+04 -0.30256388753E+03  0.11978191386E+04  0.18484034732E+04  0.50400001928E-02 0.  1.
       -1    1    3    3    0  502  0.13748744689E+04  0.30256388753E+03 -0.38643092450E+03  0.14598471052E+04  0.50400001928E-02 0. -1.
</event>
<event>
 5   0  0.8487944E-07  0.3219478E+04  0.7818609E-02  0.8183692E-01
       -1   -1    0    0    0  501  0.00000000000E+00  0.00000000000E+00  0.17120407385E+04  0.17120407386E+04  0.50400001928E-02 0.  1.
        1   -1    0    0  501    0  0.00000000000E+00  0.00000000000E+00 -0.15135501103E+04  0.15135501103E+04  0.50400001928E-02 0. -1.
    10030    2    1    2    0    0  0.00000000000E+00  0.00000000000E+00  0.19849062822E+03  0.32255908489E+04  0.32194778761E+04 0.  0.
        2    1    3    3  502    0  0.89791679527E+03  0.13133627091E+03  0.14313395581E+04  0.16947674524E+04  0.25500000920E-02 0.  1.
       -2    1    3    3    0  502 -0.89791679527E+03 -0.13133627091E+03 -0.12328489299E+04  0.15308233965E+04  0.25500000920E-02 0. -1.
</event>
<event>
 5   0  0.2401139E-06  0.3151915E+04  0.7818609E-02  0.8201633E-01
        2   -1    0    0  501    0  0.00000000000E+00  0.00000000000E+00  0.17495518979E+04  0.17495518979E+04  0.25500000920E-02 0. -1.
       -2   -1    0    0    0  501  0.00000000000E+00  0.00000000000E+00 -0.14195878695E+04  0.14195878695E+04  0.25500000920E-02 0.  1.
    10030    2    1    2    0    0  0.00000000000E+00  0.00000000000E+00  0.32996402845E+03  0.31691397674E+04  0.31519153868E+04 0.  0.
        5    1    3    3  502    0 -0.99966723531E+02 -0.10775963818E+04  0.13168485110E+04  0.17044997503E+04  0.46999998093E+01 0. -1.
       -5    1    3    3    0  502  0.99966723531E+02  0.10775963818E+04 -0.98688448255E+03  0.14646400171E+04  0.46999998093E+01 0.  1.
</event>
<event>
 5   0  0.8487944E-07  0.3317130E+04  0.7818609E-02  0.8158550E-01
       -1   -1    0    0    0  501  0.00000000000E+00  0.00000000000E+00  0.18568507523E+04  0.18568507523E+04  0.50400001928E-02 0. -1.
        1   -1    0    0  501    0  0.00000000000E+00  0.00000000000E+00 -0.14814536770E+04  0.14814536770E+04  0.50400001928E-02 0.  1.
    10030    2    1    2    0    0  0.00000000000E+00  0.00000000000E+00  0.37539707535E+03  0.33383044293E+04  0.33171303108E+04 0.  0.
        2    1    3    3  502    0  0.60132662011E+03 -0.15013373945E+04  0.55778317005E+03  0.17107687573E+04  0.25500000920E-02 0.  1.
       -2    1    3    3    0  502 -0.60132662011E+03  0.15013373945E+04 -0.18238609471E+03  0.16275356720E+04  0.25500000920E-02 0. -1.
</event>
<event>
 5   0  0.8545153E-07  0.3197794E+04  0.7818609E-02  0.8189400E-01
       -1   -1    0    0    0  501  0.00000000000E+00  0.00000000000E+00  0.93166745946E+03  0.93166745947E+03  0.50400001928E-02 0. -1.
        1   -1    0    0  501    0  0.00000000000E+00  0.00000000000E+00 -0.27439745619E+04  0.27439745619E+04  0.50400001928E-02 0.  1.
    10030    2    1    2    0    0  0.00000000000E+00  0.00000000000E+00 -0.18123071024E+04  0.36756420214E+04  0.31977941203E+04 0.  0.
        3    1    3    3  502    0 -0.56171254974E+03  0.13442447211E+04 -0.14896153293E+03  0.14644809344E+04  0.10100000352E+00 0. -1.
       -3    1    3    3    0  502  0.56171254974E+03 -0.13442447211E+04 -0.16633455695E+04  0.22111610870E+04  0.10100000352E+00 0.  1.
</event>
<event>
 5   0  0.8512855E-07  0.3236200E+04  0.7818609E-02  0.8179322E-01
       -1   -1    0    0    0  501  0.00000000000E+00  0.00000000000E+00  0.11546237236E+04  0.11546237236E+04  0.50400001928E-02 0.  1.
        1   -1    0    0  501    0  0.00000000000E+00  0.00000000000E+00 -0.22676196058E+04  0.22676196058E+04  0.50400001928E-02 0. -1.
    10030    2    1    2    0    0  0.00000000000E+00  0.00000000000E+00 -0.11129958822E+04  0.34222433295E+04  0.32361998660E+04 0.  0.
        5    1    3    3  502    0  0.33414993758E+03  0.54152952351E+03  0.10167499335E+04  0.11994635979E+04  0.46999998093E+01 0.  1.
       -5    1    3    3    0  502 -0.33414993758E+03 -0.54152952351E+03 -0.21297458157E+04  0.22227797315E+04  0.46999998093E+01 0. -1.
</event>
<event>
 5   0  0.2337504E-06  0.3215038E+04  0.7818609E-02  0.8184857E-01
        2   -1    0    0  501    0  0.00000000000E+00  0.00000000000E+00  0.18928715726E+04  0.18928715726E+04  0.25500000920E-02 0. -1.
       -2   -1    0    0    0  501  0.00000000000E+00  0.00000000000E+00 -0.13651838626E+04  0.13651838626E+04  0.25500000920E-02 0.  1.
    10030    2    1    2    0    0  0.00000000000E+00  0.00000000000E+00  0.52768771000E+03  0.32580554353E+04  0.32150382424E+04 0.  0.
        1    1    3    3  502    0 -0.87561015431E+03  0.10656892713E+04  0.11005613214E+04  0.17645458304E+04  0.50400001928E-02 0. -1.
       -1    1    3    3    0  502  0.87561015431E+03 -0.10656892713E+04 -0.57287361139E+03  0.14935096049E+04  0.50400001928E-02 0.  1.
</event>
<event>
 5   0  0.8545153E-07  0.3192262E+04  0.7818609E-02  0.8190864E-01
        1   -1    0    0  501    0  0.00000000000E+00  0.00000000000E+00  0.16426622453E+04  0.16426622453E+04  0.50400001928E-02 0.  1.
       -1   -1    0    0    0  501  0.00000000000E+00  0.00000000000E+00 -0.15509178958E+04  0.15509178958E+04  0.50400001928E-02 0. -1.
    10030    2    1    2    0    0  0.00000000000E+00  0.00000000000E+00  0.91744349530E+02  0.31935801411E+04  0.31922620650E+04 0.  0.
        3    1    3    3  502    0 -0.67860787700E+03 -0.12516718611E+04  0.76758751475E+03  0.16175233233E+04  0.10100000352E+00 0.  1.
       -3    1    3    3    0  502  0.67860787700E+03  0.12516718611E+04 -0.67584316522E+03  0.15760568177E+04  0.10100000352E+00 0. -1.
</event>
<event>
 5   0  0.2621528E-06  0.3204846E+04  0.7818609E-02  0.8187539E-01
        2   -1    0    0  501    0  0.00000000000E+00  0.00000000000E+00  0.19175025156E+04  0.19175025156E+04  0.25500000920E-02 0. -1.
       -2   -1    0    0    0  501  0.00000000000E+00  0.00000000000E+00 -0.13391165228E+04  0.13391165228E+04  0.25500000920E-02 0.  1.
    10030    2    1    2    0    0  0.00000000000E+00  0.00000000000E+00  0.57838599280E+03  0.32566190385E+04  0.32048458941E+04 0.  0.
        2    1    3    3  502    0 -0.13059104265E+03  0.15030638420E+04  0.83782651786E+03  0.17257485934E+04  0.25500000920E-02 0. -1.
       -2    1    3    3    0  502  0.13059104265E+03 -0.15030638420E+04 -0.25944052505E+03  0.15308704451E+04  0.25500000920E-02 0.  1.
</event>
<event>
 5   0  0.8383008E-07  0.3190231E+04  0.7818609E-02  0.8191402E-01
       -1   -1    0    0    0  501  0.00000000000E+00  0.00000000000E+00  0.14006809861E+04  0.14006809861E+04  0.50400001928E-02 0.  1.
        1   -1    0    0  501    0  0.00000000000E+00  0.00000000000E+00 -0.18165399738E+04  0.18165399738E+04  0.50400001928E-02 0. -1.
    10030    2    1    2    0    0  0.00000000000E+00  0.00000000000E+00 -0.41585898769E+03  0.32172209599E+04  0.31902307138E+04 0.  0.
        4    1    3    3  502    0 -0.10293370607E+04  0.60781627375E+03  0.85713824247E+03  0.14709394912E+04  0.12699999809E+01 0.  1.
       -4    1    3    3    0  502  0.10293370607E+04 -0.60781627375E+03 -0.12729972302E+04  0.17462814687E+04  0.12699999809E+01 0. -1.
</event>
<event>
 5   0  0.8512855E-07  0.3195750E+04  0.7818609E-02  0.8189940E-01
        1   -1    0    0  501    0  0.00000000000E+00  0.00000000000E+00  0.13775385679E+04  0.13775385679E+04  0.50400001928E-02 0. -1.
       -1   -1    0    0    0  501  0.00000000000E+00  0.00000000000E+00 -0.18534540924E+04  0.18534540924E+04  0.50400001928E-02 0.  1.
    10030    2    1    2    0    0  0.00000000000E+00  0.00000000000E+00 -0.47591552456E+03  0.32309926603E+04  0.31957499878E+04 0.  0.
        5    1    3    3  502    0  0.58908202948E+03  0.63576491473E+03 -0.15951353576E+04  0.18154045179E+04  0.46999998093E+01 0.  1.
       -5    1    3    3    0  502 -0.58908202948E+03 -0.63576491473E+03  0.11192198331E+04  0.14155881424E+04  0.46999998093E+01 0. -1.
</event>
<event>
 5   0  0.2401139E-06  0.3177410E+04  0.7818609E-02  0.8194809E-01
       -2   -1    0    0    0  501  0.00000000000E+00  0.00000000000E+00  0.10656947260E+04  0.10656947260E+04  0.25500000920E-02 0. -1.
        2   -1    0    0  501    0  0.00000000000E+00  0.00000000000E+00 -0.23683932961E+04  0.23683932961E+04  0.25500000920E-02 0.  1.
    10030    2    1    2    0    0  0.00000000000E+00  0.00000000000E+00 -0.13026985701E+04  0.34340880220E+04  0.31774104202E+04 0.  0.
        5    1    3    3  502    0  0.32327215003E+03  0.12435959096E+04  0.35843112844E+03  0.13339904922E+04  0.46999998093E+01 0.  1.
       -5    1    3    3    0  502 -0.32327215003E+03 -0.12435959096E+04 -0.16611296986E+04  0.21000975298E+04  0.46999998093E+01 0. -1.
</event>
<event>
 5   0  0.8512855E-07  0.3194022E+04  0.7818609E-02  0.8190398E-01
        1   -1    0    0  501    0  0.00000000000E+00  0.00000000000E+00  0.17761662364E+04  0.17761662365E+04  0.50400001928E-02 0. -1.
       -1   -1    0    0    0  501  0.00000000000E+00  0.00000000000E+00 -0.14359266487E+04  0.14359266487E+04  0.50400001928E-02 0.  1.
    10030    2    1    2    0    0  0.00000000000E+00  0.00000000000E+00  0.34023958775E+03  0.32120928852E+04  0.31940221862E+04 0.  0.
        5    1    3    3  502    0 -0.11283908234E+04 -0.47578551933E+03  0.12009972039E+04  0.17152416986E+04  0.46999998093E+01 0. -1.
       -5    1    3    3    0  502  0.11283908234E+04  0.47578551933E+03 -0.86075761617E+03  0.14968511865E+04  0.46999998093E+01 0.  1.
</event>
<event>
 5   0  0.8487944E-07  0.3219895E+04  0.7818609E-02  0.8183583E-01
       -1   -1    0    0    0  501  0.00000000000E+00  0.00000000000E+00  0.21801387603E+04  0.21801387603E+04  0.50400001928E-02 0.  1.
        1   -1    0    0  501    0  0.00000000000E+00  0.00000000000E+00 -0.11888833376E+04  0.11888833376E+04  0.50400001928E-02 0. -1.
    10030    2    1    2    0    0  0.00000000000E+00  0.00000000000E+00  0.99125542273E+03  0.33690220979E+04  0.32198948093E+04 0.  0.
        2    1    3    3  502    0  0.18119485264E+03 -0.14111983213E+04  0.12839256599E+04  0.19164491584E+04  0.25500000920E-02 0.  1.
       -2    1    3    3    0  502 -0.18119485264E+03  0.14111983213E+04 -0.29267023712E+03  0.14525729395E+04  0.25500000920E-02 0. -1.
</event>
<event>
 5   0  0.2337504E-06  0.3207903E+04  0.7818609E-02  0.8186733E-01
        2   -1    0    0  501    0  0.00000000000E+00  0.00000000000E+00  0.13968679942E+04  0.13968679942E+04  0.25500000920E-02 0. -1.
       -2   -1    0    0    0  501  0.00000000000E+00  0.00000000000E+00 -0.18417348488E+04  0.18417348488E+04  0.25500000920E-02 0.  1.
    10030    2    1    2    0    0  0.00000000000E+00  0.00000000000E+00 -0.44486685457E+03  0.32386028430E+04  0.32079030311E+04 0.  0.
        1    1    3    3  502    0  0.78069878289E+03  0.11196668834E+04 -0.10728222449E+04  0.17361140771E+04  0.50400001928E-02 0.  1.
       -1    1    3    3    0  502 -0.78069878289E+03 -0.11196668834E+04  0.62795539036E+03  0.15024887659E+04  0.50400001928E-02 0. -1.
</event>
<event>
 5   0  0.8383008E-07  0.3189647E+04  0.7818609E-02  0.8191557E-01
       -1   -1    0    0    0  501  0.00000000000E+00  0.00000000000E+00  0.12054132171E+04  0.12054132172E+04  0.50400001928E-02 0.  1.
        1   -1    0    0  501    0  0.00000000000E+00  0.00000000000E+00 -0.21100332158E+04  0.21100332158E+04  0.50400001928E-02 0. -1.
    10030    2    1    2    0    0  0.00000000000E+00  0.00000000000E+00 -0.90461999869E+03  0.33154464330E+04  0.31896469566E+04 0.  0.
        4    1    3    3  502    0  0.11912853498E+04  0.33860231283E+02  0.64927715455E+03  0.13571550155E+04  0.12699999809E+01 0.  1.
       -4    1    3    3    0  502 -0.11912853498E+04 -0.33860231283E+02 -0.15538971532E+04  0.19582914175E+04  0.12699999809E+01 0. -1.
</event>
<event>
 5   0  0.2337504E-06  0.3163753E+04  0.7818609E-02  0.8198456E-01
        2   -1    0    0  501    0  0.00000000000E+00  0.00000000000E+00  0.15681057122E+04  0.15681057122E+04  0.25500000920E-02 0.  1.
       -2   -1    0    0    0  501  0.00000000000E+00  0.00000000000E+00 -0.15957678008E+04  0.15957678008E+04  0.25500000920E-02 0. -1.
    10030    2    1    2    0    0  0.00000000000E+00  0.00000000000E+00 -0.27662088643E+02  0.31638735130E+04  0.31637525844E+04 0.  0.
        1    1    3    3  502    0 -0.13222026586E+04 -0.85771765294E+03  0.12194292323E+03  0.15807496700E+04  0.50400001928E-02 0.  1.
       -1    1    3    3    0  502  0.13222026586E+04  0.85771765294E+03 -0.14960501187E+03  0.15831238430E+04  0.50400001928E-02 0. -1.
</event>
<event>
 5   0  0.2337504E-06  0.3220050E+04  0.7818609E-02  0.8183542E-01
       -2   -1    0    0    0  501  0.00000000000E+00  0.00000000000E+00  0.14445797394E+04  0.14445797394E+04  0.25500000920E-02 0.  1.
        2   -1    0    0  501    0  0.00000000000E+00  0.00000000000E+00 -0.17944183997E+04  0.17944183997E+04  0.25500000920E-02 0. -1.
    10030    2    1    2    0    0  0.00000000000E+00  0.00000000000E+00 -0.34983866027E+03  0.32389981391E+04  0.32200499774E+04 0.  0.
        1    1    3    3  502    0  0.85439287761E+03  0.66241491335E+03 -0.13750030105E+04  0.17491180594E+04  0.50400001928E-02 0. -1.
       -1    1    3    3    0  502 -0.85439287761E+03 -0.66241491335E+03  0.10251643503E+04  0.14898800797E+04  0.50400001928E-02 0.  1.
</event>
<event>
 5   0  0.8383008E-07  0.3210192E+04  0.7818609E-02  0.8186131E-01
        1   -1    0    0  501    0  0.00000000000E+00  0.00000000000E+00  0.19910051791E+04  0.19910051791E+04  0.50400001928E-02 0. -1.
       -1   -1    0    0    0  501  0.00000000000E+00  0.00000000000E+00 -0.12939862149E+04  0.12939862149E+04  0.50400001928E-02 0.  1.
    10030    2    1    2    0    0  0.00000000000E+00  0.00000000000E+00  0.69701896420E+03  0.32849913939E+04  0.32101920537E+04 0.  0.
        4    1    3    3  502    0 -0.12538978168E+04  0.34138951144E+03  0.13125461323E+04  0.18470477785E+04  0.12699999809E+01 0. -1.
       -4    1    3    3    0  502  0.12538978168E+04 -0.34138951144E+03 -0.61552716812E+03  0.14379436154E+04  0.12699999809E+01 0.  1.
</event>
<event>
 5   0  0.8545153E-07  0.3092943E+04  0.7818609E-02  0.8217677E-01
        1   -1    0    0  501    0  0.00000000000E+00  0.00000000000E+00  0.90797243302E+03  0.90797243304E+03  0.50400001928E-02 0.  1.
       -1   -1    0    0    0  501  0.00000000000E+00  0.00000000000E+00 -0.26339718075E+04  0.26339718075E+04  0.50400001928E-02 0. -1.
    10030    2    1    2    0    0  0.00000000000E+00  0.00000000000E+00 -0.17259993745E+04  0.35419442406E+04  0.30929427998E+04 0.  0.
        3    1    3    3  502    0  0.61212070552E+03 -0.29373698921E+03 -0.24541677399E+04  0.25463527805E+04  0.10100000352E+00 0. -1.
       -3    1    3    3    0  502 -0.61212070552E+03  0.29373698921E+03  0.72816836535E+03  0.99559146012E+03  0.10100000352E+00 0.  1.
</event>
<event>
 5   0  0.2337504E-06  0.3215153E+04  0.7818609E-02  0.8184827E-01
        2   -1    0    0  501    0  0.00000000000E+00  0.00000000000E+00  0.12002309945E+04  0.12002309945E+04  0.25500000920E-02 0.  1.
       -2   -1    0    0    0  501  0.00000000000E+00  0.00000000000E+00 -0.21531706401E+04  0.21531706401E+04  0.25500000920E-02 0. -1.
    10030    2    1    2    0    0  0.00000000000E+00  0.00000000000E+00 -0.95293964565E+03  0.33534016346E+04  0.32151529597E+04 0.  0.
        1    1    3    3  502    0 -0.11809189418E+04  0.92729365615E+03 -0.10754992334E+04  0.18469276307E+04  0.50400001928E-02 0. -1.
       -1    1    3    3    0  502  0.11809189418E+04 -0.92729365615E+03  0.12255958773E+03  0.15064740039E+04  0.50400001928E-02 0.  1.
</event>
<event>
 5   0  0.8383008E-07  0.3326446E+04  0.7818609E-02  0.8156199E-01
       -1   -1    0    0    0  501  0.00000000000E+00  0.00000000000E+00  0.20062033989E+04  0.20062033989E+04  0.50400001928E-02 0.  1.
        1   -1    0    0  501    0  0.00000000000E+00  0.00000000000E+00 -0.13788786848E+04  0.13788786848E+04  0.50400001928E-02 0. -1.
    10030    2    1    2    0    0  0.00000000000E+00  0.00000000000E+00  0.62732471413E+03  0.33850820838E+04  0.33264462143E+04 0.  0.
        4    1    3    3  502    0  0.12322056249E+04  0.75263564567E+03 -0.52643086945E+03  0.15368546419E+04  0.12699999809E+01 0. -1.
       -4    1    3    3    0  502 -0.12322056249E+04 -0.75263564567E+03  0.11537555836E+04  0.18482274418E+04  0.12699999809E+01 0.  1.
</event>
<event>
 5   0  0.8681172E-07  0.3219600E+04  0.7818609E-02  0.8183660E-01
       -1   -1    0    0    0  501  0.00000000000E+00  0.00000000000E+00  0.16106145506E+04  0.16106145506E+04  0.50400001928E-02 0.  1.
        1   -1    0    0  501    0  0.00000000000E+00  0.00000000000E+00 -0.16089859894E+04  0.16089859894E+04  0.50400001928E-02 0. -1.
    10030    2    1    2    0    0  0.00000000000E+00  0.00000000000E+00  0.16285611811E+01  0.32196005399E+04  0.32196001281E+04 0.  0.
        1    1    3    3  502    0  0.58901875339E+03  0.96833642496E+03 -0.11423558978E+04  0.16092220235E+04  0.50400001928E-02 0. -1.
       -1    1    3    3    0  502 -0.58901875339E+03 -0.96833642496E+03  0.11439844590E+04  0.16103785164E+04  0.50400001928E-02 0.  1.
</event>
<event>
 5   0  0.8512855E-07  0.3203259E+04  0.7818609E-02  0.8187957E-01
       -1   -1    0    0    0  501  0.00000000000E+00  0.00000000000E+00  0.13759644102E+04  0.13759644102E+04  0.50400001928E-02 0. -1.
        1   -1    0    0  501    0  0.00000000000E+00  0.00000000000E+00 -0.18643046763E+04  0.18643046763E+04  0.50400001928E-02 0.  1.
    10030    2    1    2    0    0  0.00000000000E+00  0.00000000000E+00 -0.48834026608E+03  0.32402690866E+04  0.32032588934E+04 0.  0.
        5    1    3    3  502    0  0.70773811474E+03 -0.38812255530E+02  0.12086675278E+04  0.14011776879E+04  0.46999998093E+01 0. -1.
       -5    1    3    3    0  502 -0.70773811474E+03  0.38812255530E+02 -0.16970077939E+04  0.18390913987E+04  0.46999998093E+01 0.  1.
</event>
<event>
 5   0  0.2404430E-06  0.3172719E+04  0.7818609E-02  0.8196059E-01
        2   -1    0    0  501    0  0.00000000000E+00  0.00000000000E+00  0.15854544265E+04  0.15854544265E+04  0.25500000920E-02 0. -1.
       -2   -1    0    0    0  501  0.00000000000E+00  0.00000000000E+00 -0.15872652650E+04  0.15872652650E+04  0.25500000920E-02 0.  1.
    10030    2    1    2    0    0  0.00000000000E+00  0.00000000000E+00 -0.18108384126E+01  0.31727196915E+04  0.31727191747E+04 0.  0.
        4    1    3    3  502    0  0.10199296719E+04 -0.57741337079E+03  0.10681468543E+04  0.15857496812E+04  0.12699999809E+01 0. -1.
       -4    1    3    3    0  502 -0.10199296719E+04  0.57741337079E+03 -0.10699576927E+04  0.15869700102E+04  0.12699999809E+01 0.  1.
</event>
<event>
 5   0  0.2621528E-06  0.3238197E+04  0.7818609E-02  0.8178802E-01
       -2   -1    0    0    0  501  0.00000000000E+00  0.00000000000E+00  0.15121464620E+04  0.15121464620E+04  0.25500000920E-02 0. -1.
        2   -1    0    0  501    0  0.00000000000E+00  0.00000000000E+00 -0.17336155285E+04  0.17336155285E+04  0.25500000920E-02 0.  1.
    10030    2    1    2    0    0  0.00000000000E+00  0.00000000000E+00 -0.22146906644E+03  0.32457619905E+04  0.32381973923E+04 0.  0.
        2    1    3    3  502    0 -0.12580447738E+04 -0.25224986229E+03 -0.11005503637E+04  0.16904194003E+04  0.25500000920E-02 0.  1.
       -2    1    3    3    0  502  0.12580447738E+04  0.25224986229E+03  0.87908129727E+03  0.15553425902E+04  0.25500000920E-02 0. -1.
</event>
<event>
 5   0  0.8512855E-07  0.3170339E+04  0.7818609E-02  0.8196695E-01
       -1   -1    0    0    0  501  0.00000000000E+00  0.00000000000E+00  0.18720557490E+04  0.18720557490E+04  0.50400001928E-02 0.  1.
        1   -1    0    0  501    0  0.00000000000E+00  0.00000000000E+00 -0.13422472935E+04  0.13422472935E+04  0.50400001928E-02 0. -1.
    10030    2    1    2    0    0  0.00000000000E+00  0.00000000000E+00  0.52980845551E+03  0.32143030425E+04  0.31703386333E+04 0.  0.
        5    1    3    3  502    0  0.34798429527E+03 -0.11027272163E+04 -0.83440079466E+03  0.14259548238E+04  0.46999998093E+01 0. -1.
       -5    1    3    3    0  502 -0.34798429527E+03  0.11027272163E+04  0.13642092502E+04  0.17883482188E+04  0.46999998093E+01 0.  1.
</event>
<event>
 5   0  0.8681172E-07  0.3155047E+04  0.7818609E-02  0.8200791E-01
        1   -1    0    0  501    0  0.00000000000E+00  0.00000000000E+00  0.24816073988E+04  0.24816073988E+04  0.50400001928E-02 0. -1.
       -1   -1    0    0    0  501  0.00000000000E+00  0.00000000000E+00 -0.10028099161E+04  0.10028099162E+04  0.50400001928E-02 0.  1.
    10030    2    1    2    0    0  0.00000000000E+00  0.00000000000E+00  0.14787974827E+04  0.34844173150E+04  0.31550470726E+04 0.  0.
        1    1    3    3  502    0 -0.49705441926E+03 -0.18265742650E+03 -0.90171607878E+03  0.10457144533E+04  0.50400001928E-02 0.  1.
       -1    1    3    3    0  502  0.49705441926E+03  0.18265742650E+03  0.23805135615E+04  0.24387028617E+04  0.50400001928E-02 0. -1.
</event>
<event>
 5   0  0.2466076E-06  0.3190401E+04  0.7818609E-02  0.8191357E-01
       -2   -1    0    0    0  501  0.00000000000E+00  0.00000000000E+00  0.11927540090E+04  0.11927540090E+04  0.25500000920E-02 0.  1.
        2   -1    0    0  501    0  0.00000000000E+00  0.00000000000E+00 -0.21334366562E+04  0.21334366562E+04  0.25500000920E-02 0. -1.
    10030    2    1    2    0    0  0.00000000000E+00  0.00000000000E+00 -0.94068264716E+03  0.33261906652E+04  0.31904013068E+04 0.  0.
        3    1    3    3  502    0 -0.92780494060E+03  0.97178665596E+03  0.42618536403E+03  0.14095479017E+04  0.10100000352E+00 0.  1.
       -3    1    3    3    0  502  0.92780494060E+03 -0.97178665596E+03 -0.13668680112E+04  0.19166427635E+04  0.10100000352E+00 0. -1.
</event>
<event>
 5   0  0.2404430E-06  0.3182628E+04  0.7818609E-02  0.8193420E-01
       -2   -1    0    0    0  501  0.00000000000E+00  0.00000000000E+00  0.25471356703E+04  0.25471356703E+04  0.25500000920E-02 0.  1.
        2   -1    0    0  501    0  0.00000000000E+00  0.00000000000E+00 -0.99416789859E+03  0.99416789860E+03  0.25500000920E-02 0. -1.
    10030    2    1    2    0    0  0.00000000000E+00  0.00000000000E+00  0.15529677717E+04  0.35413035689E+04  0.31826281698E+04 0.  0.
        4    1    3    3  502    0  0.12416475811E+04 -0.32820635213E+03  0.18219881923E+04  0.22291367636E+04  0.12699999809E+01 0.  1.
       -4    1    3    3    0  502 -0.12416475811E+04  0.32820635213E+03 -0.26902042059E+03  0.13121668053E+04  0.12699999809E+01 0. -1.
</event>
<event>
 5   0  0.2404430E-06  0.3178980E+04  0.7818609E-02  0.8194391E-01
       -2   -1    0    0    0  501  0.00000000000E+00  0.00000000000E+00  0.24820680553E+04  0.24820680553E+04  0.25500000920E-02 0.  1.
        2   -1    0    0  501    0  0.00000000000E+00  0.00000000000E+00 -0.10178923324E+04  0.10178923324E+04  0.25500000920E-02 0. -1.
    10030    2    1    2    0    0  0.00000000000E+00  0.00000000000E+00  0.14641757230E+04  0.34999603877E+04  0.31789797369E+04 0.  0.
        4    1    3    3  502    0  0.60101968712E+03  0.13740273689E+04  0.15232453761E+03  0.15074416249E+04  0.12699999809E+01 0. -1.
       -4    1    3    3    0  502 -0.60101968712E+03 -0.13740273689E+04  0.13118511854E+04  0.19925187628E+04  0.12699999809E+01 0.  1.
</event>
<event>
 5   0  0.8545153E-07  0.3188176E+04  0.7818609E-02  0.8191947E-01
        1   -1    0    0  501    0  0.00000000000E+00  0.00000000000E+00  0.19221300254E+04  0.19221300254E+04  0.50400001928E-02 0. -1.
       -1   -1    0    0    0  501  0.00000000000E+00  0.00000000000E+00 -0.13220314645E+04  0.13220314645E+04  0.50400001928E-02 0.  1.
    10030    2    1    2    0    0  0.00000000000E+00  0.00000000000E+00  0.60009856092E+03  0.32441614898E+04  0.31881758875E+04 0.  0.
        3    1    3    3  502    0  0.10845273402E+04  0.10200616024E+04 -0.27950575342E+03  0.15148758037E+04  0.10100000352E+00 0.  1.
       -3    1    3    3    0  502 -0.10845273402E+04 -0.10200616024E+04  0.87960431434E+03  0.17292856861E+04  0.10100000352E+00 0. -1.
</event>
<event>
 5   0  0.8545153E-07  0.3161686E+04  0.7818609E-02  0.8199010E-01
       -1   -1    0    0    0  501  0.00000000000E+00  0.00000000000E+00  0.17153925241E+04  0.17153925241E+04  0.50400001928E-02 0.  1.
        1   -1    0    0  501    0  0.00000000000E+00  0.00000000000E+00 -0.14568468713E+04  0.14568468713E+04  0.50400001928E-02 0. -1.
    10030    2    1    2    0    0  0.00000000000E+00  0.00000000000E+00  0.25854565280E+03  0.31722393955E+04  0.31616857731E+04 0.  0.
        3    1    3    3  502    0  0.12166956389E+04  0.99625166658E+03 -0.33127151764E+02  0.15728836827E+04  0.10100000352E+00 0. -1.
       -3    1    3    3    0  502 -0.12166956389E+04 -0.99625166658E+03  0.29167280456E+03  0.15993557128E+04  0.10100000352E+00 0.  1.
</event>
<event>
 5   0  0.8545153E-07  0.2968003E+04  0.7818609E-02  0.8252927E-01
       -1   -1    0    0    0  501  0.00000000000E+00  0.00000000000E+00  0.10898586890E+04  0.10898586891E+04  0.50400001928E-02 0.  1.
        1   -1    0    0  501    0  0.00000000000E+00  0.00000000000E+00 -0.20206849327E+04  0.20206849327E+04  0.50400001928E-02 0. -1.
    10030    2    1    2    0    0  0.00000000000E+00  0.00000000000E+00 -0.93082624362E+03  0.31105436217E+04  0.29680033906E+04 0.  0.
        3    1    3    3  502    0 -0.13360857246E+04  0.62028680972E+03 -0.65400017739E+03  0.16117062487E+04  0.10100000352E+00 0. -1.
       -3    1    3    3    0  502  0.13360857246E+04 -0.62028680972E+03 -0.27682606623E+03  0.14988373731E+04  0.10100000352E+00 0.  1.
</event>
<event>
 5   0  0.8487944E-07  0.3189941E+04  0.7818609E-02  0.8191479E-01
       -1   -1    0    0    0  501  0.00000000000E+00  0.00000000000E+00  0.19080250880E+04  0.19080250880E+04  0.50400001928E-02 0.  1.
        1   -1    0    0  501    0  0.00000000000E+00  0.00000000000E+00 -0.13332796856E+04  0.13332796856E+04  0.50400001928E-02 0. -1.
    10030    2    1    2    0    0  0.00000000000E+00  0.00000000000E+00  0.57474540235E+03  0.32413047736E+04  0.31899411214E+04 0.  0.
        2    1    3    3  502    0  0.60533230030E+03 -0.14711230968E+04  0.40455848668E+03  0.16414316705E+04  0.25500000920E-02 0.  1.
       -2    1    3    3    0  502 -0.60533230030E+03  0.14711230968E+04  0.17018691568E+03  0.15998731031E+04  0.25500000920E-02 0. -1.
</event>
<event>
 5   0  0.2466076E-06  0.3218134E+04  0.7818609E-02  0.8184045E-01
       -2   -1    0    0    0  501  0.00000000000E+00  0.00000000000E+00  0.10577253436E+04  0.10577253436E+04  0.25500000920E-02 0. -1.
        2   -1    0    0  501    0  0.00000000000E+00  0.00000000000E+00 -0.24477960638E+04  0.24477960638E+04  0.25500000920E-02 0.  1.
    10030    2    1    2    0    0  0.00000000000E+00  0.00000000000E+00 -0.13900707202E+04  0.35055214075E+04  0.32181335788E+04 0.  0.
        3    1    3    3  502    0 -0.75322009771E+03 -0.12698666506E+04  0.17728137525E+01  0.14764501275E+04  0.10100000352E+00 0. -1.
       -3    1    3    3    0  502  0.75322009771E+03  0.12698666506E+04 -0.13918435339E+04  0.20290712800E+04  0.10100000352E+00 0.  1.
</event>
<event>
 5   0  0.2466076E-06  0.3183571E+04  0.7818609E-02  0.8193169E-01
        2   -1    0    0  501    0  0.00000000000E+00  0.00000000000E+00  0.10269515368E+04  0.10269515368E+04  0.25500000920E-02 0.  1.
       -2   -1    0    0    0  501  0.00000000000E+00  0.00000000000E+00 -0.24672844054E+04  0.24672844054E+04  0.25500000920E-02 0. -1.
    10030    2    1    2    0    0  0.00000000000E+00  0.00000000000E+00 -0.14403328686E+04  0.34942359422E+04  0.31835712726E+04 0.  0.
        3    1    3    3  502    0 -0.14084055639E+04 -0.36899516879E+03 -0.13934788142E+02  0.14560075053E+04  0.10100000352E+00 0. -1.
       -3    1    3    3    0  502  0.14084055639E+04  0.36899516879E+03 -0.14263980804E+04  0.20382284369E+04  0.10100000352E+00 0.  1.
</event>
<event>
 5   0  0.8545153E-07  0.3009043E+04  0.7818609E-02  0.8241153E-01
       -1   -1    0    0    0  501  0.00000000000E+00  0.00000000000E+00  0.14036341684E+04  0.14036341684E+04  0.50400001928E-02 0.  1.
        1   -1    0    0  501    0  0.00000000000E+00  0.00000000000E+00 -0.16126603924E+04  0.16126603924E+04  0.50400001928E-02 0. -1.
    10030    2    1    2    0    0  0.00000000000E+00  0.00000000000E+00 -0.20902622396E+03  0.30162945608E+04  0.30090431893E+04 0.  0.
        3    1    3    3  502    0 -0.30090803211E+03 -0.55299024827E+03 -0.14742765160E+04  0.16030705269E+04  0.10100000352E+00 0. -1.
       -3    1    3    3    0  502  0.30090803211E+03  0.55299024827E+03  0.12652502920E+04  0.14132240339E+04  0.10100000352E+00 0.  1.
</event>
<event>
 5   0  0.2404430E-06  0.3251359E+04  0.7818609E-02  0.8175384E-01
        2   -1    0    0  501    0  0.00000000000E+00  0.00000000000E+00  0.17744640231E+04  0.17744640231E+04  0.25500000920E-02 0.  1.
       -2   -1    0    0    0  501  0.00000000000E+00  0.00000000000E+00 -0.14893701506E+04  0.14893701506E+04  0.25500000920E-02 0. -1.
    10030    2    1    2    0    0  0.00000000000E+00  0.00000000000E+00  0.28509387248E+03  0.32638341737E+04  0.32513589462E+04 0.  0.
        4    1    3    3  502    0  0.16234806745E+03 -0.64336146879E+03 -0.13472503058E+04  0.15017842301E+04  0.12699999809E+01 0. -1.
       -4    1    3    3    0  502 -0.16234806745E+03  0.64336146879E+03  0.16323441782E+04  0.17620499436E+04  0.12699999809E+01 0.  1.
</event>
<event>
 5   0  0.2337504E-06  0.3189526E+04  0.7818609E-02  0.8191589E-01
       -2   -1    0    0    0  501  0.00000000000E+00  0.00000000000E+00  0.15046300078E+04  0.15046300078E+04  0.25500000920E-02 0.  1.
        2   -1    0    0  501    0  0.00000000000E+00  0.00000000000E+00 -0.16902952300E+04  0.16902952300E+04  0.25500000920E-02 0. -1.
    10030    2    1    2    0    0  0.00000000000E+00  0.00000000000E+00 -0.18566522212E+03  0.31949252378E+04  0.31895259366E+04 0.  0.
        1    1    3    3  502    0  0.13921806236E+03  0.15441605257E+04  0.28123699973E+03  0.15757244835E+04  0.50400001928E-02 0.  1.
       -1    1    3    3    0  502 -0.13921806236E+03 -0.15441605257E+04 -0.46690222185E+03  0.16192007543E+04  0.50400001928E-02 0. -1.
</event>
<event>
 5   0  0.2404430E-06  0.3662911E+04  0.7818609E-02  0.8076231E-01
       -2   -1    0    0    0  501  0.00000000000E+00  0.00000000000E+00  0.12183886441E+04  0.12183886441E+04  0.25500000920E-02 0.  1.
        2   -1    0    0  501    0  0.00000000000E+00  0.00000000000E+00 -0.27530045263E+04  0.27530045263E+04  0.25500000920E-02 0. -1.
    10030    2    1    2    0    0  0.00000000000E+00  0.00000000000E+00 -0.15346158821E+04  0.39713931704E+04  0.36629111111E+04 0.  0.
        4    1    3    3  502    0 -0.12283271723E+03  0.14438294795E+04 -0.19816784563E+04  0.24549506227E+04  0.12699999809E+01 0. -1.
       -4    1    3    3    0  502  0.12283271723E+03 -0.14438294795E+04  0.44706257421E+03  0.15164425477E+04  0.12699999809E+01 0.  1.
</event>
<event>
 5   0  0.8512855E-07  0.3186039E+04  0.7818609E-02  0.8192514E-01
        1   -1    0    0  501    0  0.00000000000E+00  0.00000000000E+00  0.23343631378E+04  0.23343631378E+04  0.50400001928E-02 0. -1.
       -1   -1    0    0    0  501  0.00000000000E+00  0.00000000000E+00 -0.10871109024E+04  0.10871109024E+04  0.50400001928E-02 0.  1.
    10030    2    1    2    0    0  0.00000000000E+00  0.00000000000E+00  0.12472522354E+04  0.34214740402E+04  0.31860393075E+04 0.  0.
        5    1    3    3  502    0  0.14875696672E+04  0.44065378668E+02  0.12338448755E+04  0.19331840417E+04  0.46999998093E+01 0.  1.
       -5    1    3    3    0  502 -0.14875696672E+04 -0.44065378668E+02  0.13407359900E+02  0.14882899985E+04  0.46999998093E+01 0. -1.
</event>
<event>
 5   0  0.2337504E-06  0.3288177E+04  0.7818609E-02  0.8165910E-01
        2   -1    0    0  501    0  0.00000000000E+00  0.00000000000E+00  0.13008039337E+04  0.13008039337E+04  0.25500000920E-02 0. -1.
       -2   -1    0    0    0  501  0.00000000000E+00  0.00000000000E+00 -0.20779670514E+04  0.20779670514E+04  0.25500000920E-02 0.  1.
    10030    2    1    2    0    0  0.00000000000E+00  0.00000000000E+00 -0.77716311768E+03  0.33787709851E+04  0.32881774372E+04 0.  0.
        1    1    3    3  502    0  0.39148759497E+03  0.90559215783E+03 -0.17399845914E+04  0.20002265051E+04  0.50400001928E-02 0.  1.
       -1    1    3    3    0  502 -0.39148759497E+03 -0.90559215783E+03  0.96282147369E+03  0.13785444801E+04  0.50400001928E-02 0. -1.
</event>
<event>
 5   0  0.2466076E-06  0.2987505E+04  0.7818609E-02  0.8247308E-01
        2   -1    0    0  501    0  0.00000000000E+00  0.00000000000E+00  0.16376863382E+04  0.16376863382E+04  0.25500000920E-02 0.  1.
       -2   -1    0    0    0  501  0.00000000000E+00  0.00000000000E+00 -0.13624687978E+04  0.13624687978E+04  0.25500000920E-02 0. -1.
    10030    2    1    2    0    0  0.00000000000E+00  0.00000000000E+00  0.27521754034E+03  0.30001551360E+04  0.29875050034E+04 0.  0.
        3    1    3    3  502    0 -0.14357889227E+04 -0.32656207522E+03 -0.11477972983E+03  0.14769248512E+04  0.10100000352E+00 0.  1.
       -3    1    3    3    0  502  0.14357889227E+04  0.32656207522E+03  0.38999727017E+03  0.15232302848E+04  0.10100000352E+00 0. -1.
</event>
<event>
 5   0  0.8383008E-07  0.3141610E+04  0.7818609E-02  0.8204410E-01
        1   -1    0    0  501    0  0.00000000000E+00  0.00000000000E+00  0.16101478114E+04  0.16101478114E+04  0.50400001928E-02 0.  1.
       -1   -1    0    0    0  501  0.00000000000E+00  0.00000000000E+00 -0.15324233290E+04  0.15324233290E+04  0.50400001928E-02 0. -1.
    10030    2    1    2    0    0  0.00000000000E+00  0.00000000000E+00  0.77724482386E+02  0.31425711404E+04  0.31416098226E+04 0.  0.
        4    1    3    3  502    0 -0.19697555005E+02  0.14454548850E+04  0.65362221204E+03  0.15864902858E+04  0.12699999809E+01 0.  1.
       -4    1    3    3    0  502  0.19697555005E+02 -0.14454548850E+04 -0.57589772966E+03  0.15560808546E+04  0.12699999809E+01 0. -1.
</event>
<event>
 5   0  0.2401139E-06  0.3174421E+04  0.7818609E-02  0.8195605E-01
       -2   -1    0    0    0  501  0.00000000000E+00  0.00000000000E+00  0.21832387955E+04  0.21832387955E+04  0.25500000920E-02 0. -1.
        2   -1    0    0  501    0  0.00000000000E+00  0.00000000000E+00 -0.11538992117E+04  0.11538992117E+04  0.25500000920E-02 0.  1.
    10030    2    1    2    0    0  0.00000000000E+00  0.00000000000E+00  0.10293395838E+04  0.33371380072E+04  0.31744212228E+04 0.  0.
        5    1    3    3  502    0 -0.13590058482E+04 -0.68224605330E+03  0.36539037820E+02  0.15210896634E+04  0.46999998093E+01 0.  1.
       -5    1    3    3    0  502  0.13590058482E+04  0.68224605330E+03  0.99280054597E+03  0.18160483438E+04  0.46999998093E+01 0. -1.
</event>
<event>
 5   0  0.2621528E-06  0.3221148E+04  0.7818609E-02  0.8183254E-01
        2   -1    0    0  501    0  0.00000000000E+00  0.00000000000E+00  0.20243879819E+04  0.20243879819E+04  0.25500000920E-02 0. -1.
       -2   -1    0    0    0  501  0.00000000000E+00  0.00000000000E+00 -0.12813497339E+04  0.12813497339E+04  0.25500000920E-02 0.  1.
    10030    2    1    2    0    0  0.00000000000E+00  0.00000000000E+00  0.74303824797E+03  0.33057377157E+04  0.32211482436E+04 0.  0.
        2    1    3    3  502    0  0.51403731818E+03  0.11019453060E+04 -0.71235555478E+03  0.14092438605E+04  0.25500000920E-02 0.  1.
       -2    1    3    3    0  502 -0.51403731818E+03 -0.11019453060E+04  0.14553938028E+04  0.18964938552E+04  0.25500000920E-02 0. -1.
</event>
<event>
 5   0  0.2621528E-06  0.3212337E+04  0.7818609E-02  0.8185567E-01
       -2   -1    0    0    0  501  0.00000000000E+00  0.00000000000E+00  0.81793629715E+03  0.81793629716E+03  0.25500000920E-02 0.  1.
        2   -1    0    0  501    0  0.00000000000E+00  0.00000000000E+00 -0.31540069844E+04  0.31540069844E+04  0.25500000920E-02 0. -1.
    10030    2    1    2    0    0  0.00000000000E+00  0.00000000000E+00 -0.23360706872E+04  0.39719432815E+04  0.32123367158E+04 0.  0.
        2    1    3    3  502    0  0.35208588786E+03 -0.64372519076E+03 -0.29346801635E+04  0.30250114472E+04  0.25500000920E-02 0. -1.
       -2    1    3    3    0  502 -0.35208588786E+03  0.64372519076E+03  0.59860947632E+03  0.94693183429E+03  0.25500000920E-02 0.  1.
</event>
<event>
 5   0  0.8545153E-07  0.3182941E+04  0.7818609E-02  0.8193337E-01
       -1   -1    0    0    0  501  0.00000000000E+00  0.00000000000E+00  0.11732633814E+04  0.11732633814E+04  0.50400001928E-02 0. -1.
        1   -1    0    0  501    0  0.00000000000E+00  0.00000000000E+00 -0.21587461378E+04  0.21587461378E+04  0.50400001928E-02 0.  1.
    10030    2    1    2    0    0  0.00000000000E+00  0.00000000000E+00 -0.98548275635E+03  0.33320095192E+04  0.31829406487E+04 0.  0.
        3    1    3    3  502    0 -0.16695397748E+03 -0.14225933551E+04  0.23338121343E+03  0.14512450811E+04  0.10100000352E+00 0. -1.
       -3    1    3    3    0  502  0.16695397748E+03  0.14225933551E+04 -0.12188639698E+04  0.18807644381E+04  0.10100000352E+00 0.  1.
</event>
<event>
 5   0  0.8487944E-07  0.3011676E+04  0.7818609E-02  0.8240404E-01
       -1   -1    0    0    0  501  0.00000000000E+00  0.00000000000E+00  0.10500939994E+04  0.10500939995E+04  0.50400001928E-02 0. -1.
        1   -1    0    0  501    0  0.00000000000E+00  0.00000000000E+00 -0.21593768125E+04  0.21593768126E+04  0.50400001928E-02 0.  1.
    10030    2    1    2    0    0  0.00000000000E+00  0.00000000000E+00 -0.11092828131E+04  0.32094708120E+04  0.30116763660E+04 0.  0.
        2    1    3    3  502    0  0.36054189980E+02 -0.12511518420E+04  0.33751948645E+03  0.12963796667E+04  0.25500000920E-02 0. -1.
       -2    1    3    3    0  502 -0.36054189980E+02  0.12511518420E+04 -0.14468022995E+04  0.19130911453E+04  0.25500000920E-02 0.  1.
</event>
<event>
 5   0  0.2337504E-06  0.3199263E+04  0.7818609E-02  0.8189012E-01
        2   -1    0    0  501    0  0.00000000000E+00  0.00000000000E+00  0.25804664233E+04  0.25804664233E+04  0.25500000920E-02 0. -1.
       -2   -1    0    0    0  501  0.00000000000E+00  0.00000000000E+00 -0.99161206239E+03  0.99161206240E+03  0.25500000920E-02 0.  1.
    10030    2    1    2    0    0  0.00000000000E+00  0.00000000000E+00  0.15888543609E+04  0.35720784856E+04  0.31992634352E+04 0.  0.
        1    1    3    3  502    0  0.15658941873E+04 -0.21092292207E+03  0.10731322074E+04  0.19100067590E+04  0.50400001928E-02 0.  1.
       -1    1    3    3    0  502 -0.15658941873E+04  0.21092292207E+03  0.51572215345E+03  0.16620717266E+04  0.50400001928E-02 0. -1.
</event>
<event>
 5   0  0.8487944E-07  0.3189586E+04  0.7818609E-02  0.8191573E-01
        1   -1    0    0  501    0  0.00000000000E+00  0.00000000000E+00  0.20703169358E+04  0.20703169358E+04  0.50400001928E-02 0. -1.
       -1   -1    0    0    0  501  0.00000000000E+00  0.00000000000E+00 -0.12284901729E+04  0.12284901729E+04  0.50400001928E-02 0.  1.
    10030    2    1    2    0    0  0.00000000000E+00  0.00000000000E+00  0.84182676288E+03  0.32988071087E+04  0.31895855595E+04 0.  0.
        2    1    3    3  502    0  0.15638431073E+04 -0.30645041307E+03  0.35676620089E+03  0.16330337541E+04  0.25500000920E-02 0. -1.
       -2    1    3    3    0  502 -0.15638431073E+04  0.30645041307E+03  0.48506056199E+03  0.16657733546E+04  0.25500000920E-02 0.  1.
</event>
<event>
 5   0  0.8512855E-07  0.3193212E+04  0.7818609E-02  0.8190612E-01
        1   -1    0    0  501    0  0.00000000000E+00  0.00000000000E+00  0.13871306229E+04  0.13871306229E+04  0.50400001928E-02 0.  1.
       -1   -1    0    0    0  501  0.00000000000E+00  0.00000000000E+00 -0.18377153486E+04  0.18377153486E+04  0.50400001928E-02 0. -1.
    10030    2    1    2    0    0  0.00000000000E+00  0.00000000000E+00 -0.45058472567E+03  0.32248459715E+04  0.31932123238E+04 0.  0.
        5    1    3    3  502    0  0.88717166409E+03  0.88609259715E+03 -0.12234640170E+04  0.17518903913E+04  0.46999998093E+01 0. -1.
       -5    1    3    3    0  502 -0.88717166409E+03 -0.88609259715E+03  0.77287929135E+03  0.14729555802E+04  0.46999998093E+01 0.  1.
</event>
<event>
 5   0  0.2401139E-06  0.3200158E+04  0.7818609E-02  0.8188775E-01
       -2   -1    0    0    0  501  0.00000000000E+00  0.00000000000E+00  0.20348059732E+04  0.20348059732E+04  0.25500000920E-02 0. -1.
        2   -1    0    0  501    0  0.00000000000E+00  0.00000000000E+00 -0.12582296497E+04  0.12582296497E+04  0.25500000920E-02 0.  1.
    10030    2    1    2    0    0  0.00000000000E+00  0.00000000000E+00  0.77657632348E+03  0.32930356228E+04  0.32001582503E+04 0.  0.
        5    1    3    3  502    0 -0.93763772698E+03  0.11749590657E+04 -0.17583577479E+03  0.15134839355E+04  0.46999998093E+01 0.  1.
       -5    1    3    3    0  502  0.93763772698E+03 -0.11749590657E+04  0.95241209827E+03  0.17795516874E+04  0.46999998093E+01 0. -1.
</event>
<event>
 5   0  0.8487944E-07  0.3229810E+04  0.7818609E-02  0.8180988E-01
        1   -1    0    0  501    0  0.00000000000E+00  0.00000000000E+00  0.13818016769E+04  0.13818016769E+04  0.50400001928E-02 0.  1.
       -1   -1    0    0    0  501  0.00000000000E+00  0.00000000000E+00 -0.18873321360E+04  0.18873321360E+04  0.50400001928E-02 0. -1.
    10030    2    1    2    0    0  0.00000000000E+00  0.00000000000E+00 -0.50553045909E+03  0.32691338128E+04  0.32298103414E+04 0.  0.
        2    1    3    3  502    0 -0.14598794207E+04 -0.47943830261E+03 -0.75561330223E+03  0.17123260413E+04  0.25500000920E-02 0. -1.
       -2    1    3    3    0  502  0.14598794207E+04  0.47943830261E+03  0.25008284314E+03  0.15568077716E+04  0.25500000920E-02 0.  1.
</event>
<event>
 5   0  0.8545153E-07  0.3009502E+04  0.7818609E-02  0.8241023E-01
       -1   -1    0    0    0  501  0.00000000000E+00  0.00000000000E+00  0.12778825060E+04  0.12778825060E+04  0.50400001928E-02 0.  1.
        1   -1    0    0  501    0  0.00000000000E+00  0.00000000000E+00 -0.17718964711E+04  0.17718964711E+04  0.50400001928E-02 0. -1.
    10030    2    1    2    0    0  0.00000000000E+00  0.00000000000E+00 -0.49401396511E+03  0.30497789772E+04  0.30095019541E+04 0.  0.
        3    1    3    3  502    0  0.11995070008E+04  0.14673202471E+03 -0.11556271198E+04  0.16720709861E+04  0.10100000352E+00 0. -1.
       -3    1    3    3    0  502 -0.11995070008E+04 -0.14673202471E+03  0.66161315473E+03  0.13777079911E+04  0.10100000352E+00 0.  1.
</event>
<event>
 5   0  0.8512855E-07  0.3174829E+04  0.7818609E-02  0.8195497E-01
        1   -1    0    0  501    0  0.00000000000E+00  0.00000000000E+00  0.23376253415E+04  0.23376253415E+04  0.50400001928E-02 0.  1.
       -1   -1    0    0    0  501  0.00000000000E+00  0.00000000000E+00 -0.10779677224E+04  0.10779677224E+04  0.50400001928E-02 0. -1.
    10030    2    1    2    0    0  0.00000000000E+00  0.00000000000E+00  0.12596576192E+04  0.34155930639E+04  0.31748289183E+04 0.  0.
        5    1    3    3  502    0 -0.67756986549E+01 -0.73900854414E+03 -0.88158887598E+03  0.11503914876E+04  0.46999998093E+01 0. -1.
       -5    1    3    3    0  502  0.67756986549E+01  0.73900854414E+03  0.21412464951E+04  0.22652015763E+04  0.46999998093E+01 0.  1.
</event>
<event>
 5   0  0.2621528E-06  0.3092167E+04  0.7818609E-02  0.8217891E-01
        2   -1    0    0  501    0  0.00000000000E+00  0.00000000000E+00  0.22418506908E+04  0.22418506908E+04  0.25500000920E-02 0.  1.
       -2   -1    0    0    0  501  0.00000000000E+00  0.00000000000E+00 -0.10662504511E+04  0.10662504511E+04  0.25500000920E-02 0. -1.
    10030    2    1    2    0    0  0.00000000000E+00  0.00000000000E+00  0.11756002397E+04  0.33081011419E+04  0.30921670786E+04 0.  0.
        2    1    3    3  502    0  0.11686416348E+04  0.78945488164E+03  0.12656148755E+04  0.18949256697E+04  0.25500000920E-02 0.  1.
       -2    1    3    3    0  502 -0.11686416348E+04 -0.78945488164E+03 -0.90014635785E+02  0.14131754722E+04  0.25500000920E-02 0. -1.
</event>
<event>
 5   0  0.2337504E-06  0.3181557E+04  0.7818609E-02  0.8193705E-01
       -2   -1    0    0    0  501  0.00000000000E+00  0.00000000000E+00  0.17004639864E+04  0.17004639864E+04  0.25500000920E-02 0.  1.
        2   -1    0    0  501    0  0.00000000000E+00  0.00000000000E+00 -0.14881683888E+04  0.14881683888E+04  0.25500000920E-02 0. -1.
    10030    2    1    2    0    0  0.00000000000E+00  0.00000000000E+00  0.21229559761E+03  0.31886323752E+04  0.31815573236E+04 0.  0.
        1    1    3    3  502    0 -0.33993767317E+03 -0.15048429572E+04 -0.28261530949E+03  0.15684327722E+04  0.50400001928E-02 0. -1.
       -1    1    3    3    0  502  0.33993767317E+03  0.15048429572E+04  0.49491090710E+03  0.16201996030E+04  0.50400001928E-02 0.  1.
</event>
<event>
 5   0  0.8545153E-07  0.2931150E+04  0.7818609E-02  0.8263669E-01
       -1   -1    0    0    0  501  0.00000000000E+00  0.00000000000E+00  0.12977391119E+04  0.12977391119E+04  0.50400001928E-02 0. -1.
        1   -1    0    0  501    0  0.00000000000E+00  0.00000000000E+00 -0.16551167206E+04  0.16551167206E+04  0.50400001928E-02 0.  1.
    10030    2    1    2    0    0  0.00000000000E+00  0.00000000000E+00 -0.35737760871E+03  0.29528558324E+04  0.29311497423E+04 0.  0.
        3    1    3    3  502    0 -0.88062139725E+03 -0.79793545829E+03  0.68540111951E+03  0.13718490244E+04  0.10100000352E+00 0. -1.
       -3    1    3    3    0  502  0.88062139725E+03  0.79793545829E+03 -0.10427787282E+04  0.15810068081E+04  0.10100000352E+00 0.  1.
</event>
<event>
 5   0  0.2337504E-06  0.3221812E+04  0.7818609E-02  0.8183080E-01
       -2   -1    0    0    0  501  0.00000000000E+00  0.00000000000E+00  0.20966580329E+04  0.20966580329E+04  0.25500000920E-02 0. -1.
        2   -1    0    0  501    0  0.00000000000E+00  0.00000000000E+00 -0.12376926723E+04  0.12376926723E+04  0.25500000920E-02 0.  1.
    10030    2    1    2    0    0  0.00000000000E+00  0.00000000000E+00  0.85896536064E+03  0.33343507052E+04  0.32218120887E+04 0.  0.
        1    1    3    3  502    0 -0.85742538757E+03  0.81853256556E+03 -0.69941910673E+03  0.13763578543E+04  0.50400001928E-02 0.  1.
       -1    1    3    3    0  502  0.85742538757E+03 -0.81853256556E+03  0.15583844674E+04  0.19579928509E+04  0.50400001928E-02 0. -1.
</event>
<event>
 5   0  0.2337504E-06  0.3174638E+04  0.7818609E-02  0.8195548E-01
       -2   -1    0    0    0  501  0.00000000000E+00  0.00000000000E+00  0.15490257661E+04  0.15490257661E+04  0.25500000920E-02 0. -1.
        2   -1    0    0  501    0  0.00000000000E+00  0.00000000000E+00 -0.16265587581E+04  0.16265587581E+04  0.25500000920E-02 0.  1.
    10030    2    1    2    0    0  0.00000000000E+00  0.00000000000E+00 -0.77532991989E+02  0.31755845242E+04  0.31746378857E+04 0.  0.
        1    1    3    3  502    0  0.13048690953E+04 -0.12963658189E+03 -0.93351207660E+03  0.16096377842E+04  0.50400001928E-02 0.  1.
       -1    1    3    3    0  502 -0.13048690953E+04  0.12963658189E+03  0.85597908462E+03  0.15659467400E+04  0.50400001928E-02 0. -1.
</event>
<event>
 5   0  0.2401139E-06  0.3157480E+04  0.7818609E-02  0.8200138E-01
        2   -1    0    0  501    0  0.00000000000E+00  0.00000000000E+00  0.21710852671E+04  0.21710852671E+04  0.25500000920E-02 0.  1.
       -2   -1    0    0    0  501  0.00000000000E+00  0.00000000000E+00 -0.11480065739E+04  0.11480065739E+04  0.25500000920E-02 0. -1.
    10030    2    1    2    0    0  0.00000000000E+00  0.00000000000E+00  0.10230786932E+04  0.33190918410E+04  0.31574801087E+04 0.  0.
        5    1    3    3  502    0  0.80809629196E+02  0.11964197331E+04  0.15909611032E+04  0.19922674760E+04  0.46999998093E+01 0.  1.
       -5    1    3    3    0  502 -0.80809629196E+02 -0.11964197331E+04 -0.56788241002E+03  0.13268243650E+04  0.46999998093E+01 0. -1.
</event>
<event>
 5   0  0.2466076E-06  0.3170181E+04  0.7818609E-02  0.8196737E-01
       -2   -1    0    0    0  501  0.00000000000E+00  0.00000000000E+00  0.14727553038E+04  0.14727553038E+04  0.25500000920E-02 0.  1.
        2   -1    0    0  501    0  0.00000000000E+00  0.00000000000E+00 -0.17059937386E+04  0.17059937386E+04  0.25500000920E-02 0. -1.
    10030    2    1    2    0    0  0.00000000000E+00  0.00000000000E+00 -0.23323843482E+03  0.31787490424E+04  0.31701806427E+04 0.  0.
        3    1    3    3  502    0 -0.12500169681E+04  0.52817351129E+03  0.70474167853E+03  0.15291077536E+04  0.10100000352E+00 0.  1.
       -3    1    3    3    0  502  0.12500169681E+04 -0.52817351129E+03 -0.93798011335E+03  0.16496412888E+04  0.10100000352E+00 0. -1.
</event>
<event>
 5   0  0.8681172E-07  0.3119058E+04  0.7818609E-02  0.8210527E-01
       -1   -1    0    0    0  501  0.00000000000E+00  0.00000000000E+00  0.17822022452E+04  0.17822022452E+04  0.50400001928E-02 0.  1.
        1   -1    0    0  501    0  0.00000000000E+00  0.00000000000E+00 -0.13646771928E+04  0.13646771928E+04  0.50400001928E-02 0. -1.
    10030    2    1    2    0    0  0.00000000000E+00  0.00000000000E+00  0.41752505237E+03  0.31468794380E+04  0.31190580354E+04 0.  0.
        1    1    3    3  502    0  0.11976892635E+04 -0.86005971001E+03 -0.30367387408E+03  0.15054501315E+04  0.50400001928E-02 0. -1.
       -1    1    3    3    0  502 -0.11976892635E+04  0.86005971001E+03  0.72119892645E+03  0.16414293065E+04  0.50400001928E-02 0.  1.
</event>
<event>
 5   0  0.8681172E-07  0.3216052E+04  0.7818609E-02  0.8184591E-01
       -1   -1    0    0    0  501  0.00000000000E+00  0.00000000000E+00  0.15220705970E+04  0.15220705970E+04  0.50400001928E-02 0. -1.
        1   -1    0    0  501    0  0.00000000000E+00  0.00000000000E+00 -0.16988353058E+04  0.16988353058E+04  0.50400001928E-02 0.  1.
    10030    2    1    2    0    0  0.00000000000E+00  0.00000000000E+00 -0.17676470873E+03  0.32209059028E+04  0.32160517832E+04 0.  0.
        1    1    3    3  502    0 -0.11986227265E+04  0.92868419413E+03 -0.62453745499E+03  0.16398773752E+04  0.50400001928E-02 0. -1.
       -1    1    3    3    0  502  0.11986227265E+04 -0.92868419413E+03  0.44777274626E+03  0.15810285276E+04  0.50400001928E-02 0.  1.
</event>
<event>
 5   0  0.8681172E-07  0.3211554E+04  0.7818609E-02  0.8185772E-01
        1   -1    0    0  501    0  0.00000000000E+00  0.00000000000E+00  0.94079561584E+03  0.94079561585E+03  0.50400001928E-02 0. -1.
       -1   -1    0    0    0  501  0.00000000000E+00  0.00000000000E+00 -0.27407869187E+04  0.27407869187E+04  0.50400001928E-02 0.  1.
    10030    2    1    2    0    0  0.00000000000E+00  0.00000000000E+00 -0.17999913028E+04  0.36815825345E+04  0.32115543384E+04 0.  0.
        1    1    3    3  502    0  0.13545585445E+04 -0.57350873717E+03 -0.16170435480E+03  0.14798274968E+04  0.50400001928E-02 0. -1.
       -1    1    3    3    0  502 -0.13545585445E+04  0.57350873717E+03 -0.16382869481E+04  0.22017550377E+04  0.50400001928E-02 0.  1.
</event>
<event>
 5   0  0.2401139E-06  0.2711814E+04  0.7818609E-02  0.8331182E-01
       -2   -1    0    0    0  501  0.00000000000E+00  0.00000000000E+00  0.56686153409E+03  0.56686153410E+03  0.25500000920E-02 0. -1.
        2   -1    0    0  501    0  0.00000000000E+00  0.00000000000E+00 -0.32432678870E+04  0.32432678870E+04  0.25500000920E-02 0.  1.
    10030    2    1    2    0    0  0.00000000000E+00  0.00000000000E+00 -0.26764063529E+04  0.38101294211E+04  0.27118140127E+04 0.  0.
        5    1    3    3  502    0 -0.84941586398E+02  0.22674726430E+03  0.53622745335E+03  0.58838029088E+03  0.46999998093E+01 0. -1.
       -5    1    3    3    0  502  0.84941586398E+02 -0.22674726430E+03 -0.32126338062E+04  0.32217491302E+04  0.46999998093E+01 0.  1.
</event>
<event>
 5   0  0.2337504E-06  0.3150856E+04  0.7818609E-02  0.8201918E-01
        2   -1    0    0  501    0  0.00000000000E+00  0.00000000000E+00  0.18612925718E+04  0.18612925718E+04  0.25500000920E-02 0. -1.
       -2   -1    0    0    0  501  0.00000000000E+00  0.00000000000E+00 -0.13334676195E+04  0.13334676195E+04  0.25500000920E-02 0.  1.
    10030    2    1    2    0    0  0.00000000000E+00  0.00000000000E+00  0.52782495238E+03  0.31947601913E+04  0.31508559947E+04 0.  0.
        1    1    3    3  502    0 -0.51774181128E+03 -0.14878701631E+04  0.27670451274E+03  0.15994935426E+04  0.50400001928E-02 0. -1.
       -1    1    3    3    0  502  0.51774181128E+03  0.14878701631E+04  0.25112043964E+03  0.15952666487E+04  0.50400001928E-02 0.  1.
</event>
<event>
 5   0  0.8512855E-07  0.3216979E+04  0.7818609E-02  0.8184347E-01
       -1   -1    0    0    0  501  0.00000000000E+00  0.00000000000E+00  0.13844995095E+04  0.13844995095E+04  0.50400001928E-02 0. -1.
        1   -1    0    0  501    0  0.00000000000E+00  0.00000000000E+00 -0.18687173533E+04  0.18687173533E+04  0.50400001928E-02 0.  1.
    10030    2    1    2    0    0  0.00000000000E+00  0.00000000000E+00 -0.48421784377E+03  0.32532168628E+04  0.32169788679E+04 0.  0.
        5    1    3    3  502    0  0.15640774280E+04 -0.74114650144E+02  0.12998284487E+03  0.15712252582E+04  0.46999998093E+01 0.  1.
       -5    1    3    3    0  502 -0.15640774280E+04  0.74114650144E+02 -0.61420068864E+03  0.16819916046E+04  0.46999998093E+01 0. -1.
</event>
<event>
 5   0  0.8512855E-07  0.3234052E+04  0.7818609E-02  0.8179882E-01
       -1   -1    0    0    0  501  0.00000000000E+00  0.00000000000E+00  0.11296379834E+04  0.11296379835E+04  0.50400001928E-02 0. -1.
        1   -1    0    0  501    0  0.00000000000E+00  0.00000000000E+00 -0.23147004161E+04  0.23147004161E+04  0.50400001928E-02 0.  1.
    10030    2    1    2    0    0  0.00000000000E+00  0.00000000000E+00 -0.11850624327E+04  0.34443383996E+04  0.32340522633E+04 0.  0.
        5    1    3    3  502    0 -0.46824040262E+03  0.86142413753E+03  0.77694475931E+03  0.12509859585E+04  0.46999998093E+01 0. -1.
       -5    1    3    3    0  502  0.46824040262E+03 -0.86142413753E+03 -0.19620071920E+04  0.21933524411E+04  0.46999998093E+01 0.  1.
</event>
<event>
 5   0  0.2337504E-06  0.3220031E+04  0.7818609E-02  0.8183547E-01
       -2   -1    0    0    0  501  0.00000000000E+00  0.00000000000E+00  0.26247552530E+04  0.26247552530E+04  0.25500000920E-02 0. -1.
        2   -1    0    0  501    0  0.00000000000E+00  0.00000000000E+00 -0.98757786238E+03  0.98757786238E+03  0.25500000920E-02 0.  1.
    10030    2    1    2    0    0  0.00000000000E+00  0.00000000000E+00  0.16371773906E+04  0.36123331154E+04  0.32200311688E+04 0.  0.
        1    1    3    3  502    0 -0.60087784953E+03  0.97793849794E+02 -0.85347970071E+03  0.10483536744E+04  0.50400001928E-02 0.  1.
       -1    1    3    3    0  502  0.60087784953E+03 -0.97793849794E+02  0.24906570913E+04  0.25639794410E+04  0.50400001928E-02 0. -1.
</event>
<event>
 5   0  0.8545153E-07  0.3299161E+04  0.7818609E-02  0.8163109E-01
       -1   -1    0    0    0  501  0.00000000000E+00  0.00000000000E+00  0.16507280666E+04  0.16507280666E+04  0.50400001928E-02 0. -1.
        1   -1    0    0  501    0  0.00000000000E+00  0.00000000000E+00 -0.16484341951E+04  0.16484341951E+04  0.50400001928E-02 0.  1.
    10030    2    1    2    0    0  0.00000000000E+00  0.00000000000E+00  0.22938715391E+01  0.32991622617E+04  0.32991614643E+04 0.  0.
        3    1    3    3  502    0 -0.15283173558E+04  0.36646807137E+03  0.50220972172E+03  0.16499295143E+04  0.10100000352E+00 0. -1.
       -3    1    3    3    0  502  0.15283173558E+04 -0.36646807137E+03 -0.49991585018E+03  0.16492327474E+04  0.10100000352E+00 0.  1.
</event>
<event>
 5   0  0.8487944E-07  0.3130546E+04  0.7818609E-02  0.8207404E-01
       -1   -1    0    0    0  501  0.00000000000E+00  0.00000000000E+00  0.15355212390E+04  0.15355212390E+04  0.50400001928E-02 0.  1.
        1   -1    0    0  501    0  0.00000000000E+00  0.00000000000E+00 -0.15956012523E+04  0.15956012523E+04  0.50400001928E-02 0. -1.
    10030    2    1    2    0    0  0.00000000000E+00  0.00000000000E+00 -0.60080013293E+02  0.31311224912E+04  0.31305460302E+04 0.  0.
        2    1    3    3  502    0  0.14376535102E+04  0.53785714674E+03 -0.33659552586E+03  0.15714434363E+04  0.25500000920E-02 0.  1.
       -2    1    3    3    0  502 -0.14376535102E+04 -0.53785714674E+03  0.27651551257E+03  0.15596790549E+04  0.25500000920E-02 0. -1.
</event>
<event>
 5   0  0.8383008E-07  0.3203184E+04  0.7818609E-02  0.8187977E-01
        1   -1    0    0  501    0  0.00000000000E+00  0.00000000000E+00  0.15873456395E+04  0.15873456395E+04  0.50400001928E-02 0.  1.
       -1   -1    0    0    0  501  0.00000000000E+00  0.00000000000E+00 -0.16159657985E+04  0.16159657985E+04  0.50400001928E-02 0. -1.
    10030    2    1    2    0    0  0.00000000000E+00  0.00000000000E+00 -0.28620159003E+02  0.32033114379E+04  0.32031835812E+04 0.  0.
        4    1    3    3  502    0  0.85540495524E+03  0.24018801714E+03  0.13182920695E+04  0.15897495131E+04  0.12699999809E+01 0.  1.
       -4    1    3    3    0  502 -0.85540495524E+03 -0.24018801714E+03 -0.13469122285E+04  0.16135619248E+04  0.12699999809E+01 0. -1.
</event>
<event>
 5   0  0.8383008E-07  0.3185377E+04  0.7818609E-02  0.8192690E-01
        1   -1    0    0  501    0  0.00000000000E+00  0.00000000000E+00  0.13826207504E+04  0.13826207504E+04  0.50400001928E-02 0. -1.
       -1   -1    0    0    0  501  0.00000000000E+00  0.00000000000E+00 -0.18346724058E+04  0.18346724058E+04  0.50400001928E-02 0.  1.
    10030    2    1    2    0    0  0.00000000000E+00  0.00000000000E+00 -0.45205165543E+03  0.32172931562E+04  0.31853766738E+04 0.  0.
        4    1    3    3  502    0 -0.34263308627E+03 -0.23315058255E+03  0.13272051283E+04  0.13904070237E+04  0.12699999809E+01 0. -1.
       -4    1    3    3    0  502  0.34263308627E+03  0.23315058255E+03 -0.17792567837E+04  0.18268861325E+04  0.12699999809E+01 0.  1.
</event>
<event>
 5   0  0.8681172E-07  0.3237824E+04  0.7818609E-02  0.8178899E-01
       -1   -1    0    0    0  501  0.00000000000E+00  0.00000000000E+00  0.11025254814E+04  0.11025254814E+04  0.50400001928E-02 0. -1.
        1   -1    0    0  501    0  0.00000000000E+00  0.00000000000E+00 -0.23771562656E+04  0.23771562656E+04  0.50400001928E-02 0.  1.
    10030    2    1    2    0    0  0.00000000000E+00  0.00000000000E+00 -0.12746307842E+04  0.34796817470E+04  0.32378235629E+04 0.  0.
        1    1    3    3  502    0 -0.16058640608E+04 -0.63790046641E+02 -0.84683130943E+03  0.18165879606E+04  0.50400001928E-02 0.  1.
       -1    1    3    3    0  502  0.16058640608E+04  0.63790046641E+02 -0.42779947476E+03  0.16630937864E+04  0.50400001928E-02 0. -1.
</event>
<event>
 5   0  0.8545153E-07  0.3118915E+04  0.7818609E-02  0.8210566E-01
        1   -1    0    0  501    0  0.00000000000E+00  0.00000000000E+00  0.26215223945E+04  0.26215223945E+04  0.50400001928E-02 0.  1.
       -1   -1    0    0    0  501  0.00000000000E+00  0.00000000000E+00 -0.92766976867E+03  0.92766976868E+03  0.50400001928E-02 0. -1.
    10030    2    1    2    0    0  0.00000000000E+00  0.00000000000E+00  0.16938526259E+04  0.35491921632E+04  0.31189146018E+04 0.  0.
        3    1    3    3  502    0  0.10805029704E+04 -0.22931175582E+03 -0.40577648414E+03  0.11767434366E+04  0.10100000352E+00 0. -1.
       -3    1    3    3    0  502 -0.10805029704E+04  0.22931175582E+03  0.20996291100E+04  0.23724487266E+04  0.10100000352E+00 0.  1.
</event>
<event>
 5   0  0.8383008E-07  0.3121615E+04  0.7818609E-02  0.8209831E-01
        1   -1    0    0  501    0  0.00000000000E+00  0.00000000000E+00  0.24675477488E+04  0.24675477488E+04  0.50400001928E-02 0. -1.
       -1   -1    0    0    0  501  0.00000000000E+00  0.00000000000E+00 -0.98726335101E+03  0.98726335103E+03  0.50400001928E-02 0.  1.
    10030    2    1    2    0    0  0.00000000000E+00  0.00000000000E+00  0.14802843978E+04  0.34548110998E+04  0.31216146202E+04 0.  0.
        4    1    3    3  502    0 -0.89323767318E+03 -0.12799318423E+04  0.73534544775E+03  0.17253502839E+04  0.12699999809E+01 0.  1.
       -4    1    3    3    0  502  0.89323767318E+03  0.12799318423E+04  0.74493895002E+03  0.17294608159E+04  0.12699999809E+01 0. -1.
</event>
<event>
 5   0  0.2466076E-06  0.3193754E+04  0.7818609E-02  0.8190469E-01
       -2   -1    0    0    0  501  0.00000000000E+00  0.00000000000E+00  0.18367197521E+04  0.18367197521E+04  0.25500000920E-02 0. -1.
        2   -1    0    0  501    0  0.00000000000E+00  0.00000000000E+00 -0.13883535209E+04  0.13883535209E+04  0.25500000920E-02 0.  1.
    10030    2    1    2    0    0  0.00000000000E+00  0.00000000000E+00  0.44836623126E+03  0.32250732730E+04  0.31937541137E+04 0.  0.
        3    1    3    3  502    0  0.12846703925E+03 -0.50443516185E+03 -0.13002759620E+04  0.14005985150E+04  0.10100000352E+00 0.  1.
       -3    1    3    3    0  502 -0.12846703925E+03  0.50443516185E+03  0.17486421932E+04  0.18244747581E+04  0.10100000352E+00 0. -1.
</event>
<event>
 5   0  0.8487944E-07  0.3178042E+04  0.7818609E-02  0.8194640E-01
        1   -1    0    0  501    0  0.00000000000E+00  0.00000000000E+00  0.11664002670E+04  0.11664002671E+04  0.50400001928E-02 0.  1.
       -1   -1    0    0    0  501  0.00000000000E+00  0.00000000000E+00 -0.21647690974E+04  0.21647690975E+04  0.50400001928E-02 0. -1.
    10030    2    1    2    0    0  0.00000000000E+00  0.00000000000E+00 -0.99836883040E+03  0.33311693645E+04  0.31780416947E+04 0.  0.
        2    1    3    3  502    0 -0.40021504905E+03 -0.95337348632E+03  0.76555783120E+03  0.12865348355E+04  0.25500000920E-02 0.  1.
       -2    1    3    3    0  502  0.40021504905E+03  0.95337348632E+03 -0.17639266616E+04  0.20446345291E+04  0.25500000920E-02 0. -1.
</event>
<event>
 5   0  0.8545153E-07  0.3250936E+04  0.7818609E-02  0.8175493E-01
        1   -1    0    0  501    0  0.00000000000E+00  0.00000000000E+00  0.13294211385E+04  0.13294211385E+04  0.50400001928E-02 0. -1.
       -1   -1    0    0    0  501  0.00000000000E+00  0.00000000000E+00 -0.19874412735E+04  0.19874412735E+04  0.50400001928E-02 0.  1.
    10030    2    1    2    0    0  0.00000000000E+00  0.00000000000E+00 -0.65802013503E+03  0.33168624120E+04  0.32509361362E+04 0.  0.
        3    1    3    3  502    0 -0.13294905890E+04 -0.59026815877E+03 -0.10691061897E+04  0.18052561537E+04  0.10100000352E+00 0.  1.
       -3    1    3    3    0  502  0.13294905890E+04  0.59026815877E+03  0.41108605471E+03  0.15116062582E+04  0.10100000352E+00 0. -1.
</event>
<event>
 5   0  0.8487944E-07  0.3186606E+04  0.7818609E-02  0.8192363E-01
        1   -1    0    0  501    0  0.00000000000E+00  0.00000000000E+00  0.79058831649E+03  0.79058831651E+03  0.50400001928E-02 0. -1.
       -1   -1    0    0    0  501  0.00000000000E+00  0.00000000000E+00 -0.32110445068E+04  0.32110445068E+04  0.50400001928E-02 0.  1.
    10030    2    1    2    0    0  0.00000000000E+00  0.00000000000E+00 -0.24204561903E+04  0.40016328233E+04  0.31866058877E+04 0.  0.
        2    1    3    3  502    0 -0.11747647288E+04  0.92771078837E+03 -0.18956221622E+04  0.24153887589E+04  0.25500000920E-02 0. -1.
       -2    1    3    3    0  502  0.11747647288E+04 -0.92771078837E+03 -0.52483402809E+03  0.15862440644E+04  0.25500000920E-02 0.  1.
</event>
<event>
 5   0  0.2337504E-06  0.3466720E+04  0.7818609E-02  0.8121723E-01
       -2   -1    0    0    0  501  0.00000000000E+00  0.00000000000E+00  0.17248962175E+04  0.17248962175E+04  0.25500000920E-02 0.  1.
        2   -1    0    0  501    0  0.00000000000E+00  0.00000000000E+00 -0.17418649720E+04  0.17418649720E+04  0.25500000920E-02 0. -1.
    10030    2    1    2    0    0  0.00000000000E+00  0.00000000000E+00 -0.16968754530E+02  0.34667611896E+04  0.34667196608E+04 0.  0.
        1    1    3    3  502    0  0.16215282508E+04 -0.45601373802E+02 -0.61931323005E+03  0.17363704185E+04  0.50400001928E-02 0. -1.
       -1    1    3    3    0  502 -0.16215282508E+04  0.45601373802E+02  0.60234447552E+03  0.17303907711E+04  0.50400001928E-02 0.  1.
</event>
<event>
 5   0  0.8681172E-07  0.3335151E+04  0.7818609E-02  0.8154008E-01
        1   -1    0    0  501    0  0.00000000000E+00  0.00000000000E+00  0.89356787440E+03  0.89356787441E+03  0.50400001928E-02 0. -1.
       -1   -1    0    0    0  501  0.00000000000E+00  0.00000000000E+00 -0.31120275407E+04  0.31120275408E+04  0.50400001928E-02 0.  1.
    10030    2    1    2    0    0  0.00000000000E+00  0.00000000000E+00 -0.22184596663E+04  0.40055954152E+04  0.33351508720E+04 0.  0.
        1    1    3    3  502    0 -0.61361876383E+03 -0.15427578297E+04 -0.12959808254E+04  0.21062279098E+04  0.50400001928E-02 0. -1.
       -1    1    3    3    0  502  0.61361876383E+03  0.15427578297E+04 -0.92247884093E+03  0.18993675053E+04  0.50400001928E-02 0.  1.
</event>
<event>
 5   0  0.2621528E-06  0.3187416E+04  0.7818609E-02  0.8192149E-01
        2   -1    0    0  501    0  0.00000000000E+00  0.00000000000E+00  0.30963044069E+04  0.30963044069E+04  0.25500000920E-02 0.  1.
       -2   -1    0    0    0  501  0.00000000000E+00  0.00000000000E+00 -0.82030200659E+03  0.82030200660E+03  0.25500000920E-02 0. -1.
    10030    2    1    2    0    0  0.00000000000E+00  0.00000000000E+00  0.22760024003E+04  0.39166064135E+04  0.31874157043E+04 0.  0.
        2    1    3    3  502    0  0.13987864028E+04 -0.36069022175E+03  0.31078690116E+03  0.14775957954E+04  0.25500000920E-02 0. -1.
       -2    1    3    3    0  502 -0.13987864028E+04  0.36069022175E+03  0.19652154991E+04  0.24390106180E+04  0.25500000920E-02 0.  1.
</event>
<event>
 5   0  0.7934375E-07  0.3185263E+04  0.7818609E-02  0.8192720E-01
        3   -1    0    0  501    0  0.00000000000E+00  0.00000000000E+00  0.99233546846E+03  0.99233547360E+03  0.10100000352E+00 0. -1.
       -3   -1    0    0    0  501  0.00000000000E+00  0.00000000000E+00 -0.25560663813E+04  0.25560663833E+04  0.10100000352E+00 0.  1.
    10030    2    1    2    0    0  0.00000000000E+00  0.00000000000E+00 -0.15637309129E+04  0.35484018569E+04  0.31852631556E+04 0.  0.
        4    1    3    3  502    0 -0.10758566382E+04 -0.10189524337E+04 -0.13158542680E+03  0.14876316431E+04  0.12699999809E+01 0. -1.
       -4    1    3    3    0  502  0.10758566382E+04  0.10189524337E+04 -0.14321454861E+04  0.20607702138E+04  0.12699999809E+01 0.  1.
</event>
<event>
 5   0  0.8681172E-07  0.3106550E+04  0.7818609E-02  0.8213943E-01
       -1   -1    0    0    0  501  0.00000000000E+00  0.00000000000E+00  0.10901655296E+04  0.10901655296E+04  0.50400001928E-02 0.  1.
        1   -1    0    0  501    0  0.00000000000E+00  0.00000000000E+00 -0.22131170007E+04  0.22131170007E+04  0.50400001928E-02 0. -1.
    10030    2    1    2    0    0  0.00000000000E+00  0.00000000000E+00 -0.11229514711E+04  0.33032825303E+04  0.31065504130E+04 0.  0.
        1    1    3    3  502    0  0.64288594591E+02  0.15518532023E+04 -0.54360416070E+03  0.16455658202E+04  0.50400001928E-02 0.  1.
       -1    1    3    3    0  502 -0.64288594591E+02 -0.15518532023E+04 -0.57934731036E+03  0.16577167101E+04  0.50400001928E-02 0. -1.
</event>
<event>
 5   0  0.8545153E-07  0.3071321E+04  0.7818609E-02  0.8223653E-01
        1   -1    0    0  501    0  0.00000000000E+00  0.00000000000E+00  0.19673087349E+04  0.19673087349E+04  0.50400001928E-02 0. -1.
       -1   -1    0    0    0  501  0.00000000000E+00  0.00000000000E+00 -0.11987206605E+04  0.11987206605E+04  0.50400001928E-02 0.  1.
    10030    2    1    2    0    0  0.00000000000E+00  0.00000000000E+00  0.76858807438E+03  0.31660293954E+04  0.30713212962E+04 0.  0.
        3    1    3    3  502    0 -0.95194862069E+01  0.39281950035E+03  0.19146106139E+04  0.19545156928E+04  0.10100000352E+00 0. -1.
       -3    1    3    3    0  502  0.95194862069E+01 -0.39281950035E+03 -0.11460225395E+04  0.12115137026E+04  0.10100000352E+00 0.  1.
</event>
<event>
 5   0  0.2466076E-06  0.3198745E+04  0.7818609E-02  0.8189149E-01
        2   -1    0    0  501    0  0.00000000000E+00  0.00000000000E+00  0.17694987596E+04  0.17694987596E+04  0.25500000920E-02 0. -1.
       -2   -1    0    0    0  501  0.00000000000E+00  0.00000000000E+00 -0.14456029424E+04  0.14456029424E+04  0.25500000920E-02 0.  1.
    10030    2    1    2    0    0  0.00000000000E+00  0.00000000000E+00  0.32389581722E+03  0.32151017020E+04  0.31987451374E+04 0.  0.
        3    1    3    3  502    0 -0.96794049386E+03 -0.29205271557E+03 -0.10836585605E+04  0.14820659480E+04  0.10100000352E+00 0.  1.
       -3    1    3    3    0  502  0.96794049386E+03  0.29205271557E+03  0.14075543777E+04  0.17330357540E+04  0.10100000352E+00 0. -1.
</event>
<event>
 5   0  0.2404430E-06  0.3125452E+04  0.7818609E-02  0.8208787E-01
        2   -1    0    0  501    0  0.00000000000E+00  0.00000000000E+00  0.25405917803E+04  0.25405917803E+04  0.25500000920E-02 0. -1.
       -2   -1    0    0    0  501  0.00000000000E+00  0.00000000000E+00 -0.96123771795E+03  0.96123771795E+03  0.25500000920E-02 0.  1.
    10030    2    1    2    0    0  0.00000000000E+00  0.00000000000E+00  0.15793540624E+04  0.35018294983E+04  0.31254520602E+04 0.  0.
        4    1    3    3  502    0 -0.25666951077E+03  0.15359476338E+04  0.64317697202E+03  0.16848420110E+04  0.12699999809E+01 0.  1.
       -4    1    3    3    0  502  0.25666951077E+03 -0.15359476338E+04  0.93617709037E+03  0.18169874873E+04  0.12699999809E+01 0. -1.
</event>
<event>
 5   0  0.8681172E-07  0.3191819E+04  0.7818609E-02  0.8190981E-01
        1   -1    0    0  501    0  0.00000000000E+00  0.00000000000E+00  0.19718153556E+04  0.19718153556E+04  0.50400001928E-02 0. -1.
       -1   -1    0    0    0  501  0.00000000000E+00  0.00000000000E+00 -0.12916660841E+04  0.12916660841E+04  0.50400001928E-02 0.  1.
    10030    2    1    2    0    0  0.00000000000E+00  0.00000000000E+00  0.68014927155E+03  0.32634814397E+04  0.31918189290E+04 0.  0.
        1    1    3    3  502    0 -0.12246994965E+04 -0.99654529091E+03  0.10261989737E+03  0.15822522609E+04  0.50400001928E-02 0. -1.
       -1    1    3    3    0  502  0.12246994965E+04  0.99654529091E+03  0.57752937418E+03  0.16812291788E+04  0.50400001928E-02 0.  1.
</event>
<event>
 5   0  0.8512855E-07  0.3045131E+04  0.7818609E-02  0.8230960E-01
        1   -1    0    0  501    0  0.00000000000E+00  0.00000000000E+00  0.18300728451E+04  0.18300728451E+04  0.50400001928E-02 0. -1.
       -1   -1    0    0    0  501  0.00000000000E+00  0.00000000000E+00 -0.12667287099E+04  0.12667287099E+04  0.50400001928E-02 0.  1.
    10030    2    1    2    0    0  0.00000000000E+00  0.00000000000E+00  0.56334413521E+03  0.30968015551E+04  0.30451310738E+04 0.  0.
        5    1    3    3  502    0  0.13635464173E+03 -0.83468404825E+03  0.15692091411E+04  0.17826187106E+04  0.46999998093E+01 0. -1.
       -5    1    3    3    0  502 -0.13635464173E+03  0.83468404825E+03 -0.10058650059E+04  0.13141828445E+04  0.46999998093E+01 0.  1.
</event>
<event>
 5   0  0.2466076E-06  0.3201355E+04  0.7818609E-02  0.8188459E-01
        2   -1    0    0  501    0  0.00000000000E+00  0.00000000000E+00  0.21838307541E+04  0.21838307541E+04  0.25500000920E-02 0. -1.
       -2   -1    0    0    0  501  0.00000000000E+00  0.00000000000E+00 -0.11732448011E+04  0.11732448011E+04  0.25500000920E-02 0.  1.
    10030    2    1    2    0    0  0.00000000000E+00  0.00000000000E+00  0.10105859530E+04  0.33570755552E+04  0.32013547624E+04 0.  0.
        3    1    3    3  502    0  0.14678409418E+03  0.95127750056E+03 -0.83585991783E+03  0.12748083251E+04  0.10100000352E+00 0.  1.
       -3    1    3    3    0  502 -0.14678409418E+03 -0.95127750056E+03  0.18464458708E+04  0.20822672300E+04  0.10100000352E+00 0. -1.
</event>
<event>
 5   0  0.8383008E-07  0.3209631E+04  0.7818609E-02  0.8186278E-01
        1   -1    0    0  501    0  0.00000000000E+00  0.00000000000E+00  0.16478385264E+04  0.16478385264E+04  0.50400001928E-02 0. -1.
       -1   -1    0    0    0  501  0.00000000000E+00  0.00000000000E+00 -0.15629161680E+04  0.15629161681E+04  0.50400001928E-02 0.  1.
    10030    2    1    2    0    0  0.00000000000E+00  0.00000000000E+00  0.84922358351E+02  0.32107546945E+04  0.32096314276E+04 0.  0.
        4    1    3    3  502    0 -0.54981540181E+03 -0.82889156715E+03  0.13022960886E+04  0.16386991553E+04  0.12699999809E+01 0. -1.
       -4    1    3    3    0  502  0.54981540181E+03  0.82889156715E+03 -0.12173737303E+04  0.15720555392E+04  0.12699999809E+01 0.  1.
</event>
<event>
 5   0  0.2466076E-06  0.3118193E+04  0.7818609E-02  0.8210763E-01
        2   -1    0    0  501    0  0.00000000000E+00  0.00000000000E+00  0.20546371388E+04  0.20546371388E+04  0.25500000920E-02 0.  1.
       -2   -1    0    0    0  501  0.00000000000E+00  0.00000000000E+00 -0.11830713909E+04  0.11830713909E+04  0.25500000920E-02 0. -1.
    10030    2    1    2    0    0  0.00000000000E+00  0.00000000000E+00  0.87156574786E+03  0.32377085297E+04  0.31181933343E+04 0.  0.
        3    1    3    3  502    0  0.10005436219E+04  0.35312911820E+03 -0.75036567940E+03  0.12995523754E+04  0.10100000352E+00 0. -1.
       -3    1    3    3    0  502 -0.10005436219E+04 -0.35312911820E+03  0.16219314273E+04  0.19381561543E+04  0.10100000352E+00 0.  1.
</event>
<event>
 5   0  0.7934375E-07  0.3141847E+04  0.7818609E-02  0.8204346E-01
        3   -1    0    0  501    0  0.00000000000E+00  0.00000000000E+00  0.13669896348E+04  0.13669896386E+04  0.10100000352E+00 0. -1.
       -3   -1    0    0    0  501  0.00000000000E+00  0.00000000000E+00 -0.18052809655E+04  0.18052809684E+04  0.10100000352E+00 0.  1.
    10030    2    1    2    0    0  0.00000000000E+00  0.00000000000E+00 -0.43829133070E+03  0.31722706069E+04  0.31418468316E+04 0.  0.
        2    1    3    3  502    0  0.10500670097E+04 -0.79480100499E+03  0.64556492019E+03  0.14666640477E+04  0.25500000920E-02 0. -1.
       -2    1    3    3    0  502 -0.10500670097E+04  0.79480100499E+03 -0.10838562509E+04  0.17056065593E+04  0.25500000920E-02 0.  1.
</event>
<event>
 5   0  0.8487944E-07  0.3249166E+04  0.7818609E-02  0.8175952E-01
        1   -1    0    0  501    0  0.00000000000E+00  0.00000000000E+00  0.15832609510E+04  0.15832609510E+04  0.50400001928E-02 0. -1.
       -1   -1    0    0    0  501  0.00000000000E+00  0.00000000000E+00 -0.16669831818E+04  0.16669831818E+04  0.50400001928E-02 0.  1.
    10030    2    1    2    0    0  0.00000000000E+00  0.00000000000E+00 -0.83722230821E+02  0.32502441329E+04  0.32491656639E+04 0.  0.
        2    1    3    3  502    0 -0.53238731125E+03 -0.13719258692E+04 -0.73031374380E+03  0.16428557466E+04  0.25500000920E-02 0.  1.
       -2    1    3    3    0  502  0.53238731125E+03  0.13719258692E+04  0.64659151298E+03  0.16073883863E+04  0.25500000920E-02 0. -1.
</event>
<event>
 5   0  0.2401139E-06  0.3248518E+04  0.7818609E-02  0.8176120E-01
        2   -1    0    0  501    0  0.00000000000E+00  0.00000000000E+00  0.17220419508E+04  0.17220419508E+04  0.25500000920E-02 0.  1.
       -2   -1    0    0    0  501  0.00000000000E+00  0.00000000000E+00 -0.15320288637E+04  0.15320288637E+04  0.25500000920E-02 0. -1.
    10030    2    1    2    0    0  0.00000000000E+00  0.00000000000E+00  0.19001308711E+03  0.32540708146E+04  0.32485184150E+04 0.  0.
        5    1    3    3  502    0  0.75223732765E+03 -0.14296298430E+04  0.26409493349E+03  0.16369088885E+04  0.46999998093E+01 0. -1.
       -5    1    3    3    0  502 -0.75223732765E+03  0.14296298430E+04 -0.74081846378E+02  0.16171619261E+04  0.46999998093E+01 0.  1.
</event>
<event>
 5   0  0.8681172E-07  0.2946809E+04  0.7818609E-02  0.8259085E-01
        1   -1    0    0  501    0  0.00000000000E+00  0.00000000000E+00  0.19541528256E+04  0.19541528256E+04  0.50400001928E-02 0. -1.
       -1   -1    0    0    0  501  0.00000000000E+00  0.00000000000E+00 -0.11109271703E+04  0.11109271704E+04  0.50400001928E-02 0.  1.
    10030    2    1    2    0    0  0.00000000000E+00  0.00000000000E+00  0.84322565524E+03  0.30650799959E+04  0.29468094400E+04 0.  0.
        1    1    3    3  502    0  0.28243918063E+03  0.79475819905E+03 -0.83497586519E+03  0.11868433684E+04  0.50400001928E-02 0.  1.
       -1    1    3    3    0  502 -0.28243918063E+03 -0.79475819905E+03  0.16782015204E+04  0.18782366275E+04  0.50400001928E-02 0. -1.
</event>
<event>
 5   0  0.8681172E-07  0.3478302E+04  0.7818609E-02  0.8118951E-01
        1   -1    0    0  501    0  0.00000000000E+00  0.00000000000E+00  0.27648924510E+04  0.27648924510E+04  0.50400001928E-02 0.  1.
       -1   -1    0    0    0  501  0.00000000000E+00  0.00000000000E+00 -0.10939470646E+04  0.10939470646E+04  0.50400001928E-02 0. -1.
    10030    2    1    2    0    0  0.00000000000E+00  0.00000000000E+00  0.16709453864E+04  0.38588395156E+04  0.34783018734E+04 0.  0.
        1    1    3    3  502    0 -0.11798469791E+04 -0.10079299450E+04  0.17066787718E+04  0.23066673142E+04  0.50400001928E-02 0.  1.
       -1    1    3    3    0  502  0.11798469791E+04  0.10079299450E+04 -0.35733385369E+02  0.15521722014E+04  0.50400001928E-02 0. -1.
</event>
<event>
 5   0  0.2466076E-06  0.3218155E+04  0.7818609E-02  0.8184039E-01
       -2   -1    0    0    0  501  0.00000000000E+00  0.00000000000E+00  0.15631555763E+04  0.15631555763E+04  0.25500000920E-02 0.  1.
        2   -1    0    0  501    0  0.00000000000E+00  0.00000000000E+00 -0.16563486138E+04  0.16563486138E+04  0.25500000920E-02 0. -1.
    10030    2    1    2    0    0  0.00000000000E+00  0.00000000000E+00 -0.93193037464E+02  0.32195041901E+04  0.32181551063E+04 0.  0.
        3    1    3    3  502    0  0.77011967551E+02 -0.14081594247E+04  0.72851002346E+03  0.15873155555E+04  0.10100000352E+00 0.  1.
       -3    1    3    3    0  502 -0.77011967551E+02  0.14081594247E+04 -0.82170306092E+03  0.16321886346E+04  0.10100000352E+00 0. -1.
</event>
<event>
 5   0  0.8383008E-07  0.3243908E+04  0.7818609E-02  0.8177317E-01
        1   -1    0    0  501    0  0.00000000000E+00  0.00000000000E+00  0.11191838815E+04  0.11191838815E+04  0.50400001928E-02 0. -1.
       -1   -1    0    0    0  501  0.00000000000E+00  0.00000000000E+00 -0.23505825734E+04  0.23505825734E+04  0.50400001928E-02 0.  1.
    10030    2    1    2    0    0  0.00000000000E+00  0.00000000000E+00 -0.12313986919E+04  0.34697664549E+04  0.32439075994E+04 0.  0.
        4    1    3    3  502    0 -0.78755325340E+02 -0.74025801839E+03 -0.21570546988E+04  0.22819007256E+04  0.12699999809E+01 0.  1.
       -4    1    3    3    0  502  0.78755325340E+02  0.74025801839E+03  0.92565600686E+03  0.11878657294E+04  0.12699999809E+01 0. -1.
</event>
<event>
 5   0  0.8681172E-07  0.3182583E+04  0.7818609E-02  0.8193432E-01
        1   -1    0    0  501    0  0.00000000000E+00  0.00000000000E+00  0.11983896021E+04  0.11983896021E+04  0.50400001928E-02 0.  1.
       -1   -1    0    0    0  501  0.00000000000E+00  0.00000000000E+00 -0.21130093717E+04  0.21130093717E+04  0.50400001928E-02 0. -1.
    10030    2    1    2    0    0  0.00000000000E+00  0.00000000000E+00 -0.91461976955E+03  0.33113989738E+04  0.31825828883E+04 0.  0.
        1    1    3    3  502    0  0.11465073379E+04 -0.44202299570E+03 -0.15093457288E+04  0.19462754002E+04  0.50400001928E-02 0. -1.
       -1    1    3    3    0  502 -0.11465073379E+04  0.44202299570E+03  0.59472595921E+03  0.13651235736E+04  0.50400001928E-02 0.  1.
</event>
<event>
 5   0  0.2401139E-06  0.3205679E+04  0.7818609E-02  0.8187319E-01
        2   -1    0    0  501    0  0.00000000000E+00  0.00000000000E+00  0.22239845970E+04  0.22239845970E+04  0.25500000920E-02 0.  1.
       -2   -1    0    0    0  501  0.00000000000E+00  0.00000000000E+00 -0.11551764221E+04  0.11551764221E+04  0.25500000920E-02 0. -1.
    10030    2    1    2    0    0  0.00000000000E+00  0.00000000000E+00  0.10688081749E+04  0.33791610192E+04  0.32056790667E+04 0.  0.
        5    1    3    3  502    0  0.13518251364E+04  0.50950538144E+03  0.12662722970E+04  0.19210659940E+04  0.46999998093E+01 0.  1.
       -5    1    3    3    0  502 -0.13518251364E+04 -0.50950538144E+03 -0.19746412213E+03  0.14580950252E+04  0.46999998093E+01 0. -1.
</event>
<event>
 5   0  0.8512855E-07  0.3235222E+04  0.7818609E-02  0.8179577E-01
        1   -1    0    0  501    0  0.00000000000E+00  0.00000000000E+00  0.16482059506E+04  0.16482059506E+04  0.50400001928E-02 0. -1.
       -1   -1    0    0    0  501  0.00000000000E+00  0.00000000000E+00 -0.15875842415E+04  0.15875842415E+04  0.50400001928E-02 0.  1.
    10030    2    1    2    0    0  0.00000000000E+00  0.00000000000E+00  0.60621709075E+02  0.32357901922E+04  0.32352222761E+04 0.  0.
        5    1    3    3  502    0  0.67745249138E+03 -0.95004152144E+03  0.11508302094E+04  0.16388877422E+04  0.46999998093E+01 0. -1.
       -5    1    3    3    0  502 -0.67745249138E+03  0.95004152144E+03 -0.10902085003E+04  0.15969024500E+04  0.46999998093E+01 0.  1.
</event>
<event>
 5   0  0.2466076E-06  0.3206111E+04  0.7818609E-02  0.8187205E-01
        2   -1    0    0  501    0  0.00000000000E+00  0.00000000000E+00  0.15251696060E+04  0.15251696060E+04  0.25500000920E-02 0.  1.
       -2   -1    0    0    0  501  0.00000000000E+00  0.00000000000E+00 -0.16849190590E+04  0.16849190590E+04  0.25500000920E-02 0. -1.
    10030    2    1    2    0    0  0.00000000000E+00  0.00000000000E+00 -0.15974945299E+03  0.32100886650E+04  0.32061112503E+04 0.  0.
        3    1    3    3  502    0 -0.11115858020E+03  0.42827507967E+03 -0.16225689527E+04  0.16818162178E+04  0.10100000352E+00 0. -1.
       -3    1    3    3    0  502  0.11115858020E+03 -0.42827507967E+03  0.14628194997E+04  0.15282724472E+04  0.10100000352E+00 0.  1.
</event>
<event>
 5   0  0.8487944E-07  0.3198380E+04  0.7818609E-02  0.8189245E-01
        1   -1    0    0  501    0  0.00000000000E+00  0.00000000000E+00  0.16995795154E+04  0.16995795154E+04  0.50400001928E-02 0. -1.
       -1   -1    0    0    0  501  0.00000000000E+00  0.00000000000E+00 -0.15047304183E+04  0.15047304183E+04  0.50400001928E-02 0.  1.
    10030    2    1    2    0    0  0.00000000000E+00  0.00000000000E+00  0.19484909704E+03  0.32043099337E+04  0.31983802120E+04 0.  0.
        2    1    3    3  502    0  0.50685307580E+03  0.90666562750E+03  0.13156008741E+04  0.16762303722E+04  0.25500000920E-02 0. -1.
       -2    1    3    3    0  502 -0.50685307580E+03 -0.90666562750E+03 -0.11207517771E+04  0.15280795615E+04  0.25500000920E-02 0.  1.
</event>
<event>
 5   0  0.8383008E-07  0.3237334E+04  0.7818609E-02  0.8179026E-01
        1   -1    0    0  501    0  0.00000000000E+00  0.00000000000E+00  0.19638751281E+04  0.19638751281E+04  0.50400001928E-02 0.  1.
       -1   -1    0    0    0  501  0.00000000000E+00  0.00000000000E+00 -0.13341391404E+04  0.13341391404E+04  0.50400001928E-02 0. -1.
    10030    2    1    2    0    0  0.00000000000E+00  0.00000000000E+00  0.62973598766E+03  0.32980142685E+04  0.32373338878E+04 0.  0.
        4    1    3    3  502    0 -0.94658251591E+03 -0.86264451346E+03 -0.69358922045E+03  0.14564482949E+04  0.12699999809E+01 0. -1.
       -4    1    3    3    0  502  0.94658251591E+03  0.86264451346E+03  0.13233252081E+04  0.18415659737E+04  0.12699999809E+01 0.  1.
</event>
<event>
 5   0  0.8681172E-07  0.3180956E+04  0.7818609E-02  0.8193865E-01
        1   -1    0    0  501    0  0.00000000000E+00  0.00000000000E+00  0.15607652579E+04  0.15607652579E+04  0.50400001928E-02 0.  1.
       -1   -1    0    0    0  501  0.00000000000E+00  0.00000000000E+00 -0.16207563440E+04  0.16207563440E+04  0.50400001928E-02 0. -1.
    10030    2    1    2    0    0  0.00000000000E+00  0.00000000000E+00 -0.59991086100E+02  0.31815216020E+04  0.31809559528E+04 0.  0.
        1    1    3    3  502    0 -0.52260823928E+03 -0.11944006215E+04 -0.94115039146E+03  0.16079416270E+04  0.50400001928E-02 0. -1.
       -1    1    3    3    0  502  0.52260823928E+03  0.11944006215E+04  0.88115930536E+03  0.15735799750E+04  0.50400001928E-02 0.  1.
</event>
<event>
 5   0  0.8383008E-07  0.3173759E+04  0.7818609E-02  0.8195782E-01
        1   -1    0    0  501    0  0.00000000000E+00  0.00000000000E+00  0.14637002399E+04  0.14637002399E+04  0.50400001928E-02 0.  1.
       -1   -1    0    0    0  501  0.00000000000E+00  0.00000000000E+00 -0.17204247887E+04  0.17204247887E+04  0.50400001928E-02 0. -1.
    10030    2    1    2    0    0  0.00000000000E+00  0.00000000000E+00 -0.25672454879E+03  0.31841250287E+04  0.31737587659E+04 0.  0.
        4    1    3    3  502    0 -0.86091143116E+03  0.68391018677E+03  0.10196141033E+04  0.14995053079E+04  0.12699999809E+01 0. -1.
       -4    1    3    3    0  502  0.86091143116E+03 -0.68391018677E+03 -0.12763386521E+04  0.16846197208E+04  0.12699999809E+01 0.  1.
</event>
<event>
 5   0  0.2621528E-06  0.3243398E+04  0.7818609E-02  0.8177449E-01
        2   -1    0    0  501    0  0.00000000000E+00  0.00000000000E+00  0.18810273397E+04  0.18810273397E+04  0.25500000920E-02 0.  1.
       -2   -1    0    0    0  501  0.00000000000E+00  0.00000000000E+00 -0.13981228139E+04  0.13981228139E+04  0.25500000920E-02 0. -1.
    10030    2    1    2    0    0  0.00000000000E+00  0.00000000000E+00  0.48290452584E+03  0.32791501536E+04  0.32433977475E+04 0.  0.
        2    1    3    3  502    0  0.40088524711E+03  0.10999107572E+04 -0.89314570965E+03  0.14724883408E+04  0.25500000920E-02 0. -1.
       -2    1    3    3    0  502 -0.40088524711E+03 -0.10999107572E+04  0.13760502355E+04  0.18066618128E+04  0.25500000920E-02 0.  1.
</event>
<event>
 5   0  0.2337504E-06  0.3213818E+04  0.7818609E-02  0.8185177E-01
       -2   -1    0    0    0  501  0.00000000000E+00  0.00000000000E+00  0.13704692238E+04  0.13704692238E+04  0.25500000920E-02 0.  1.
        2   -1    0    0  501    0  0.00000000000E+00  0.00000000000E+00 -0.18841409404E+04  0.18841409404E+04  0.25500000920E-02 0. -1.
    10030    2    1    2    0    0  0.00000000000E+00  0.00000000000E+00 -0.51367171659E+03  0.32546101642E+04  0.32138183969E+04 0.  0.
        1    1    3    3  502    0  0.11904844568E+04 -0.10291055002E+04  0.72633066051E+02  0.15753053465E+04  0.50400001928E-02 0.  1.
       -1    1    3    3    0  502 -0.11904844568E+04  0.10291055002E+04 -0.58630478264E+03  0.16793048176E+04  0.50400001928E-02 0. -1.
</event>
<event>
 5   0  0.2466076E-06  0.3209951E+04  0.7818609E-02  0.8186194E-01
        2   -1    0    0  501    0  0.00000000000E+00  0.00000000000E+00  0.84187930391E+03  0.84187930391E+03  0.25500000920E-02 0.  1.
       -2   -1    0    0    0  501  0.00000000000E+00  0.00000000000E+00 -0.30597569642E+04  0.30597569642E+04  0.25500000920E-02 0. -1.
    10030    2    1    2    0    0  0.00000000000E+00  0.00000000000E+00 -0.22178776603E+04  0.39016362681E+04  0.32099508178E+04 0.  0.
        3    1    3    3  502    0 -0.97976021455E+03 -0.10857501085E+04 -0.30528329607E+03  0.14939816857E+04  0.10100000352E+00 0.  1.
       -3    1    3    3    0  502  0.97976021455E+03  0.10857501085E+04 -0.19125943642E+04  0.24076545824E+04  0.10100000352E+00 0. -1.
</event>
<event>
 5   0  0.2337504E-06  0.3552267E+04  0.7818609E-02  0.8101514E-01
       -2   -1    0    0    0  501  0.00000000000E+00  0.00000000000E+00  0.16666286037E+04  0.16666286037E+04  0.25500000920E-02 0.  1.
        2   -1    0    0  501    0  0.00000000000E+00  0.00000000000E+00 -0.18928337373E+04  0.18928337373E+04  0.25500000920E-02 0. -1.
    10030    2    1    2    0    0  0.00000000000E+00  0.00000000000E+00 -0.22620513361E+03  0.35594623410E+04  0.35522673597E+04 0.  0.
        1    1    3    3  502    0  0.15963100513E+04 -0.20696755604E+03 -0.86536246245E+03  0.18275375620E+04  0.50400001928E-02 0. -1.
       -1    1    3    3    0  502 -0.15963100513E+04  0.20696755604E+03  0.63915732884E+03  0.17319247790E+04  0.50400001928E-02 0.  1.
</event>
<event>
 5   0  0.2404430E-06  0.3177628E+04  0.7818609E-02  0.8194751E-01
       -2   -1    0    0    0  501  0.00000000000E+00  0.00000000000E+00  0.91713033394E+03  0.91713033395E+03  0.25500000920E-02 0. -1.
        2   -1    0    0  501    0  0.00000000000E+00  0.00000000000E+00 -0.27524220407E+04  0.27524220407E+04  0.25500000920E-02 0.  1.
    10030    2    1    2    0    0  0.00000000000E+00  0.00000000000E+00 -0.18352917068E+04  0.36695523747E+04  0.31776278859E+04 0.  0.
        4    1    3    3  502    0  0.15590777937E+04 -0.27300423480E+03 -0.75815989856E+03  0.17550108044E+04  0.12699999809E+01 0. -1.
       -4    1    3    3    0  502 -0.15590777937E+04  0.27300423480E+03 -0.10771318082E+04  0.19145415702E+04  0.12699999809E+01 0.  1.
</event>
<event>
 5   0  0.8545153E-07  0.3302552E+04  0.7818609E-02  0.8162246E-01
        1   -1    0    0  501    0  0.00000000000E+00  0.00000000000E+00  0.81474690923E+03  0.81474690925E+03  0.50400001928E-02 0.  1.
       -1   -1    0    0    0  501  0.00000000000E+00  0.00000000000E+00 -0.33466980845E+04  0.33466980845E+04  0.50400001928E-02 0. -1.
    10030    2    1    2    0    0  0.00000000000E+00  0.00000000000E+00 -0.25319511752E+04  0.41614449937E+04  0.33025516925E+04 0.  0.
        3    1    3    3  502    0  0.62216587355E+03 -0.54286550367E+03 -0.30678833036E+04  0.31770585931E+04  0.10100000352E+00 0. -1.
       -3    1    3    3    0  502 -0.62216587355E+03  0.54286550367E+03  0.53593212837E+03  0.98438640061E+03  0.10100000352E+00 0.  1.
</event>
<event>
 5   0  0.8681172E-07  0.3283050E+04  0.7818609E-02  0.8167222E-01
        1   -1    0    0  501    0  0.00000000000E+00  0.00000000000E+00  0.13038673417E+04  0.13038673417E+04  0.50400001928E-02 0. -1.
       -1   -1    0    0    0  501  0.00000000000E+00  0.00000000000E+00 -0.20666249142E+04  0.20666249142E+04  0.50400001928E-02 0.  1.
    10030    2    1    2    0    0  0.00000000000E+00  0.00000000000E+00 -0.76275757254E+03  0.33704922559E+04  0.32830502483E+04 0.  0.
        1    1    3    3  502    0  0.12452637609E+04 -0.99478354496E+03  0.21931230568E+02  0.15939752553E+04  0.50400001928E-02 0. -1.
       -1    1    3    3    0  502 -0.12452637609E+04  0.99478354496E+03 -0.78468880311E+03  0.17765170006E+04  0.50400001928E-02 0.  1.
</event>
<event>
 5   0  0.7934375E-07  0.3206251E+04  0.7818609E-02  0.8187168E-01
        3   -1    0    0  501    0  0.00000000000E+00  0.00000000000E+00  0.11177964377E+04  0.11177964422E+04  0.10100000352E+00 0.  1.
       -3   -1    0    0    0  501  0.00000000000E+00  0.00000000000E+00 -0.22991765508E+04  0.22991765530E+04  0.10100000352E+00 0. -1.
    10030    2    1    2    0    0  0.00000000000E+00  0.00000000000E+00 -0.11813801131E+04  0.34169729952E+04  0.32062510005E+04 0.  0.
        4    1    3    3  502    0  0.79812787787E+03  0.98224474779E+03  0.45794862346E+03  0.13459314279E+04  0.12699999809E+01 0.  1.
       -4    1    3    3    0  502 -0.79812787787E+03 -0.98224474779E+03 -0.16393287366E+04  0.20710415673E+04  0.12699999809E+01 0. -1.
</event>
<event>
 5   0  0.8681172E-07  0.3160385E+04  0.7818609E-02  0.8199358E-01
       -1   -1    0    0    0  501  0.00000000000E+00  0.00000000000E+00  0.98191428270E+03  0.98191428272E+03  0.50400001928E-02 0.  1.
        1   -1    0    0  501    0  0.00000000000E+00  0.00000000000E+00 -0.25430008498E+04  0.25430008498E+04  0.50400001928E-02 0. -1.
    10030    2    1    2    0    0  0.00000000000E+00  0.00000000000E+00 -0.15610865671E+04  0.35249151325E+04  0.31603853280E+04 0.  0.
        1    1    3    3  502    0 -0.11357326174E+04 -0.27957255003E+02  0.44447692445E+03  0.12199302942E+04  0.50400001928E-02 0.  1.
       -1    1    3    3    0  502  0.11357326174E+04  0.27957255003E+02 -0.20055634916E+04  0.23049848383E+04  0.50400001928E-02 0. -1.
</event>
<event>
 5   0  0.8383008E-07  0.3136614E+04  0.7818609E-02  0.8205761E-01
        1   -1    0    0  501    0  0.00000000000E+00  0.00000000000E+00  0.23128598539E+04  0.23128598539E+04  0.50400001928E-02 0.  1.
       -1   -1    0    0    0  501  0.00000000000E+00  0.00000000000E+00 -0.10634397918E+04  0.10634397918E+04  0.50400001928E-02 0. -1.
    10030    2    1    2    0    0  0.00000000000E+00  0.00000000000E+00  0.12494200621E+04  0.33762996457E+04  0.31366142265E+04 0.  0.
        4    1    3    3  502    0 -0.72467199081E+02 -0.17742837305E+03  0.23002061715E+04  0.23081772824E+04  0.12699999809E+01 0.  1.
       -4    1    3    3    0  502  0.72467199081E+02  0.17742837305E+03 -0.10507861094E+04  0.10681223633E+04  0.12699999809E+01 0. -1.
</event>
<event>
 5   0  0.8545153E-07  0.3176277E+04  0.7818609E-02  0.8195111E-01
       -1   -1    0    0    0  501  0.00000000000E+00  0.00000000000E+00  0.14160102742E+04  0.14160102742E+04  0.50400001928E-02 0.  1.
        1   -1    0    0  501    0  0.00000000000E+00  0.00000000000E+00 -0.17811902145E+04  0.17811902145E+04  0.50400001928E-02 0. -1.
    10030    2    1    2    0    0  0.00000000000E+00  0.00000000000E+00 -0.36517994025E+03  0.31972004887E+04  0.31762768419E+04 0.  0.
        3    1    3    3  502    0  0.37629327443E+03  0.15189084019E+04  0.90312717900E+02  0.15674296663E+04  0.10100000352E+00 0. -1.
       -3    1    3    3    0  502 -0.37629327443E+03 -0.15189084019E+04 -0.45549265815E+03  0.16297708224E+04  0.10100000352E+00 0.  1.
</event>
<event>
 5   0  0.2404430E-06  0.3223336E+04  0.7818609E-02  0.8182681E-01
        2   -1    0    0  501    0  0.00000000000E+00  0.00000000000E+00  0.16951769385E+04  0.16951769385E+04  0.25500000920E-02 0. -1.
       -2   -1    0    0    0  501  0.00000000000E+00  0.00000000000E+00 -0.15322732117E+04  0.15322732117E+04  0.25500000920E-02 0.  1.
    10030    2    1    2    0    0  0.00000000000E+00  0.00000000000E+00  0.16290372673E+03  0.32274501502E+04  0.32233362915E+04 0.  0.
        4    1    3    3  502    0  0.13941081038E+04  0.22917685848E+03  0.85794994863E+03  0.16529183782E+04  0.12699999809E+01 0. -1.
       -4    1    3    3    0  502 -0.13941081038E+04 -0.22917685848E+03 -0.69504622190E+03  0.15745317720E+04  0.12699999809E+01 0.  1.
</event>
<event>
 5   0  0.8487944E-07  0.2632078E+04  0.7818609E-02  0.8357386E-01
        1   -1    0    0  501    0  0.00000000000E+00  0.00000000000E+00  0.17490824702E+04  0.17490824702E+04  0.50400001928E-02 0. -1.
       -1   -1    0    0    0  501  0.00000000000E+00  0.00000000000E+00 -0.99021019905E+03  0.99021019906E+03  0.50400001928E-02 0.  1.
    10030    2    1    2    0    0  0.00000000000E+00  0.00000000000E+00  0.75887227116E+03  0.27392926693E+04  0.26320784950E+04 0.  0.
        2    1    3    3  502    0  0.36329014879E+03  0.14772402053E+03  0.16868549384E+04  0.17318434403E+04  0.25500000920E-02 0. -1.
       -2    1    3    3    0  502 -0.36329014879E+03 -0.14772402053E+03 -0.92798266720E+03  0.10074492290E+04  0.25500000920E-02 0.  1.
</event>
<event>
 5   0  0.8545153E-07  0.3218798E+04  0.7818609E-02  0.8183870E-01
       -1   -1    0    0    0  501  0.00000000000E+00  0.00000000000E+00  0.16724143959E+04  0.16724143959E+04  0.50400001928E-02 0.  1.
        1   -1    0    0  501    0  0.00000000000E+00  0.00000000000E+00 -0.15487578219E+04  0.15487578219E+04  0.50400001928E-02 0. -1.
    10030    2    1    2    0    0  0.00000000000E+00  0.00000000000E+00  0.12365657399E+03  0.32211722177E+04  0.32187978358E+04 0.  0.
        3    1    3    3  502    0 -0.67827359849E+03  0.12343903589E+04  0.84111333440E+03  0.16405018391E+04  0.10100000352E+00 0.  1.
       -3    1    3    3    0  502  0.67827359849E+03 -0.12343903589E+04 -0.71745676041E+03  0.15806703786E+04  0.10100000352E+00 0. -1.
</event>
<event>
 5   0  0.2401139E-06  0.3201631E+04  0.7818609E-02  0.8188387E-01
       -2   -1    0    0    0  501  0.00000000000E+00  0.00000000000E+00  0.10146256116E+04  0.10146256116E+04  0.25500000920E-02 0.  1.
        2   -1    0    0  501    0  0.00000000000E+00  0.00000000000E+00 -0.25256707187E+04  0.25256707187E+04  0.25500000920E-02 0. -1.
    10030    2    1    2    0    0  0.00000000000E+00  0.00000000000E+00 -0.15110451072E+04  0.35402963303E+04  0.32016309579E+04 0.  0.
        5    1    3    3  502    0 -0.41021754947E+03  0.77004026537E+02  0.95339087177E+03  0.10407614051E+04  0.46999998093E+01 0.  1.
       -5    1    3    3    0  502  0.41021754947E+03 -0.77004026537E+02 -0.24644359789E+04  0.24995349252E+04  0.46999998093E+01 0. -1.
</event>
<event>
 5   0  0.8487944E-07  0.3213667E+04  0.7818609E-02  0.8185217E-01
        1   -1    0    0  501    0  0.00000000000E+00  0.00000000000E+00  0.10767971315E+04  0.10767971315E+04  0.50400001928E-02 0.  1.
       -1   -1    0    0    0  501  0.00000000000E+00  0.00000000000E+00 -0.23977722996E+04  0.23977722996E+04  0.50400001928E-02 0. -1.
    10030    2    1    2    0    0  0.00000000000E+00  0.00000000000E+00 -0.13209751681E+04  0.34745694311E+04  0.32136672722E+04 0.  0.
        2    1    3    3  502    0 -0.71906028335E+03 -0.90003938697E+03  0.55063081849E+03  0.12768370638E+04  0.25500000920E-02 0.  1.
       -2    1    3    3    0  502  0.71906028335E+03  0.90003938697E+03 -0.18716059866E+04  0.21977323673E+04  0.25500000920E-02 0. -1.
</event>
<event>
 5   0  0.8512855E-07  0.3040589E+04  0.7818609E-02  0.8232234E-01
       -1   -1    0    0    0  501  0.00000000000E+00  0.00000000000E+00  0.99985647293E+03  0.99985647294E+03  0.50400001928E-02 0.  1.
        1   -1    0    0  501    0  0.00000000000E+00  0.00000000000E+00 -0.23116277425E+04  0.23116277425E+04  0.50400001928E-02 0. -1.
    10030    2    1    2    0    0  0.00000000000E+00  0.00000000000E+00 -0.13117712696E+04  0.33114842155E+04  0.30405893911E+04 0.  0.
        5    1    3    3  502    0  0.11833655349E+04  0.93569431571E+03 -0.86078574390E+03  0.17369087565E+04  0.46999998093E+01 0.  1.
       -5    1    3    3    0  502 -0.11833655349E+04 -0.93569431571E+03 -0.45098552568E+03  0.15745754589E+04  0.46999998093E+01 0. -1.
</event>
<event>
 5   0  0.8512855E-07  0.3203885E+04  0.7818609E-02  0.8187792E-01
       -1   -1    0    0    0  501  0.00000000000E+00  0.00000000000E+00  0.12979348617E+04  0.12979348617E+04  0.50400001928E-02 0.  1.
        1   -1    0    0  501    0  0.00000000000E+00  0.00000000000E+00 -0.19771556531E+04  0.19771556531E+04  0.50400001928E-02 0. -1.
    10030    2    1    2    0    0  0.00000000000E+00  0.00000000000E+00 -0.67922079142E+03  0.32750905148E+04  0.32038846728E+04 0.  0.
        5    1    3    3  502    0 -0.13947541675E+03  0.15861197531E+04 -0.51949843253E+03  0.16748522247E+04  0.46999998093E+01 0. -1.
       -5    1    3    3    0  502  0.13947541675E+03 -0.15861197531E+04 -0.15972235889E+03  0.16002382901E+04  0.46999998093E+01 0.  1.
</event>
<event>
 5   0  0.2621528E-06  0.3215387E+04  0.7818609E-02  0.8184765E-01
       -2   -1    0    0    0  501  0.00000000000E+00  0.00000000000E+00  0.10622909693E+04  0.10622909693E+04  0.25500000920E-02 0. -1.
        2   -1    0    0  501    0  0.00000000000E+00  0.00000000000E+00 -0.24331169810E+04  0.24331169810E+04  0.25500000920E-02 0.  1.
    10030    2    1    2    0    0  0.00000000000E+00  0.00000000000E+00 -0.13708260117E+04  0.34954079503E+04  0.32153868795E+04 0.  0.
        2    1    3    3  502    0  0.91940264819E+03  0.10026021167E+04  0.24604173448E+03  0.13824068754E+04  0.25500000920E-02 0. -1.
       -2    1    3    3    0  502 -0.91940264819E+03 -0.10026021167E+04 -0.16168677462E+04  0.21130010749E+04  0.25500000920E-02 0.  1.
</event>
<event>
 5   0  0.2621528E-06  0.3220519E+04  0.7818609E-02  0.8183419E-01
       -2   -1    0    0    0  501  0.00000000000E+00  0.00000000000E+00  0.24499964167E+04  0.24499964167E+04  0.25500000920E-02 0. -1.
        2   -1    0    0  501    0  0.00000000000E+00  0.00000000000E+00 -0.10583423657E+04  0.10583423658E+04  0.25500000920E-02 0.  1.
    10030    2    1    2    0    0  0.00000000000E+00  0.00000000000E+00  0.13916540509E+04  0.35083387824E+04  0.32205185941E+04 0.  0.
        2    1    3    3  502    0 -0.14792431330E+04 -0.13405237359E+03  0.13733462066E+04  0.20229211770E+04  0.25500000920E-02 0. -1.
       -2    1    3    3    0  502  0.14792431330E+04  0.13405237359E+03  0.18307844336E+02  0.14854176054E+04  0.25500000920E-02 0.  1.
</event>
<event>
 5   0  0.2401139E-06  0.2974560E+04  0.7818609E-02  0.8251033E-01
        2   -1    0    0  501    0  0.00000000000E+00  0.00000000000E+00  0.25864412903E+04  0.25864412903E+04  0.25500000920E-02 0.  1.
       -2   -1    0    0    0  501  0.00000000000E+00  0.00000000000E+00 -0.85522992189E+03  0.85522992189E+03  0.25500000920E-02 0. -1.
    10030    2    1    2    0    0  0.00000000000E+00  0.00000000000E+00  0.17312113684E+04  0.34416712122E+04  0.29745601239E+04 0.  0.
        5    1    3    3  502    0 -0.96609521527E+03  0.11244402497E+04  0.72736996602E+03  0.16513010015E+04  0.46999998093E+01 0. -1.
       -5    1    3    3    0  502  0.96609521527E+03 -0.11244402497E+04  0.10038414024E+04  0.17903702107E+04  0.46999998093E+01 0.  1.
</event>
<event>
 5   0  0.2404430E-06  0.3196848E+04  0.7818609E-02  0.8189650E-01
       -2   -1    0    0    0  501  0.00000000000E+00  0.00000000000E+00  0.98413660128E+03  0.98413660128E+03  0.25500000920E-02 0.  1.
        2   -1    0    0  501    0  0.00000000000E+00  0.00000000000E+00 -0.25961426266E+04  0.25961426266E+04  0.25500000920E-02 0. -1.
    10030    2    1    2    0    0  0.00000000000E+00  0.00000000000E+00 -0.16120060253E+04  0.35802792278E+04  0.31968478105E+04 0.  0.
        4    1    3    3  502    0  0.67657796053E+03  0.14157598588E+02  0.81578493591E+03  0.10599362475E+04  0.12699999809E+01 0.  1.
       -4    1    3    3    0  502 -0.67657796053E+03 -0.14157598588E+02 -0.24277909612E+04  0.25203429803E+04  0.12699999809E+01 0. -1.
</event>
<event>
 5   0  0.8681172E-07  0.3179806E+04  0.7818609E-02  0.8194171E-01
        1   -1    0    0  501    0  0.00000000000E+00  0.00000000000E+00  0.21098992227E+04  0.21098992227E+04  0.50400001928E-02 0.  1.
       -1   -1    0    0    0  501  0.00000000000E+00  0.00000000000E+00 -0.11980626626E+04  0.11980626627E+04  0.50400001928E-02 0. -1.
    10030    2    1    2    0    0  0.00000000000E+00  0.00000000000E+00  0.91183656010E+03  0.33079618854E+04  0.31798059568E+04 0.  0.
        1    1    3    3  502    0 -0.74712728587E+03  0.17253729376E+03 -0.99299018876E+03  0.12545906958E+04  0.50400001928E-02 0. -1.
       -1    1    3    3    0  502  0.74712728587E+03 -0.17253729376E+03  0.19048267489E+04  0.20533711896E+04  0.50400001928E-02 0.  1.
</event>
<event>
 5   0  0.2404430E-06  0.3095375E+04  0.7818609E-02  0.8217008E-01
        2   -1    0    0  501    0  0.00000000000E+00  0.00000000000E+00  0.24084528372E+04  0.24084528372E+04  0.25500000920E-02 0. -1.
       -2   -1    0    0    0  501  0.00000000000E+00  0.00000000000E+00 -0.99455390059E+03  0.99455390059E+03  0.25500000920E-02 0.  1.
    10030    2    1    2    0    0  0.00000000000E+00  0.00000000000E+00  0.14138989366E+04  0.34030067378E+04  0.30953747196E+04 0.  0.
        4    1    3    3  502    0 -0.51733732617E+03 -0.11721746685E+04  0.16613919337E+04  0.20980600880E+04  0.12699999809E+01 0. -1.
       -4    1    3    3    0  502  0.51733732617E+03  0.11721746685E+04 -0.24749299705E+03  0.13049466499E+04  0.12699999809E+01 0.  1.
</event>
<event>
 5   0  0.8383008E-07  0.3276792E+04  0.7818609E-02  0.8168826E-01
       -1   -1    0    0    0  501  0.00000000000E+00  0.00000000000E+00  0.14497478471E+04  0.14497478471E+04  0.50400001928E-02 0.  1.
        1   -1    0    0  501    0  0.00000000000E+00  0.00000000000E+00 -0.18515922564E+04  0.18515922564E+04  0.50400001928E-02 0. -1.
    10030    2    1    2    0    0  0.00000000000E+00  0.00000000000E+00 -0.40184440930E+03  0.33013401036E+04  0.32767922653E+04 0.  0.
        4    1    3    3  502    0 -0.16261723096E+04 -0.16921630394E+03 -0.30787650190E+03  0.16636887003E+04  0.12699999809E+01 0. -1.
       -4    1    3    3    0  502  0.16261723096E+04  0.16921630394E+03 -0.93967907406E+02  0.16376514033E+04  0.12699999809E+01 0.  1.
</event>
<event>
 5   0  0.2337504E-06  0.3194228E+04  0.7818609E-02  0.8190343E-01
       -2   -1    0    0    0  501  0.00000000000E+00  0.00000000000E+00  0.10489501432E+04  0.10489501432E+04  0.25500000920E-02 0.  1.
        2   -1    0    0  501    0  0.00000000000E+00  0.00000000000E+00 -0.24317396804E+04  0.24317396804E+04  0.25500000920E-02 0. -1.
    10030    2    1    2    0    0  0.00000000000E+00  0.00000000000E+00 -0.13827895372E+04  0.34806898237E+04  0.31942283488E+04 0.  0.
        1    1    3    3  502    0 -0.10434610875E+04  0.10366423128E+03  0.62130512016E+03  0.12188426339E+04  0.50400001928E-02 0.  1.
       -1    1    3    3    0  502  0.10434610875E+04 -0.10366423128E+03 -0.20040946574E+04  0.22618471897E+04  0.50400001928E-02 0. -1.
</event>
<event>
 5   0  0.8545153E-07  0.3236526E+04  0.7818609E-02  0.8179237E-01
       -1   -1    0    0    0  501  0.00000000000E+00  0.00000000000E+00  0.11415230006E+04  0.11415230006E+04  0.50400001928E-02 0. -1.
        1   -1    0    0  501    0  0.00000000000E+00  0.00000000000E+00 -0.22941067720E+04  0.22941067720E+04  0.50400001928E-02 0.  1.
    10030    2    1    2    0    0  0.00000000000E+00  0.00000000000E+00 -0.11525837713E+04  0.34356297726E+04  0.32365263145E+04 0.  0.
        3    1    3    3  502    0  0.12699610626E+04  0.10025912698E+04 -0.60603865192E+03  0.17277943201E+04  0.10100000352E+00 0. -1.
       -3    1    3    3    0  502 -0.12699610626E+04 -0.10025912698E+04 -0.54654511942E+03  0.17078354525E+04  0.10100000352E+00 0.  1.
</event>
<event>
 5   0  0.2466076E-06  0.3197897E+04  0.7818609E-02  0.8189373E-01
        2   -1    0    0  501    0  0.00000000000E+00  0.00000000000E+00  0.22363662271E+04  0.22363662271E+04  0.25500000920E-02 0.  1.
       -2   -1    0    0    0  501  0.00000000000E+00  0.00000000000E+00 -0.11432100999E+04  0.11432100999E+04  0.25500000920E-02 0. -1.
    10030    2    1    2    0    0  0.00000000000E+00  0.00000000000E+00  0.10931561272E+04  0.33795763270E+04  0.31978970952E+04 0.  0.
        3    1    3    3  502    0 -0.31844440689E+02  0.54346358809E+03  0.21354098037E+04  0.22037109111E+04  0.10100000352E+00 0.  1.
       -3    1    3    3    0  502  0.31844440689E+02 -0.54346358809E+03 -0.10422536765E+04  0.11758654159E+04  0.10100000352E+00 0. -1.
</event>
<event>
 5   0  0.8512855E-07  0.3149042E+04  0.7818609E-02  0.8202406E-01
        1   -1    0    0  501    0  0.00000000000E+00  0.00000000000E+00  0.15861805792E+04  0.15861805793E+04  0.50400001928E-02 0. -1.
       -1   -1    0    0    0  501  0.00000000000E+00  0.00000000000E+00 -0.15629475076E+04  0.15629475077E+04  0.50400001928E-02 0.  1.
    10030    2    1    2    0    0  0.00000000000E+00  0.00000000000E+00  0.23233071597E+02  0.31491280869E+04  0.31490423834E+04 0.  0.
        5    1    3    3  502    0  0.11810977816E+04 -0.66410614349E+03 -0.79031922037E+03  0.15686476659E+04  0.46999998093E+01 0.  1.
       -5    1    3    3    0  502 -0.11810977816E+04  0.66410614349E+03  0.81355229197E+03  0.15804804210E+04  0.46999998093E+01 0. -1.
</event>
<event>
 5   0  0.2337504E-06  0.3199023E+04  0.7818609E-02  0.8189075E-01
        2   -1    0    0  501    0  0.00000000000E+00  0.00000000000E+00  0.16564725287E+04  0.16564725287E+04  0.25500000920E-02 0.  1.
       -2   -1    0    0    0  501  0.00000000000E+00  0.00000000000E+00 -0.15445093322E+04  0.15445093322E+04  0.25500000920E-02 0. -1.
    10030    2    1    2    0    0  0.00000000000E+00  0.00000000000E+00  0.11196319646E+03  0.32009818609E+04  0.31990231504E+04 0.  0.
        1    1    3    3  502    0 -0.42629944685E+02  0.10006531892E+04 -0.11919039461E+04  0.15568426811E+04  0.50400001928E-02 0. -1.
       -1    1    3    3    0  502  0.42629944685E+02 -0.10006531892E+04  0.13038671425E+04  0.16441391798E+04  0.50400001928E-02 0.  1.
</event>
<event>
 5   0  0.2466076E-06  0.2983205E+04  0.7818609E-02  0.8248543E-01
       -2   -1    0    0    0  501  0.00000000000E+00  0.00000000000E+00  0.14914747458E+04  0.14914747458E+04  0.25500000920E-02 0.  1.
        2   -1    0    0  501    0  0.00000000000E+00  0.00000000000E+00 -0.14917299700E+04  0.14917299700E+04  0.25500000920E-02 0. -1.
    10030    2    1    2    0    0  0.00000000000E+00  0.00000000000E+00 -0.25522419448E+00  0.29832047158E+04  0.29832047049E+04 0.  0.
        3    1    3    3  502    0  0.11585753329E+04 -0.12149290130E+03  0.93144109008E+03  0.14915226588E+04  0.10100000352E+00 0.  1.
       -3    1    3    3    0  502 -0.11585753329E+04  0.12149290130E+03 -0.93169631427E+03  0.14916820571E+04  0.10100000352E+00 0. -1.
</event>
<event>
 5   0  0.7934375E-07  0.3202188E+04  0.7818609E-02  0.8188240E-01
       -3   -1    0    0    0  501  0.00000000000E+00  0.00000000000E+00  0.23463375533E+04  0.23463375555E+04  0.10100000352E+00 0. -1.
        3   -1    0    0  501    0  0.00000000000E+00  0.00000000000E+00 -0.10925546080E+04  0.10925546127E+04  0.10100000352E+00 0.  1.
    10030    2    1    2    0    0  0.00000000000E+00  0.00000000000E+00  0.12537829453E+04  0.34388921682E+04  0.32021879505E+04 0.  0.
        1    1    3    3  502    0 -0.46004753355E+03  0.13429449644E+04 -0.16835808780E+03  0.14295066829E+04  0.50400001928E-02 0.  1.
       -1    1    3    3    0  502  0.46004753355E+03 -0.13429449644E+04  0.14221410331E+04  0.20093854853E+04  0.50400001928E-02 0. -1.
</event>
<event>
 5   0  0.8383008E-07  0.3195852E+04  0.7818609E-02  0.8189914E-01
       -1   -1    0    0    0  501  0.00000000000E+00  0.00000000000E+00  0.24235618587E+04  0.24235618587E+04  0.50400001928E-02 0.  1.
        1   -1    0    0  501    0  0.00000000000E+00  0.00000000000E+00 -0.10535596961E+04  0.10535596961E+04  0.50400001928E-02 0. -1.
    10030    2    1    2    0    0  0.00000000000E+00  0.00000000000E+00  0.13700021626E+04  0.34771215548E+04  0.31958517458E+04 0.  0.
        4    1    3    3  502    0 -0.11088859332E+04  0.11493541066E+04  0.74177197620E+03  0.17609287756E+04  0.12699999809E+01 0.  1.
       -4    1    3    3    0  502  0.11088859332E+04 -0.11493541066E+04  0.62823018640E+03  0.17161927792E+04  0.12699999809E+01 0. -1.
</event>
<event>
 5   0  0.8487944E-07  0.2727983E+04  0.7818609E-02  0.8325982E-01
        1   -1    0    0  501    0  0.00000000000E+00  0.00000000000E+00  0.10443072978E+04  0.10443072978E+04  0.50400001928E-02 0.  1.
       -1   -1    0    0    0  501  0.00000000000E+00  0.00000000000E+00 -0.17815376713E+04  0.17815376713E+04  0.50400001928E-02 0. -1.
    10030    2    1    2    0    0  0.00000000000E+00  0.00000000000E+00 -0.73723037349E+03  0.28258449690E+04  0.27279829848E+04 0.  0.
        2    1    3    3  502    0 -0.11082539403E+04 -0.74490793224E+03 -0.65672613522E+03  0.14880873094E+04  0.25500000920E-02 0. -1.
       -2    1    3    3    0  502  0.11082539403E+04  0.74490793224E+03 -0.80504238263E+02  0.13377576597E+04  0.25500000920E-02 0.  1.
</event>
<event>
 5   0  0.2404430E-06  0.3189195E+04  0.7818609E-02  0.8191677E-01
       -2   -1    0    0    0  501  0.00000000000E+00  0.00000000000E+00  0.12526284605E+04  0.12526284605E+04  0.25500000920E-02 0.  1.
        2   -1    0    0  501    0  0.00000000000E+00  0.00000000000E+00 -0.20299244618E+04  0.20299244618E+04  0.25500000920E-02 0. -1.
    10030    2    1    2    0    0  0.00000000000E+00  0.00000000000E+00 -0.77729600122E+03  0.32825529223E+04  0.31891949790E+04 0.  0.
        4    1    3    3  502    0 -0.10818512058E+04 -0.56511479284E+03  0.66754017103E+03  0.13911751340E+04  0.12699999809E+01 0.  1.
       -4    1    3    3    0  502  0.10818512058E+04  0.56511479284E+03 -0.14448361722E+04  0.18913777883E+04  0.12699999809E+01 0. -1.
</event>
<event>
 5   0  0.2337504E-06  0.3121257E+04  0.7818609E-02  0.8209928E-01
        2   -1    0    0  501    0  0.00000000000E+00  0.00000000000E+00  0.10634895325E+04  0.10634895326E+04  0.25500000920E-02 0.  1.
       -2   -1    0    0    0  501  0.00000000000E+00  0.00000000000E+00 -0.22901601224E+04  0.22901601224E+04  0.25500000920E-02 0. -1.
    10030    2    1    2    0    0  0.00000000000E+00  0.00000000000E+00 -0.12266705898E+04  0.33536496549E+04  0.31212570019E+04 0.  0.
        1    1    3    3  502    0  0.23549503067E+03  0.31915335135E+03  0.10084312283E+04  0.10836283096E+04  0.50400001928E-02 0.  1.
       -1    1    3    3    0  502 -0.23549503067E+03 -0.31915335135E+03 -0.22351018181E+04  0.22700213453E+04  0.50400001928E-02 0. -1.
</event>
<event>
 5   0  0.8681172E-07  0.3174386E+04  0.7818609E-02  0.8195615E-01
        1   -1    0    0  501    0  0.00000000000E+00  0.00000000000E+00  0.18078461553E+04  0.18078461553E+04  0.50400001928E-02 0.  1.
       -1   -1    0    0    0  501  0.00000000000E+00  0.00000000000E+00 -0.13934709104E+04  0.13934709104E+04  0.50400001928E-02 0. -1.
    10030    2    1    2    0    0  0.00000000000E+00  0.00000000000E+00  0.41437524489E+03  0.32013170656E+04  0.31743856274E+04 0.  0.
        1    1    3    3  502    0 -0.14300025291E+04 -0.20910946777E+03 -0.45454005840E+03  0.15150051707E+04  0.50400001928E-02 0. -1.
       -1    1    3    3    0  502  0.14300025291E+04  0.20910946777E+03  0.86891530329E+03  0.16863118949E+04  0.50400001928E-02 0.  1.
</event>
<event>
 5   0  0.2401139E-06  0.2873600E+04  0.7818609E-02  0.8280776E-01
       -2   -1    0    0    0  501  0.00000000000E+00  0.00000000000E+00  0.11142442040E+04  0.11142442040E+04  0.25500000920E-02 0.  1.
        2   -1    0    0  501    0  0.00000000000E+00  0.00000000000E+00 -0.18527300170E+04  0.18527300170E+04  0.25500000920E-02 0. -1.
    10030    2    1    2    0    0  0.00000000000E+00  0.00000000000E+00 -0.73848581302E+03  0.29669742210E+04  0.28735996124E+04 0.  0.
        5    1    3    3  502    0  0.62060792801E+02  0.42143656384E+02 -0.18506986630E+04  0.18522244090E+04  0.46999998093E+01 0. -1.
       -5    1    3    3    0  502 -0.62060792801E+02 -0.42143656384E+02  0.11122128500E+04  0.11147498121E+04  0.46999998093E+01 0.  1.
</event>
<event>
 5   0  0.8383008E-07  0.3197712E+04  0.7818609E-02  0.8189422E-01
       -1   -1    0    0    0  501  0.00000000000E+00  0.00000000000E+00  0.18071490747E+04  0.18071490747E+04  0.50400001928E-02 0.  1.
        1   -1    0    0  501    0  0.00000000000E+00  0.00000000000E+00 -0.14145712405E+04  0.14145712405E+04  0.50400001928E-02 0. -1.
    10030    2    1    2    0    0  0.00000000000E+00  0.00000000000E+00  0.39257783421E+03  0.32217203152E+04  0.31977123750E+04 0.  0.
        4    1    3    3  502    0 -0.65565125873E+02  0.15934499628E+04  0.81601391097E+02  0.15968850834E+04  0.12699999809E+01 0. -1.
       -4    1    3    3    0  502  0.65565125873E+02 -0.15934499628E+04  0.31097644311E+03  0.16248352318E+04  0.12699999809E+01 0.  1.
</event>
<event>
 5   0  0.8545153E-07  0.3146650E+04  0.7818609E-02  0.8203051E-01
        1   -1    0    0  501    0  0.00000000000E+00  0.00000000000E+00  0.26248204818E+04  0.26248204818E+04  0.50400001928E-02 0. -1.
       -1   -1    0    0    0  501  0.00000000000E+00  0.00000000000E+00 -0.94305554059E+03  0.94305554060E+03  0.50400001928E-02 0.  1.
    10030    2    1    2    0    0  0.00000000000E+00  0.00000000000E+00  0.16817649412E+04  0.35678760224E+04  0.31466499637E+04 0.  0.
        3    1    3    3  502    0  0.88386677309E+02  0.57023368021E+03 -0.81873824460E+03  0.10016541210E+04  0.10100000352E+00 0.  1.
       -3    1    3    3    0  502 -0.88386677309E+02 -0.57023368021E+03  0.25005031858E+04  0.25662219014E+04  0.10100000352E+00 0. -1.
</event>
<event>
 5   0  0.8487944E-07  0.3154794E+04  0.7818609E-02  0.8200859E-01
        1   -1    0    0  501    0  0.00000000000E+00  0.00000000000E+00  0.23379154506E+04  0.23379154506E+04  0.50400001928E-02 0.  1.
       -1   -1    0    0    0  501  0.00000000000E+00  0.00000000000E+00 -0.10642732402E+04  0.10642732402E+04  0.50400001928E-02 0. -1.
    10030    2    1    2    0    0  0.00000000000E+00  0.00000000000E+00  0.12736422104E+04  0.34021886908E+04  0.31547937187E+04 0.  0.
        2    1    3    3  502    0  0.64887941428E+03  0.58094770433E+03  0.20551103270E+04  0.22320446199E+04  0.25500000920E-02 0.  1.
       -2    1    3    3    0  502 -0.64887941428E+03 -0.58094770433E+03 -0.78146811653E+03  0.11701440709E+04  0.25500000920E-02 0. -1.
</event>
<event>
 5   0  0.2404430E-06  0.3251659E+04  0.7818609E-02  0.8175306E-01
        2   -1    0    0  501    0  0.00000000000E+00  0.00000000000E+00  0.16526488400E+04  0.16526488400E+04  0.25500000920E-02 0. -1.
       -2   -1    0    0    0  501  0.00000000000E+00  0.00000000000E+00 -0.15994456162E+04  0.15994456162E+04  0.25500000920E-02 0.  1.
    10030    2    1    2    0    0  0.00000000000E+00  0.00000000000E+00  0.53203223845E+02  0.32520944562E+04  0.32516592332E+04 0.  0.
        4    1    3    3  502    0  0.55160302703E+03 -0.68889717369E+03  0.13922422140E+04  0.16483886710E+04  0.12699999809E+01 0. -1.
       -4    1    3    3    0  502 -0.55160302703E+03  0.68889717369E+03 -0.13390389902E+04  0.16037057852E+04  0.12699999809E+01 0.  1.
</event>
<event>
 5   0  0.8681172E-07  0.3431467E+04  0.7818609E-02  0.8130226E-01
       -1   -1    0    0    0  501  0.00000000000E+00  0.00000000000E+00  0.19181324838E+04  0.19181324838E+04  0.50400001928E-02 0. -1.
        1   -1    0    0  501    0  0.00000000000E+00  0.00000000000E+00 -0.15346916439E+04  0.15346916440E+04  0.50400001928E-02 0.  1.
    10030    2    1    2    0    0  0.00000000000E+00  0.00000000000E+00  0.38344083987E+03  0.34528241278E+04  0.34314672634E+04 0.  0.
        1    1    3    3  502    0 -0.75739583499E+03 -0.15104288558E+04  0.49139630354E+03  0.17596914805E+04  0.50400001928E-02 0. -1.
       -1    1    3    3    0  502  0.75739583499E+03  0.15104288558E+04 -0.10795546367E+03  0.16931326473E+04  0.50400001928E-02 0.  1.
</event>
<event>
 5   0  0.8545153E-07  0.3241956E+04  0.7818609E-02  0.8177824E-01
        1   -1    0    0  501    0  0.00000000000E+00  0.00000000000E+00  0.16346240190E+04  0.16346240190E+04  0.50400001928E-02 0.  1.
       -1   -1    0    0    0  501  0.00000000000E+00  0.00000000000E+00 -0.16074454621E+04  0.16074454621E+04  0.50400001928E-02 0. -1.
    10030    2    1    2    0    0  0.00000000000E+00  0.00000000000E+00  0.27178556930E+02  0.32420694811E+04  0.32419555590E+04 0.  0.
        3    1    3    3  502    0 -0.70457820003E+03 -0.13154633226E+04  0.64661607072E+03  0.16263414605E+04  0.10100000352E+00 0.  1.
       -3    1    3    3    0  502  0.70457820003E+03  0.13154633226E+04 -0.61943751379E+03  0.16157280206E+04  0.10100000352E+00 0. -1.
</event>
<event>
 5   0  0.2621528E-06  0.3057556E+04  0.7818609E-02  0.8227484E-01
        2   -1    0    0  501    0  0.00000000000E+00  0.00000000000E+00  0.21700209299E+04  0.21700209299E+04  0.25500000920E-02 0.  1.
       -2   -1    0    0    0  501  0.00000000000E+00  0.00000000000E+00 -0.10770230068E+04  0.10770230068E+04  0.25500000920E-02 0. -1.
    10030    2    1    2    0    0  0.00000000000E+00  0.00000000000E+00  0.10929979231E+04  0.32470439367E+04  0.30575561920E+04 0.  0.
        2    1    3    3  502    0  0.13891128685E+04 -0.52426221016E+03  0.93332135310E+03  0.17537315001E+04  0.25500000920E-02 0.  1.
       -2    1    3    3    0  502 -0.13891128685E+04  0.52426221016E+03  0.15967657000E+03  0.14933124366E+04  0.25500000920E-02 0. -1.
</event>
<event>
 5   0  0.2404430E-06  0.3174630E+04  0.7818609E-02  0.8195550E-01
       -2   -1    0    0    0  501  0.00000000000E+00  0.00000000000E+00  0.14383699450E+04  0.14383699450E+04  0.25500000920E-02 0. -1.
        2   -1    0    0  501    0  0.00000000000E+00  0.00000000000E+00 -0.17516830715E+04  0.17516830716E+04  0.25500000920E-02 0.  1.
    10030    2    1    2    0    0  0.00000000000E+00  0.00000000000E+00 -0.31331312650E+03  0.31900530166E+04  0.31746296057E+04 0.  0.
        4    1    3    3  502    0  0.14106328351E+04 -0.91590331589E+01 -0.88792683702E+03  0.16668486926E+04  0.12699999809E+01 0.  1.
       -4    1    3    3    0  502 -0.14106328351E+04  0.91590331589E+01  0.57461371052E+03  0.15232043240E+04  0.12699999809E+01 0. -1.
</event>
<event>
 5   0  0.8512855E-07  0.2719569E+04  0.7818609E-02  0.8328683E-01
       -1   -1    0    0    0  501  0.00000000000E+00  0.00000000000E+00  0.17151185204E+04  0.17151185205E+04  0.50400001928E-02 0. -1.
        1   -1    0    0  501    0  0.00000000000E+00  0.00000000000E+00 -0.10780673348E+04  0.10780673348E+04  0.50400001928E-02 0.  1.
    10030    2    1    2    0    0  0.00000000000E+00  0.00000000000E+00  0.63705118567E+03  0.27931858552E+04  0.27195685336E+04 0.  0.
        5    1    3    3  502    0  0.10724180558E+03  0.92160605585E+03  0.13394825855E+04  0.16294459837E+04  0.46999998093E+01 0. -1.
       -5    1    3    3    0  502 -0.10724180558E+03 -0.92160605585E+03 -0.70243139983E+03  0.11637398715E+04  0.46999998093E+01 0.  1.
</event>
<event>
 5   0  0.2404430E-06  0.3151359E+04  0.7818609E-02  0.8201782E-01
       -2   -1    0    0    0  501  0.00000000000E+00  0.00000000000E+00  0.22879787168E+04  0.22879787168E+04  0.25500000920E-02 0.  1.
        2   -1    0    0  501    0  0.00000000000E+00  0.00000000000E+00 -0.10851352805E+04  0.10851352805E+04  0.25500000920E-02 0. -1.
    10030    2    1    2    0    0  0.00000000000E+00  0.00000000000E+00  0.12028434363E+04  0.33731139973E+04  0.31513593427E+04 0.  0.
        4    1    3    3  502    0  0.22429288383E+03  0.80587442796E+03  0.20306831552E+04  0.21962278072E+04  0.12699999809E+01 0.  1.
       -4    1    3    3    0  502 -0.22429288383E+03 -0.80587442796E+03 -0.82783971895E+03  0.11768861901E+04  0.12699999809E+01 0. -1.
</event>
<event>
 5   0  0.8487944E-07  0.3197265E+04  0.7818609E-02  0.8189540E-01
        1   -1    0    0  501    0  0.00000000000E+00  0.00000000000E+00  0.23685681905E+04  0.23685681905E+04  0.50400001928E-02 0.  1.
       -1   -1    0    0    0  501  0.00000000000E+00  0.00000000000E+00 -0.10789747312E+04  0.10789747312E+04  0.50400001928E-02 0. -1.
    10030    2    1    2    0    0  0.00000000000E+00  0.00000000000E+00  0.12895934593E+04  0.34475429217E+04  0.31972645975E+04 0.  0.
        2    1    3    3  502    0 -0.18885869499E+01 -0.11281587223E+04 -0.57650801779E+03  0.12669282395E+04  0.25500000920E-02 0. -1.
       -2    1    3    3    0  502  0.18885869499E+01  0.11281587223E+04  0.18661014771E+04  0.21806146822E+04  0.25500000920E-02 0.  1.
</event>
<event>
 5   0  0.2401139E-06  0.3139821E+04  0.7818609E-02  0.8204894E-01
       -2   -1    0    0    0  501  0.00000000000E+00  0.00000000000E+00  0.97680772488E+03  0.97680772488E+03  0.25500000920E-02 0.  1.
        2   -1    0    0  501    0  0.00000000000E+00  0.00000000000E+00 -0.25231364185E+04  0.25231364185E+04  0.25500000920E-02 0. -1.
    10030    2    1    2    0    0  0.00000000000E+00  0.00000000000E+00 -0.15463286937E+04  0.34999441434E+04  0.31398211061E+04 0.  0.
        5    1    3    3  502    0  0.14099041679E+04 -0.24412061760E+03 -0.53195008889E+02  0.14318786393E+04  0.46999998093E+01 0.  1.
       -5    1    3    3    0  502 -0.14099041679E+04  0.24412061760E+03 -0.14931336848E+04  0.20680655041E+04  0.46999998093E+01 0. -1.
</event>
<event>
 5   0  0.8383008E-07  0.3198546E+04  0.7818609E-02  0.8189201E-01
       -1   -1    0    0    0  501  0.00000000000E+00  0.00000000000E+00  0.15748667962E+04  0.15748667962E+04  0.50400001928E-02 0.  1.
        1   -1    0    0  501    0  0.00000000000E+00  0.00000000000E+00 -0.16240577831E+04  0.16240577831E+04  0.50400001928E-02 0. -1.
    10030    2    1    2    0    0  0.00000000000E+00  0.00000000000E+00 -0.49190986911E+02  0.31989245793E+04  0.31985463434E+04 0.  0.
        4    1    3    3  502    0  0.88430911860E+03  0.12451298597E+04 -0.49933265561E+03  0.16067624898E+04  0.12699999809E+01 0. -1.
       -4    1    3    3    0  502 -0.88430911860E+03 -0.12451298597E+04  0.45014166870E+03  0.15921620896E+04  0.12699999809E+01 0.  1.
</event>
<event>
 5   0  0.2466076E-06  0.3205009E+04  0.7818609E-02  0.8187496E-01
       -2   -1    0    0    0  501  0.00000000000E+00  0.00000000000E+00  0.12298079277E+04  0.12298079277E+04  0.25500000920E-02 0.  1.
        2   -1    0    0  501    0  0.00000000000E+00  0.00000000000E+00 -0.20881471373E+04  0.20881471373E+04  0.25500000920E-02 0. -1.
    10030    2    1    2    0    0  0.00000000000E+00  0.00000000000E+00 -0.85833920962E+03  0.33179550650E+04  0.32050085202E+04 0.  0.
        3    1    3    3  502    0  0.35942659714E+03  0.15422891498E+04 -0.68312363548E+03  0.17246742335E+04  0.10100000352E+00 0.  1.
       -3    1    3    3    0  502 -0.35942659714E+03 -0.15422891498E+04 -0.17521557414E+03  0.15932808315E+04  0.10100000352E+00 0. -1.
</event>
<event>
 5   0  0.8487944E-07  0.3196072E+04  0.7818609E-02  0.8189855E-01
        1   -1    0    0  501    0  0.00000000000E+00  0.00000000000E+00  0.22152718780E+04  0.22152718780E+04  0.50400001928E-02 0. -1.
       -1   -1    0    0    0  501  0.00000000000E+00  0.00000000000E+00 -0.11527791702E+04  0.11527791702E+04  0.50400001928E-02 0.  1.
    10030    2    1    2    0    0  0.00000000000E+00  0.00000000000E+00  0.10624927078E+04  0.33680510482E+04  0.31960721377E+04 0.  0.
        2    1    3    3  502    0 -0.13271944396E+04  0.71931434151E+03  0.10837290908E+04  0.18583129297E+04  0.25500000920E-02 0. -1.
       -2    1    3    3    0  502  0.13271944396E+04 -0.71931434151E+03 -0.21236382995E+02  0.15097381185E+04  0.25500000920E-02 0.  1.
</event>
<event>
 5   0  0.2621528E-06  0.3211282E+04  0.7818609E-02  0.8185844E-01
       -2   -1    0    0    0  501  0.00000000000E+00  0.00000000000E+00  0.14636904919E+04  0.14636904919E+04  0.25500000920E-02 0. -1.
        2   -1    0    0  501    0  0.00000000000E+00  0.00000000000E+00 -0.17613575575E+04  0.17613575575E+04  0.25500000920E-02 0.  1.
    10030    2    1    2    0    0  0.00000000000E+00  0.00000000000E+00 -0.29766706563E+03  0.32250480495E+04  0.32112815572E+04 0.  0.
        2    1    3    3  502    0 -0.21194101229E+03 -0.70535551623E+03  0.12840403379E+04  0.14802719299E+04  0.25500000920E-02 0. -1.
       -2    1    3    3    0  502  0.21194101229E+03  0.70535551623E+03 -0.15817074036E+04  0.17447761196E+04  0.25500000920E-02 0.  1.
</event>
<event>
 5   0  0.7934375E-07  0.2761224E+04  0.7818609E-02  0.8315409E-01
        3   -1    0    0  501    0  0.00000000000E+00  0.00000000000E+00  0.17432298678E+04  0.17432298708E+04  0.10100000352E+00 0.  1.
       -3   -1    0    0    0  501  0.00000000000E+00  0.00000000000E+00 -0.10934244311E+04  0.10934244358E+04  0.10100000352E+00 0. -1.
    10030    2    1    2    0    0  0.00000000000E+00  0.00000000000E+00  0.64980543673E+03  0.28366543065E+04  0.27612244656E+04 0.  0.
        5    1    3    3  502    0  0.80245267299E+03  0.47190018825E+02  0.14780229965E+04  0.16824777141E+04  0.46999998093E+01 0.  1.
       -5    1    3    3    0  502 -0.80245267299E+03 -0.47190018825E+02 -0.82821755975E+03  0.11541765924E+04  0.46999998093E+01 0. -1.
</event>
<event>
 5   0  0.2404430E-06  0.3201883E+04  0.7818609E-02  0.8188320E-01
        2   -1    0    0  501    0  0.00000000000E+00  0.00000000000E+00  0.16858409519E+04  0.16858409519E+04  0.25500000920E-02 0. -1.
       -2   -1    0    0    0  501  0.00000000000E+00  0.00000000000E+00 -0.15203178389E+04  0.15203178389E+04  0.25500000920E-02 0.  1.
    10030    2    1    2    0    0  0.00000000000E+00  0.00000000000E+00  0.16552311300E+03  0.32061587908E+04  0.32018832413E+04 0.  0.
        4    1    3    3  502    0  0.89090854678E+03 -0.10565290705E+04 -0.72642689491E+03  0.15613037379E+04  0.12699999809E+01 0.  1.
       -4    1    3    3    0  502 -0.89090854678E+03  0.10565290705E+04  0.89195000791E+03  0.16448550529E+04  0.12699999809E+01 0. -1.
</event>
<event>
 5   0  0.2401139E-06  0.3183276E+04  0.7818609E-02  0.8193248E-01
        2   -1    0    0  501    0  0.00000000000E+00  0.00000000000E+00  0.32015335734E+04  0.32015335734E+04  0.25500000920E-02 0. -1.
       -2   -1    0    0    0  501  0.00000000000E+00  0.00000000000E+00 -0.79128049988E+03  0.79128049988E+03  0.25500000920E-02 0.  1.
    10030    2    1    2    0    0  0.00000000000E+00  0.00000000000E+00  0.24102530735E+04  0.39928140733E+04  0.31832757256E+04 0.  0.
        5    1    3    3  502    0 -0.12203882842E+04 -0.99470998181E+03  0.91232246062E+03  0.18196565265E+04  0.46999998093E+01 0.  1.
       -5    1    3    3    0  502  0.12203882842E+04  0.99470998181E+03  0.14979306129E+04  0.21731575468E+04  0.46999998093E+01 0. -1.
</event>
<event>
 5   0  0.8383008E-07  0.3192343E+04  0.7818609E-02  0.8190842E-01
        1   -1    0    0  501    0  0.00000000000E+00  0.00000000000E+00  0.19972702359E+04  0.19972702359E+04  0.50400001928E-02 0.  1.
       -1   -1    0    0    0  501  0.00000000000E+00  0.00000000000E+00 -0.12756227971E+04  0.12756227971E+04  0.50400001928E-02 0. -1.
    10030    2    1    2    0    0  0.00000000000E+00  0.00000000000E+00  0.72164743876E+03  0.32728930331E+04  0.31923429922E+04 0.  0.
        4    1    3    3  502    0 -0.15233881344E+03  0.38750960813E+03 -0.12189627346E+04  0.12881158999E+04  0.12699999809E+01 0. -1.
       -4    1    3    3    0  502  0.15233881344E+03 -0.38750960813E+03  0.19406101733E+04  0.19847771331E+04  0.12699999809E+01 0.  1.
</event>
<event>
 5   0  0.8487944E-07  0.3206592E+04  0.7818609E-02  0.8187078E-01
       -1   -1    0    0    0  501  0.00000000000E+00  0.00000000000E+00  0.11132579867E+04  0.11132579867E+04  0.50400001928E-02 0. -1.
        1   -1    0    0  501    0  0.00000000000E+00  0.00000000000E+00 -0.23090406016E+04  0.23090406017E+04  0.50400001928E-02 0.  1.
    10030    2    1    2    0    0  0.00000000000E+00  0.00000000000E+00 -0.11957826149E+04  0.34222985884E+04  0.32065918926E+04 0.  0.
        2    1    3    3  502    0  0.13621507758E+04 -0.82624372943E+03 -0.79007235268E+03  0.17782991196E+04  0.25500000920E-02 0.  1.
       -2    1    3    3    0  502 -0.13621507758E+04  0.82624372943E+03 -0.40571026227E+03  0.16439994688E+04  0.25500000920E-02 0. -1.
</event>
<event>
 5   0  0.2401139E-06  0.3179409E+04  0.7818609E-02  0.8194277E-01
       -2   -1    0    0    0  501  0.00000000000E+00  0.00000000000E+00  0.11077769791E+04  0.11077769791E+04  0.25500000920E-02 0. -1.
        2   -1    0    0  501    0  0.00000000000E+00  0.00000000000E+00 -0.22812894326E+04  0.22812894326E+04  0.25500000920E-02 0.  1.
    10030    2    1    2    0    0  0.00000000000E+00  0.00000000000E+00 -0.11735124534E+04  0.33890664117E+04  0.31794086973E+04 0.  0.
        5    1    3    3  502    0 -0.15579233289E+04 -0.25245530291E+03 -0.78978690238E+03  0.17648354653E+04  0.46999998093E+01 0.  1.
       -5    1    3    3    0  502  0.15579233289E+04  0.25245530291E+03 -0.38372555107E+03  0.16242309464E+04  0.46999998093E+01 0. -1.
</event>
<event>
 5   0  0.8545153E-07  0.3174546E+04  0.7818609E-02  0.8195572E-01
       -1   -1    0    0    0  501  0.00000000000E+00  0.00000000000E+00  0.12167556800E+04  0.12167556800E+04  0.50400001928E-02 0.  1.
        1   -1    0    0  501    0  0.00000000000E+00  0.00000000000E+00 -0.20706176686E+04  0.20706176686E+04  0.50400001928E-02 0. -1.
    10030    2    1    2    0    0  0.00000000000E+00  0.00000000000E+00 -0.85386198856E+03  0.32873733486E+04  0.31745461467E+04 0.  0.
        3    1    3    3  502    0  0.13270485989E+04 -0.17271736219E+03 -0.13108165397E+04  0.18732670077E+04  0.10100000352E+00 0. -1.
       -3    1    3    3    0  502 -0.13270485989E+04  0.17271736219E+03  0.45695455118E+03  0.14141063408E+04  0.10100000352E+00 0.  1.
</event>
<event>
 5   0  0.2337504E-06  0.2819899E+04  0.7818609E-02  0.8297117E-01
       -2   -1    0    0    0  501  0.00000000000E+00  0.00000000000E+00  0.14272375272E+04  0.14272375272E+04  0.25500000920E-02 0.  1.
        2   -1    0    0  501    0  0.00000000000E+00  0.00000000000E+00 -0.13928708331E+04  0.13928708331E+04  0.25500000920E-02 0. -1.
    10030    2    1    2    0    0  0.00000000000E+00  0.00000000000E+00  0.34366694149E+02  0.28201083603E+04  0.28198989510E+04 0.  0.
        1    1    3    3  502    0 -0.31810969173E+03  0.66366633055E+03 -0.11855325657E+04  0.13953975200E+04  0.50400001928E-02 0. -1.
       -1    1    3    3    0  502  0.31810969173E+03 -0.66366633055E+03  0.12198992599E+04  0.14247108403E+04  0.50400001928E-02 0.  1.
</event>
<event>
 5   0  0.8681172E-07  0.3214836E+04  0.7818609E-02  0.8184910E-01
       -1   -1    0    0    0  501  0.00000000000E+00  0.00000000000E+00  0.13248008660E+04  0.13248008660E+04  0.50400001928E-02 0. -1.
        1   -1    0    0  501    0  0.00000000000E+00  0.00000000000E+00 -0.19503254670E+04  0.19503254670E+04  0.50400001928E-02 0.  1.
    10030    2    1    2    0    0  0.00000000000E+00  0.00000000000E+00 -0.62552460100E+03  0.32751263330E+04  0.32148361499E+04 0.  0.
        1    1    3    3  502    0  0.95428546672E+03 -0.41217360351E+03 -0.15618246078E+04  0.18761247125E+04  0.50400001928E-02 0.  1.
       -1    1    3    3    0  502 -0.95428546672E+03  0.41217360351E+03  0.93630000678E+03  0.13990016205E+04  0.50400001928E-02 0. -1.
</event>
<event>
 5   0  0.2337504E-06  0.3162132E+04  0.7818609E-02  0.8198890E-01
        2   -1    0    0  501    0  0.00000000000E+00  0.00000000000E+00  0.74021955509E+03  0.74021955509E+03  0.25500000920E-02 0. -1.
       -2   -1    0    0    0  501  0.00000000000E+00  0.00000000000E+00 -0.33770661855E+04  0.33770661855E+04  0.25500000920E-02 0.  1.
    10030    2    1    2    0    0  0.00000000000E+00  0.00000000000E+00 -0.26368466304E+04  0.41172857406E+04  0.31621324636E+04 0.  0.
        1    1    3    3  502    0  0.67885657499E+02 -0.10758026753E+04 -0.28244347208E+04  0.30231426282E+04  0.50400001928E-02 0.  1.
       -1    1    3    3    0  502 -0.67885657499E+02  0.10758026753E+04  0.18758809042E+03  0.10941431123E+04  0.50400001928E-02 0. -1.
</event>
<event>
 5   0  0.2337504E-06  0.3053179E+04  0.7818609E-02  0.8228706E-01
       -2   -1    0    0    0  501  0.00000000000E+00  0.00000000000E+00  0.26343067417E+04  0.26343067417E+04  0.25500000920E-02 0. -1.
        2   -1    0    0  501    0  0.00000000000E+00  0.00000000000E+00 -0.88466367049E+03  0.88466367050E+03  0.25500000920E-02 0.  1.
    10030    2    1    2    0    0  0.00000000000E+00  0.00000000000E+00  0.17496430712E+04  0.35189704122E+04  0.30531789802E+04 0.  0.
        1    1    3    3  502    0 -0.13501463007E+04 -0.65940676989E+03  0.56392269906E+03  0.16049053343E+04  0.50400001928E-02 0. -1.
       -1    1    3    3    0  502  0.13501463007E+04  0.65940676989E+03  0.11857203721E+04  0.19140650779E+04  0.50400001928E-02 0.  1.
</event>
<event>
 5   0  0.2401139E-06  0.3227972E+04  0.7818609E-02  0.8181469E-01
       -2   -1    0    0    0  501  0.00000000000E+00  0.00000000000E+00  0.18084420068E+04  0.18084420068E+04  0.25500000920E-02 0. -1.
        2   -1    0    0  501    0  0.00000000000E+00  0.00000000000E+00 -0.14404395697E+04  0.14404395697E+04  0.25500000920E-02 0.  1.
    10030    2    1    2    0    0  0.00000000000E+00  0.00000000000E+00  0.36800243709E+03  0.32488815765E+04  0.32279723828E+04 0.  0.
        5    1    3    3  502    0 -0.12429241300E+04  0.72396661453E+03 -0.55282093869E+03  0.15409805749E+04  0.46999998093E+01 0.  1.
       -5    1    3    3    0  502  0.12429241300E+04 -0.72396661453E+03  0.92082337579E+03  0.17079010016E+04  0.46999998093E+01 0. -1.
</event>
<event>
 5   0  0.2466076E-06  0.3204571E+04  0.7818609E-02  0.8187611E-01
       -2   -1    0    0    0  501  0.00000000000E+00  0.00000000000E+00  0.23708299765E+04  0.23708299765E+04  0.25500000920E-02 0.  1.
        2   -1    0    0  501    0  0.00000000000E+00  0.00000000000E+00 -0.10828776803E+04  0.10828776803E+04  0.25500000920E-02 0. -1.
    10030    2    1    2    0    0  0.00000000000E+00  0.00000000000E+00  0.12879522963E+04  0.34537076568E+04  0.32045710261E+04 0.  0.
        3    1    3    3  502    0 -0.11172745405E+04  0.11180360111E+04  0.36085144008E+03  0.16212713200E+04  0.10100000352E+00 0. -1.
       -3    1    3    3    0  502  0.11172745405E+04 -0.11180360111E+04  0.92710085618E+03  0.18324363369E+04  0.10100000352E+00 0.  1.
</event>
<event>
 5   0  0.8487944E-07  0.3173355E+04  0.7818609E-02  0.8195890E-01
       -1   -1    0    0    0  501  0.00000000000E+00  0.00000000000E+00  0.17143530975E+04  0.17143530975E+04  0.50400001928E-02 0.  1.
        1   -1    0    0  501    0  0.00000000000E+00  0.00000000000E+00 -0.14685101168E+04  0.14685101168E+04  0.50400001928E-02 0. -1.
    10030    2    1    2    0    0  0.00000000000E+00  0.00000000000E+00  0.24584298077E+03  0.31828632143E+04  0.31733546083E+04 0.  0.
        2    1    3    3  502    0 -0.14187182217E+04  0.70208730204E+03  0.23213713603E+03  0.15998673765E+04  0.25500000920E-02 0. -1.
       -2    1    3    3    0  502  0.14187182217E+04 -0.70208730204E+03  0.13705844738E+02  0.15829958378E+04  0.25500000920E-02 0.  1.
</event>
<event>
 5   0  0.8545153E-07  0.3207019E+04  0.7818609E-02  0.8186966E-01
       -1   -1    0    0    0  501  0.00000000000E+00  0.00000000000E+00  0.17832157686E+04  0.17832157686E+04  0.50400001928E-02 0.  1.
        1   -1    0    0  501    0  0.00000000000E+00  0.00000000000E+00 -0.14419133429E+04  0.14419133429E+04  0.50400001928E-02 0. -1.
    10030    2    1    2    0    0  0.00000000000E+00  0.00000000000E+00  0.34130242567E+03  0.32251291115E+04  0.32070189335E+04 0.  0.
        3    1    3    3  502    0 -0.14976118035E+04  0.26231377562E+02  0.74634651014E+03  0.16734880706E+04  0.10100000352E+00 0.  1.
       -3    1    3    3    0  502  0.14976118035E+04 -0.26231377562E+02 -0.40504408447E+03  0.15516410409E+04  0.10100000352E+00 0. -1.
</event>
<event>
 5   0  0.8487944E-07  0.3148079E+04  0.7818609E-02  0.8202666E-01
        1   -1    0    0  501    0  0.00000000000E+00  0.00000000000E+00  0.12931590636E+04  0.12931590636E+04  0.50400001928E-02 0.  1.
       -1   -1    0    0    0  501  0.00000000000E+00  0.00000000000E+00 -0.19159281639E+04  0.19159281639E+04  0.50400001928E-02 0. -1.
    10030    2    1    2    0    0  0.00000000000E+00  0.00000000000E+00 -0.62276910031E+03  0.32090872275E+04  0.31480786969E+04 0.  0.
        2    1    3    3  502    0 -0.46296816151E+03  0.13767123624E+04 -0.92970649474E+03  0.17245377971E+04  0.25500000920E-02 0. -1.
       -2    1    3    3    0  502  0.46296816151E+03 -0.13767123624E+04  0.30693739443E+03  0.14845494304E+04  0.25500000920E-02 0.  1.
</event>
<event>
 5   0  0.8681172E-07  0.3193235E+04  0.7818609E-02  0.8190606E-01
       -1   -1    0    0    0  501  0.00000000000E+00  0.00000000000E+00  0.16722899852E+04  0.16722899852E+04  0.50400001928E-02 0.  1.
        1   -1    0    0  501    0  0.00000000000E+00  0.00000000000E+00 -0.15243697022E+04  0.15243697022E+04  0.50400001928E-02 0. -1.
    10030    2    1    2    0    0  0.00000000000E+00  0.00000000000E+00  0.14792028303E+03  0.31966596874E+04  0.31932354669E+04 0.  0.
        1    1    3    3  502    0 -0.11270118301E+04  0.32370683508E+03 -0.10108283768E+04  0.15481330007E+04  0.50400001928E-02 0. -1.
       -1    1    3    3    0  502  0.11270118301E+04 -0.32370683508E+03  0.11587486599E+04  0.16485266868E+04  0.50400001928E-02 0.  1.
</event>
<event>
 5   0  0.2337504E-06  0.3182900E+04  0.7818609E-02  0.8193348E-01
       -2   -1    0    0    0  501  0.00000000000E+00  0.00000000000E+00  0.10177047883E+04  0.10177047883E+04  0.25500000920E-02 0.  1.
        2   -1    0    0  501    0  0.00000000000E+00  0.00000000000E+00 -0.24886516254E+04  0.24886516254E+04  0.25500000920E-02 0. -1.
    10030    2    1    2    0    0  0.00000000000E+00  0.00000000000E+00 -0.14709468371E+04  0.35063564137E+04  0.31828997317E+04 0.  0.
        1    1    3    3  502    0 -0.57500605234E+02  0.15768522309E+04 -0.50718635426E+03  0.16574098092E+04  0.50400001928E-02 0. -1.
       -1    1    3    3    0  502  0.57500605234E+02 -0.15768522309E+04 -0.96376048283E+03  0.18489466044E+04  0.50400001928E-02 0.  1.
</event>
<event>
 5   0  0.8545153E-07  0.3199557E+04  0.7818609E-02  0.8188934E-01
        1   -1    0    0  501    0  0.00000000000E+00  0.00000000000E+00  0.23594151998E+04  0.23594151998E+04  0.50400001928E-02 0. -1.
       -1   -1    0    0    0  501  0.00000000000E+00  0.00000000000E+00 -0.10847144101E+04  0.10847144101E+04  0.50400001928E-02 0.  1.
    10030    2    1    2    0    0  0.00000000000E+00  0.00000000000E+00  0.12747007897E+04  0.34441296099E+04  0.31995572610E+04 0.  0.
        3    1    3    3  502    0 -0.69608275044E+03 -0.13776613435E+04  0.10899796526E+04  0.18895866284E+04  0.10100000352E+00 0. -1.
       -3    1    3    3    0  502  0.69608275044E+03  0.13776613435E+04  0.18472113714E+03  0.15545429816E+04  0.10100000352E+00 0.  1.
</event>
<event>
 5   0  0.2621528E-06  0.3200030E+04  0.7818609E-02  0.8188809E-01
        2   -1    0    0  501    0  0.00000000000E+00  0.00000000000E+00  0.27396941565E+04  0.27396941565E+04  0.25500000920E-02 0.  1.
       -2   -1    0    0    0  501  0.00000000000E+00  0.00000000000E+00 -0.93442833171E+03  0.93442833171E+03  0.25500000920E-02 0. -1.
    10030    2    1    2    0    0  0.00000000000E+00  0.00000000000E+00  0.18052658248E+04  0.36741224882E+04  0.32000298999E+04 0.  0.
        2    1    3    3  502    0  0.20315265594E+02 -0.12787995222E+04  0.20064768960E+04  0.23794307013E+04  0.25500000920E-02 0.  1.
       -2    1    3    3    0  502 -0.20315265594E+02  0.12787995222E+04 -0.20121107120E+03  0.12946917869E+04  0.25500000920E-02 0. -1.
</event>
<event>
 5   0  0.8512855E-07  0.3191014E+04  0.7818609E-02  0.8191194E-01
       -1   -1    0    0    0  501  0.00000000000E+00  0.00000000000E+00  0.19486369643E+04  0.19486369643E+04  0.50400001928E-02 0. -1.
        1   -1    0    0  501    0  0.00000000000E+00  0.00000000000E+00 -0.13063711618E+04  0.13063711618E+04  0.50400001928E-02 0.  1.
    10030    2    1    2    0    0  0.00000000000E+00  0.00000000000E+00  0.64226580253E+03  0.32550081261E+04  0.31910143434E+04 0.  0.
        5    1    3    3  502    0 -0.31744179088E+03  0.15633048719E+04  0.29003158336E+03  0.16213672695E+04  0.46999998093E+01 0. -1.
       -5    1    3    3    0  502  0.31744179088E+03 -0.15633048719E+04  0.35223421917E+03  0.16336408566E+04  0.46999998093E+01 0.  1.
</event>
<event>
 5   0  0.2404430E-06  0.3167180E+04  0.7818609E-02  0.8197539E-01
        2   -1    0    0  501    0  0.00000000000E+00  0.00000000000E+00  0.14393247807E+04  0.14393247807E+04  0.25500000920E-02 0.  1.
       -2   -1    0    0    0  501  0.00000000000E+00  0.00000000000E+00 -0.17423154044E+04  0.17423154044E+04  0.25500000920E-02 0. -1.
    10030    2    1    2    0    0  0.00000000000E+00  0.00000000000E+00 -0.30299062372E+03  0.31816401850E+04  0.31671802836E+04 0.  0.
        4    1    3    3  502    0 -0.83390575872E+03 -0.47881239167E+03 -0.14154511621E+04  0.17111878114E+04  0.12699999809E+01 0. -1.
       -4    1    3    3    0  502  0.83390575872E+03  0.47881239167E+03  0.11124605383E+04  0.14704523736E+04  0.12699999809E+01 0.  1.
</event>
<event>
 5   0  0.2337504E-06  0.3219011E+04  0.7818609E-02  0.8183814E-01
       -2   -1    0    0    0  501  0.00000000000E+00  0.00000000000E+00  0.13282959978E+04  0.13282959978E+04  0.25500000920E-02 0.  1.
        2   -1    0    0  501    0  0.00000000000E+00  0.00000000000E+00 -0.19502486855E+04  0.19502486855E+04  0.25500000920E-02 0. -1.
    10030    2    1    2    0    0  0.00000000000E+00  0.00000000000E+00 -0.62195268771E+03  0.32785446834E+04  0.32190107324E+04 0.  0.
        1    1    3    3  502    0  0.14045265012E+04 -0.52362090492E+03 -0.90802088635E+03  0.17525340153E+04  0.50400001928E-02 0.  1.
       -1    1    3    3    0  502 -0.14045265012E+04  0.52362090492E+03  0.28606819864E+03  0.15260106681E+04  0.50400001928E-02 0. -1.
</event>
<event>
 5   0  0.2337504E-06  0.3202238E+04  0.7818609E-02  0.8188226E-01
       -2   -1    0    0    0  501  0.00000000000E+00  0.00000000000E+00  0.17310428497E+04  0.17310428497E+04  0.25500000920E-02 0. -1.
        2   -1    0    0  501    0  0.00000000000E+00  0.00000000000E+00 -0.14809464758E+04  0.14809464758E+04  0.25500000920E-02 0.  1.
    10030    2    1    2    0    0  0.00000000000E+00  0.00000000000E+00  0.25009637394E+03  0.32119893255E+04  0.32022378473E+04 0.  0.
        1    1    3    3  502    0  0.12447318505E+04  0.10060488596E+04  0.79191134000E+02  0.16024240772E+04  0.50400001928E-02 0.  1.
       -1    1    3    3    0  502 -0.12447318505E+04 -0.10060488596E+04  0.17090523994E+03  0.16095652483E+04  0.50400001928E-02 0. -1.
</event>
<event>
 5   0  0.8383008E-07  0.3195733E+04  0.7818609E-02  0.8189945E-01
        1   -1    0    0  501    0  0.00000000000E+00  0.00000000000E+00  0.25271008920E+04  0.25271008920E+04  0.50400001928E-02 0. -1.
       -1   -1    0    0    0  501  0.00000000000E+00  0.00000000000E+00 -0.10103188345E+04  0.10103188345E+04  0.50400001928E-02 0.  1.
    10030    2    1    2    0    0  0.00000000000E+00  0.00000000000E+00  0.15167820575E+04  0.35374197265E+04  0.31957331728E+04 0.  0.
        4    1    3    3  502    0  0.56088135373E+02 -0.15958531309E+04  0.69496810336E+03  0.17415152517E+04  0.12699999809E+01 0.  1.
       -4    1    3    3    0  502 -0.56088135373E+02  0.15958531309E+04  0.82181395416E+03  0.17959044748E+04  0.12699999809E+01 0. -1.
</event>
<event>
 5   0  0.2404430E-06  0.3189235E+04  0.7818609E-02  0.8191666E-01
        2   -1    0    0  501    0  0.00000000000E+00  0.00000000000E+00  0.11869542453E+04  0.11869542453E+04  0.25500000920E-02 0. -1.
       -2   -1    0    0    0  501  0.00000000000E+00  0.00000000000E+00 -0.21422934697E+04  0.21422934698E+04  0.25500000920E-02 0.  1.
    10030    2    1    2    0    0  0.00000000000E+00  0.00000000000E+00 -0.95533922443E+03  0.33292477151E+04  0.31892345970E+04 0.  0.
        4    1    3    3  502    0  0.98267209182E+03  0.89151556890E+03  0.44567215536E+03  0.13996677222E+04  0.12699999809E+01 0. -1.
       -4    1    3    3    0  502 -0.98267209182E+03 -0.89151556890E+03 -0.14010113798E+04  0.19295799929E+04  0.12699999809E+01 0.  1.
</event>
<event>
 5   0  0.2404430E-06  0.3211531E+04  0.7818609E-02  0.8185779E-01
       -2   -1    0    0    0  501  0.00000000000E+00  0.00000000000E+00  0.17632550887E+04  0.17632550887E+04  0.25500000920E-02 0. -1.
        2   -1    0    0  501    0  0.00000000000E+00  0.00000000000E+00 -0.14623421803E+04  0.14623421803E+04  0.25500000920E-02 0.  1.
    10030    2    1    2    0    0  0.00000000000E+00  0.00000000000E+00  0.30091290845E+03  0.32255972691E+04  0.32115306574E+04 0.  0.
        4    1    3    3  502    0  0.38570732362E+03 -0.95815949129E+03 -0.10844168201E+04  0.14975984785E+04  0.12699999809E+01 0.  1.
       -4    1    3    3    0  502 -0.38570732362E+03  0.95815949129E+03  0.13853297286E+04  0.17279987905E+04  0.12699999809E+01 0. -1.
</event>
<event>
 5   0  0.8487944E-07  0.3181085E+04  0.7818609E-02  0.8193830E-01
       -1   -1    0    0    0  501  0.00000000000E+00  0.00000000000E+00  0.12342633130E+04  0.12342633130E+04  0.50400001928E-02 0. -1.
        1   -1    0    0  501    0  0.00000000000E+00  0.00000000000E+00 -0.20496648210E+04  0.20496648210E+04  0.50400001928E-02 0.  1.
    10030    2    1    2    0    0  0.00000000000E+00  0.00000000000E+00 -0.81540150801E+03  0.32839281340E+04  0.31810854075E+04 0.  0.
        2    1    3    3  502    0 -0.46999838010E+02 -0.96525087214E+03 -0.17118347674E+04  0.19657813973E+04  0.25500000920E-02 0.  1.
       -2    1    3    3    0  502  0.46999838010E+02  0.96525087214E+03  0.89643325942E+03  0.13181467367E+04  0.25500000920E-02 0. -1.
</event>
<event>
 5   0  0.2337504E-06  0.3178778E+04  0.7818609E-02  0.8194444E-01
       -2   -1    0    0    0  501  0.00000000000E+00  0.00000000000E+00  0.11572556236E+04  0.11572556236E+04  0.25500000920E-02 0.  1.
        2   -1    0    0  501    0  0.00000000000E+00  0.00000000000E+00 -0.21828864335E+04  0.21828864335E+04  0.25500000920E-02 0. -1.
    10030    2    1    2    0    0  0.00000000000E+00  0.00000000000E+00 -0.10256308099E+04  0.33401420571E+04  0.31787781306E+04 0.  0.
        1    1    3    3  502    0  0.14785700503E+04 -0.57911146849E+03 -0.58422179233E+03  0.16919972190E+04  0.50400001928E-02 0. -1.
       -1    1    3    3    0  502 -0.14785700503E+04  0.57911146849E+03 -0.44140901752E+03  0.16481448381E+04  0.50400001928E-02 0.  1.
</event>
<event>
 5   0  0.8512855E-07  0.3191482E+04  0.7818609E-02  0.8191070E-01
        1   -1    0    0  501    0  0.00000000000E+00  0.00000000000E+00  0.15142083962E+04  0.15142083962E+04  0.50400001928E-02 0. -1.
       -1   -1    0    0    0  501  0.00000000000E+00  0.00000000000E+00 -0.16816641657E+04  0.16816641657E+04  0.50400001928E-02 0.  1.
    10030    2    1    2    0    0  0.00000000000E+00  0.00000000000E+00 -0.16745576943E+03  0.31958725619E+04  0.31914824137E+04 0.  0.
        5    1    3    3  502    0 -0.12300013068E+04  0.34054231206E+03  0.87544965192E+03  0.15476777649E+04  0.46999998093E+01 0. -1.
       -5    1    3    3    0  502  0.12300013068E+04 -0.34054231206E+03 -0.10429054214E+04  0.16481947970E+04  0.46999998093E+01 0.  1.
</event>
<event>
 5   0  0.8512855E-07  0.3185820E+04  0.7818609E-02  0.8192572E-01
        1   -1    0    0  501    0  0.00000000000E+00  0.00000000000E+00  0.18547922750E+04  0.18547922750E+04  0.50400001928E-02 0.  1.
       -1   -1    0    0    0  501  0.00000000000E+00  0.00000000000E+00 -0.13680031579E+04  0.13680031579E+04  0.50400001928E-02 0. -1.
    10030    2    1    2    0    0  0.00000000000E+00  0.00000000000E+00  0.48678911712E+03  0.32227954329E+04  0.31858196367E+04 0.  0.
        5    1    3    3  502    0 -0.12615341977E+04  0.14639900588E+03  0.12160310132E+04  0.17583101876E+04  0.46999998093E+01 0.  1.
       -5    1    3    3    0  502  0.12615341977E+04 -0.14639900588E+03 -0.72924189604E+03  0.14644852453E+04  0.46999998093E+01 0. -1.
</event>
<event>
 5   0  0.8512855E-07  0.3184831E+04  0.7818609E-02  0.8192835E-01
       -1   -1    0    0    0  501  0.00000000000E+00  0.00000000000E+00  0.13382389749E+04  0.13382389749E+04  0.50400001928E-02 0.  1.
        1   -1    0    0  501    0  0.00000000000E+00  0.00000000000E+00 -0.18948691439E+04  0.18948691440E+04  0.50400001928E-02 0. -1.
    10030    2    1    2    0    0  0.00000000000E+00  0.00000000000E+00 -0.55663016909E+03  0.32331081188E+04  0.31848313869E+04 0.  0.
        5    1    3    3  502    0 -0.45804723791E+03 -0.13852555565E+04 -0.92597131985E+03  0.17280582178E+04  0.46999998093E+01 0. -1.
       -5    1    3    3    0  502  0.45804723791E+03  0.13852555565E+04  0.36934115076E+03  0.15050499010E+04  0.46999998093E+01 0.  1.
</event>
<event>
 5   0  0.8487944E-07  0.3188282E+04  0.7818609E-02  0.8191919E-01
        1   -1    0    0  501    0  0.00000000000E+00  0.00000000000E+00  0.15099293566E+04  0.15099293566E+04  0.50400001928E-02 0.  1.
       -1   -1    0    0    0  501  0.00000000000E+00  0.00000000000E+00 -0.16830497151E+04  0.16830497151E+04  0.50400001928E-02 0. -1.
    10030    2    1    2    0    0  0.00000000000E+00  0.00000000000E+00 -0.17312035844E+03  0.31929790717E+04  0.31882824050E+04 0.  0.
        2    1    3    3  502    0  0.20421654259E+03 -0.14991705535E+04  0.41624457795E+03  0.15692279291E+04  0.25500000920E-02 0.  1.
       -2    1    3    3    0  502 -0.20421654259E+03  0.14991705535E+04 -0.58936493640E+03  0.16237511426E+04  0.25500000920E-02 0. -1.
</event>
<event>
 5   0  0.2466076E-06  0.3297864E+04  0.7818609E-02  0.8163439E-01
       -2   -1    0    0    0  501  0.00000000000E+00  0.00000000000E+00  0.10143553132E+04  0.10143553132E+04  0.25500000920E-02 0. -1.
        2   -1    0    0  501    0  0.00000000000E+00  0.00000000000E+00 -0.26804975376E+04  0.26804975376E+04  0.25500000920E-02 0.  1.
    10030    2    1    2    0    0  0.00000000000E+00  0.00000000000E+00 -0.16661422244E+04  0.36948528508E+04  0.32978641084E+04 0.  0.
        3    1    3    3  502    0  0.72005126172E+02 -0.13041636071E+04 -0.19606794510E+04  0.23559056374E+04  0.10100000352E+00 0.  1.
       -3    1    3    3    0  502 -0.72005126172E+02  0.13041636071E+04  0.29453722662E+03  0.13389472134E+04  0.10100000352E+00 0. -1.
</event>
<event>
 5   0  0.2401139E-06  0.3212503E+04  0.7818609E-02  0.8185523E-01
       -2   -1    0    0    0  501  0.00000000000E+00  0.00000000000E+00  0.12910916809E+04  0.12910916809E+04  0.25500000920E-02 0. -1.
        2   -1    0    0  501    0  0.00000000000E+00  0.00000000000E+00 -0.19983424423E+04  0.19983424423E+04  0.25500000920E-02 0.  1.
    10030    2    1    2    0    0  0.00000000000E+00  0.00000000000E+00 -0.70725076136E+03  0.32894341233E+04  0.32125026400E+04 0.  0.
        5    1    3    3  502    0 -0.11610085394E+04  0.64805698091E+03  0.56912266240E+03  0.14463199418E+04  0.46999998093E+01 0. -1.
       -5    1    3    3    0  502  0.11610085394E+04 -0.64805698091E+03 -0.12763734238E+04  0.18431141815E+04  0.46999998093E+01 0.  1.
</event>
<event>
 5   0  0.2621528E-06  0.3208944E+04  0.7818609E-02  0.8186459E-01
       -2   -1    0    0    0  501  0.00000000000E+00  0.00000000000E+00  0.10194072060E+04  0.10194072060E+04  0.25500000920E-02 0. -1.
        2   -1    0    0  501    0  0.00000000000E+00  0.00000000000E+00 -0.25253208893E+04  0.25253208893E+04  0.25500000920E-02 0.  1.
    10030    2    1    2    0    0  0.00000000000E+00  0.00000000000E+00 -0.15059136833E+04  0.35447280952E+04  0.32089439458E+04 0.  0.
        2    1    3    3  502    0 -0.59357344740E+03 -0.12712432923E+03 -0.23935761861E+04  0.24693515326E+04  0.25500000920E-02 0.  1.
       -2    1    3    3    0  502  0.59357344740E+03  0.12712432923E+03  0.88766250284E+03  0.10753765626E+04  0.25500000920E-02 0. -1.
</event>
<event>
 5   0  0.8383008E-07  0.3209474E+04  0.7818609E-02  0.8186320E-01
       -1   -1    0    0    0  501  0.00000000000E+00  0.00000000000E+00  0.88101042763E+03  0.88101042764E+03  0.50400001928E-02 0.  1.
        1   -1    0    0  501    0  0.00000000000E+00  0.00000000000E+00 -0.29229848047E+04  0.29229848047E+04  0.50400001928E-02 0. -1.
    10030    2    1    2    0    0  0.00000000000E+00  0.00000000000E+00 -0.20419743771E+04  0.38039952324E+04  0.32094735349E+04 0.  0.
        4    1    3    3  502    0 -0.82860938819E+03 -0.40628161588E+03 -0.25770042523E+04  0.27372633777E+04  0.12699999809E+01 0. -1.
       -4    1    3    3    0  502  0.82860938819E+03  0.40628161588E+03  0.53502987518E+03  0.10667318547E+04  0.12699999809E+01 0.  1.
</event>
<event>
 5   0  0.2337504E-06  0.3194606E+04  0.7818609E-02  0.8190243E-01
       -2   -1    0    0    0  501  0.00000000000E+00  0.00000000000E+00  0.11207947557E+04  0.11207947557E+04  0.25500000920E-02 0. -1.
        2   -1    0    0  501    0  0.00000000000E+00  0.00000000000E+00 -0.22764003053E+04  0.22764003053E+04  0.25500000920E-02 0.  1.
    10030    2    1    2    0    0  0.00000000000E+00  0.00000000000E+00 -0.11556055496E+04  0.33971950610E+04  0.31946064071E+04 0.  0.
        1    1    3    3  502    0  0.92168514398E+03 -0.12543189038E+04 -0.95909053130E+03  0.18282981333E+04  0.50400001928E-02 0. -1.
       -1    1    3    3    0  502 -0.92168514398E+03  0.12543189038E+04 -0.19651501831E+03  0.15688969276E+04  0.50400001928E-02 0.  1.
</event>
<event>
 5   0  0.8487944E-07  0.3182965E+04  0.7818609E-02  0.8193331E-01
        1   -1    0    0  501    0  0.00000000000E+00  0.00000000000E+00  0.13509800019E+04  0.13509800019E+04  0.50400001928E-02 0. -1.
       -1   -1    0    0    0  501  0.00000000000E+00  0.00000000000E+00 -0.18747991628E+04  0.18747991628E+04  0.50400001928E-02 0.  1.
    10030    2    1    2    0    0  0.00000000000E+00  0.00000000000E+00 -0.52381916096E+03  0.32257791647E+04  0.31829647667E+04 0.  0.
        2    1    3    3  502    0  0.92348464906E+03 -0.99152883166E+03 -0.11079214559E+04  0.17502694860E+04  0.25500000920E-02 0.  1.
       -2    1    3    3    0  502 -0.92348464906E+03  0.99152883166E+03  0.58410229493E+03  0.14755096787E+04  0.25500000920E-02 0. -1.
</event>
<event>
 5   0  0.8681172E-07  0.3190125E+04  0.7818609E-02  0.8191430E-01
       -1   -1    0    0    0  501  0.00000000000E+00  0.00000000000E+00  0.16931187349E+04  0.16931187349E+04  0.50400001928E-02 0.  1.
        1   -1    0    0  501    0  0.00000000000E+00  0.00000000000E+00 -0.15026854906E+04  0.15026854906E+04  0.50400001928E-02 0. -1.
    10030    2    1    2    0    0  0.00000000000E+00  0.00000000000E+00  0.19043324431E+03  0.31958042256E+04  0.31901253624E+04 0.  0.
        1    1    3    3  502    0  0.35460488904E+02  0.15679873317E+04 -0.19578841780E+03  0.15805615531E+04  0.50400001928E-02 0. -1.
       -1    1    3    3    0  502 -0.35460488904E+02 -0.15679873317E+04  0.38622166211E+03  0.16152426725E+04  0.50400001928E-02 0.  1.
</event>
<event>
 5   0  0.8545153E-07  0.3185681E+04  0.7818609E-02  0.8192609E-01
        1   -1    0    0  501    0  0.00000000000E+00  0.00000000000E+00  0.15210380617E+04  0.15210380617E+04  0.50400001928E-02 0. -1.
       -1   -1    0    0    0  501  0.00000000000E+00  0.00000000000E+00 -0.16680321870E+04  0.16680321870E+04  0.50400001928E-02 0.  1.
    10030    2    1    2    0    0  0.00000000000E+00  0.00000000000E+00 -0.14699412534E+03  0.31890702487E+04  0.31856807401E+04 0.  0.
        3    1    3    3  502    0 -0.34613542557E+03 -0.14765674270E+04  0.41392893150E+03  0.15720681505E+04  0.10100000352E+00 0.  1.
       -3    1    3    3    0  502  0.34613542557E+03  0.14765674270E+04 -0.56092305683E+03  0.16170020981E+04  0.10100000352E+00 0. -1.
</event>
<event>
 5   0  0.8487944E-07  0.3179080E+04  0.7818609E-02  0.8194364E-01
       -1   -1    0    0    0  501  0.00000000000E+00  0.00000000000E+00  0.14762339134E+04  0.14762339134E+04  0.50400001928E-02 0. -1.
        1   -1    0    0  501    0  0.00000000000E+00  0.00000000000E+00 -0.17115425329E+04  0.17115425329E+04  0.50400001928E-02 0.  1.
    10030    2    1    2    0    0  0.00000000000E+00  0.00000000000E+00 -0.23530861946E+03  0.31877764463E+04  0.31790798236E+04 0.  0.
        2    1    3    3  502    0 -0.12131096390E+04 -0.96551438832E+03  0.23370987577E+03  0.15679519560E+04  0.25500000920E-02 0.  1.
       -2    1    3    3    0  502  0.12131096390E+04  0.96551438832E+03 -0.46901849523E+03  0.16198244902E+04  0.25500000920E-02 0. -1.
</event>
<event>
 5   0  0.8545153E-07  0.3054468E+04  0.7818609E-02  0.8228346E-01
        1   -1    0    0  501    0  0.00000000000E+00  0.00000000000E+00  0.19959479432E+04  0.19959479432E+04  0.50400001928E-02 0. -1.
       -1   -1    0    0    0  501  0.00000000000E+00  0.00000000000E+00 -0.11685891816E+04  0.11685891816E+04  0.50400001928E-02 0.  1.
    10030    2    1    2    0    0  0.00000000000E+00  0.00000000000E+00  0.82735876165E+03  0.31645371248E+04  0.30544676612E+04 0.  0.
        3    1    3    3  502    0  0.46257815493E+03  0.91731947156E+03 -0.75708188035E+03  0.12761765341E+04  0.10100000352E+00 0.  1.
       -3    1    3    3    0  502 -0.46257815493E+03 -0.91731947156E+03  0.15844406420E+04  0.18883605907E+04  0.10100000352E+00 0. -1.
</event>
<event>
 5   0  0.8681172E-07  0.3177584E+04  0.7818609E-02  0.8194762E-01
       -1   -1    0    0    0  501  0.00000000000E+00  0.00000000000E+00  0.22619970702E+04  0.22619970702E+04  0.50400001928E-02 0. -1.
        1   -1    0    0  501    0  0.00000000000E+00  0.00000000000E+00 -0.11159432454E+04  0.11159432454E+04  0.50400001928E-02 0.  1.
    10030    2    1    2    0    0  0.00000000000E+00  0.00000000000E+00  0.11460538247E+04  0.33779403156E+04  0.31775842092E+04 0.  0.
        1    1    3    3  502    0 -0.79092542797E+03  0.81332388399E+03 -0.60940226008E+03  0.12878004067E+04  0.50400001928E-02 0.  1.
       -1    1    3    3    0  502  0.79092542797E+03 -0.81332388399E+03  0.17554560848E+04  0.20901399089E+04  0.50400001928E-02 0. -1.
</event>
<event>
 5   0  0.8487944E-07  0.3232975E+04  0.7818609E-02  0.8180163E-01
        1   -1    0    0  501    0  0.00000000000E+00  0.00000000000E+00  0.12483239795E+04  0.12483239796E+04  0.50400001928E-02 0. -1.
       -1   -1    0    0    0  501  0.00000000000E+00  0.00000000000E+00 -0.20932315380E+04  0.20932315380E+04  0.50400001928E-02 0.  1.
    10030    2    1    2    0    0  0.00000000000E+00  0.00000000000E+00 -0.84490755850E+03  0.33415555176E+04  0.32329745583E+04 0.  0.
        2    1    3    3  502    0  0.51159657790E+03 -0.29195585287E+03 -0.19783559018E+04  0.20641853968E+04  0.25500000920E-02 0.  1.
       -2    1    3    3    0  502 -0.51159657790E+03  0.29195585287E+03  0.11334483433E+04  0.12773701208E+04  0.25500000920E-02 0. -1.
</event>
<event>
 5   0  0.2621528E-06  0.3199014E+04  0.7818609E-02  0.8189078E-01
       -2   -1    0    0    0  501  0.00000000000E+00  0.00000000000E+00  0.16408950680E+04  0.16408950680E+04  0.25500000920E-02 0.  1.
        2   -1    0    0  501    0  0.00000000000E+00  0.00000000000E+00 -0.15591624544E+04  0.15591624544E+04  0.25500000920E-02 0. -1.
    10030    2    1    2    0    0  0.00000000000E+00  0.00000000000E+00  0.81732613560E+02  0.32000575224E+04  0.31990135865E+04 0.  0.
        2    1    3    3  502    0 -0.15293553477E+04  0.41768089381E+03  0.25315448705E+03  0.16054508099E+04  0.25500000920E-02 0.  1.
       -2    1    3    3    0  502  0.15293553477E+04 -0.41768089381E+03 -0.17142187349E+03  0.15946067125E+04  0.25500000920E-02 0. -1.
</event>
<event>
 5   0  0.8487944E-07  0.3211294E+04  0.7818609E-02  0.8185841E-01
       -1   -1    0    0    0  501  0.00000000000E+00  0.00000000000E+00  0.10608060920E+04  0.10608060920E+04  0.50400001928E-02 0. -1.
        1   -1    0    0  501    0  0.00000000000E+00  0.00000000000E+00 -0.24303231413E+04  0.24303231413E+04  0.50400001928E-02 0.  1.
    10030    2    1    2    0    0  0.00000000000E+00  0.00000000000E+00 -0.13695170492E+04  0.34911292333E+04  0.32112935673E+04 0.  0.
        2    1    3    3  502    0 -0.13528559424E+04  0.86006929378E+03 -0.78298220694E+03  0.17840962775E+04  0.25500000920E-02 0.  1.
       -2    1    3    3    0  502  0.13528559424E+04 -0.86006929378E+03 -0.58653484227E+03  0.17070329558E+04  0.25500000920E-02 0. -1.
</event>
<event>
 5   0  0.8512855E-07  0.3265264E+04  0.7818609E-02  0.8171791E-01
       -1   -1    0    0    0  501  0.00000000000E+00  0.00000000000E+00  0.13159207365E+04  0.13159207365E+04  0.50400001928E-02 0. -1.
        1   -1    0    0  501    0  0.00000000000E+00  0.00000000000E+00 -0.20255683550E+04  0.20255683550E+04  0.50400001928E-02 0.  1.
    10030    2    1    2    0    0  0.00000000000E+00  0.00000000000E+00 -0.70964761854E+03  0.33414890915E+04  0.32652640943E+04 0.  0.
        5    1    3    3  502    0 -0.13173800053E+04 -0.68988941975E+03  0.33472175329E+03  0.15243025395E+04  0.46999998093E+01 0. -1.
       -5    1    3    3    0  502  0.13173800053E+04  0.68988941975E+03 -0.10443693718E+04  0.18171865520E+04  0.46999998093E+01 0.  1.
</event>
<event>
 5   0  0.2466076E-06  0.2762027E+04  0.7818609E-02  0.8315155E-01
        2   -1    0    0  501    0  0.00000000000E+00  0.00000000000E+00  0.15826911787E+04  0.15826911787E+04  0.25500000920E-02 0.  1.
       -2   -1    0    0    0  501  0.00000000000E+00  0.00000000000E+00 -0.12050346369E+04  0.12050346369E+04  0.25500000920E-02 0. -1.
    10030    2    1    2    0    0  0.00000000000E+00  0.00000000000E+00  0.37765654183E+03  0.27877258156E+04  0.27620265675E+04 0.  0.
        3    1    3    3  502    0  0.36120484032E+02 -0.23818128928E+03 -0.11836635443E+04  0.12079298043E+04  0.10100000352E+00 0. -1.
       -3    1    3    3    0  502 -0.36120484032E+02  0.23818128928E+03  0.15613200861E+04  0.15797960113E+04  0.10100000352E+00 0.  1.
</event>
<event>
 5   0  0.2466076E-06  0.3186340E+04  0.7818609E-02  0.8192434E-01
        2   -1    0    0  501    0  0.00000000000E+00  0.00000000000E+00  0.25008897229E+04  0.25008897229E+04  0.25500000920E-02 0.  1.
       -2   -1    0    0    0  501  0.00000000000E+00  0.00000000000E+00 -0.10149153364E+04  0.10149153364E+04  0.25500000920E-02 0. -1.
    10030    2    1    2    0    0  0.00000000000E+00  0.00000000000E+00  0.14859743865E+04  0.35158050592E+04  0.31863404302E+04 0.  0.
        3    1    3    3  502    0 -0.61927847977E+03  0.28755360951E+03 -0.84529373676E+03  0.10866068403E+04  0.10100000352E+00 0. -1.
       -3    1    3    3    0  502  0.61927847977E+03 -0.28755360951E+03  0.23312681233E+04  0.24291982189E+04  0.10100000352E+00 0.  1.
</event>
<event>
 5   0  0.2404430E-06  0.3244559E+04  0.7818609E-02  0.8177147E-01
        2   -1    0    0  501    0  0.00000000000E+00  0.00000000000E+00  0.22488992270E+04  0.22488992270E+04  0.25500000920E-02 0. -1.
       -2   -1    0    0    0  501  0.00000000000E+00  0.00000000000E+00 -0.11702571900E+04  0.11702571900E+04  0.25500000920E-02 0.  1.
    10030    2    1    2    0    0  0.00000000000E+00  0.00000000000E+00  0.10786420370E+04  0.34191564170E+04  0.32445588236E+04 0.  0.
        4    1    3    3  502    0 -0.76686117708E+03 -0.14275049549E+04  0.45808570876E+03  0.16839508872E+04  0.12699999809E+01 0. -1.
       -4    1    3    3    0  502  0.76686117708E+03  0.14275049549E+04  0.62055632824E+03  0.17352055298E+04  0.12699999809E+01 0.  1.
</event>
<event>
 5   0  0.2466076E-06  0.3219662E+04  0.7818609E-02  0.8183644E-01
       -2   -1    0    0    0  501  0.00000000000E+00  0.00000000000E+00  0.19154974921E+04  0.19154974921E+04  0.25500000920E-02 0.  1.
        2   -1    0    0  501    0  0.00000000000E+00  0.00000000000E+00 -0.13529416950E+04  0.13529416950E+04  0.25500000920E-02 0. -1.
    10030    2    1    2    0    0  0.00000000000E+00  0.00000000000E+00  0.56255579711E+03  0.32684391871E+04  0.32196623573E+04 0.  0.
        3    1    3    3  502    0  0.73172542208E+03 -0.45429801431E+03  0.16619365515E+04  0.18718552002E+04  0.10100000352E+00 0.  1.
       -3    1    3    3    0  502 -0.73172542208E+03  0.45429801431E+03 -0.10993807544E+04  0.13965839869E+04  0.10100000352E+00 0. -1.
</event>
<event>
 5   0  0.2337504E-06  0.3193932E+04  0.7818609E-02  0.8190422E-01
       -2   -1    0    0    0  501  0.00000000000E+00  0.00000000000E+00  0.12982032682E+04  0.12982032682E+04  0.25500000920E-02 0. -1.
        2   -1    0    0  501    0  0.00000000000E+00  0.00000000000E+00 -0.19644840630E+04  0.19644840630E+04  0.25500000920E-02 0.  1.
    10030    2    1    2    0    0  0.00000000000E+00  0.00000000000E+00 -0.66628079478E+03  0.32626873311E+04  0.31939315151E+04 0.  0.
        1    1    3    3  502    0  0.10282833640E+04 -0.11283311977E+04 -0.81206301046E+03  0.17291455408E+04  0.50400001928E-02 0.  1.
       -1    1    3    3    0  502 -0.10282833640E+04  0.11283311977E+04  0.14578221568E+03  0.15335417903E+04  0.50400001928E-02 0. -1.
</event>
<event>
 5   0  0.2466076E-06  0.3052174E+04  0.7818609E-02  0.8228987E-01
       -2   -1    0    0    0  501  0.00000000000E+00  0.00000000000E+00  0.13316101669E+04  0.13316101669E+04  0.25500000920E-02 0.  1.
        2   -1    0    0  501    0  0.00000000000E+00  0.00000000000E+00 -0.17489660119E+04  0.17489660119E+04  0.25500000920E-02 0. -1.
    10030    2    1    2    0    0  0.00000000000E+00  0.00000000000E+00 -0.41735584491E+03  0.30805761788E+04  0.30521736012E+04 0.  0.
        3    1    3    3  502    0 -0.62183091378E+03 -0.13028744673E+04  0.29068401039E+03  0.14726346346E+04  0.10100000352E+00 0.  1.
       -3    1    3    3    0  502  0.62183091378E+03  0.13028744673E+04 -0.70803985531E+03  0.16079415442E+04  0.10100000352E+00 0. -1.
</event>
<event>
 5   0  0.2401139E-06  0.3211684E+04  0.7818609E-02  0.8185738E-01
       -2   -1    0    0    0  501  0.00000000000E+00  0.00000000000E+00  0.17500686580E+04  0.17500686580E+04  0.25500000920E-02 0. -1.
        2   -1    0    0  501    0  0.00000000000E+00  0.00000000000E+00 -0.14735011226E+04  0.14735011226E+04  0.25500000920E-02 0.  1.
    10030    2    1    2    0    0  0.00000000000E+00  0.00000000000E+00  0.27656753546E+03  0.32235697806E+04  0.32116837529E+04 0.  0.
        5    1    3    3  502    0  0.85668050868E+03  0.11386037493E+04  0.88155530177E+03  0.16755541865E+04  0.46999998093E+01 0. -1.
       -5    1    3    3    0  502 -0.85668050868E+03 -0.11386037493E+04 -0.60498776631E+03  0.15480155940E+04  0.46999998093E+01 0.  1.
</event>
<event>
 5   0  0.8545153E-07  0.3194143E+04  0.7818609E-02  0.8190366E-01
        1   -1    0    0  501    0  0.00000000000E+00  0.00000000000E+00  0.22305126690E+04  0.22305126690E+04  0.50400001928E-02 0. -1.
       -1   -1    0    0    0  501  0.00000000000E+00  0.00000000000E+00 -0.11435209031E+04  0.11435209031E+04  0.50400001928E-02 0.  1.
    10030    2    1    2    0    0  0.00000000000E+00  0.00000000000E+00  0.10869917659E+04  0.33740335721E+04  0.31941433041E+04 0.  0.
        3    1    3    3  502    0 -0.14868011649E+04 -0.36904278748E+03  0.66550032657E+02  0.15333620577E+04  0.10100000352E+00 0. -1.
       -3    1    3    3    0  502  0.14868011649E+04  0.36904278748E+03  0.10204417332E+04  0.18406715144E+04  0.10100000352E+00 0.  1.
</event>
<event>
 5   0  0.8681172E-07  0.3124595E+04  0.7818609E-02  0.8209020E-01
       -1   -1    0    0    0  501  0.00000000000E+00  0.00000000000E+00  0.20710357168E+04  0.20710357168E+04  0.50400001928E-02 0. -1.
        1   -1    0    0  501    0  0.00000000000E+00  0.00000000000E+00 -0.11785277618E+04  0.11785277618E+04  0.50400001928E-02 0.  1.
    10030    2    1    2    0    0  0.00000000000E+00  0.00000000000E+00  0.89250795500E+03  0.32495634787E+04  0.31245947501E+04 0.  0.
        1    1    3    3  502    0 -0.45408177489E+03  0.13822255171E+04 -0.14575404057E+03  0.14621839415E+04  0.50400001928E-02 0.  1.
       -1    1    3    3    0  502  0.45408177489E+03 -0.13822255171E+04  0.10382619956E+04  0.17873795372E+04  0.50400001928E-02 0. -1.
</event>
<event>
 5   0  0.8545153E-07  0.3202875E+04  0.7818609E-02  0.8188058E-01
        1   -1    0    0  501    0  0.00000000000E+00  0.00000000000E+00  0.18573058042E+04  0.18573058042E+04  0.50400001928E-02 0. -1.
       -1   -1    0    0    0  501  0.00000000000E+00  0.00000000000E+00 -0.13808182180E+04  0.13808182180E+04  0.50400001928E-02 0.  1.
    10030    2    1    2    0    0  0.00000000000E+00  0.00000000000E+00  0.47648758614E+03  0.32381240222E+04  0.32028747655E+04 0.  0.
        3    1    3    3  502    0 -0.22600306014E+03 -0.84316868099E+03 -0.11191382656E+04  0.14193242320E+04  0.10100000352E+00 0.  1.
       -3    1    3    3    0  502  0.22600306014E+03  0.84316868099E+03  0.15956258518E+04  0.18187997902E+04  0.10100000352E+00 0. -1.
</event>
<event>
 5   0  0.8681172E-07  0.2952994E+04  0.7818609E-02  0.8257283E-01
        1   -1    0    0  501    0  0.00000000000E+00  0.00000000000E+00  0.12859163678E+04  0.12859163678E+04  0.50400001928E-02 0. -1.
       -1   -1    0    0    0  501  0.00000000000E+00  0.00000000000E+00 -0.16953228091E+04  0.16953228091E+04  0.50400001928E-02 0.  1.
    10030    2    1    2    0    0  0.00000000000E+00  0.00000000000E+00 -0.40940644128E+03  0.29812391769E+04  0.29529939715E+04 0.  0.
        1    1    3    3  502    0  0.10766909837E+04 -0.97917406372E+03 -0.45607886430E+03  0.15251404040E+04  0.50400001928E-02 0. -1.
       -1    1    3    3    0  502 -0.10766909837E+04  0.97917406372E+03  0.46672423016E+02  0.14560987729E+04  0.50400001928E-02 0.  1.
</event>
<event>
 5   0  0.8383008E-07  0.3208815E+04  0.7818609E-02  0.8186493E-01
       -1   -1    0    0    0  501  0.00000000000E+00  0.00000000000E+00  0.17364782299E+04  0.17364782299E+04  0.50400001928E-02 0.  1.
        1   -1    0    0  501    0  0.00000000000E+00  0.00000000000E+00 -0.14823812314E+04  0.14823812314E+04  0.50400001928E-02 0. -1.
    10030    2    1    2    0    0  0.00000000000E+00  0.00000000000E+00  0.25409699854E+03  0.32188594613E+04  0.32088145703E+04 0.  0.
        4    1    3    3  502    0 -0.44545049442E+03  0.12473017027E+04  0.10353848503E+04  0.16811338678E+04  0.12699999809E+01 0.  1.
       -4    1    3    3    0  502  0.44545049442E+03 -0.12473017027E+04 -0.78128785173E+03  0.15377255934E+04  0.12699999809E+01 0. -1.
</event>
<event>
 5   0  0.2404430E-06  0.3157115E+04  0.7818609E-02  0.8200236E-01
       -2   -1    0    0    0  501  0.00000000000E+00  0.00000000000E+00  0.14967284130E+04  0.14967284130E+04  0.25500000920E-02 0.  1.
        2   -1    0    0  501    0  0.00000000000E+00  0.00000000000E+00 -0.16648605039E+04  0.16648605040E+04  0.25500000920E-02 0. -1.
    10030    2    1    2    0    0  0.00000000000E+00  0.00000000000E+00 -0.16813209091E+03  0.31615889170E+04  0.31571151515E+04 0.  0.
        4    1    3    3  502    0  0.19233937457E+03 -0.11890784910E+04 -0.11057766294E+04  0.16351286371E+04  0.12699999809E+01 0. -1.
       -4    1    3    3    0  502 -0.19233937457E+03  0.11890784910E+04  0.93764453850E+03  0.15264602799E+04  0.12699999809E+01 0.  1.
</event>
<event>
 5   0  0.2401139E-06  0.3192930E+04  0.7818609E-02  0.8190687E-01
        2   -1    0    0  501    0  0.00000000000E+00  0.00000000000E+00  0.15000001419E+04  0.15000001419E+04  0.25500000920E-02 0.  1.
       -2   -1    0    0    0  501  0.00000000000E+00  0.00000000000E+00 -0.16991337409E+04  0.16991337409E+04  0.25500000920E-02 0. -1.
    10030    2    1    2    0    0  0.00000000000E+00  0.00000000000E+00 -0.19913359892E+03  0.31991338828E+04  0.31929302232E+04 0.  0.
        5    1    3    3  502    0  0.11498920405E+04 -0.70918669192E+03 -0.95179645210E+03  0.16526149113E+04  0.46999998093E+01 0. -1.
       -5    1    3    3    0  502 -0.11498920405E+04  0.70918669192E+03  0.75266285317E+03  0.15465189715E+04  0.46999998093E+01 0.  1.
</event>
<event>
 5   0  0.8681172E-07  0.3228241E+04  0.7818609E-02  0.8181398E-01
       -1   -1    0    0    0  501  0.00000000000E+00  0.00000000000E+00  0.18458715018E+04  0.18458715019E+04  0.50400001928E-02 0. -1.
        1   -1    0    0  501    0  0.00000000000E+00  0.00000000000E+00 -0.14114660266E+04  0.14114660267E+04  0.50400001928E-02 0.  1.
    10030    2    1    2    0    0  0.00000000000E+00  0.00000000000E+00  0.43440547520E+03  0.32573375285E+04  0.32282409541E+04 0.  0.
        1    1    3    3  502    0  0.10867042625E+04 -0.12500596293E+03  0.14148432144E+04  0.17883886508E+04  0.50400001928E-02 0. -1.
       -1    1    3    3    0  502 -0.10867042625E+04  0.12500596293E+03 -0.98043773920E+03  0.14689488777E+04  0.50400001928E-02 0.  1.
</event>
<event>
 5   0  0.2466076E-06  0.3177845E+04  0.7818609E-02  0.8194693E-01
        2   -1    0    0  501    0  0.00000000000E+00  0.00000000000E+00  0.15011633072E+04  0.15011633072E+04  0.25500000920E-02 0.  1.
       -2   -1    0    0    0  501  0.00000000000E+00  0.00000000000E+00 -0.16818119850E+04  0.16818119850E+04  0.25500000920E-02 0. -1.
    10030    2    1    2    0    0  0.00000000000E+00  0.00000000000E+00 -0.18064867780E+03  0.31829752922E+04  0.31778448304E+04 0.  0.
        3    1    3    3  502    0  0.12143768044E+04  0.99236077844E+03  0.16539842928E+03  0.15769741876E+04  0.10100000352E+00 0. -1.
       -3    1    3    3    0  502 -0.12143768044E+04 -0.99236077844E+03 -0.34604710708E+03  0.16060011047E+04  0.10100000352E+00 0.  1.
</event>
<event>
 5   0  0.2337504E-06  0.3174678E+04  0.7818609E-02  0.8195537E-01
       -2   -1    0    0    0  501  0.00000000000E+00  0.00000000000E+00  0.95852460239E+03  0.95852460240E+03  0.25500000920E-02 0. -1.
        2   -1    0    0  501    0  0.00000000000E+00  0.00000000000E+00 -0.26286704652E+04  0.26286704652E+04  0.25500000920E-02 0.  1.
    10030    2    1    2    0    0  0.00000000000E+00  0.00000000000E+00 -0.16701458628E+04  0.35871950676E+04  0.31746781333E+04 0.  0.
        1    1    3    3  502    0 -0.11054200864E+04  0.10206865092E+04 -0.26348556009E+03  0.15274747650E+04  0.50400001928E-02 0. -1.
       -1    1    3    3    0  502  0.11054200864E+04 -0.10206865092E+04 -0.14066603027E+04  0.20597203025E+04  0.50400001928E-02 0.  1.
</event>
<event>
 5   0  0.2621528E-06  0.3211129E+04  0.7818609E-02  0.8185884E-01
       -2   -1    0    0    0  501  0.00000000000E+00  0.00000000000E+00  0.18584763147E+04  0.18584763147E+04  0.25500000920E-02 0. -1.
        2   -1    0    0  501    0  0.00000000000E+00  0.00000000000E+00 -0.13870703666E+04  0.13870703666E+04  0.25500000920E-02 0.  1.
    10030    2    1    2    0    0  0.00000000000E+00  0.00000000000E+00  0.47140594802E+03  0.32455466813E+04  0.32111290371E+04 0.  0.
        2    1    3    3  502    0  0.58607466971E+03  0.13143023109E+04  0.95534808637E+03  0.17272996408E+04  0.25500000920E-02 0. -1.
       -2    1    3    3    0  502 -0.58607466971E+03 -0.13143023109E+04 -0.48394213835E+03  0.15182470405E+04  0.25500000920E-02 0.  1.
</event>
<event>
 5   0  0.8487944E-07  0.3209953E+04  0.7818609E-02  0.8186194E-01
       -1   -1    0    0    0  501  0.00000000000E+00  0.00000000000E+00  0.12201504961E+04  0.12201504961E+04  0.50400001928E-02 0.  1.
        1   -1    0    0  501    0  0.00000000000E+00  0.00000000000E+00 -0.21111734530E+04  0.21111734531E+04  0.50400001928E-02 0. -1.
    10030    2    1    2    0    0  0.00000000000E+00  0.00000000000E+00 -0.89102295697E+03  0.33313239491E+04  0.32099528570E+04 0.  0.
        2    1    3    3  502    0  0.24865402141E+03  0.11654587866E+04 -0.15612553363E+04  0.19640878877E+04  0.25500000920E-02 0. -1.
       -2    1    3    3    0  502 -0.24865402141E+03 -0.11654587866E+04  0.67023237928E+03  0.13672360615E+04  0.25500000920E-02 0.  1.
</event>
<event>
 5   0  0.8383008E-07  0.3212175E+04  0.7818609E-02  0.8185609E-01
        1   -1    0    0  501    0  0.00000000000E+00  0.00000000000E+00  0.15512559644E+04  0.15512559644E+04  0.50400001928E-02 0. -1.
       -1   -1    0    0    0  501  0.00000000000E+00  0.00000000000E+00 -0.16628571118E+04  0.16628571118E+04  0.50400001928E-02 0.  1.
    10030    2    1    2    0    0  0.00000000000E+00  0.00000000000E+00 -0.11160114738E+03  0.32141130762E+04  0.32121749719E+04 0.  0.
        4    1    3    3  502    0  0.14369989801E+04 -0.62660775109E+03  0.29356916723E+03  0.15949256444E+04  0.12699999809E+01 0. -1.
       -4    1    3    3    0  502 -0.14369989801E+04  0.62660775109E+03 -0.40517031461E+03  0.16191874318E+04  0.12699999809E+01 0.  1.
</event>
<event>
 5   0  0.2401139E-06  0.3209273E+04  0.7818609E-02  0.8186372E-01
        2   -1    0    0  501    0  0.00000000000E+00  0.00000000000E+00  0.28128132530E+04  0.28128132530E+04  0.25500000920E-02 0.  1.
       -2   -1    0    0    0  501  0.00000000000E+00  0.00000000000E+00 -0.91540324458E+03  0.91540324458E+03  0.25500000920E-02 0. -1.
    10030    2    1    2    0    0  0.00000000000E+00  0.00000000000E+00  0.18974100084E+04  0.37282164975E+04  0.32092730505E+04 0.  0.
        5    1    3    3  502    0 -0.69503248811E+03  0.74477851857E+03  0.23889667687E+04  0.25971040629E+04  0.46999998093E+01 0.  1.
       -5    1    3    3    0  502  0.69503248811E+03 -0.74477851857E+03 -0.49155676035E+03  0.11311124347E+04  0.46999998093E+01 0. -1.
</event>
<event>
 5   0  0.8487944E-07  0.3199717E+04  0.7818609E-02  0.8188892E-01
       -1   -1    0    0    0  501  0.00000000000E+00  0.00000000000E+00  0.21487861154E+04  0.21487861154E+04  0.50400001928E-02 0. -1.
        1   -1    0    0  501    0  0.00000000000E+00  0.00000000000E+00 -0.11911595677E+04  0.11911595677E+04  0.50400001928E-02 0.  1.
    10030    2    1    2    0    0  0.00000000000E+00  0.00000000000E+00  0.95762654772E+03  0.33399456830E+04  0.31997169501E+04 0.  0.
        2    1    3    3  502    0 -0.10167408440E+04 -0.28087696064E+03 -0.77677166997E+03  0.13099725334E+04  0.25500000920E-02 0.  1.
       -2    1    3    3    0  502  0.10167408440E+04  0.28087696064E+03  0.17343982177E+04  0.20299731497E+04  0.25500000920E-02 0. -1.
</event>
<event>
 5   0  0.8512855E-07  0.2829412E+04  0.7818609E-02  0.8294195E-01
        1   -1    0    0  501    0  0.00000000000E+00  0.00000000000E+00  0.11620985026E+04  0.11620985027E+04  0.50400001928E-02 0.  1.
       -1   -1    0    0    0  501  0.00000000000E+00  0.00000000000E+00 -0.17222227088E+04  0.17222227088E+04  0.50400001928E-02 0. -1.
    10030    2    1    2    0    0  0.00000000000E+00  0.00000000000E+00 -0.56012420619E+03  0.28843212115E+04  0.28294115510E+04 0.  0.
        5    1    3    3  502    0  0.10566731722E+04  0.66425514667E+03  0.39887904890E+03  0.13103128170E+04  0.46999998093E+01 0.  1.
       -5    1    3    3    0  502 -0.10566731722E+04 -0.66425514667E+03 -0.95900325509E+03  0.15740083945E+04  0.46999998093E+01 0. -1.
</event>
<event>
 5   0  0.8383008E-07  0.3207117E+04  0.7818609E-02  0.8186940E-01
       -1   -1    0    0    0  501  0.00000000000E+00  0.00000000000E+00  0.14827208713E+04  0.14827208713E+04  0.50400001928E-02 0. -1.
        1   -1    0    0  501    0  0.00000000000E+00  0.00000000000E+00 -0.17342440014E+04  0.17342440014E+04  0.50400001928E-02 0.  1.
    10030    2    1    2    0    0  0.00000000000E+00  0.00000000000E+00 -0.25152313011E+03  0.32169648727E+04  0.32071169463E+04 0.  0.
        4    1    3    3  502    0  0.83740538939E+03 -0.12553790324E+03 -0.14917031663E+04  0.17152805895E+04  0.12699999809E+01 0.  1.
       -4    1    3    3    0  502 -0.83740538939E+03  0.12553790324E+03  0.12401800362E+04  0.15016842832E+04  0.12699999809E+01 0. -1.
</event>
<event>
 5   0  0.8545153E-07  0.2664415E+04  0.7818609E-02  0.8346644E-01
       -1   -1    0    0    0  501  0.00000000000E+00  0.00000000000E+00  0.28155406769E+04  0.28155406769E+04  0.50400001928E-02 0. -1.
        1   -1    0    0  501    0  0.00000000000E+00  0.00000000000E+00 -0.63035030464E+03  0.63035030466E+03  0.50400001928E-02 0.  1.
    10030    2    1    2    0    0  0.00000000000E+00  0.00000000000E+00  0.21851903722E+04  0.34458909815E+04  0.26644150753E+04 0.  0.
        3    1    3    3  502    0  0.28365222370E+02  0.23509042792E+03 -0.60291459084E+03  0.64774849223E+03  0.10100000352E+00 0.  1.
       -3    1    3    3    0  502 -0.28365222370E+02 -0.23509042792E+03  0.27881049631E+04  0.27981424893E+04  0.10100000352E+00 0. -1.
</event>
<event>
 5   0  0.8512855E-07  0.3168571E+04  0.7818609E-02  0.8197167E-01
        1   -1    0    0  501    0  0.00000000000E+00  0.00000000000E+00  0.29877046268E+04  0.29877046268E+04  0.50400001928E-02 0. -1.
       -1   -1    0    0    0  501  0.00000000000E+00  0.00000000000E+00 -0.84009638423E+03  0.84009638425E+03  0.50400001928E-02 0.  1.
    10030    2    1    2    0    0  0.00000000000E+00  0.00000000000E+00  0.21476082426E+04  0.38278010111E+04  0.31685705636E+04 0.  0.
        5    1    3    3  502    0  0.21665906854E+03  0.70030768159E+03 -0.62288281151E+03  0.96196522169E+03  0.46999998093E+01 0.  1.
       -5    1    3    3    0  502 -0.21665906854E+03 -0.70030768159E+03  0.27704910541E+04  0.28658357894E+04  0.46999998093E+01 0. -1.
</event>
<event>
 5   0  0.8681172E-07  0.2823764E+04  0.7818609E-02  0.8295928E-01
        1   -1    0    0  501    0  0.00000000000E+00  0.00000000000E+00  0.23537840768E+04  0.23537840768E+04  0.50400001928E-02 0.  1.
       -1   -1    0    0    0  501  0.00000000000E+00  0.00000000000E+00 -0.84689630306E+03  0.84689630307E+03  0.50400001928E-02 0. -1.
    10030    2    1    2    0    0  0.00000000000E+00  0.00000000000E+00  0.15068877737E+04  0.32006803799E+04  0.28237641777E+04 0.  0.
        1    1    3    3  502    0 -0.32785313996E+03 -0.50227563027E+03 -0.69530261551E+03  0.91826696407E+03  0.50400001928E-02 0. -1.
       -1    1    3    3    0  502  0.32785313996E+03  0.50227563027E+03  0.22021903892E+04  0.22824134158E+04  0.50400001928E-02 0.  1.
</event>
<event>
 5   0  0.2337504E-06  0.3089537E+04  0.7818609E-02  0.8218615E-01
        2   -1    0    0  501    0  0.00000000000E+00  0.00000000000E+00  0.16771008252E+04  0.16771008252E+04  0.25500000920E-02 0.  1.
       -2   -1    0    0    0  501  0.00000000000E+00  0.00000000000E+00 -0.14228775127E+04  0.14228775127E+04  0.25500000920E-02 0. -1.
    10030    2    1    2    0    0  0.00000000000E+00  0.00000000000E+00  0.25422331255E+03  0.30999783379E+04  0.30895365676E+04 0.  0.
        1    1    3    3  502    0 -0.31211778562E+03 -0.14073564755E+04  0.68418107360E+03  0.15956733696E+04  0.50400001928E-02 0.  1.
       -1    1    3    3    0  502  0.31211778562E+03  0.14073564755E+04 -0.42995776105E+03  0.15043049682E+04  0.50400001928E-02 0. -1.
</event>
<event>
 5   0  0.8681172E-07  0.3286656E+04  0.7818609E-02  0.8166299E-01
        1   -1    0    0  501    0  0.00000000000E+00  0.00000000000E+00  0.81210900814E+03  0.81210900816E+03  0.50400001928E-02 0. -1.
       -1   -1    0    0    0  501  0.00000000000E+00  0.00000000000E+00 -0.33253250401E+04  0.33253250401E+04  0.50400001928E-02 0.  1.
    10030    2    1    2    0    0  0.00000000000E+00  0.00000000000E+00 -0.25132160320E+04  0.41374340483E+04  0.32866556985E+04 0.  0.
        1    1    3    3  502    0  0.37078953149E+03  0.31219619380E+03 -0.32332862911E+04  0.32694176209E+04  0.50400001928E-02 0.  1.
       -1    1    3    3    0  502 -0.37078953149E+03 -0.31219619380E+03  0.72007025909E+03  0.86801642734E+03  0.50400001928E-02 0. -1.
</event>
<event>
 5   0  0.2337504E-06  0.3203736E+04  0.7818609E-02  0.8187831E-01
        2   -1    0    0  501    0  0.00000000000E+00  0.00000000000E+00  0.23669251774E+04  0.23669251774E+04  0.25500000920E-02 0.  1.
       -2   -1    0    0    0  501  0.00000000000E+00  0.00000000000E+00 -0.10840986735E+04  0.10840986735E+04  0.25500000920E-02 0. -1.
    10030    2    1    2    0    0  0.00000000000E+00  0.00000000000E+00  0.12828265039E+04  0.34510238509E+04  0.32037355978E+04 0.  0.
        1    1    3    3  502    0  0.14509942073E+04  0.80387446052E+02 -0.84497714368E+02  0.14556737941E+04  0.50400001928E-02 0.  1.
       -1    1    3    3    0  502 -0.14509942073E+04 -0.80387446052E+02  0.13673242183E+04  0.19953500568E+04  0.50400001928E-02 0. -1.
</event>
<event>
 5   0  0.2401139E-06  0.3306196E+04  0.7818609E-02  0.8161321E-01
        2   -1    0    0  501    0  0.00000000000E+00  0.00000000000E+00  0.22782536263E+04  0.22782536263E+04  0.25500000920E-02 0.  1.
       -2   -1    0    0    0  501  0.00000000000E+00  0.00000000000E+00 -0.11994858464E+04  0.11994858464E+04  0.25500000920E-02 0. -1.
    10030    2    1    2    0    0  0.00000000000E+00  0.00000000000E+00  0.10787677799E+04  0.34777394727E+04  0.33061959889E+04 0.  0.
        5    1    3    3  502    0 -0.80135973274E+03 -0.42563746254E+03 -0.91410952073E+03  0.12880073667E+04  0.46999998093E+01 0. -1.
       -5    1    3    3    0  502  0.80135973274E+03  0.42563746254E+03  0.19928773006E+04  0.21897321060E+04  0.46999998093E+01 0.  1.
</event>
<event>
 5   0  0.8487944E-07  0.3202366E+04  0.7818609E-02  0.8188193E-01
        1   -1    0    0  501    0  0.00000000000E+00  0.00000000000E+00  0.30698429700E+04  0.30698429701E+04  0.50400001928E-02 0.  1.
       -1   -1    0    0    0  501  0.00000000000E+00  0.00000000000E+00 -0.83515248531E+03  0.83515248532E+03  0.50400001928E-02 0. -1.
    10030    2    1    2    0    0  0.00000000000E+00  0.00000000000E+00  0.22346904847E+04  0.39049954554E+04  0.32023659916E+04 0.  0.
        2    1    3    3  502    0  0.85118424587E+03 -0.56953453624E+02  0.27696467419E+04  0.28980513093E+04  0.25500000920E-02 0.  1.
       -2    1    3    3    0  502 -0.85118424587E+03  0.56953453624E+02 -0.53495625715E+03  0.10069441461E+04  0.25500000920E-02 0. -1.
</event>
<event>
 5   0  0.8681172E-07  0.3183114E+04  0.7818609E-02  0.8193291E-01
        1   -1    0    0  501    0  0.00000000000E+00  0.00000000000E+00  0.23737532028E+04  0.23737532028E+04  0.50400001928E-02 0. -1.
       -1   -1    0    0    0  501  0.00000000000E+00  0.00000000000E+00 -0.10671091011E+04  0.10671091011E+04  0.50400001928E-02 0.  1.
    10030    2    1    2    0    0  0.00000000000E+00  0.00000000000E+00  0.13066441017E+04  0.34408623039E+04  0.31831139762E+04 0.  0.
        1    1    3    3  502    0  0.12370945010E+04 -0.12878614416E+03  0.17267375691E+04  0.21280534082E+04  0.50400001928E-02 0. -1.
       -1    1    3    3    0  502 -0.12370945010E+04  0.12878614416E+03 -0.42009346738E+03  0.13128088957E+04  0.50400001928E-02 0.  1.
</event>
<event>
 5   0  0.2621528E-06  0.3102053E+04  0.7818609E-02  0.8215175E-01
        2   -1    0    0  501    0  0.00000000000E+00  0.00000000000E+00  0.22631624545E+04  0.22631624545E+04  0.25500000920E-02 0. -1.
       -2   -1    0    0    0  501  0.00000000000E+00  0.00000000000E+00 -0.10629739395E+04  0.10629739395E+04  0.25500000920E-02 0.  1.
    10030    2    1    2    0    0  0.00000000000E+00  0.00000000000E+00  0.12001885151E+04  0.33261363940E+04  0.31020526817E+04 0.  0.
        2    1    3    3  502    0 -0.68484135614E+03  0.73698824307E+03  0.18658444767E+04  0.21197959724E+04  0.25500000920E-02 0. -1.
       -2    1    3    3    0  502  0.68484135614E+03 -0.73698824307E+03 -0.66565596163E+03  0.12063404216E+04  0.25500000920E-02 0.  1.
</event>
<event>
 5   0  0.8545153E-07  0.3173281E+04  0.7818609E-02  0.8195909E-01
        1   -1    0    0  501    0  0.00000000000E+00  0.00000000000E+00  0.17702412306E+04  0.17702412306E+04  0.50400001928E-02 0.  1.
       -1   -1    0    0    0  501  0.00000000000E+00  0.00000000000E+00 -0.14220818688E+04  0.14220818688E+04  0.50400001928E-02 0. -1.
    10030    2    1    2    0    0  0.00000000000E+00  0.00000000000E+00  0.34815936173E+03  0.31923230994E+04  0.31732809251E+04 0.  0.
        3    1    3    3  502    0 -0.93018314600E+03  0.12356177117E+04  0.53037461470E+03  0.16350195891E+04  0.10100000352E+00 0.  1.
       -3    1    3    3    0  502  0.93018314600E+03 -0.12356177117E+04 -0.18221525297E+03  0.15573035103E+04  0.10100000352E+00 0. -1.
</event>
<event>
 5   0  0.8545153E-07  0.3160742E+04  0.7818609E-02  0.8199263E-01
        1   -1    0    0  501    0  0.00000000000E+00  0.00000000000E+00  0.15780159999E+04  0.15780159999E+04  0.50400001928E-02 0. -1.
       -1   -1    0    0    0  501  0.00000000000E+00  0.00000000000E+00 -0.15827290610E+04  0.15827290610E+04  0.50400001928E-02 0.  1.
    10030    2    1    2    0    0  0.00000000000E+00  0.00000000000E+00 -0.47130611325E+01  0.31607450609E+04  0.31607415470E+04 0.  0.
        3    1    3    3  502    0  0.11162721804E+04 -0.10908606797E+04  0.24569851409E+03  0.15800026497E+04  0.10100000352E+00 0. -1.
       -3    1    3    3    0  502 -0.11162721804E+04  0.10908606797E+04 -0.25041157522E+03  0.15807424111E+04  0.10100000352E+00 0.  1.
</event>
<event>
 5   0  0.2621528E-06  0.2666867E+04  0.7818609E-02  0.8345836E-01
       -2   -1    0    0    0  501  0.00000000000E+00  0.00000000000E+00  0.10503243331E+04  0.10503243331E+04  0.25500000920E-02 0.  1.
        2   -1    0    0  501    0  0.00000000000E+00  0.00000000000E+00 -0.16928534663E+04  0.16928534663E+04  0.25500000920E-02 0. -1.
    10030    2    1    2    0    0  0.00000000000E+00  0.00000000000E+00 -0.64252913315E+03  0.27431777994E+04  0.26668672168E+04 0.  0.
        2    1    3    3  502    0 -0.27013593804E+03  0.53157842650E+03  0.90554770882E+03  0.10842350767E+04  0.25500000920E-02 0.  1.
       -2    1    3    3    0  502  0.27013593804E+03 -0.53157842650E+03 -0.15480768420E+04  0.16589427227E+04  0.25500000920E-02 0. -1.
</event>
<event>
 5   0  0.8512855E-07  0.3147020E+04  0.7818609E-02  0.8202951E-01
       -1   -1    0    0    0  501  0.00000000000E+00  0.00000000000E+00  0.94421252136E+03  0.94421252138E+03  0.50400001928E-02 0.  1.
        1   -1    0    0  501    0  0.00000000000E+00  0.00000000000E+00 -0.26222209540E+04  0.26222209540E+04  0.50400001928E-02 0. -1.
    10030    2    1    2    0    0  0.00000000000E+00  0.00000000000E+00 -0.16780084326E+04  0.35664334753E+04  0.31470200880E+04 0.  0.
        5    1    3    3  502    0 -0.85459855979E+02  0.68795160684E+03  0.76181424434E+03  0.10300309865E+04  0.46999998093E+01 0.  1.
       -5    1    3    3    0  502  0.85459855979E+02 -0.68795160684E+03 -0.24398226769E+04  0.25364024888E+04  0.46999998093E+01 0. -1.
</event>
<event>
 5   0  0.2466076E-06  0.3213110E+04  0.7818609E-02  0.8185363E-01
        2   -1    0    0  501    0  0.00000000000E+00  0.00000000000E+00  0.16927221711E+04  0.16927221711E+04  0.25500000920E-02 0. -1.
       -2   -1    0    0    0  501  0.00000000000E+00  0.00000000000E+00 -0.15247741097E+04  0.15247741097E+04  0.25500000920E-02 0.  1.
    10030    2    1    2    0    0  0.00000000000E+00  0.00000000000E+00  0.16794806140E+03  0.32174962808E+04  0.32131099835E+04 0.  0.
        3    1    3    3  502    0 -0.18479253329E+03  0.13745573471E+04  0.89592169742E+03  0.16511304852E+04  0.10100000352E+00 0. -1.
       -3    1    3    3    0  502  0.18479253329E+03 -0.13745573471E+04 -0.72797363602E+03  0.15663657957E+04  0.10100000352E+00 0.  1.
</event>
<event>
 5   0  0.2466076E-06  0.3028848E+04  0.7818609E-02  0.8235541E-01
       -2   -1    0    0    0  501  0.00000000000E+00  0.00000000000E+00  0.10147978814E+04  0.10147978814E+04  0.25500000920E-02 0. -1.
        2   -1    0    0  501    0  0.00000000000E+00  0.00000000000E+00 -0.22600356891E+04  0.22600356891E+04  0.25500000920E-02 0.  1.
    10030    2    1    2    0    0  0.00000000000E+00  0.00000000000E+00 -0.12452378077E+04  0.32748335705E+04  0.30288475889E+04 0.  0.
        3    1    3    3  502    0  0.10205692757E+04  0.60847465929E+03  0.39261569986E+03  0.12513793012E+04  0.10100000352E+00 0. -1.
       -3    1    3    3    0  502 -0.10205692757E+04 -0.60847465929E+03 -0.16378535076E+04  0.20234542693E+04  0.10100000352E+00 0.  1.
</event>
<event>
 5   0  0.2621528E-06  0.3230275E+04  0.7818609E-02  0.8180867E-01
        2   -1    0    0  501    0  0.00000000000E+00  0.00000000000E+00  0.20179736004E+04  0.20179736004E+04  0.25500000920E-02 0.  1.
       -2   -1    0    0    0  501  0.00000000000E+00  0.00000000000E+00 -0.12927170362E+04  0.12927170362E+04  0.25500000920E-02 0. -1.
    10030    2    1    2    0    0  0.00000000000E+00  0.00000000000E+00  0.72525656418E+03  0.33106906366E+04  0.32302748192E+04 0.  0.
        2    1    3    3  502    0  0.10032206395E+04 -0.78259764871E+03 -0.65700420749E+03  0.14319794901E+04  0.25500000920E-02 0. -1.
       -2    1    3    3    0  502 -0.10032206395E+04  0.78259764871E+03  0.13822607717E+04  0.18787111466E+04  0.25500000920E-02 0.  1.
</event>
<event>
 5   0  0.8383008E-07  0.3207254E+04  0.7818609E-02  0.8186904E-01
        1   -1    0    0  501    0  0.00000000000E+00  0.00000000000E+00  0.14961864057E+04  0.14961864057E+04  0.50400001928E-02 0.  1.
       -1   -1    0    0    0  501  0.00000000000E+00  0.00000000000E+00 -0.17187833030E+04  0.17187833030E+04  0.50400001928E-02 0. -1.
    10030    2    1    2    0    0  0.00000000000E+00  0.00000000000E+00 -0.22259689735E+03  0.32149697087E+04  0.32072544098E+04 0.  0.
        4    1    3    3  502    0  0.74573546173E+03  0.11584771144E+04  0.71130221954E+03  0.15505299300E+04  0.12699999809E+01 0. -1.
       -4    1    3    3    0  502 -0.74573546173E+03 -0.11584771144E+04 -0.93389911689E+03  0.16644397787E+04  0.12699999809E+01 0.  1.
</event>
<event>
 5   0  0.2337504E-06  0.3142516E+04  0.7818609E-02  0.8204166E-01
       -2   -1    0    0    0  501  0.00000000000E+00  0.00000000000E+00  0.12042156911E+04  0.12042156911E+04  0.25500000920E-02 0. -1.
        2   -1    0    0  501    0  0.00000000000E+00  0.00000000000E+00 -0.20501734304E+04  0.20501734304E+04  0.25500000920E-02 0.  1.
    10030    2    1    2    0    0  0.00000000000E+00  0.00000000000E+00 -0.84595773929E+03  0.32543891214E+04  0.31425155619E+04 0.  0.
        1    1    3    3  502    0 -0.32211558318E+03  0.12736474620E+04 -0.13155884026E+04  0.18592227277E+04  0.50400001928E-02 0.  1.
       -1    1    3    3    0  502  0.32211558318E+03 -0.12736474620E+04  0.46963066327E+03  0.13951663937E+04  0.50400001928E-02 0. -1.
</event>
<event>
 5   0  0.2621528E-06  0.3220768E+04  0.7818609E-02  0.8183354E-01
       -2   -1    0    0    0  501  0.00000000000E+00  0.00000000000E+00  0.10958344955E+04  0.10958344955E+04  0.25500000920E-02 0. -1.
        2   -1    0    0  501    0  0.00000000000E+00  0.00000000000E+00 -0.23665404965E+04  0.23665404965E+04  0.25500000920E-02 0.  1.
    10030    2    1    2    0    0  0.00000000000E+00  0.00000000000E+00 -0.12707060010E+04  0.34623749920E+04  0.32207680519E+04 0.  0.
        2    1    3    3  502    0  0.15922947122E+04 -0.20557792771E+03 -0.50077423649E+03  0.16817965307E+04  0.25500000920E-02 0. -1.
       -2    1    3    3    0  502 -0.15922947122E+04  0.20557792771E+03 -0.76993176455E+03  0.17805784613E+04  0.25500000920E-02 0.  1.
</event>
<event>
 5   0  0.2337504E-06  0.3210947E+04  0.7818609E-02  0.8185932E-01
       -2   -1    0    0    0  501  0.00000000000E+00  0.00000000000E+00  0.32343369596E+04  0.32343369596E+04  0.25500000920E-02 0. -1.
        2   -1    0    0  501    0  0.00000000000E+00  0.00000000000E+00 -0.79693166283E+03  0.79693166284E+03  0.25500000920E-02 0.  1.
    10030    2    1    2    0    0  0.00000000000E+00  0.00000000000E+00  0.24374052968E+04  0.40312686225E+04  0.32109472318E+04 0.  0.
        1    1    3    3  502    0  0.14277354960E+04  0.60202433563E+03  0.69097886170E+03  0.16965593814E+04  0.50400001928E-02 0.  1.
       -1    1    3    3    0  502 -0.14277354960E+04 -0.60202433563E+03  0.17464264351E+04  0.23347092411E+04  0.50400001928E-02 0. -1.
</event>
<event>
 5   0  0.2466076E-06  0.3197796E+04  0.7818609E-02  0.8189400E-01
       -2   -1    0    0    0  501  0.00000000000E+00  0.00000000000E+00  0.20979794677E+04  0.20979794678E+04  0.25500000920E-02 0.  1.
        2   -1    0    0  501    0  0.00000000000E+00  0.00000000000E+00 -0.12185413116E+04  0.12185413116E+04  0.25500000920E-02 0. -1.
    10030    2    1    2    0    0  0.00000000000E+00  0.00000000000E+00  0.87943815616E+03  0.33165207793E+04  0.31977958986E+04 0.  0.
        3    1    3    3  502    0 -0.15217150294E+03  0.56710400472E+03  0.19821162558E+04  0.20672561476E+04  0.10100000352E+00 0.  1.
       -3    1    3    3    0  502  0.15217150294E+03 -0.56710400472E+03 -0.11026780996E+04  0.12492646317E+04  0.10100000352E+00 0. -1.
</event>
<event>
 5   0  0.8487944E-07  0.3176905E+04  0.7818609E-02  0.8194943E-01
       -1   -1    0    0    0  501  0.00000000000E+00  0.00000000000E+00  0.12542356180E+04  0.12542356180E+04  0.50400001928E-02 0.  1.
        1   -1    0    0  501    0  0.00000000000E+00  0.00000000000E+00 -0.20117283138E+04  0.20117283138E+04  0.50400001928E-02 0. -1.
    10030    2    1    2    0    0  0.00000000000E+00  0.00000000000E+00 -0.75749269581E+03  0.32659639318E+04  0.31769049749E+04 0.  0.
        2    1    3    3  502    0  0.72574263716E+03 -0.73946201661E+03 -0.16165235020E+04  0.19200663223E+04  0.25500000920E-02 0. -1.
       -2    1    3    3    0  502 -0.72574263716E+03  0.73946201661E+03  0.85903080617E+03  0.13458976095E+04  0.25500000920E-02 0.  1.
</event>
<event>
 5   0  0.2337504E-06  0.3190223E+04  0.7818609E-02  0.8191404E-01
        2   -1    0    0  501    0  0.00000000000E+00  0.00000000000E+00  0.17877893764E+04  0.17877893764E+04  0.25500000920E-02 0. -1.
       -2   -1    0    0    0  501  0.00000000000E+00  0.00000000000E+00 -0.14231991009E+04  0.14231991009E+04  0.25500000920E-02 0.  1.
    10030    2    1    2    0    0  0.00000000000E+00  0.00000000000E+00  0.36459027545E+03  0.32109884773E+04  0.31902227089E+04 0.  0.
        1    1    3    3  502    0  0.68135994502E+03  0.14074786367E+04  0.49919810989E+03  0.16414768474E+04  0.50400001928E-02 0. -1.
       -1    1    3    3    0  502 -0.68135994502E+03 -0.14074786367E+04 -0.13460783444E+03  0.15695116300E+04  0.50400001928E-02 0.  1.
</event>
<event>
 5   0  0.2404430E-06  0.3235569E+04  0.7818609E-02  0.8179486E-01
        2   -1    0    0  501    0  0.00000000000E+00  0.00000000000E+00  0.17756349552E+04  0.17756349552E+04  0.25500000920E-02 0. -1.
       -2   -1    0    0    0  501  0.00000000000E+00  0.00000000000E+00 -0.14739670732E+04  0.14739670732E+04  0.25500000920E-02 0.  1.
    10030    2    1    2    0    0  0.00000000000E+00  0.00000000000E+00  0.30166788206E+03  0.32496020284E+04  0.32355694756E+04 0.  0.
        4    1    3    3  502    0  0.74450946990E+03 -0.10741448804E+04 -0.80679188613E+03  0.15359024498E+04  0.12699999809E+01 0.  1.
       -4    1    3    3    0  502 -0.74450946990E+03  0.10741448804E+04  0.11084597682E+04  0.17136995786E+04  0.12699999809E+01 0. -1.
</event>
<event>
 5   0  0.8681172E-07  0.3185929E+04  0.7818609E-02  0.8192543E-01
        1   -1    0    0  501    0  0.00000000000E+00  0.00000000000E+00  0.14507082341E+04  0.14507082341E+04  0.50400001928E-02 0.  1.
       -1   -1    0    0    0  501  0.00000000000E+00  0.00000000000E+00 -0.17491708515E+04  0.17491708515E+04  0.50400001928E-02 0. -1.
    10030    2    1    2    0    0  0.00000000000E+00  0.00000000000E+00 -0.29846261742E+03  0.31998790857E+04  0.31859294137E+04 0.  0.
        1    1    3    3  502    0 -0.83326491999E+03  0.58828494139E+03 -0.13781601416E+04  0.17145655353E+04  0.50400001928E-02 0. -1.
       -1    1    3    3    0  502  0.83326491999E+03 -0.58828494139E+03  0.10796975241E+04  0.14853135503E+04  0.50400001928E-02 0.  1.
</event>
<event>
 5   0  0.8487944E-07  0.2999142E+04  0.7818609E-02  0.8243976E-01
       -1   -1    0    0    0  501  0.00000000000E+00  0.00000000000E+00  0.13106068756E+04  0.13106068756E+04  0.50400001928E-02 0.  1.
        1   -1    0    0  501    0  0.00000000000E+00  0.00000000000E+00 -0.17157803830E+04  0.17157803830E+04  0.50400001928E-02 0. -1.
    10030    2    1    2    0    0  0.00000000000E+00  0.00000000000E+00 -0.40517350739E+03  0.30263872586E+04  0.29991422553E+04 0.  0.
        2    1    3    3  502    0  0.33593777484E+03  0.66777533232E+03  0.11091977514E+04  0.13375715811E+04  0.25500000920E-02 0.  1.
       -2    1    3    3    0  502 -0.33593777484E+03 -0.66777533232E+03 -0.15143712588E+04  0.16888156774E+04  0.25500000920E-02 0. -1.
</event>
<event>
 5   0  0.8512855E-07  0.3158672E+04  0.7818609E-02  0.8199818E-01
        1   -1    0    0  501    0  0.00000000000E+00  0.00000000000E+00  0.21644309900E+04  0.21644309900E+04  0.50400001928E-02 0.  1.
       -1   -1    0    0    0  501  0.00000000000E+00  0.00000000000E+00 -0.11524052946E+04  0.11524052946E+04  0.50400001928E-02 0. -1.
    10030    2    1    2    0    0  0.00000000000E+00  0.00000000000E+00  0.10120256954E+04  0.33168362847E+04  0.31586717036E+04 0.  0.
        5    1    3    3  502    0  0.12084225321E+04  0.92624246906E+03  0.94663023430E+03  0.17928583374E+04  0.46999998093E+01 0.  1.
       -5    1    3    3    0  502 -0.12084225321E+04 -0.92624246906E+03  0.65395461117E+02  0.15239779473E+04  0.46999998093E+01 0. -1.
</event>
<event>
 5   0  0.8545153E-07  0.3237891E+04  0.7818609E-02  0.8178881E-01
        1   -1    0    0  501    0  0.00000000000E+00  0.00000000000E+00  0.19781818267E+04  0.19781818267E+04  0.50400001928E-02 0.  1.
       -1   -1    0    0    0  501  0.00000000000E+00  0.00000000000E+00 -0.13249464240E+04  0.13249464240E+04  0.50400001928E-02 0. -1.
    10030    2    1    2    0    0  0.00000000000E+00  0.00000000000E+00  0.65323540274E+03  0.33031282507E+04  0.32378912504E+04 0.  0.
        3    1    3    3  502    0 -0.50455361002E+03 -0.14438549360E+03  0.18889980483E+04  0.19605446062E+04  0.10100000352E+00 0.  1.
       -3    1    3    3    0  502  0.50455361002E+03  0.14438549360E+03 -0.12357626456E+04  0.13425836445E+04  0.10100000352E+00 0. -1.
</event>
<event>
 5   0  0.2404430E-06  0.3171415E+04  0.7818609E-02  0.8196407E-01
        2   -1    0    0  501    0  0.00000000000E+00  0.00000000000E+00  0.22969600618E+04  0.22969600618E+04  0.25500000920E-02 0.  1.
       -2   -1    0    0    0  501  0.00000000000E+00  0.00000000000E+00 -0.10946942370E+04  0.10946942370E+04  0.25500000920E-02 0. -1.
    10030    2    1    2    0    0  0.00000000000E+00  0.00000000000E+00  0.12022658248E+04  0.33916542988E+04  0.31714154204E+04 0.  0.
        4    1    3    3  502    0 -0.13150474321E+04 -0.73248579159E+03  0.67928895743E+02  0.15068182144E+04  0.12699999809E+01 0. -1.
       -4    1    3    3    0  502  0.13150474321E+04  0.73248579159E+03  0.11343369290E+04  0.18848360844E+04  0.12699999809E+01 0.  1.
</event>
<event>
 5   0  0.8681172E-07  0.3189118E+04  0.7818609E-02  0.8191697E-01
       -1   -1    0    0    0  501  0.00000000000E+00  0.00000000000E+00  0.13628421041E+04  0.13628421041E+04  0.50400001928E-02 0.  1.
        1   -1    0    0  501    0  0.00000000000E+00  0.00000000000E+00 -0.18656729532E+04  0.18656729532E+04  0.50400001928E-02 0. -1.
    10030    2    1    2    0    0  0.00000000000E+00  0.00000000000E+00 -0.50283084908E+03  0.32285150574E+04  0.31891175289E+04 0.  0.
        1    1    3    3  502    0  0.11140534347E+04  0.10707020402E+04  0.14727685419E+03  0.15521624870E+04  0.50400001928E-02 0.  1.
       -1    1    3    3    0  502 -0.11140534347E+04 -0.10707020402E+04 -0.65010770327E+03  0.16763525704E+04  0.50400001928E-02 0. -1.
</event>
<event>
 5   0  0.2401139E-06  0.3220342E+04  0.7818609E-02  0.8183466E-01
       -2   -1    0    0    0  501  0.00000000000E+00  0.00000000000E+00  0.14623673926E+04  0.14623673926E+04  0.25500000920E-02 0.  1.
        2   -1    0    0  501    0  0.00000000000E+00  0.00000000000E+00 -0.17729129761E+04  0.17729129761E+04  0.25500000920E-02 0. -1.
    10030    2    1    2    0    0  0.00000000000E+00  0.00000000000E+00 -0.31054558352E+03  0.32352803687E+04  0.32203416751E+04 0.  0.
        5    1    3    3  502    0  0.65347491489E+03  0.10883549390E+03 -0.16296477939E+04  0.17591613489E+04  0.46999998093E+01 0. -1.
       -5    1    3    3    0  502 -0.65347491489E+03 -0.10883549390E+03  0.13191022104E+04  0.14761190198E+04  0.46999998093E+01 0.  1.
</event>
<event>
 5   0  0.2401139E-06  0.3208520E+04  0.7818609E-02  0.8186571E-01
        2   -1    0    0  501    0  0.00000000000E+00  0.00000000000E+00  0.20004334466E+04  0.20004334466E+04  0.25500000920E-02 0. -1.
       -2   -1    0    0    0  501  0.00000000000E+00  0.00000000000E+00 -0.12865459346E+04  0.12865459346E+04  0.25500000920E-02 0.  1.
    10030    2    1    2    0    0  0.00000000000E+00  0.00000000000E+00  0.71388751201E+03  0.32869793811E+04  0.32085196076E+04 0.  0.
        5    1    3    3  502    0 -0.12345209720E+04  0.77463665608E+03 -0.32991661109E+03  0.14943128988E+04  0.46999998093E+01 0.  1.
       -5    1    3    3    0  502  0.12345209720E+04 -0.77463665608E+03  0.10438041231E+04  0.17926664823E+04  0.46999998093E+01 0. -1.
</event>
<event>
 5   0  0.2401139E-06  0.3163415E+04  0.7818609E-02  0.8198546E-01
        2   -1    0    0  501    0  0.00000000000E+00  0.00000000000E+00  0.16704040360E+04  0.16704040360E+04  0.25500000920E-02 0. -1.
       -2   -1    0    0    0  501  0.00000000000E+00  0.00000000000E+00 -0.14977208162E+04  0.14977208162E+04  0.25500000920E-02 0.  1.
    10030    2    1    2    0    0  0.00000000000E+00  0.00000000000E+00  0.17268321974E+03  0.31681248522E+04  0.31634151774E+04 0.  0.
        5    1    3    3  502    0  0.13864298317E+04  0.21121399500E+03  0.81885229633E+03  0.16239889788E+04  0.46999998093E+01 0. -1.
       -5    1    3    3    0  502 -0.13864298317E+04 -0.21121399500E+03 -0.64616907659E+03  0.15441358734E+04  0.46999998093E+01 0.  1.
</event>
<event>
 5   0  0.2621528E-06  0.3139817E+04  0.7818609E-02  0.8204895E-01
       -2   -1    0    0    0  501  0.00000000000E+00  0.00000000000E+00  0.91503736395E+03  0.91503736396E+03  0.25500000920E-02 0. -1.
        2   -1    0    0  501    0  0.00000000000E+00  0.00000000000E+00 -0.26934553052E+04  0.26934553052E+04  0.25500000920E-02 0.  1.
    10030    2    1    2    0    0  0.00000000000E+00  0.00000000000E+00 -0.17784179413E+04  0.36084926692E+04  0.31398167096E+04 0.  0.
        2    1    3    3  502    0  0.67533153258E+03  0.14856357188E+03  0.73059464683E+03  0.10059385427E+04  0.25500000920E-02 0. -1.
       -2    1    3    3    0  502 -0.67533153258E+03 -0.14856357188E+03 -0.25090125881E+04  0.26025541265E+04  0.25500000920E-02 0.  1.
</event>
<event>
 5   0  0.8383008E-07  0.3215752E+04  0.7818609E-02  0.8184669E-01
       -1   -1    0    0    0  501  0.00000000000E+00  0.00000000000E+00  0.11977729620E+04  0.11977729620E+04  0.50400001928E-02 0.  1.
        1   -1    0    0  501    0  0.00000000000E+00  0.00000000000E+00 -0.21583935689E+04  0.21583935689E+04  0.50400001928E-02 0. -1.
    10030    2    1    2    0    0  0.00000000000E+00  0.00000000000E+00 -0.96062060692E+03  0.33561665310E+04  0.32157521411E+04 0.  0.
        4    1    3    3  502    0  0.15295966857E+03 -0.87937714838E+03  0.91545711951E+03  0.12785789690E+04  0.12699999809E+01 0.  1.
       -4    1    3    3    0  502 -0.15295966857E+03  0.87937714838E+03 -0.18760777264E+04  0.20775875620E+04  0.12699999809E+01 0. -1.
</event>
<event>
 5   0  0.2337504E-06  0.3145350E+04  0.7818609E-02  0.8203401E-01
       -2   -1    0    0    0  501  0.00000000000E+00  0.00000000000E+00  0.18281043352E+04  0.18281043352E+04  0.25500000920E-02 0.  1.
        2   -1    0    0  501    0  0.00000000000E+00  0.00000000000E+00 -0.13529350299E+04  0.13529350299E+04  0.25500000920E-02 0. -1.
    10030    2    1    2    0    0  0.00000000000E+00  0.00000000000E+00  0.47516930528E+03  0.31810393651E+04  0.31453498333E+04 0.  0.
        1    1    3    3  502    0 -0.14095779345E+03 -0.61295012621E+03  0.16953733683E+04  0.18082775824E+04  0.50400001928E-02 0.  1.
       -1    1    3    3    0  502  0.14095779345E+03  0.61295012621E+03 -0.12202040631E+04  0.13727617828E+04  0.50400001928E-02 0. -1.
</event>
<event>
 5   0  0.2401139E-06  0.3201207E+04  0.7818609E-02  0.8188498E-01
        2   -1    0    0  501    0  0.00000000000E+00  0.00000000000E+00  0.23071582214E+04  0.23071582214E+04  0.25500000920E-02 0. -1.
       -2   -1    0    0    0  501  0.00000000000E+00  0.00000000000E+00 -0.11104273240E+04  0.11104273240E+04  0.25500000920E-02 0.  1.
    10030    2    1    2    0    0  0.00000000000E+00  0.00000000000E+00  0.11967308974E+04  0.34175855454E+04  0.32012069785E+04 0.  0.
        5    1    3    3  502    0  0.76928617035E+03  0.56856043168E+03  0.19684024624E+04  0.21885366161E+04  0.46999998093E+01 0. -1.
       -5    1    3    3    0  502 -0.76928617035E+03 -0.56856043168E+03 -0.77167156494E+03  0.12290489293E+04  0.46999998093E+01 0.  1.
</event>
<event>
 5   0  0.2404430E-06  0.3202828E+04  0.7818609E-02  0.8188071E-01
       -2   -1    0    0    0  501  0.00000000000E+00  0.00000000000E+00  0.98353978585E+03  0.98353978585E+03  0.25500000920E-02 0. -1.
        2   -1    0    0  501    0  0.00000000000E+00  0.00000000000E+00 -0.26074462739E+04  0.26074462739E+04  0.25500000920E-02 0.  1.
    10030    2    1    2    0    0  0.00000000000E+00  0.00000000000E+00 -0.16239064881E+04  0.35909860598E+04  0.32028282189E+04 0.  0.
        4    1    3    3  502    0 -0.30039921320E+03  0.38436283757E+03  0.89820527040E+03  0.10221295411E+04  0.12699999809E+01 0. -1.
       -4    1    3    3    0  502  0.30039921320E+03 -0.38436283757E+03 -0.25221117585E+04  0.25688565186E+04  0.12699999809E+01 0.  1.
</event>
<event>
 5   0  0.2466076E-06  0.3200145E+04  0.7818609E-02  0.8188779E-01
       -2   -1    0    0    0  501  0.00000000000E+00  0.00000000000E+00  0.10268034363E+04  0.10268034363E+04  0.25500000920E-02 0. -1.
        2   -1    0    0  501    0  0.00000000000E+00  0.00000000000E+00 -0.24933997445E+04  0.24933997445E+04  0.25500000920E-02 0.  1.
    10030    2    1    2    0    0  0.00000000000E+00  0.00000000000E+00 -0.14665963082E+04  0.35202031808E+04  0.32001446378E+04 0.  0.
        3    1    3    3  502    0  0.12246674396E+04 -0.25211777435E+03 -0.18315822849E+04  0.22176716138E+04  0.10100000352E+00 0.  1.
       -3    1    3    3    0  502 -0.12246674396E+04  0.25211777435E+03  0.36498597676E+03  0.13025315671E+04  0.10100000352E+00 0. -1.
</event>
<event>
 5   0  0.2401139E-06  0.3196470E+04  0.7818609E-02  0.8189750E-01
       -2   -1    0    0    0  501  0.00000000000E+00  0.00000000000E+00  0.11629571564E+04  0.11629571564E+04  0.25500000920E-02 0.  1.
        2   -1    0    0  501    0  0.00000000000E+00  0.00000000000E+00 -0.21964312586E+04  0.21964312586E+04  0.25500000920E-02 0. -1.
    10030    2    1    2    0    0  0.00000000000E+00  0.00000000000E+00 -0.10334741022E+04  0.33593884150E+04  0.31964702099E+04 0.  0.
        5    1    3    3  502    0 -0.60789730453E+01  0.12701490074E+04 -0.15362400382E+04  0.19933316332E+04  0.46999998093E+01 0.  1.
       -5    1    3    3    0  502  0.60789730453E+01 -0.12701490074E+04  0.50276593595E+03  0.13660567818E+04  0.46999998093E+01 0. -1.
</event>
<event>
 5   0  0.8383008E-07  0.3231428E+04  0.7818609E-02  0.8180566E-01
        1   -1    0    0  501    0  0.00000000000E+00  0.00000000000E+00  0.15169701117E+04  0.15169701118E+04  0.50400001928E-02 0. -1.
       -1   -1    0    0    0  501  0.00000000000E+00  0.00000000000E+00 -0.17208851071E+04  0.17208851071E+04  0.50400001928E-02 0.  1.
    10030    2    1    2    0    0  0.00000000000E+00  0.00000000000E+00 -0.20391499534E+03  0.32378552188E+04  0.32314277174E+04 0.  0.
        4    1    3    3  502    0 -0.13436117744E+04 -0.52375462947E+03 -0.83204811122E+03  0.16649075603E+04  0.12699999809E+01 0.  1.
       -4    1    3    3    0  502  0.13436117744E+04  0.52375462947E+03  0.62813311588E+03  0.15729476585E+04  0.12699999809E+01 0. -1.
</event>
<event>
 5   0  0.8545153E-07  0.3140003E+04  0.7818609E-02  0.8204844E-01
        1   -1    0    0  501    0  0.00000000000E+00  0.00000000000E+00  0.21057077242E+04  0.21057077242E+04  0.50400001928E-02 0. -1.
       -1   -1    0    0    0  501  0.00000000000E+00  0.00000000000E+00 -0.11705826692E+04  0.11705826692E+04  0.50400001928E-02 0.  1.
    10030    2    1    2    0    0  0.00000000000E+00  0.00000000000E+00  0.93512505504E+03  0.32762903934E+04  0.31400031645E+04 0.  0.
        3    1    3    3  502    0  0.56866570352E+03 -0.63442024185E+02  0.19930382554E+04  0.20735493895E+04  0.10100000352E+00 0. -1.
       -3    1    3    3    0  502 -0.56866570352E+03  0.63442024185E+02 -0.10579132004E+04  0.12027410039E+04  0.10100000352E+00 0.  1.
</event>
<event>
 5   0  0.8512855E-07  0.3214744E+04  0.7818609E-02  0.8184934E-01
       -1   -1    0    0    0  501  0.00000000000E+00  0.00000000000E+00  0.13817595480E+04  0.13817595480E+04  0.50400001928E-02 0.  1.
        1   -1    0    0  501    0  0.00000000000E+00  0.00000000000E+00 -0.18698216863E+04  0.18698216863E+04  0.50400001928E-02 0. -1.
    10030    2    1    2    0    0  0.00000000000E+00  0.00000000000E+00 -0.48806213829E+03  0.32515812343E+04  0.32147435158E+04 0.  0.
        5    1    3    3  502    0 -0.27841879340E+03 -0.10266264510E+03  0.13538069218E+04  0.13859552354E+04  0.46999998093E+01 0.  1.
       -5    1    3    3    0  502  0.27841879340E+03  0.10266264510E+03 -0.18418690601E+04  0.18656259989E+04  0.46999998093E+01 0. -1.
</event>
<event>
 5   0  0.2337504E-06  0.3225193E+04  0.7818609E-02  0.8182195E-01
        2   -1    0    0  501    0  0.00000000000E+00  0.00000000000E+00  0.19063488748E+04  0.19063488748E+04  0.25500000920E-02 0. -1.
       -2   -1    0    0    0  501  0.00000000000E+00  0.00000000000E+00 -0.13641086645E+04  0.13641086645E+04  0.25500000920E-02 0.  1.
    10030    2    1    2    0    0  0.00000000000E+00  0.00000000000E+00  0.54224021033E+03  0.32704575394E+04  0.32251927184E+04 0.  0.
        1    1    3    3  502    0 -0.21664723558E+03 -0.13851545917E+04  0.10790950580E+04  0.17691906093E+04  0.50400001928E-02 0. -1.
       -1    1    3    3    0  502  0.21664723558E+03  0.13851545917E+04 -0.53685484771E+03  0.15012669300E+04  0.50400001928E-02 0.  1.
</event>
<event>
 5   0  0.2401139E-06  0.3235540E+04  0.7818609E-02  0.8179494E-01
        2   -1    0    0  501    0  0.00000000000E+00  0.00000000000E+00  0.28956970504E+04  0.28956970504E+04  0.25500000920E-02 0. -1.
       -2   -1    0    0    0  501  0.00000000000E+00  0.00000000000E+00 -0.90381667791E+03  0.90381667792E+03  0.25500000920E-02 0.  1.
    10030    2    1    2    0    0  0.00000000000E+00  0.00000000000E+00  0.19918803724E+04  0.37995137283E+04  0.32355397005E+04 0.  0.
        5    1    3    3  502    0  0.12432065492E+03 -0.12554211023E+04  0.21851935943E+04  0.25232183623E+04  0.46999998093E+01 0.  1.
       -5    1    3    3    0  502 -0.12432065492E+03  0.12554211023E+04 -0.19331322188E+03  0.12762953659E+04  0.46999998093E+01 0. -1.
</event>
<event>
 5   0  0.8512855E-07  0.2867726E+04  0.7818609E-02  0.8282545E-01
        1   -1    0    0  501    0  0.00000000000E+00  0.00000000000E+00  0.18818434456E+04  0.18818434456E+04  0.50400001928E-02 0. -1.
       -1   -1    0    0    0  501  0.00000000000E+00  0.00000000000E+00 -0.10925261877E+04  0.10925261878E+04  0.50400001928E-02 0.  1.
    10030    2    1    2    0    0  0.00000000000E+00  0.00000000000E+00  0.78931725782E+03  0.29743696333E+04  0.28677260996E+04 0.  0.
        5    1    3    3  502    0  0.10409551474E+04  0.91993678149E+03  0.76292570667E+03  0.15849129392E+04  0.46999998093E+01 0. -1.
       -5    1    3    3    0  502 -0.10409551474E+04 -0.91993678149E+03  0.26391551155E+02  0.13894566941E+04  0.46999998093E+01 0.  1.
</event>
<event>
 5   0  0.8681172E-07  0.3205819E+04  0.7818609E-02  0.8187282E-01
        1   -1    0    0  501    0  0.00000000000E+00  0.00000000000E+00  0.25701164361E+04  0.25701164361E+04  0.50400001928E-02 0. -1.
       -1   -1    0    0    0  501  0.00000000000E+00  0.00000000000E+00 -0.99968952045E+03  0.99968952047E+03  0.50400001928E-02 0.  1.
    10030    2    1    2    0    0  0.00000000000E+00  0.00000000000E+00  0.15704269156E+04  0.35698059565E+04  0.32058187519E+04 0.  0.
        1    1    3    3  502    0  0.74058174455E+03  0.47740233821E+03 -0.70582562175E+03  0.11289659522E+04  0.50400001928E-02 0.  1.
       -1    1    3    3    0  502 -0.74058174455E+03 -0.47740233821E+03  0.22762525374E+04  0.24408400043E+04  0.50400001928E-02 0. -1.
</event>
<event>
 5   0  0.2404430E-06  0.3196749E+04  0.7818609E-02  0.8189676E-01
       -2   -1    0    0    0  501  0.00000000000E+00  0.00000000000E+00  0.12634960528E+04  0.12634960528E+04  0.25500000920E-02 0. -1.
        2   -1    0    0  501    0  0.00000000000E+00  0.00000000000E+00 -0.20220098010E+04  0.20220098010E+04  0.25500000920E-02 0.  1.
    10030    2    1    2    0    0  0.00000000000E+00  0.00000000000E+00 -0.75851374817E+03  0.32855058538E+04  0.31967492253E+04 0.  0.
        4    1    3    3  502    0 -0.12405407994E+03 -0.11328577120E+04 -0.15311072415E+04  0.19086767689E+04  0.12699999809E+01 0.  1.
       -4    1    3    3    0  502  0.12405407994E+03  0.11328577120E+04  0.77259349333E+03  0.13768290849E+04  0.12699999809E+01 0. -1.
</event>
<event>
 5   0  0.8681172E-07  0.3201004E+04  0.7818609E-02  0.8188552E-01
        1   -1    0    0  501    0  0.00000000000E+00  0.00000000000E+00  0.21794364136E+04  0.21794364136E+04  0.50400001928E-02 0. -1.
       -1   -1    0    0    0  501  0.00000000000E+00  0.00000000000E+00 -0.11753528983E+04  0.11753528983E+04  0.50400001928E-02 0.  1.
    10030    2    1    2    0    0  0.00000000000E+00  0.00000000000E+00  0.10040835153E+04  0.33547893119E+04  0.32010041583E+04 0.  0.
        1    1    3    3  502    0 -0.15030396578E+03 -0.84187994891E+03 -0.91582254345E+03  0.12530299524E+04  0.50400001928E-02 0.  1.
       -1    1    3    3    0  502  0.15030396578E+03  0.84187994891E+03  0.19199060588E+04  0.21017593595E+04  0.50400001928E-02 0. -1.
</event>
<event>
 5   0  0.2404430E-06  0.3259462E+04  0.7818609E-02  0.8173288E-01
        2   -1    0    0  501    0  0.00000000000E+00  0.00000000000E+00  0.17227847330E+04  0.17227847330E+04  0.25500000920E-02 0.  1.
       -2   -1    0    0    0  501  0.00000000000E+00  0.00000000000E+00 -0.15417033982E+04  0.15417033982E+04  0.25500000920E-02 0. -1.
    10030    2    1    2    0    0  0.00000000000E+00  0.00000000000E+00  0.18108133479E+03  0.32644881311E+04  0.32594619661E+04 0.  0.
        4    1    3    3  502    0  0.52705476228E+03  0.12924017358E+04  0.93322535019E+03  0.16789878309E+04  0.12699999809E+01 0.  1.
       -4    1    3    3    0  502 -0.52705476228E+03 -0.12924017358E+04 -0.75214401539E+03  0.15855003002E+04  0.12699999809E+01 0. -1.
</event>
<event>
 5   0  0.2337504E-06  0.2970791E+04  0.7818609E-02  0.8252121E-01
       -2   -1    0    0    0  501  0.00000000000E+00  0.00000000000E+00  0.11267358112E+04  0.11267358112E+04  0.25500000920E-02 0.  1.
        2   -1    0    0  501    0  0.00000000000E+00  0.00000000000E+00 -0.19582230602E+04  0.19582230602E+04  0.25500000920E-02 0. -1.
    10030    2    1    2    0    0  0.00000000000E+00  0.00000000000E+00 -0.83148724898E+03  0.30849588714E+04  0.29707911729E+04 0.  0.
        1    1    3    3  502    0 -0.33675115658E+03 -0.14312528771E+04 -0.19665233164E+03  0.14834278814E+04  0.50400001928E-02 0.  1.
       -1    1    3    3    0  502  0.33675115658E+03  0.14312528771E+04 -0.63483491735E+03  0.16015309900E+04  0.50400001928E-02 0. -1.
</event>
<event>
 5   0  0.8487944E-07  0.3204121E+04  0.7818609E-02  0.8187730E-01
       -1   -1    0    0    0  501  0.00000000000E+00  0.00000000000E+00  0.20050497796E+04  0.20050497796E+04  0.50400001928E-02 0.  1.
        1   -1    0    0  501    0  0.00000000000E+00  0.00000000000E+00 -0.12800671942E+04  0.12800671942E+04  0.50400001928E-02 0. -1.
    10030    2    1    2    0    0  0.00000000000E+00  0.00000000000E+00  0.72498258542E+03  0.32851169738E+04  0.32041213745E+04 0.  0.
        2    1    3    3  502    0  0.96430120824E+03 -0.12449830795E+04  0.66445063893E+03  0.17091969869E+04  0.25500000920E-02 0.  1.
       -2    1    3    3    0  502 -0.96430120824E+03  0.12449830795E+04  0.60531946489E+02  0.15759199869E+04  0.25500000920E-02 0. -1.
</event>
<event>
 5   0  0.8681172E-07  0.3193582E+04  0.7818609E-02  0.8190514E-01
        1   -1    0    0  501    0  0.00000000000E+00  0.00000000000E+00  0.21727852767E+04  0.21727852767E+04  0.50400001928E-02 0.  1.
       -1   -1    0    0    0  501  0.00000000000E+00  0.00000000000E+00 -0.11734900685E+04  0.11734900685E+04  0.50400001928E-02 0. -1.
    10030    2    1    2    0    0  0.00000000000E+00  0.00000000000E+00  0.99929520821E+03  0.33462753452E+04  0.31935822790E+04 0.  0.
        1    1    3    3  502    0  0.89925325994E+03  0.75277535258E+03 -0.63587117029E+03  0.13340387184E+04  0.50400001928E-02 0. -1.
       -1    1    3    3    0  502 -0.89925325994E+03 -0.75277535258E+03  0.16351663785E+04  0.20122366268E+04  0.50400001928E-02 0.  1.
</event>
<event>
 5   0  0.7934375E-07  0.3184634E+04  0.7818609E-02  0.8192887E-01
        3   -1    0    0  501    0  0.00000000000E+00  0.00000000000E+00  0.14087369886E+04  0.14087369922E+04  0.10100000352E+00 0. -1.
       -3   -1    0    0    0  501  0.00000000000E+00  0.00000000000E+00 -0.17998207138E+04  0.17998207166E+04  0.10100000352E+00 0.  1.
    10030    2    1    2    0    0  0.00000000000E+00  0.00000000000E+00 -0.39108372516E+03  0.32085577088E+04  0.31846343732E+04 0.  0.
        3    1    3    3  502    0  0.92487643094E+03 -0.12788406886E+04  0.17336871561E+02  0.15783315547E+04  0.10100000352E+00 0. -1.
       -3    1    3    3    0  502 -0.92487643094E+03  0.12788406886E+04 -0.40842059672E+03  0.16302261541E+04  0.10100000352E+00 0.  1.
</event>
<event>
 5   0  0.2404430E-06  0.3264230E+04  0.7818609E-02  0.8172057E-01
        2   -1    0    0  501    0  0.00000000000E+00  0.00000000000E+00  0.21372692293E+04  0.21372692293E+04  0.25500000920E-02 0.  1.
       -2   -1    0    0    0  501  0.00000000000E+00  0.00000000000E+00 -0.12463561132E+04  0.12463561132E+04  0.25500000920E-02 0. -1.
    10030    2    1    2    0    0  0.00000000000E+00  0.00000000000E+00  0.89091311610E+03  0.33836253425E+04  0.32642295075E+04 0.  0.
        4    1    3    3  502    0  0.76278648578E+03 -0.80922330897E+03 -0.79285668026E+03  0.13657631255E+04  0.12699999809E+01 0. -1.
       -4    1    3    3    0  502 -0.76278648578E+03  0.80922330897E+03  0.16837697964E+04  0.20178622170E+04  0.12699999809E+01 0.  1.
</event>
<event>
 5   0  0.8383008E-07  0.3183435E+04  0.7818609E-02  0.8193206E-01
       -1   -1    0    0    0  501  0.00000000000E+00  0.00000000000E+00  0.10325895340E+04  0.10325895340E+04  0.50400001928E-02 0. -1.
        1   -1    0    0  501    0  0.00000000000E+00  0.00000000000E+00 -0.24536029532E+04  0.24536029532E+04  0.50400001928E-02 0.  1.
    10030    2    1    2    0    0  0.00000000000E+00  0.00000000000E+00 -0.14210134193E+04  0.34861924872E+04  0.31834350818E+04 0.  0.
        4    1    3    3  502    0 -0.33851801704E+03 -0.65946420698E+03 -0.22530397528E+04  0.23718510132E+04  0.12699999809E+01 0.  1.
       -4    1    3    3    0  502  0.33851801704E+03  0.65946420698E+03  0.83202633352E+03  0.11143414740E+04  0.12699999809E+01 0. -1.
</event>
<event>
 5   0  0.2404430E-06  0.3189821E+04  0.7818609E-02  0.8191510E-01
        2   -1    0    0  501    0  0.00000000000E+00  0.00000000000E+00  0.22414334817E+04  0.22414334817E+04  0.25500000920E-02 0. -1.
       -2   -1    0    0    0  501  0.00000000000E+00  0.00000000000E+00 -0.11348720800E+04  0.11348720800E+04  0.25500000920E-02 0.  1.
    10030    2    1    2    0    0  0.00000000000E+00  0.00000000000E+00  0.11065614017E+04  0.33763055618E+04  0.31898214857E+04 0.  0.
        4    1    3    3  502    0  0.10093252906E+04  0.12346718282E+04  0.52764494820E+03  0.16797508357E+04  0.12699999809E+01 0. -1.
       -4    1    3    3    0  502 -0.10093252906E+04 -0.12346718282E+04  0.57891645347E+03  0.16965547261E+04  0.12699999809E+01 0.  1.
</event>
<event>
 5   0  0.8487944E-07  0.2570947E+04  0.7818609E-02  0.8378137E-01
       -1   -1    0    0    0  501  0.00000000000E+00  0.00000000000E+00  0.76034375839E+03  0.76034375840E+03  0.50400001928E-02 0.  1.
        1   -1    0    0  501    0  0.00000000000E+00  0.00000000000E+00 -0.21732826032E+04  0.21732826032E+04  0.50400001928E-02 0. -1.
    10030    2    1    2    0    0  0.00000000000E+00  0.00000000000E+00 -0.14129388448E+04  0.29336263616E+04  0.25709468003E+04 0.  0.
        2    1    3    3  502    0  0.21414386892E+03  0.29601666234E+03 -0.21127910303E+04  0.21441477092E+04  0.25500000920E-02 0. -1.
       -2    1    3    3    0  502 -0.21414386892E+03 -0.29601666234E+03  0.69985218554E+03  0.78947865240E+03  0.25500000920E-02 0.  1.
</event>
<event>
 5   0  0.2337504E-06  0.3212984E+04  0.7818609E-02  0.8185397E-01
        2   -1    0    0  501    0  0.00000000000E+00  0.00000000000E+00  0.15930561785E+04  0.15930561785E+04  0.25500000920E-02 0. -1.
       -2   -1    0    0    0  501  0.00000000000E+00  0.00000000000E+00 -0.16200406955E+04  0.16200406955E+04  0.25500000920E-02 0.  1.
    10030    2    1    2    0    0  0.00000000000E+00  0.00000000000E+00 -0.26984516945E+02  0.32130968740E+04  0.32129835601E+04 0.  0.
        1    1    3    3  502    0  0.11169512359E+04  0.11458982702E+04 -0.15545828203E+03  0.16077407087E+04  0.50400001928E-02 0.  1.
       -1    1    3    3    0  502 -0.11169512359E+04 -0.11458982702E+04  0.12847376509E+03  0.16053561653E+04  0.50400001928E-02 0. -1.
</event>
<event>
 5   0  0.8545153E-07  0.3200779E+04  0.7818609E-02  0.8188611E-01
       -1   -1    0    0    0  501  0.00000000000E+00  0.00000000000E+00  0.13788583605E+04  0.13788583605E+04  0.50400001928E-02 0.  1.
        1   -1    0    0  501    0  0.00000000000E+00  0.00000000000E+00 -0.18575124558E+04  0.18575124558E+04  0.50400001928E-02 0. -1.
    10030    2    1    2    0    0  0.00000000000E+00  0.00000000000E+00 -0.47865409533E+03  0.32363708163E+04  0.32007790173E+04 0.  0.
        3    1    3    3  502    0  0.62063398603E+03 -0.31870462730E+03 -0.16956509718E+04  0.18335733998E+04  0.10100000352E+00 0. -1.
       -3    1    3    3    0  502 -0.62063398603E+03  0.31870462730E+03  0.12169968765E+04  0.14027974165E+04  0.10100000352E+00 0.  1.
</event>
<event>
 5   0  0.8681172E-07  0.3131379E+04  0.7818609E-02  0.8207179E-01
        1   -1    0    0  501    0  0.00000000000E+00  0.00000000000E+00  0.12919920925E+04  0.12919920925E+04  0.50400001928E-02 0. -1.
       -1   -1    0    0    0  501  0.00000000000E+00  0.00000000000E+00 -0.18973669805E+04  0.18973669805E+04  0.50400001928E-02 0.  1.
    10030    2    1    2    0    0  0.00000000000E+00  0.00000000000E+00 -0.60537488797E+03  0.31893590730E+04  0.31313786966E+04 0.  0.
        1    1    3    3  502    0 -0.33136527409E+03 -0.24500125539E+03 -0.18411369797E+04  0.18866939175E+04  0.50400001928E-02 0.  1.
       -1    1    3    3    0  502  0.33136527409E+03  0.24500125539E+03  0.12357620918E+04  0.13026651555E+04  0.50400001928E-02 0. -1.
</event>
<event>
 5   0  0.8545153E-07  0.3155815E+04  0.7818609E-02  0.8200585E-01
        1   -1    0    0  501    0  0.00000000000E+00  0.00000000000E+00  0.20766622907E+04  0.20766622907E+04  0.50400001928E-02 0. -1.
       -1   -1    0    0    0  501  0.00000000000E+00  0.00000000000E+00 -0.11989392332E+04  0.11989392332E+04  0.50400001928E-02 0.  1.
    10030    2    1    2    0    0  0.00000000000E+00  0.00000000000E+00  0.87772305747E+03  0.32756015239E+04  0.31558148833E+04 0.  0.
        3    1    3    3  502    0  0.15078665895E+03 -0.84038640930E+03  0.18161829216E+04  0.20068648057E+04  0.10100000352E+00 0. -1.
       -3    1    3    3    0  502 -0.15078665895E+03  0.84038640930E+03 -0.93845986411E+03  0.12687367182E+04  0.10100000352E+00 0.  1.
</event>
<event>
 5   0  0.2466076E-06  0.3137596E+04  0.7818609E-02  0.8205495E-01
        2   -1    0    0  501    0  0.00000000000E+00  0.00000000000E+00  0.22783701276E+04  0.22783701276E+04  0.25500000920E-02 0. -1.
       -2   -1    0    0    0  501  0.00000000000E+00  0.00000000000E+00 -0.10802136886E+04  0.10802136886E+04  0.25500000920E-02 0.  1.
    10030    2    1    2    0    0  0.00000000000E+00  0.00000000000E+00  0.11981564390E+04  0.33585838163E+04  0.31375956397E+04 0.  0.
        3    1    3    3  502    0 -0.10080191417E+04 -0.10037494628E+04 -0.10895512992E+03  0.14267048765E+04  0.10100000352E+00 0.  1.
       -3    1    3    3    0  502  0.10080191417E+04  0.10037494628E+04  0.13071115689E+04  0.19318789398E+04  0.10100000352E+00 0. -1.
</event>
<event>
 5   0  0.2621528E-06  0.3215930E+04  0.7818609E-02  0.8184623E-01
       -2   -1    0    0    0  501  0.00000000000E+00  0.00000000000E+00  0.11835996490E+04  0.11835996490E+04  0.25500000920E-02 0. -1.
        2   -1    0    0  501    0  0.00000000000E+00  0.00000000000E+00 -0.21844820592E+04  0.21844820592E+04  0.25500000920E-02 0.  1.
    10030    2    1    2    0    0  0.00000000000E+00  0.00000000000E+00 -0.10008824103E+04  0.33680817082E+04  0.32159304709E+04 0.  0.
        2    1    3    3  502    0  0.13875618574E+03 -0.36328652298E+03  0.11336073760E+04  0.11984556979E+04  0.25500000920E-02 0. -1.
       -2    1    3    3    0  502 -0.13875618574E+03  0.36328652298E+03 -0.21344897863E+04  0.21696260103E+04  0.25500000920E-02 0.  1.
</event>
<event>
 5   0  0.8383008E-07  0.3193729E+04  0.7818609E-02  0.8190475E-01
        1   -1    0    0  501    0  0.00000000000E+00  0.00000000000E+00  0.14339461432E+04  0.14339461432E+04  0.50400001928E-02 0. -1.
       -1   -1    0    0    0  501  0.00000000000E+00  0.00000000000E+00 -0.17782926868E+04  0.17782926868E+04  0.50400001928E-02 0.  1.
    10030    2    1    2    0    0  0.00000000000E+00  0.00000000000E+00 -0.34434654355E+03  0.32122388300E+04  0.31937288173E+04 0.  0.
        4    1    3    3  502    0 -0.68184987143E+01 -0.15750752247E+04  0.92153735391E+02  0.15777840090E+04  0.12699999809E+01 0. -1.
       -4    1    3    3    0  502  0.68184987143E+01  0.15750752247E+04 -0.43650027894E+03  0.16344548209E+04  0.12699999809E+01 0.  1.
</event>
<event>
 5   0  0.2337504E-06  0.3184850E+04  0.7818609E-02  0.8192830E-01
        2   -1    0    0  501    0  0.00000000000E+00  0.00000000000E+00  0.12204373894E+04  0.12204373894E+04  0.25500000920E-02 0.  1.
       -2   -1    0    0    0  501  0.00000000000E+00  0.00000000000E+00 -0.20777943705E+04  0.20777943705E+04  0.25500000920E-02 0. -1.
    10030    2    1    2    0    0  0.00000000000E+00  0.00000000000E+00 -0.85735698117E+03  0.32982317599E+04  0.31848503496E+04 0.  0.
        1    1    3    3  502    0  0.45429820914E+03 -0.12863545398E+03  0.11462798268E+04  0.12397142349E+04  0.50400001928E-02 0.  1.
       -1    1    3    3    0  502 -0.45429820914E+03  0.12863545398E+03 -0.20036368079E+04  0.20585175251E+04  0.50400001928E-02 0. -1.
</event>
<event>
 5   0  0.2401139E-06  0.3222022E+04  0.7818609E-02  0.8183025E-01
       -2   -1    0    0    0  501  0.00000000000E+00  0.00000000000E+00  0.89313824492E+03  0.89313824492E+03  0.25500000920E-02 0.  1.
        2   -1    0    0  501    0  0.00000000000E+00  0.00000000000E+00 -0.29058835082E+04  0.29058835082E+04  0.25500000920E-02 0. -1.
    10030    2    1    2    0    0  0.00000000000E+00  0.00000000000E+00 -0.20127452633E+04  0.37990217531E+04  0.32220215372E+04 0.  0.
        5    1    3    3  502    0  0.93568511290E+03 -0.98339701313E+03  0.16616044691E+02  0.13575251375E+04  0.46999998093E+01 0.  1.
       -5    1    3    3    0  502 -0.93568511290E+03  0.98339701313E+03 -0.20293613080E+04  0.24414966157E+04  0.46999998093E+01 0. -1.
</event>
<event>
 5   0  0.8383008E-07  0.3178000E+04  0.7818609E-02  0.8194652E-01
       -1   -1    0    0    0  501  0.00000000000E+00  0.00000000000E+00  0.17900724403E+04  0.17900724403E+04  0.50400001928E-02 0. -1.
        1   -1    0    0  501    0  0.00000000000E+00  0.00000000000E+00 -0.14105129952E+04  0.14105129952E+04  0.50400001928E-02 0.  1.
    10030    2    1    2    0    0  0.00000000000E+00  0.00000000000E+00  0.37955944512E+03  0.32005854355E+04  0.31779996472E+04 0.  0.
        4    1    3    3  502    0 -0.14080373166E+04  0.40891783700E+03 -0.42705657157E+03  0.15271417126E+04  0.12699999809E+01 0.  1.
       -4    1    3    3    0  502  0.14080373166E+04 -0.40891783700E+03  0.80661601669E+03  0.16734437229E+04  0.12699999809E+01 0. -1.
</event>
<event>
 5   0  0.2337504E-06  0.3147460E+04  0.7818609E-02  0.8202832E-01
        2   -1    0    0  501    0  0.00000000000E+00  0.00000000000E+00  0.25862533086E+04  0.25862533086E+04  0.25500000920E-02 0. -1.
       -2   -1    0    0    0  501  0.00000000000E+00  0.00000000000E+00 -0.95761180059E+03  0.95761180059E+03  0.25500000920E-02 0.  1.
    10030    2    1    2    0    0  0.00000000000E+00  0.00000000000E+00  0.16286415080E+04  0.35438651092E+04  0.31474603652E+04 0.  0.
        1    1    3    3  502    0  0.22026946144E+03  0.93105828540E+03 -0.59254138477E+03  0.11253859156E+04  0.50400001928E-02 0.  1.
       -1    1    3    3    0  502 -0.22026946144E+03 -0.93105828540E+03  0.22211828927E+04  0.24184791935E+04  0.50400001928E-02 0. -1.
</event>
<event>
 5   0  0.8681172E-07  0.3202339E+04  0.7818609E-02  0.8188200E-01
       -1   -1    0    0    0  501  0.00000000000E+00  0.00000000000E+00  0.12521899126E+04  0.12521899127E+04  0.50400001928E-02 0.  1.
        1   -1    0    0  501    0  0.00000000000E+00  0.00000000000E+00 -0.20474083479E+04  0.20474083479E+04  0.50400001928E-02 0. -1.
    10030    2    1    2    0    0  0.00000000000E+00  0.00000000000E+00 -0.79521843528E+03  0.32995982606E+04  0.32023391953E+04 0.  0.
        1    1    3    3  502    0  0.11118655049E+04  0.94006143645E+03 -0.10840125704E+04  0.18152255116E+04  0.50400001928E-02 0. -1.
       -1    1    3    3    0  502 -0.11118655049E+04 -0.94006143645E+03  0.28879413510E+03  0.14843727490E+04  0.50400001928E-02 0.  1.
</event>
<event>
 5   0  0.2337504E-06  0.3067191E+04  0.7818609E-02  0.8224800E-01
        2   -1    0    0  501    0  0.00000000000E+00  0.00000000000E+00  0.16927205285E+04  0.16927205285E+04  0.25500000920E-02 0. -1.
       -2   -1    0    0    0  501  0.00000000000E+00  0.00000000000E+00 -0.13894286714E+04  0.13894286714E+04  0.25500000920E-02 0.  1.
    10030    2    1    2    0    0  0.00000000000E+00  0.00000000000E+00  0.30329185705E+03  0.30821491999E+04  0.30671905288E+04 0.  0.
        1    1    3    3  502    0 -0.36271659027E+03 -0.18592218734E+01 -0.13457043013E+04  0.13937312682E+04  0.50400001928E-02 0.  1.
       -1    1    3    3    0  502  0.36271659027E+03  0.18592218734E+01  0.16489961583E+04  0.16884179316E+04  0.50400001928E-02 0. -1.
</event>
<event>
 5   0  0.8383008E-07  0.3205872E+04  0.7818609E-02  0.8187268E-01
        1   -1    0    0  501    0  0.00000000000E+00  0.00000000000E+00  0.16820251735E+04  0.16820251735E+04  0.50400001928E-02 0. -1.
       -1   -1    0    0    0  501  0.00000000000E+00  0.00000000000E+00 -0.15275658663E+04  0.15275658663E+04  0.50400001928E-02 0.  1.
    10030    2    1    2    0    0  0.00000000000E+00  0.00000000000E+00  0.15445930724E+03  0.32095910398E+04  0.32058722627E+04 0.  0.
        4    1    3    3  502    0 -0.70547931201E+03 -0.69063332389E+03  0.13415195962E+04  0.16656385825E+04  0.12699999809E+01 0. -1.
       -4    1    3    3    0  502  0.70547931201E+03  0.69063332389E+03 -0.11870602889E+04  0.15439524572E+04  0.12699999809E+01 0.  1.
</event>
<event>
 5   0  0.2621528E-06  0.3167740E+04  0.7818609E-02  0.8197389E-01
        2   -1    0    0  501    0  0.00000000000E+00  0.00000000000E+00  0.28104990392E+04  0.28104990392E+04  0.25500000920E-02 0. -1.
       -2   -1    0    0    0  501  0.00000000000E+00  0.00000000000E+00 -0.89259742796E+03  0.89259742797E+03  0.25500000920E-02 0.  1.
    10030    2    1    2    0    0  0.00000000000E+00  0.00000000000E+00  0.19179016113E+04  0.37030964672E+04  0.31677400232E+04 0.  0.
        2    1    3    3  502    0  0.32601234681E+03 -0.14316009505E+04  0.16533805718E+04  0.22112061521E+04  0.25500000920E-02 0.  1.
       -2    1    3    3    0  502 -0.32601234681E+03  0.14316009505E+04  0.26452103942E+03  0.14918903151E+04  0.25500000920E-02 0. -1.
</event>
<event>
 5   0  0.2621528E-06  0.3156837E+04  0.7818609E-02  0.8200310E-01
       -2   -1    0    0    0  501  0.00000000000E+00  0.00000000000E+00  0.15840777067E+04  0.15840777067E+04  0.25500000920E-02 0. -1.
        2   -1    0    0  501    0  0.00000000000E+00  0.00000000000E+00 -0.15727793662E+04  0.15727793662E+04  0.25500000920E-02 0.  1.
    10030    2    1    2    0    0  0.00000000000E+00  0.00000000000E+00  0.11298340499E+02  0.31568570730E+04  0.31568368546E+04 0.  0.
        2    1    3    3  502    0  0.90501405333E+03  0.10849655294E+04 -0.69806272970E+03  0.15759099630E+04  0.25500000920E-02 0.  1.
       -2    1    3    3    0  502 -0.90501405333E+03 -0.10849655294E+04  0.70936107020E+03  0.15809471100E+04  0.25500000920E-02 0. -1.
</event>
<event>
 5   0  0.8383008E-07  0.3167448E+04  0.7818609E-02  0.8197467E-01
       -1   -1    0    0    0  501  0.00000000000E+00  0.00000000000E+00  0.11227775823E+04  0.11227775824E+04  0.50400001928E-02 0.  1.
        1   -1    0    0  501    0  0.00000000000E+00  0.00000000000E+00 -0.22339082791E+04  0.22339082791E+04  0.50400001928E-02 0. -1.
    10030    2    1    2    0    0  0.00000000000E+00  0.00000000000E+00 -0.11111306968E+04  0.33566858615E+04  0.31674482707E+04 0.  0.
        4    1    3    3  502    0  0.27173384248E+03 -0.12621962008E+04 -0.15275318893E+04  0.20000834523E+04  0.12699999809E+01 0. -1.
       -4    1    3    3    0  502 -0.27173384248E+03  0.12621962008E+04  0.41640119252E+03  0.13566024092E+04  0.12699999809E+01 0.  1.
</event>
<event>
 5   0  0.8512855E-07  0.3186792E+04  0.7818609E-02  0.8192314E-01
        1   -1    0    0  501    0  0.00000000000E+00  0.00000000000E+00  0.16953114246E+04  0.16953114246E+04  0.50400001928E-02 0. -1.
       -1   -1    0    0    0  501  0.00000000000E+00  0.00000000000E+00 -0.14976076559E+04  0.14976076559E+04  0.50400001928E-02 0.  1.
    10030    2    1    2    0    0  0.00000000000E+00  0.00000000000E+00  0.19770376863E+03  0.31929190805E+04  0.31867923488E+04 0.  0.
        5    1    3    3  502    0 -0.14351981396E+04  0.29801317676E+03 -0.52707609799E+03  0.15577024287E+04  0.46999998093E+01 0.  1.
       -5    1    3    3    0  502  0.14351981396E+04 -0.29801317676E+03  0.72477986663E+03  0.16352166518E+04  0.46999998093E+01 0. -1.
</event>
<event>
 5   0  0.8487944E-07  0.3196219E+04  0.7818609E-02  0.8189816E-01
       -1   -1    0    0    0  501  0.00000000000E+00  0.00000000000E+00  0.92739679081E+03  0.92739679083E+03  0.50400001928E-02 0.  1.
        1   -1    0    0  501    0  0.00000000000E+00  0.00000000000E+00 -0.27538964333E+04  0.27538964333E+04  0.50400001928E-02 0. -1.
    10030    2    1    2    0    0  0.00000000000E+00  0.00000000000E+00 -0.18264996424E+04  0.36812932241E+04  0.31962194633E+04 0.  0.
        2    1    3    3  502    0 -0.41401118377E+03 -0.16634391741E+03  0.85420423074E+03  0.96371179663E+03  0.25500000920E-02 0.  1.
       -2    1    3    3    0  502  0.41401118377E+03  0.16634391741E+03 -0.26807038732E+04  0.27175814275E+04  0.25500000920E-02 0. -1.
</event>
<event>
 5   0  0.2466076E-06  0.3195900E+04  0.7818609E-02  0.8189901E-01
       -2   -1    0    0    0  501  0.00000000000E+00  0.00000000000E+00  0.12515707552E+04  0.12515707552E+04  0.25500000920E-02 0.  1.
        2   -1    0    0  501    0  0.00000000000E+00  0.00000000000E+00 -0.20401912784E+04  0.20401912784E+04  0.25500000920E-02 0. -1.
    10030    2    1    2    0    0  0.00000000000E+00  0.00000000000E+00 -0.78862052318E+03  0.32917620337E+04  0.31958997101E+04 0.  0.
        3    1    3    3  502    0  0.65355997120E+03  0.13310482688E+04  0.21904625353E+03  0.14989367569E+04  0.10100000352E+00 0.  1.
       -3    1    3    3    0  502 -0.65355997120E+03 -0.13310482688E+04 -0.10076667767E+04  0.17928252768E+04  0.10100000352E+00 0. -1.
</event>
<event>
 5   0  0.8487944E-07  0.3189436E+04  0.7818609E-02  0.8191613E-01
       -1   -1    0    0    0  501  0.00000000000E+00  0.00000000000E+00  0.15288411773E+04  0.15288411773E+04  0.50400001928E-02 0.  1.
        1   -1    0    0  501    0  0.00000000000E+00  0.00000000000E+00 -0.16634329300E+04  0.16634329300E+04  0.50400001928E-02 0. -1.
    10030    2    1    2    0    0  0.00000000000E+00  0.00000000000E+00 -0.13459175272E+03  0.31922741074E+04  0.31894355357E+04 0.  0.
        2    1    3    3  502    0 -0.93757634706E+03 -0.12887117573E+04 -0.12476961761E+03  0.15985602452E+04  0.25500000920E-02 0. -1.
       -2    1    3    3    0  502  0.93757634706E+03  0.12887117573E+04 -0.98221351082E+01  0.15937138622E+04  0.25500000920E-02 0.  1.
</event>
<event>
 5   0  0.8681172E-07  0.3231490E+04  0.7818609E-02  0.8180550E-01
        1   -1    0    0  501    0  0.00000000000E+00  0.00000000000E+00  0.13280986140E+04  0.13280986140E+04  0.50400001928E-02 0.  1.
       -1   -1    0    0    0  501  0.00000000000E+00  0.00000000000E+00 -0.19656911715E+04  0.19656911715E+04  0.50400001928E-02 0. -1.
    10030    2    1    2    0    0  0.00000000000E+00  0.00000000000E+00 -0.63759255751E+03  0.32937897854E+04  0.32314898857E+04 0.  0.
        1    1    3    3  502    0 -0.38943251922E+03  0.21675452686E+03 -0.19017964604E+04  0.19533228071E+04  0.50400001928E-02 0. -1.
       -1    1    3    3    0  502  0.38943251922E+03 -0.21675452686E+03  0.12642039029E+04  0.13404669783E+04  0.50400001928E-02 0.  1.
</event>
<event>
 5   0  0.2337504E-06  0.3163221E+04  0.7818609E-02  0.8198599E-01
        2   -1    0    0  501    0  0.00000000000E+00  0.00000000000E+00  0.18869288651E+04  0.18869288651E+04  0.25500000920E-02 0. -1.
       -2   -1    0    0    0  501  0.00000000000E+00  0.00000000000E+00 -0.13256947211E+04  0.13256947211E+04  0.25500000920E-02 0.  1.
    10030    2    1    2    0    0  0.00000000000E+00  0.00000000000E+00  0.56123414400E+03  0.32126235862E+04  0.31632209126E+04 0.  0.
        1    1    3    3  502    0  0.12442259957E+04  0.36769669353E+03  0.11992839402E+04  0.17667996933E+04  0.50400001928E-02 0.  1.
       -1    1    3    3    0  502 -0.12442259957E+04 -0.36769669353E+03 -0.63804979621E+03  0.14458238929E+04  0.50400001928E-02 0. -1.
</event>
<event>
 5   0  0.7934375E-07  0.3216313E+04  0.7818609E-02  0.8184522E-01
       -3   -1    0    0    0  501  0.00000000000E+00  0.00000000000E+00  0.22371620375E+04  0.22371620398E+04  0.10100000352E+00 0.  1.
        3   -1    0    0  501    0  0.00000000000E+00  0.00000000000E+00 -0.11560035278E+04  0.11560035322E+04  0.10100000352E+00 0. -1.
    10030    2    1    2    0    0  0.00000000000E+00  0.00000000000E+00  0.10811585098E+04  0.33931655720E+04  0.32163129319E+04 0.  0.
        2    1    3    3  502    0  0.72991219025E+03 -0.13876422067E+04  0.91779326339E+03  0.18167738367E+04  0.25500000920E-02 0.  1.
       -2    1    3    3    0  502 -0.72991219025E+03  0.13876422067E+04  0.16336524639E+03  0.15763917353E+04  0.25500000920E-02 0. -1.
</event>
<event>
 5   0  0.8512855E-07  0.3189838E+04  0.7818609E-02  0.8191506E-01
       -1   -1    0    0    0  501  0.00000000000E+00  0.00000000000E+00  0.21947229558E+04  0.21947229558E+04  0.50400001928E-02 0. -1.
        1   -1    0    0  501    0  0.00000000000E+00  0.00000000000E+00 -0.11590376668E+04  0.11590376668E+04  0.50400001928E-02 0.  1.
    10030    2    1    2    0    0  0.00000000000E+00  0.00000000000E+00  0.10356852890E+04  0.33537606226E+04  0.31898379733E+04 0.  0.
        5    1    3    3  502    0  0.59627375484E+03  0.15636572311E+03  0.20644040351E+04  0.21544787630E+04  0.46999998093E+01 0. -1.
       -5    1    3    3    0  502 -0.59627375484E+03 -0.15636572311E+03 -0.10287187461E+04  0.11992818596E+04  0.46999998093E+01 0.  1.
</event>
<event>
 5   0  0.2621528E-06  0.3224381E+04  0.7818609E-02  0.8182408E-01
       -2   -1    0    0    0  501  0.00000000000E+00  0.00000000000E+00  0.16666254210E+04  0.16666254210E+04  0.25500000920E-02 0.  1.
        2   -1    0    0  501    0  0.00000000000E+00  0.00000000000E+00 -0.15595339850E+04  0.15595339850E+04  0.25500000920E-02 0. -1.
    10030    2    1    2    0    0  0.00000000000E+00  0.00000000000E+00  0.10709143599E+03  0.32261594060E+04  0.32243814813E+04 0.  0.
        2    1    3    3  502    0 -0.74219428202E+03  0.48611075089E+03 -0.12933031222E+04  0.15683714421E+04  0.25500000920E-02 0. -1.
       -2    1    3    3    0  502  0.74219428202E+03 -0.48611075089E+03  0.14003945582E+04  0.16577879639E+04  0.25500000920E-02 0.  1.
</event>
<event>
 5   0  0.2621528E-06  0.3478727E+04  0.7818609E-02  0.8118850E-01
        2   -1    0    0  501    0  0.00000000000E+00  0.00000000000E+00  0.23510506818E+04  0.23510506818E+04  0.25500000920E-02 0. -1.
       -2   -1    0    0    0  501  0.00000000000E+00  0.00000000000E+00 -0.12868226284E+04  0.12868226284E+04  0.25500000920E-02 0.  1.
    10030    2    1    2    0    0  0.00000000000E+00  0.00000000000E+00  0.10642280534E+04  0.36378733102E+04  0.34787269038E+04 0.  0.
        2    1    3    3  502    0 -0.95091514177E+03 -0.12980697595E+04 -0.15852387093E+03  0.16168965721E+04  0.25500000920E-02 0.  1.
       -2    1    3    3    0  502  0.95091514177E+03  0.12980697595E+04  0.12227519243E+04  0.20209767381E+04  0.25500000920E-02 0. -1.
</event>
<event>
 5   0  0.8545153E-07  0.3151922E+04  0.7818609E-02  0.8201631E-01
        1   -1    0    0  501    0  0.00000000000E+00  0.00000000000E+00  0.21586944658E+04  0.21586944658E+04  0.50400001928E-02 0. -1.
       -1   -1    0    0    0  501  0.00000000000E+00  0.00000000000E+00 -0.11505351108E+04  0.11505351108E+04  0.50400001928E-02 0.  1.
    10030    2    1    2    0    0  0.00000000000E+00  0.00000000000E+00  0.10081593550E+04  0.33092295766E+04  0.31519224460E+04 0.  0.
        3    1    3    3  502    0 -0.12404454650E+04  0.43747504371E+03  0.14154850012E+04  0.19322751265E+04  0.10100000352E+00 0. -1.
       -3    1    3    3    0  502  0.12404454650E+04 -0.43747504371E+03 -0.40732564628E+03  0.13769544501E+04  0.10100000352E+00 0.  1.
</event>
<event>
 5   0  0.2401139E-06  0.3202902E+04  0.7818609E-02  0.8188051E-01
       -2   -1    0    0    0  501  0.00000000000E+00  0.00000000000E+00  0.10756438548E+04  0.10756438548E+04  0.25500000920E-02 0. -1.
        2   -1    0    0  501    0  0.00000000000E+00  0.00000000000E+00 -0.23842889083E+04  0.23842889083E+04  0.25500000920E-02 0.  1.
    10030    2    1    2    0    0  0.00000000000E+00  0.00000000000E+00 -0.13086450535E+04  0.34599327632E+04  0.32029022541E+04 0.  0.
        5    1    3    3  502    0  0.98708734300E+03 -0.37983768593E+03  0.64467687587E+03  0.12386478332E+04  0.46999998093E+01 0. -1.
       -5    1    3    3    0  502 -0.98708734300E+03  0.37983768593E+03 -0.19533219294E+04  0.22212849300E+04  0.46999998093E+01 0.  1.
</event>
<event>
 5   0  0.8383008E-07  0.2636608E+04  0.7818609E-02  0.8355871E-01
        1   -1    0    0  501    0  0.00000000000E+00  0.00000000000E+00  0.90015654644E+03  0.90015654645E+03  0.50400001928E-02 0.  1.
       -1   -1    0    0    0  501  0.00000000000E+00  0.00000000000E+00 -0.19306929769E+04  0.19306929769E+04  0.50400001928E-02 0. -1.
    10030    2    1    2    0    0  0.00000000000E+00  0.00000000000E+00 -0.10305364304E+04  0.28308495233E+04  0.26366083686E+04 0.  0.
        4    1    3    3  502    0 -0.98187901635E+03 -0.76077164552E+03 -0.41069713203E+02  0.12427985491E+04  0.12699999809E+01 0.  1.
       -4    1    3    3    0  502  0.98187901635E+03  0.76077164552E+03 -0.98946671723E+03  0.15880509742E+04  0.12699999809E+01 0. -1.
</event>
<event>
 5   0  0.2621528E-06  0.3188940E+04  0.7818609E-02  0.8191744E-01
        2   -1    0    0  501    0  0.00000000000E+00  0.00000000000E+00  0.20933124888E+04  0.20933124888E+04  0.25500000920E-02 0. -1.
       -2   -1    0    0    0  501  0.00000000000E+00  0.00000000000E+00 -0.12145030328E+04  0.12145030328E+04  0.25500000920E-02 0.  1.
    10030    2    1    2    0    0  0.00000000000E+00  0.00000000000E+00  0.87880945599E+03  0.33078155215E+04  0.31889398653E+04 0.  0.
        2    1    3    3  502    0  0.25501173317E+03 -0.65361320828E+02 -0.11918048235E+04  0.12205334177E+04  0.25500000920E-02 0.  1.
       -2    1    3    3    0  502 -0.25501173317E+03  0.65361320828E+02  0.20706142795E+04  0.20872821038E+04  0.25500000920E-02 0. -1.
</event>
<event>
 5   0  0.8512855E-07  0.3217258E+04  0.7818609E-02  0.8184274E-01
       -1   -1    0    0    0  501  0.00000000000E+00  0.00000000000E+00  0.12166682272E+04  0.12166682272E+04  0.50400001928E-02 0. -1.
        1   -1    0    0  501    0  0.00000000000E+00  0.00000000000E+00 -0.21268638903E+04  0.21268638903E+04  0.50400001928E-02 0.  1.
    10030    2    1    2    0    0  0.00000000000E+00  0.00000000000E+00 -0.91019566315E+03  0.33435321175E+04  0.32172582855E+04 0.  0.
        5    1    3    3  502    0 -0.65232655257E+03 -0.45796885973E+03 -0.19072228083E+04  0.20670719238E+04  0.46999998093E+01 0.  1.
       -5    1    3    3    0  502  0.65232655257E+03  0.45796885973E+03  0.99702714520E+03  0.12764601936E+04  0.46999998093E+01 0. -1.
</event>
<event>
 5   0  0.7934375E-07  0.2806722E+04  0.7818609E-02  0.8301184E-01
       -3   -1    0    0    0  501  0.00000000000E+00  0.00000000000E+00  0.14127401899E+04  0.14127401935E+04  0.10100000352E+00 0.  1.
        3   -1    0    0  501    0  0.00000000000E+00  0.00000000000E+00 -0.13940443926E+04  0.13940443962E+04  0.10100000352E+00 0. -1.
    10030    2    1    2    0    0  0.00000000000E+00  0.00000000000E+00  0.18695797340E+02  0.28067845897E+04  0.28067223234E+04 0.  0.
        4    1    3    3  502    0 -0.89743270180E+03  0.73005595765E+03 -0.78505866064E+03  0.13981008079E+04  0.12699999809E+01 0. -1.
       -4    1    3    3    0  502  0.89743270180E+03 -0.73005595765E+03  0.80375445798E+03  0.14086837818E+04  0.12699999809E+01 0.  1.
</event>
<event>
 5   0  0.8487944E-07  0.3143220E+04  0.7818609E-02  0.8203976E-01
        1   -1    0    0  501    0  0.00000000000E+00  0.00000000000E+00  0.90915953242E+03  0.90915953243E+03  0.50400001928E-02 0.  1.
       -1   -1    0    0    0  501  0.00000000000E+00  0.00000000000E+00 -0.27167494637E+04  0.27167494637E+04  0.50400001928E-02 0. -1.
    10030    2    1    2    0    0  0.00000000000E+00  0.00000000000E+00 -0.18075899312E+04  0.36259089961E+04  0.31432204327E+04 0.  0.
        2    1    3    3  502    0  0.43674936540E+03  0.11773834668E+04 -0.19938844686E+04  0.23563864517E+04  0.25500000920E-02 0. -1.
       -2    1    3    3    0  502 -0.43674936540E+03 -0.11773834668E+04  0.18629453733E+03  0.12695225443E+04  0.25500000920E-02 0.  1.
</event>
<event>
 5   0  0.8512855E-07  0.3078922E+04  0.7818609E-02  0.8221546E-01
       -1   -1    0    0    0  501  0.00000000000E+00  0.00000000000E+00  0.14756924131E+04  0.14756924131E+04  0.50400001928E-02 0.  1.
        1   -1    0    0  501    0  0.00000000000E+00  0.00000000000E+00 -0.16059853834E+04  0.16059853834E+04  0.50400001928E-02 0. -1.
    10030    2    1    2    0    0  0.00000000000E+00  0.00000000000E+00 -0.13029297025E+03  0.30816777965E+04  0.30789221788E+04 0.  0.
        5    1    3    3  502    0 -0.13183349769E+04 -0.72063266687E+03  0.27071278089E+03  0.15266388085E+04  0.46999998093E+01 0.  1.
       -5    1    3    3    0  502  0.13183349769E+04  0.72063266687E+03 -0.40100575114E+03  0.15550389880E+04  0.46999998093E+01 0. -1.
</event>
<event>
 5   0  0.2621528E-06  0.3188381E+04  0.7818609E-02  0.8191892E-01
        2   -1    0    0  501    0  0.00000000000E+00  0.00000000000E+00  0.21125660940E+04  0.21125660940E+04  0.25500000920E-02 0.  1.
       -2   -1    0    0    0  501  0.00000000000E+00  0.00000000000E+00 -0.12030125964E+04  0.12030125964E+04  0.25500000920E-02 0. -1.
    10030    2    1    2    0    0  0.00000000000E+00  0.00000000000E+00  0.90955349760E+03  0.33155786905E+04  0.31883811704E+04 0.  0.
        2    1    3    3  502    0 -0.38626174222E+03  0.15459980836E+04  0.40672268359E+03  0.16446068069E+04  0.25500000920E-02 0. -1.
       -2    1    3    3    0  502  0.38626174222E+03 -0.15459980836E+04  0.50283081401E+03  0.16709718835E+04  0.25500000920E-02 0.  1.
</event>
<event>
 5   0  0.2621528E-06  0.3246803E+04  0.7818609E-02  0.8176565E-01
        2   -1    0    0  501    0  0.00000000000E+00  0.00000000000E+00  0.18498981438E+04  0.18498981438E+04  0.25500000920E-02 0.  1.
       -2   -1    0    0    0  501  0.00000000000E+00  0.00000000000E+00 -0.14246361521E+04  0.14246361521E+04  0.25500000920E-02 0. -1.
    10030    2    1    2    0    0  0.00000000000E+00  0.00000000000E+00  0.42526199170E+03  0.32745342958E+04  0.32468025953E+04 0.  0.
        2    1    3    3  502    0 -0.76331959813E+03  0.13220513085E+04  0.76957528245E+03  0.17095972001E+04  0.25500000920E-02 0.  1.
       -2    1    3    3    0  502  0.76331959813E+03 -0.13220513085E+04 -0.34431329076E+03  0.15649370957E+04  0.25500000920E-02 0. -1.
</event>
<event>
 5   0  0.8383008E-07  0.3223289E+04  0.7818609E-02  0.8182693E-01
       -1   -1    0    0    0  501  0.00000000000E+00  0.00000000000E+00  0.13284926161E+04  0.13284926161E+04  0.50400001928E-02 0.  1.
        1   -1    0    0  501    0  0.00000000000E+00  0.00000000000E+00 -0.19551471102E+04  0.19551471102E+04  0.50400001928E-02 0. -1.
    10030    2    1    2    0    0  0.00000000000E+00  0.00000000000E+00 -0.62665449408E+03  0.32836397264E+04  0.32232893134E+04 0.  0.
        4    1    3    3  502    0 -0.28375773421E+03  0.19921701981E+03 -0.19167053967E+04  0.19478108387E+04  0.12699999809E+01 0. -1.
       -4    1    3    3    0  502  0.28375773421E+03 -0.19921701981E+03  0.12900509027E+04  0.13358288876E+04  0.12699999809E+01 0.  1.
</event>
<event>
 5   0  0.2404430E-06  0.3220536E+04  0.7818609E-02  0.8183415E-01
        2   -1    0    0  501    0  0.00000000000E+00  0.00000000000E+00  0.14466073563E+04  0.14466073563E+04  0.25500000920E-02 0. -1.
       -2   -1    0    0    0  501  0.00000000000E+00  0.00000000000E+00 -0.17924440497E+04  0.17924440497E+04  0.25500000920E-02 0.  1.
    10030    2    1    2    0    0  0.00000000000E+00  0.00000000000E+00 -0.34583669332E+03  0.32390514060E+04  0.32205358238E+04 0.  0.
        4    1    3    3  502    0 -0.14426777338E+04 -0.23872807963E+03  0.50523635860E+03  0.15471184604E+04  0.12699999809E+01 0. -1.
       -4    1    3    3    0  502  0.14426777338E+04  0.23872807963E+03 -0.85107305192E+03  0.16919329456E+04  0.12699999809E+01 0.  1.
</event>
<event>
 5   0  0.7934375E-07  0.3149864E+04  0.7818609E-02  0.8202185E-01
        3   -1    0    0  501    0  0.00000000000E+00  0.00000000000E+00  0.29809355270E+04  0.29809355288E+04  0.10100000352E+00 0.  1.
       -3   -1    0    0    0  501  0.00000000000E+00  0.00000000000E+00 -0.83209154266E+03  0.83209154879E+03  0.10100000352E+00 0. -1.
    10030    2    1    2    0    0  0.00000000000E+00  0.00000000000E+00  0.21488439844E+04  0.38130270775E+04  0.31498642867E+04 0.  0.
        5    1    3    3  502    0 -0.81693487903E+01  0.56223642624E+03 -0.70643075432E+03  0.90290810048E+03  0.46999998093E+01 0. -1.
       -5    1    3    3    0  502  0.81693487903E+01 -0.56223642624E+03  0.28552747387E+04  0.29101189771E+04  0.46999998093E+01 0.  1.
</event>
<event>
 5   0  0.7934375E-07  0.2778830E+04  0.7818609E-02  0.8309871E-01
       -3   -1    0    0    0  501  0.00000000000E+00  0.00000000000E+00  0.15466792759E+04  0.15466792792E+04  0.10100000352E+00 0. -1.
        3   -1    0    0  501    0  0.00000000000E+00  0.00000000000E+00 -0.12481411294E+04  0.12481411334E+04  0.10100000352E+00 0.  1.
    10030    2    1    2    0    0  0.00000000000E+00  0.00000000000E+00  0.29853814658E+03  0.27948204127E+04  0.27788299901E+04 0.  0.
        4    1    3    3  502    0 -0.82779829840E+03 -0.65410601141E+03  0.10585554201E+04  0.14945386871E+04  0.12699999809E+01 0. -1.
       -4    1    3    3    0  502  0.82779829840E+03  0.65410601141E+03 -0.76001727348E+03  0.13002817256E+04  0.12699999809E+01 0.  1.
</event>
<event>
 5   0  0.8545153E-07  0.3184056E+04  0.7818609E-02  0.8193041E-01
        1   -1    0    0  501    0  0.00000000000E+00  0.00000000000E+00  0.14898091399E+04  0.14898091399E+04  0.50400001928E-02 0.  1.
       -1   -1    0    0    0  501  0.00000000000E+00  0.00000000000E+00 -0.17012597780E+04  0.17012597780E+04  0.50400001928E-02 0. -1.
    10030    2    1    2    0    0  0.00000000000E+00  0.00000000000E+00 -0.21145063811E+03  0.31910689179E+04  0.31840555062E+04 0.  0.
        3    1    3    3  502    0 -0.46316650360E+03 -0.70971165155E+03 -0.14564099253E+04  0.16850352279E+04  0.10100000352E+00 0. -1.
       -3    1    3    3    0  502  0.46316650360E+03  0.70971165155E+03  0.12449592872E+04  0.15060336900E+04  0.10100000352E+00 0.  1.
</event>
<event>
 5   0  0.2621528E-06  0.3186828E+04  0.7818609E-02  0.8192305E-01
        2   -1    0    0  501    0  0.00000000000E+00  0.00000000000E+00  0.12629346129E+04  0.12629346129E+04  0.25500000920E-02 0. -1.
       -2   -1    0    0    0  501  0.00000000000E+00  0.00000000000E+00 -0.20103716251E+04  0.20103716251E+04  0.25500000920E-02 0.  1.
    10030    2    1    2    0    0  0.00000000000E+00  0.00000000000E+00 -0.74743701225E+03  0.32733062380E+04  0.31868278336E+04 0.  0.
        2    1    3    3  502    0 -0.10485681214E+04 -0.67386902432E+03 -0.13933152530E+04  0.18694710379E+04  0.25500000920E-02 0.  1.
       -2    1    3    3    0  502  0.10485681214E+04  0.67386902432E+03  0.64587824080E+03  0.14038352001E+04  0.25500000920E-02 0. -1.
</event>
<event>
 5   0  0.8681172E-07  0.2737602E+04  0.7818609E-02  0.8322907E-01
        1   -1    0    0  501    0  0.00000000000E+00  0.00000000000E+00  0.10973317863E+04  0.10973317864E+04  0.50400001928E-02 0.  1.
       -1   -1    0    0    0  501  0.00000000000E+00  0.00000000000E+00 -0.17074286528E+04  0.17074286528E+04  0.50400001928E-02 0. -1.
    10030    2    1    2    0    0  0.00000000000E+00  0.00000000000E+00 -0.61009686644E+03  0.28047604391E+04  0.27376016757E+04 0.  0.
        1    1    3    3  502    0  0.51801668712E+03  0.90137756252E+03 -0.12172806393E+04  0.16008107175E+04  0.50400001928E-02 0. -1.
       -1    1    3    3    0  502 -0.51801668712E+03 -0.90137756252E+03  0.60718377282E+03  0.12039497217E+04  0.50400001928E-02 0.  1.
</event>
<event>
 5   0  0.2621528E-06  0.3019966E+04  0.7818609E-02  0.8238052E-01
       -2   -1    0    0    0  501  0.00000000000E+00  0.00000000000E+00  0.13409264386E+04  0.13409264386E+04  0.25500000920E-02 0. -1.
        2   -1    0    0  501    0  0.00000000000E+00  0.00000000000E+00 -0.17003530974E+04  0.17003530974E+04  0.25500000920E-02 0.  1.
    10030    2    1    2    0    0  0.00000000000E+00  0.00000000000E+00 -0.35942665880E+03  0.30412795361E+04  0.30199658431E+04 0.  0.
        2    1    3    3  502    0 -0.13978153757E+04 -0.52213791466E+03  0.53290717764E+02  0.14931027182E+04  0.25500000920E-02 0.  1.
       -2    1    3    3    0  502  0.13978153757E+04  0.52213791466E+03 -0.41271737656E+03  0.15481768179E+04  0.25500000920E-02 0. -1.
</event>
<event>
 5   0  0.2621528E-06  0.3171531E+04  0.7818609E-02  0.8196376E-01
       -2   -1    0    0    0  501  0.00000000000E+00  0.00000000000E+00  0.15306375014E+04  0.15306375014E+04  0.25500000920E-02 0.  1.
        2   -1    0    0  501    0  0.00000000000E+00  0.00000000000E+00 -0.16428790296E+04  0.16428790296E+04  0.25500000920E-02 0. -1.
    10030    2    1    2    0    0  0.00000000000E+00  0.00000000000E+00 -0.11224152828E+03  0.31735165310E+04  0.31715310202E+04 0.  0.
        2    1    3    3  502    0  0.42862138222E+02  0.11360262455E+04 -0.11623713278E+04  0.16258843431E+04  0.25500000920E-02 0. -1.
       -2    1    3    3    0  502 -0.42862138222E+02 -0.11360262455E+04  0.10501297995E+04  0.15476321879E+04  0.25500000920E-02 0.  1.
</event>
<event>
 5   0  0.8545153E-07  0.3186392E+04  0.7818609E-02  0.8192420E-01
       -1   -1    0    0    0  501  0.00000000000E+00  0.00000000000E+00  0.11360429617E+04  0.11360429617E+04  0.50400001928E-02 0. -1.
        1   -1    0    0  501    0  0.00000000000E+00  0.00000000000E+00 -0.22343105884E+04  0.22343105884E+04  0.50400001928E-02 0.  1.
    10030    2    1    2    0    0  0.00000000000E+00  0.00000000000E+00 -0.10982676267E+04  0.33703535501E+04  0.31863915756E+04 0.  0.
        3    1    3    3  502    0  0.33541611772E+03 -0.14386894959E+04 -0.11801863978E+04  0.18908123602E+04  0.10100000352E+00 0.  1.
       -3    1    3    3    0  502 -0.33541611772E+03  0.14386894959E+04  0.81918771065E+02  0.14795411900E+04  0.10100000352E+00 0. -1.
</event>
<event>
 5   0  0.8681172E-07  0.3165223E+04  0.7818609E-02  0.8198063E-01
        1   -1    0    0  501    0  0.00000000000E+00  0.00000000000E+00  0.95789870314E+03  0.95789870316E+03  0.50400001928E-02 0. -1.
       -1   -1    0    0    0  501  0.00000000000E+00  0.00000000000E+00 -0.26147430925E+04  0.26147430926E+04  0.50400001928E-02 0.  1.
    10030    2    1    2    0    0  0.00000000000E+00  0.00000000000E+00 -0.16568443894E+04  0.35726417957E+04  0.31652229100E+04 0.  0.
        1    1    3    3  502    0 -0.13213615872E+04 -0.77183542979E+03 -0.37281641506E+03  0.15750296677E+04  0.50400001928E-02 0.  1.
       -1    1    3    3    0  502  0.13213615872E+04  0.77183542979E+03 -0.12840279743E+04  0.19976121280E+04  0.50400001928E-02 0. -1.
</event>
<event>
 5   0  0.8545153E-07  0.3181693E+04  0.7818609E-02  0.8193669E-01
       -1   -1    0    0    0  501  0.00000000000E+00  0.00000000000E+00  0.15245180566E+04  0.15245180566E+04  0.50400001928E-02 0. -1.
        1   -1    0    0  501    0  0.00000000000E+00  0.00000000000E+00 -0.16600610790E+04  0.16600610790E+04  0.50400001928E-02 0.  1.
    10030    2    1    2    0    0  0.00000000000E+00  0.00000000000E+00 -0.13554302236E+03  0.31845791356E+04  0.31816933164E+04 0.  0.
        3    1    3    3  502    0 -0.36121327562E+03 -0.46734787493E+01 -0.16184656638E+04  0.16582906823E+04  0.10100000352E+00 0.  1.
       -3    1    3    3    0  502  0.36121327562E+03  0.46734787493E+01  0.14829226414E+04  0.15262884533E+04  0.10100000352E+00 0. -1.
</event>
<event>
 5   0  0.7934375E-07  0.3084100E+04  0.7818609E-02  0.8220115E-01
       -3   -1    0    0    0  501  0.00000000000E+00  0.00000000000E+00  0.19527275799E+04  0.19527275825E+04  0.10100000352E+00 0. -1.
        3   -1    0    0  501    0  0.00000000000E+00  0.00000000000E+00 -0.12177417227E+04  0.12177417269E+04  0.10100000352E+00 0.  1.
    10030    2    1    2    0    0  0.00000000000E+00  0.00000000000E+00  0.73498585722E+03  0.31704693094E+04  0.30840997766E+04 0.  0.
        3    1    3    3  502    0 -0.26468316314E+03  0.88340380971E+03  0.16380080151E+04  0.18797685325E+04  0.10100000352E+00 0. -1.
       -3    1    3    3    0  502  0.26468316314E+03 -0.88340380971E+03 -0.90302215788E+03  0.12907007770E+04  0.10100000352E+00 0.  1.
</event>
<event>
 5   0  0.8383008E-07  0.3200334E+04  0.7818609E-02  0.8188729E-01
       -1   -1    0    0    0  501  0.00000000000E+00  0.00000000000E+00  0.11596694125E+04  0.11596694125E+04  0.50400001928E-02 0.  1.
        1   -1    0    0  501    0  0.00000000000E+00  0.00000000000E+00 -0.22079866816E+04  0.22079866816E+04  0.50400001928E-02 0. -1.
    10030    2    1    2    0    0  0.00000000000E+00  0.00000000000E+00 -0.10483172691E+04  0.33676560941E+04  0.32003341188E+04 0.  0.
        4    1    3    3  502    0  0.13842238015E+04 -0.20115352052E+02  0.32032874719E+03  0.14209476694E+04  0.12699999809E+01 0.  1.
       -4    1    3    3    0  502 -0.13842238015E+04  0.20115352052E+02 -0.13686460162E+04  0.19467084247E+04  0.12699999809E+01 0. -1.
</event>
<event>
 5   0  0.8383008E-07  0.3200043E+04  0.7818609E-02  0.8188806E-01
       -1   -1    0    0    0  501  0.00000000000E+00  0.00000000000E+00  0.11919277598E+04  0.11919277598E+04  0.50400001928E-02 0. -1.
        1   -1    0    0  501    0  0.00000000000E+00  0.00000000000E+00 -0.21478382943E+04  0.21478382943E+04  0.50400001928E-02 0.  1.
    10030    2    1    2    0    0  0.00000000000E+00  0.00000000000E+00 -0.95591053448E+03  0.33397660541E+04  0.32000425538E+04 0.  0.
        4    1    3    3  502    0 -0.22760135320E+03  0.40310353129E+03 -0.20764203666E+04  0.21273969974E+04  0.12699999809E+01 0.  1.
       -4    1    3    3    0  502  0.22760135320E+03 -0.40310353129E+03  0.11205098321E+04  0.12123690567E+04  0.12699999809E+01 0. -1.
</event>
<event>
 5   0  0.2337504E-06  0.3200300E+04  0.7818609E-02  0.8188738E-01
        2   -1    0    0  501    0  0.00000000000E+00  0.00000000000E+00  0.19172109278E+04  0.19172109278E+04  0.25500000920E-02 0.  1.
       -2   -1    0    0    0  501  0.00000000000E+00  0.00000000000E+00 -0.13355237001E+04  0.13355237001E+04  0.25500000920E-02 0. -1.
    10030    2    1    2    0    0  0.00000000000E+00  0.00000000000E+00  0.58168722774E+03  0.32527346280E+04  0.32003003811E+04 0.  0.
        1    1    3    3  502    0  0.13727931941E+04  0.81882218577E+03  0.21581197269E+03  0.16129493896E+04  0.50400001928E-02 0. -1.
       -1    1    3    3    0  502 -0.13727931941E+04 -0.81882218577E+03  0.36587525505E+03  0.16397852384E+04  0.50400001928E-02 0.  1.
</event>
<event>
 5   0  0.2466076E-06  0.3178234E+04  0.7818609E-02  0.8194589E-01
        2   -1    0    0  501    0  0.00000000000E+00  0.00000000000E+00  0.18475584797E+04  0.18475584797E+04  0.25500000920E-02 0.  1.
       -2   -1    0    0    0  501  0.00000000000E+00  0.00000000000E+00 -0.13668265967E+04  0.13668265967E+04  0.25500000920E-02 0. -1.
    10030    2    1    2    0    0  0.00000000000E+00  0.00000000000E+00  0.48073188296E+03  0.32143850764E+04  0.31782335150E+04 0.  0.
        3    1    3    3  502    0 -0.12107107588E+03  0.15735126617E+04  0.51990081560E+02  0.15790197214E+04  0.10100000352E+00 0. -1.
       -3    1    3    3    0  502  0.12107107588E+03 -0.15735126617E+04  0.42874180140E+03  0.16353653550E+04  0.10100000352E+00 0.  1.
</event>
<event>
 5   0  0.7934375E-07  0.3208005E+04  0.7818609E-02  0.8186706E-01
        3   -1    0    0  501    0  0.00000000000E+00  0.00000000000E+00  0.16645224961E+04  0.16645224991E+04  0.10100000352E+00 0.  1.
       -3   -1    0    0    0  501  0.00000000000E+00  0.00000000000E+00 -0.15456828791E+04  0.15456828824E+04  0.10100000352E+00 0. -1.
    10030    2    1    2    0    0  0.00000000000E+00  0.00000000000E+00  0.11883961699E+03  0.32102053815E+04  0.32080049465E+04 0.  0.
        4    1    3    3  502    0  0.12562607724E+04 -0.14461479221E+03  0.10468680340E+04  0.16416573516E+04  0.12699999809E+01 0.  1.
       -4    1    3    3    0  502 -0.12562607724E+04  0.14461479221E+03 -0.92802841703E+03  0.15685480299E+04  0.12699999809E+01 0. -1.
</event>
<event>
 5   0  0.2621528E-06  0.3244830E+04  0.7818609E-02  0.8177077E-01
       -2   -1    0    0    0  501  0.00000000000E+00  0.00000000000E+00  0.10179221987E+04  0.10179221987E+04  0.25500000920E-02 0. -1.
        2   -1    0    0  501    0  0.00000000000E+00  0.00000000000E+00 -0.25858858299E+04  0.25858858299E+04  0.25500000920E-02 0.  1.
    10030    2    1    2    0    0  0.00000000000E+00  0.00000000000E+00 -0.15679636312E+04  0.36038080286E+04  0.32448300970E+04 0.  0.
        2    1    3    3  502    0 -0.16196369719E+04  0.18813846828E+02 -0.88729261256E+03  0.18468530158E+04  0.25500000920E-02 0. -1.
       -2    1    3    3    0  502  0.16196369719E+04 -0.18813846828E+02 -0.68067101868E+03  0.17569550129E+04  0.25500000920E-02 0.  1.
</event>
<event>
 5   0  0.2404430E-06  0.3093724E+04  0.7818609E-02  0.8217462E-01
        2   -1    0    0  501    0  0.00000000000E+00  0.00000000000E+00  0.11962788167E+04  0.11962788167E+04  0.25500000920E-02 0.  1.
       -2   -1    0    0    0  501  0.00000000000E+00  0.00000000000E+00 -0.20001871844E+04  0.20001871844E+04  0.25500000920E-02 0. -1.
    10030    2    1    2    0    0  0.00000000000E+00  0.00000000000E+00 -0.80390836769E+03  0.31964660011E+04  0.30937236840E+04 0.  0.
        4    1    3    3  502    0 -0.13995496286E+04  0.52360173882E+03  0.11177359625E+02  0.14943307834E+04  0.12699999809E+01 0.  1.
       -4    1    3    3    0  502  0.13995496286E+04 -0.52360173882E+03 -0.81508572732E+03  0.17021352178E+04  0.12699999809E+01 0. -1.
</event>
<event>
 5   0  0.8383008E-07  0.3059020E+04  0.7818609E-02  0.8227075E-01
       -1   -1    0    0    0  501  0.00000000000E+00  0.00000000000E+00  0.21487706856E+04  0.21487706856E+04  0.50400001928E-02 0.  1.
        1   -1    0    0  501    0  0.00000000000E+00  0.00000000000E+00 -0.10887161964E+04  0.10887161964E+04  0.50400001928E-02 0. -1.
    10030    2    1    2    0    0  0.00000000000E+00  0.00000000000E+00  0.10600544892E+04  0.32374868820E+04  0.30590203972E+04 0.  0.
        4    1    3    3  502    0 -0.76903427906E+02 -0.65054017970E+02 -0.10852015159E+04  0.10898670127E+04  0.12699999809E+01 0. -1.
       -4    1    3    3    0  502  0.76903427906E+02  0.65054017970E+02  0.21452560051E+04  0.21476198692E+04  0.12699999809E+01 0.  1.
</event>
<event>
 5   0  0.2401139E-06  0.3181282E+04  0.7818609E-02  0.8193778E-01
       -2   -1    0    0    0  501  0.00000000000E+00  0.00000000000E+00  0.95394869606E+03  0.95394869606E+03  0.25500000920E-02 0. -1.
        2   -1    0    0  501    0  0.00000000000E+00  0.00000000000E+00 -0.26522805511E+04  0.26522805511E+04  0.25500000920E-02 0.  1.
    10030    2    1    2    0    0  0.00000000000E+00  0.00000000000E+00 -0.16983318550E+04  0.36062292472E+04  0.31812824919E+04 0.  0.
        5    1    3    3  502    0 -0.27918306942E+03  0.22569122939E+03 -0.26057489402E+04  0.26303667703E+04  0.46999998093E+01 0.  1.
       -5    1    3    3    0  502  0.27918306942E+03 -0.22569122939E+03  0.90741708514E+03  0.97586247683E+03  0.46999998093E+01 0. -1.
</event>
<event>
 5   0  0.2466076E-06  0.3158371E+04  0.7818609E-02  0.8199899E-01
       -2   -1    0    0    0  501  0.00000000000E+00  0.00000000000E+00  0.20401557706E+04  0.20401557707E+04  0.25500000920E-02 0.  1.
        2   -1    0    0  501    0  0.00000000000E+00  0.00000000000E+00 -0.12223706877E+04  0.12223706877E+04  0.25500000920E-02 0. -1.
    10030    2    1    2    0    0  0.00000000000E+00  0.00000000000E+00  0.81778508299E+03  0.32625264583E+04  0.31583708537E+04 0.  0.
        3    1    3    3  502    0 -0.94332801921E+03 -0.37354177111E+03 -0.84114928562E+03  0.13179276678E+04  0.10100000352E+00 0. -1.
       -3    1    3    3    0  502  0.94332801921E+03  0.37354177111E+03  0.16589343686E+04  0.19445987905E+04  0.10100000352E+00 0.  1.
</event>
<event>
 5   0  0.8383008E-07  0.3216996E+04  0.7818609E-02  0.8184343E-01
       -1   -1    0    0    0  501  0.00000000000E+00  0.00000000000E+00  0.10652711772E+04  0.10652711772E+04  0.50400001928E-02 0.  1.
        1   -1    0    0  501    0  0.00000000000E+00  0.00000000000E+00 -0.24287388156E+04  0.24287388156E+04  0.50400001928E-02 0. -1.
    10030    2    1    2    0    0  0.00000000000E+00  0.00000000000E+00 -0.13634676384E+04  0.34940099928E+04  0.32169957770E+04 0.  0.
        4    1    3    3  502    0  0.86207972227E+03  0.23085118410E+03 -0.21351701027E+04  0.23141794868E+04  0.12699999809E+01 0. -1.
       -4    1    3    3    0  502 -0.86207972227E+03 -0.23085118410E+03  0.77170246430E+03  0.11798305061E+04  0.12699999809E+01 0.  1.
</event>
<event>
 5   0  0.8545153E-07  0.3204200E+04  0.7818609E-02  0.8187709E-01
        1   -1    0    0  501    0  0.00000000000E+00  0.00000000000E+00  0.13221752852E+04  0.13221752852E+04  0.50400001928E-02 0.  1.
       -1   -1    0    0    0  501  0.00000000000E+00  0.00000000000E+00 -0.19412888649E+04  0.19412888649E+04  0.50400001928E-02 0. -1.
    10030    2    1    2    0    0  0.00000000000E+00  0.00000000000E+00 -0.61911357962E+03  0.32634641501E+04  0.32041998431E+04 0.  0.
        3    1    3    3  502    0 -0.94955718786E+02  0.10824833481E+04  0.88947597984E+03  0.14042629086E+04  0.10100000352E+00 0.  1.
       -3    1    3    3    0  502  0.94955718786E+02 -0.10824833481E+04 -0.15085895595E+04  0.18592012415E+04  0.10100000352E+00 0. -1.
</event>
<event>
 5   0  0.2404430E-06  0.3178382E+04  0.7818609E-02  0.8194550E-01
        2   -1    0    0  501    0  0.00000000000E+00  0.00000000000E+00  0.19843349308E+04  0.19843349308E+04  0.25500000920E-02 0.  1.
       -2   -1    0    0    0  501  0.00000000000E+00  0.00000000000E+00 -0.12727325456E+04  0.12727325456E+04  0.25500000920E-02 0. -1.
    10030    2    1    2    0    0  0.00000000000E+00  0.00000000000E+00  0.71160238515E+03  0.32570674764E+04  0.31783817567E+04 0.  0.
        4    1    3    3  502    0  0.96255337287E+03 -0.12112262878E+04 -0.16437889997E+02  0.15472071397E+04  0.12699999809E+01 0. -1.
       -4    1    3    3    0  502 -0.96255337287E+03  0.12112262878E+04  0.72804027515E+03  0.17098603367E+04  0.12699999809E+01 0.  1.
</event>
<event>
 5   0  0.2466076E-06  0.3287375E+04  0.7818609E-02  0.8166115E-01
       -2   -1    0    0    0  501  0.00000000000E+00  0.00000000000E+00  0.21737821947E+04  0.21737821947E+04  0.25500000920E-02 0. -1.
        2   -1    0    0  501    0  0.00000000000E+00  0.00000000000E+00 -0.12428603860E+04  0.12428603860E+04  0.25500000920E-02 0.  1.
    10030    2    1    2    0    0  0.00000000000E+00  0.00000000000E+00  0.93092180865E+03  0.34166425807E+04  0.32873745011E+04 0.  0.
        3    1    3    3  502    0 -0.11087036603E+04 -0.10893703938E+04  0.10210428527E+04  0.18596989484E+04  0.10100000352E+00 0. -1.
       -3    1    3    3    0  502  0.11087036603E+04  0.10893703938E+04 -0.90121044033E+02  0.15569436323E+04  0.10100000352E+00 0.  1.
</event>
<event>
 5   0  0.2621528E-06  0.3206641E+04  0.7818609E-02  0.8187066E-01
        2   -1    0    0  501    0  0.00000000000E+00  0.00000000000E+00  0.14169781144E+04  0.14169781144E+04  0.25500000920E-02 0. -1.
       -2   -1    0    0    0  501  0.00000000000E+00  0.00000000000E+00 -0.18141678364E+04  0.18141678364E+04  0.25500000920E-02 0.  1.
    10030    2    1    2    0    0  0.00000000000E+00  0.00000000000E+00 -0.39718972202E+03  0.32311459508E+04  0.32066406845E+04 0.  0.
        2    1    3    3  502    0 -0.32065189308E+03  0.95577020904E+03  0.10576570776E+04  0.14611477758E+04  0.25500000920E-02 0. -1.
       -2    1    3    3    0  502  0.32065189308E+03 -0.95577020904E+03 -0.14548467996E+04  0.17699981749E+04  0.25500000920E-02 0.  1.
</event>
<event>
 5   0  0.2621528E-06  0.3185972E+04  0.7818609E-02  0.8192532E-01
       -2   -1    0    0    0  501  0.00000000000E+00  0.00000000000E+00  0.16910884130E+04  0.16910884130E+04  0.25500000920E-02 0.  1.
        2   -1    0    0  501    0  0.00000000000E+00  0.00000000000E+00 -0.15005742126E+04  0.15005742126E+04  0.25500000920E-02 0. -1.
    10030    2    1    2    0    0  0.00000000000E+00  0.00000000000E+00  0.19051420036E+03  0.31916626256E+04  0.31859715402E+04 0.  0.
        2    1    3    3  502    0 -0.14897549858E+04 -0.88987217927E+02 -0.46279723375E+03  0.15625203750E+04  0.25500000920E-02 0. -1.
       -2    1    3    3    0  502  0.14897549858E+04  0.88987217927E+02  0.65331143411E+03  0.16291422506E+04  0.25500000920E-02 0.  1.
</event>
<event>
 5   0  0.2404430E-06  0.2963810E+04  0.7818609E-02  0.8254141E-01
       -2   -1    0    0    0  501  0.00000000000E+00  0.00000000000E+00  0.10529645759E+04  0.10529645759E+04  0.25500000920E-02 0.  1.
        2   -1    0    0  501    0  0.00000000000E+00  0.00000000000E+00 -0.20855808849E+04  0.20855808849E+04  0.25500000920E-02 0. -1.
    10030    2    1    2    0    0  0.00000000000E+00  0.00000000000E+00 -0.10326163090E+04  0.31385454608E+04  0.29638102450E+04 0.  0.
        4    1    3    3  502    0 -0.47348015604E+03  0.38121576291E+03 -0.19474797317E+04  0.20401440720E+04  0.12699999809E+01 0. -1.
       -4    1    3    3    0  502  0.47348015604E+03 -0.38121576291E+03  0.91486342269E+03  0.10984013889E+04  0.12699999809E+01 0.  1.
</event>
<event>
 5   0  0.2401139E-06  0.3209381E+04  0.7818609E-02  0.8186344E-01
        2   -1    0    0  501    0  0.00000000000E+00  0.00000000000E+00  0.21259305629E+04  0.21259305629E+04  0.25500000920E-02 0.  1.
       -2   -1    0    0    0  501  0.00000000000E+00  0.00000000000E+00 -0.12112488897E+04  0.12112488897E+04  0.25500000920E-02 0. -1.
    10030    2    1    2    0    0  0.00000000000E+00  0.00000000000E+00  0.91468167319E+03  0.33371794526E+04  0.32093806467E+04 0.  0.
        5    1    3    3  502    0 -0.42277129496E+03 -0.13795969916E+04  0.11874291754E+04  0.18686983608E+04  0.46999998093E+01 0.  1.
       -5    1    3    3    0  502  0.42277129496E+03  0.13795969916E+04 -0.27274750224E+03  0.14684810918E+04  0.46999998093E+01 0. -1.
</event>
<event>
 5   0  0.2401139E-06  0.3188790E+04  0.7818609E-02  0.8191784E-01
        2   -1    0    0  501    0  0.00000000000E+00  0.00000000000E+00  0.21714787750E+04  0.21714787750E+04  0.25500000920E-02 0. -1.
       -2   -1    0    0    0  501  0.00000000000E+00  0.00000000000E+00 -0.11706749372E+04  0.11706749372E+04  0.25500000920E-02 0.  1.
    10030    2    1    2    0    0  0.00000000000E+00  0.00000000000E+00  0.10008038378E+04  0.33421537122E+04  0.31887902274E+04 0.  0.
        5    1    3    3  502    0 -0.15078461605E+04 -0.49007412296E+03  0.67672182691E+03  0.17238756367E+04  0.46999998093E+01 0.  1.
       -5    1    3    3    0  502  0.15078461605E+04  0.49007412296E+03  0.32408201089E+03  0.16182780755E+04  0.46999998093E+01 0. -1.
</event>
<event>
 5   0  0.2466076E-06  0.2975052E+04  0.7818609E-02  0.8250891E-01
       -2   -1    0    0    0  501  0.00000000000E+00  0.00000000000E+00  0.12285150112E+04  0.12285150112E+04  0.25500000920E-02 0.  1.
        2   -1    0    0  501    0  0.00000000000E+00  0.00000000000E+00 -0.18011445480E+04  0.18011445480E+04  0.25500000920E-02 0. -1.
    10030    2    1    2    0    0  0.00000000000E+00  0.00000000000E+00 -0.57262953686E+03  0.30296595592E+04  0.29750516732E+04 0.  0.
        3    1    3    3  502    0  0.17799726782E+03  0.56966268844E+03  0.11012422179E+04  0.12525705723E+04  0.10100000352E+00 0.  1.
       -3    1    3    3    0  502 -0.17799726782E+03 -0.56966268844E+03 -0.16738717547E+04  0.17770889869E+04  0.10100000352E+00 0. -1.
</event>
<event>
 5   0  0.8681172E-07  0.3236236E+04  0.7818609E-02  0.8179312E-01
        1   -1    0    0  501    0  0.00000000000E+00  0.00000000000E+00  0.19268373548E+04  0.19268373548E+04  0.50400001928E-02 0.  1.
       -1   -1    0    0    0  501  0.00000000000E+00  0.00000000000E+00 -0.13588621877E+04  0.13588621877E+04  0.50400001928E-02 0. -1.
    10030    2    1    2    0    0  0.00000000000E+00  0.00000000000E+00  0.56797516709E+03  0.32856995425E+04  0.32362363469E+04 0.  0.
        1    1    3    3  502    0  0.10940821088E+04  0.11679038945E+04  0.40973308203E+02  0.16008416473E+04  0.50400001928E-02 0. -1.
       -1    1    3    3    0  502 -0.10940821088E+04 -0.11679038945E+04  0.52700185889E+03  0.16848578952E+04  0.50400001928E-02 0.  1.
</event>
<event>
 5   0  0.8681172E-07  0.3452067E+04  0.7818609E-02  0.8125244E-01
       -1   -1    0    0    0  501  0.00000000000E+00  0.00000000000E+00  0.18398507525E+04  0.18398507525E+04  0.50400001928E-02 0. -1.
        1   -1    0    0  501    0  0.00000000000E+00  0.00000000000E+00 -0.16192567734E+04  0.16192567734E+04  0.50400001928E-02 0.  1.
    10030    2    1    2    0    0  0.00000000000E+00  0.00000000000E+00  0.22059397904E+03  0.34591075259E+04  0.34520665075E+04 0.  0.
        1    1    3    3  502    0  0.47124028983E+03 -0.91676391452E+03  0.14975583038E+04  0.18180221008E+04  0.50400001928E-02 0. -1.
       -1    1    3    3    0  502 -0.47124028983E+03  0.91676391452E+03 -0.12769643248E+04  0.16410854251E+04  0.50400001928E-02 0.  1.
</event>
<event>
 5   0  0.2621528E-06  0.3192788E+04  0.7818609E-02  0.8190724E-01
       -2   -1    0    0    0  501  0.00000000000E+00  0.00000000000E+00  0.10418269856E+04  0.10418269856E+04  0.25500000920E-02 0. -1.
        2   -1    0    0  501    0  0.00000000000E+00  0.00000000000E+00 -0.24461580297E+04  0.24461580297E+04  0.25500000920E-02 0.  1.
    10030    2    1    2    0    0  0.00000000000E+00  0.00000000000E+00 -0.14043310440E+04  0.34879850153E+04  0.31927877765E+04 0.  0.
        2    1    3    3  502    0 -0.84804017486E+03 -0.82375715210E+03 -0.18740651595E+04  0.22158222415E+04  0.25500000920E-02 0.  1.
       -2    1    3    3    0  502  0.84804017486E+03  0.82375715210E+03  0.46973411548E+03  0.12721627738E+04  0.25500000920E-02 0. -1.
</event>
<event>
 5   0  0.2404430E-06  0.3141150E+04  0.7818609E-02  0.8204534E-01
        2   -1    0    0  501    0  0.00000000000E+00  0.00000000000E+00  0.20702875908E+04  0.20702875908E+04  0.25500000920E-02 0. -1.
       -2   -1    0    0    0  501  0.00000000000E+00  0.00000000000E+00 -0.11914801270E+04  0.11914801270E+04  0.25500000920E-02 0.  1.
    10030    2    1    2    0    0  0.00000000000E+00  0.00000000000E+00  0.87880746377E+03  0.32617677178E+04  0.31411504400E+04 0.  0.
        4    1    3    3  502    0 -0.40103036394E+03 -0.28774627786E+03  0.19876569771E+04  0.20480246934E+04  0.12699999809E+01 0. -1.
       -4    1    3    3    0  502  0.40103036394E+03  0.28774627786E+03 -0.11088495133E+04  0.12137430244E+04  0.12699999809E+01 0.  1.
</event>
<event>
 5   0  0.8512855E-07  0.2995203E+04  0.7818609E-02  0.8245102E-01
        1   -1    0    0  501    0  0.00000000000E+00  0.00000000000E+00  0.23451543878E+04  0.23451543878E+04  0.50400001928E-02 0.  1.
       -1   -1    0    0    0  501  0.00000000000E+00  0.00000000000E+00 -0.95635923007E+03  0.95635923008E+03  0.50400001928E-02 0. -1.
    10030    2    1    2    0    0  0.00000000000E+00  0.00000000000E+00  0.13887951577E+04  0.33015136179E+04  0.29952028611E+04 0.  0.
        5    1    3    3  502    0  0.36269476783E+03 -0.13058018783E+04  0.13968470076E+04  0.19462450238E+04  0.46999998093E+01 0.  1.
       -5    1    3    3    0  502 -0.36269476783E+03  0.13058018783E+04 -0.80518499080E+01  0.13552685941E+04  0.46999998093E+01 0. -1.
</event>
<event>
 5   0  0.2337504E-06  0.3194611E+04  0.7818609E-02  0.8190242E-01
        2   -1    0    0  501    0  0.00000000000E+00  0.00000000000E+00  0.19415095300E+04  0.19415095300E+04  0.25500000920E-02 0. -1.
       -2   -1    0    0    0  501  0.00000000000E+00  0.00000000000E+00 -0.13141244436E+04  0.13141244436E+04  0.25500000920E-02 0.  1.
    10030    2    1    2    0    0  0.00000000000E+00  0.00000000000E+00  0.62738508644E+03  0.32556339736E+04  0.31946111694E+04 0.  0.
        1    1    3    3  502    0 -0.15804031894E+04 -0.21945294665E+03  0.23776231965E+03  0.16131846632E+04  0.50400001928E-02 0. -1.
       -1    1    3    3    0  502  0.15804031894E+04  0.21945294665E+03  0.38962276680E+03  0.16424493104E+04  0.50400001928E-02 0.  1.
</event>
<event>
 5   0  0.8512855E-07  0.3167150E+04  0.7818609E-02  0.8197547E-01
        1   -1    0    0  501    0  0.00000000000E+00  0.00000000000E+00  0.16673312054E+04  0.16673312054E+04  0.50400001928E-02 0. -1.
       -1   -1    0    0    0  501  0.00000000000E+00  0.00000000000E+00 -0.15040262961E+04  0.15040262961E+04  0.50400001928E-02 0.  1.
    10030    2    1    2    0    0  0.00000000000E+00  0.00000000000E+00  0.16330490929E+03  0.31713575015E+04  0.31671501242E+04 0.  0.
        5    1    3    3  502    0 -0.66635066166E+03 -0.14227729095E+04  0.28036489447E+03  0.15959111881E+04  0.46999998093E+01 0.  1.
       -5    1    3    3    0  502  0.66635066166E+03  0.14227729095E+04 -0.11705998518E+03  0.15754463134E+04  0.46999998093E+01 0. -1.
</event>
<event>
 5   0  0.8383008E-07  0.3208091E+04  0.7818609E-02  0.8186684E-01
       -1   -1    0    0    0  501  0.00000000000E+00  0.00000000000E+00  0.10115724970E+04  0.10115724970E+04  0.50400001928E-02 0. -1.
        1   -1    0    0  501    0  0.00000000000E+00  0.00000000000E+00 -0.25435264812E+04  0.25435264812E+04  0.50400001928E-02 0.  1.
    10030    2    1    2    0    0  0.00000000000E+00  0.00000000000E+00 -0.15319539842E+04  0.35550989782E+04  0.32080906681E+04 0.  0.
        4    1    3    3  502    0 -0.10831391327E+04 -0.10595427671E+04 -0.13493596895E+04  0.20289392403E+04  0.12699999809E+01 0.  1.
       -4    1    3    3    0  502  0.10831391327E+04  0.10595427671E+04 -0.18259429474E+03  0.15261597379E+04  0.12699999809E+01 0. -1.
</event>
<event>
 5   0  0.8681172E-07  0.3207019E+04  0.7818609E-02  0.8186966E-01
       -1   -1    0    0    0  501  0.00000000000E+00  0.00000000000E+00  0.11530025948E+04  0.11530025949E+04  0.50400001928E-02 0. -1.
        1   -1    0    0  501    0  0.00000000000E+00  0.00000000000E+00 -0.22300402173E+04  0.22300402173E+04  0.50400001928E-02 0.  1.
    10030    2    1    2    0    0  0.00000000000E+00  0.00000000000E+00 -0.10770376225E+04  0.33830428122E+04  0.32070186511E+04 0.  0.
        1    1    3    3  502    0 -0.97721742432E+03  0.26624866396E+03 -0.18498924513E+04  0.21090150134E+04  0.50400001928E-02 0.  1.
       -1    1    3    3    0  502  0.97721742432E+03 -0.26624866396E+03  0.77285482884E+03  0.12740277987E+04  0.50400001928E-02 0. -1.
</event>
<event>
 5   0  0.8681172E-07  0.3209765E+04  0.7818609E-02  0.8186243E-01
        1   -1    0    0  501    0  0.00000000000E+00  0.00000000000E+00  0.25244881235E+04  0.25244881235E+04  0.50400001928E-02 0.  1.
       -1   -1    0    0    0  501  0.00000000000E+00  0.00000000000E+00 -0.10202653604E+04  0.10202653604E+04  0.50400001928E-02 0. -1.
    10030    2    1    2    0    0  0.00000000000E+00  0.00000000000E+00  0.15042227631E+04  0.35447534839E+04  0.32097649666E+04 0.  0.
        1    1    3    3  502    0  0.81205528747E+03  0.64970173687E+02 -0.77494805067E+03  0.11243662191E+04  0.50400001928E-02 0. -1.
       -1    1    3    3    0  502 -0.81205528747E+03 -0.64970173687E+02  0.22791708137E+04  0.24203872648E+04  0.50400001928E-02 0.  1.
</event>
<event>
 5   0  0.8681172E-07  0.3204879E+04  0.7818609E-02  0.8187530E-01
        1   -1    0    0  501    0  0.00000000000E+00  0.00000000000E+00  0.17055053746E+04  0.17055053747E+04  0.50400001928E-02 0.  1.
       -1   -1    0    0    0  501  0.00000000000E+00  0.00000000000E+00 -0.15056022627E+04  0.15056022627E+04  0.50400001928E-02 0. -1.
    10030    2    1    2    0    0  0.00000000000E+00  0.00000000000E+00  0.19990311197E+03  0.32111076373E+04  0.32048792496E+04 0.  0.
        1    1    3    3  502    0 -0.30571218900E+03 -0.80119512978E+02 -0.14740673121E+04  0.15075654279E+04  0.50400001928E-02 0. -1.
       -1    1    3    3    0  502  0.30571218900E+03  0.80119512978E+02  0.16739704240E+04  0.17035422095E+04  0.50400001928E-02 0.  1.
</event>
<event>
 5   0  0.8487944E-07  0.3206985E+04  0.7818609E-02  0.8186975E-01
       -1   -1    0    0    0  501  0.00000000000E+00  0.00000000000E+00  0.11778297210E+04  0.11778297210E+04  0.50400001928E-02 0.  1.
        1   -1    0    0  501    0  0.00000000000E+00  0.00000000000E+00 -0.21829878295E+04  0.21829878295E+04  0.50400001928E-02 0. -1.
    10030    2    1    2    0    0  0.00000000000E+00  0.00000000000E+00 -0.10051581085E+04  0.33608175505E+04  0.32069848432E+04 0.  0.
        2    1    3    3  502    0 -0.14485351179E+04  0.33187074887E+03  0.12863859431E+03  0.14916233002E+04  0.25500000920E-02 0.  1.
       -2    1    3    3    0  502  0.14485351179E+04 -0.33187074887E+03 -0.11337967028E+04  0.18691942502E+04  0.25500000920E-02 0. -1.
</event>
<event>
 5   0  0.8512855E-07  0.3203116E+04  0.7818609E-02  0.8187995E-01
       -1   -1    0    0    0  501  0.00000000000E+00  0.00000000000E+00  0.21087465886E+04  0.21087465886E+04  0.50400001928E-02 0. -1.
        1   -1    0    0  501    0  0.00000000000E+00  0.00000000000E+00 -0.12163567709E+04  0.12163567709E+04  0.50400001928E-02 0.  1.
    10030    2    1    2    0    0  0.00000000000E+00  0.00000000000E+00  0.89238981777E+03  0.33251033595E+04  0.32031161023E+04 0.  0.
        5    1    3    3  502    0  0.87295681377E+03 -0.10244370709E+04 -0.45487222370E+03  0.14207236680E+04  0.46999998093E+01 0.  1.
       -5    1    3    3    0  502 -0.87295681377E+03  0.10244370709E+04  0.13472620415E+04  0.19043796915E+04  0.46999998093E+01 0. -1.
</event>
<event>
 5   0  0.2466076E-06  0.3207398E+04  0.7818609E-02  0.8186866E-01
        2   -1    0    0  501    0  0.00000000000E+00  0.00000000000E+00  0.29500765266E+04  0.29500765266E+04  0.25500000920E-02 0. -1.
       -2   -1    0    0    0  501  0.00000000000E+00  0.00000000000E+00 -0.87179124761E+03  0.87179124762E+03  0.25500000920E-02 0.  1.
    10030    2    1    2    0    0  0.00000000000E+00  0.00000000000E+00  0.20782852790E+04  0.38218677742E+04  0.32073982576E+04 0.  0.
        3    1    3    3  502    0 -0.71555820955E+03  0.85554745415E+03 -0.33395011611E+03  0.11642627228E+04  0.10100000352E+00 0.  1.
       -3    1    3    3    0  502  0.71555820955E+03 -0.85554745415E+03  0.24122353951E+04  0.26576050514E+04  0.10100000352E+00 0. -1.
</event>
<event>
 5   0  0.8545153E-07  0.3268240E+04  0.7818609E-02  0.8171024E-01
       -1   -1    0    0    0  501  0.00000000000E+00  0.00000000000E+00  0.13021078492E+04  0.13021078492E+04  0.50400001928E-02 0.  1.
        1   -1    0    0  501    0  0.00000000000E+00  0.00000000000E+00 -0.20507886694E+04  0.20507886694E+04  0.50400001928E-02 0. -1.
    10030    2    1    2    0    0  0.00000000000E+00  0.00000000000E+00 -0.74868082022E+03  0.33528965186E+04  0.32682399076E+04 0.  0.
        3    1    3    3  502    0 -0.98610983660E+01  0.15276471323E+03 -0.20434164133E+04  0.20491424907E+04  0.10100000352E+00 0. -1.
       -3    1    3    3    0  502  0.98610983660E+01 -0.15276471323E+03  0.12947355931E+04  0.13037540278E+04  0.10100000352E+00 0.  1.
</event>
<event>
 5   0  0.8487944E-07  0.3199096E+04  0.7818609E-02  0.8189056E-01
       -1   -1    0    0    0  501  0.00000000000E+00  0.00000000000E+00  0.11174161982E+04  0.11174161982E+04  0.50400001928E-02 0.  1.
        1   -1    0    0  501    0  0.00000000000E+00  0.00000000000E+00 -0.22897057348E+04  0.22897057348E+04  0.50400001928E-02 0. -1.
    10030    2    1    2    0    0  0.00000000000E+00  0.00000000000E+00 -0.11722895366E+04  0.34071219330E+04  0.31990962956E+04 0.  0.
        2    1    3    3  502    0 -0.22346857722E+03  0.15701979679E+04 -0.80723566004E+03  0.17796317806E+04  0.25500000920E-02 0. -1.
       -2    1    3    3    0  502  0.22346857722E+03 -0.15701979679E+04 -0.36505387654E+03  0.16274901524E+04  0.25500000920E-02 0.  1.
</event>
<event>
 5   0  0.2401139E-06  0.3188619E+04  0.7818609E-02  0.8191829E-01
       -2   -1    0    0    0  501  0.00000000000E+00  0.00000000000E+00  0.13188943246E+04  0.13188943246E+04  0.25500000920E-02 0.  1.
        2   -1    0    0  501    0  0.00000000000E+00  0.00000000000E+00 -0.19272378851E+04  0.19272378851E+04  0.25500000920E-02 0. -1.
    10030    2    1    2    0    0  0.00000000000E+00  0.00000000000E+00 -0.60834356051E+03  0.32461322097E+04  0.31886192051E+04 0.  0.
        5    1    3    3  502    0 -0.10915419295E+04  0.11263336822E+04 -0.59517666409E+03  0.16776020682E+04  0.46999998093E+01 0.  1.
       -5    1    3    3    0  502  0.10915419295E+04 -0.11263336822E+04 -0.13166896418E+02  0.15685301415E+04  0.46999998093E+01 0. -1.
</event>
<event>
 5   0  0.2466076E-06  0.3156907E+04  0.7818609E-02  0.8200292E-01
       -2   -1    0    0    0  501  0.00000000000E+00  0.00000000000E+00  0.23150631407E+04  0.23150631407E+04  0.25500000920E-02 0.  1.
        2   -1    0    0  501    0  0.00000000000E+00  0.00000000000E+00 -0.10762192922E+04  0.10762192922E+04  0.25500000920E-02 0. -1.
    10030    2    1    2    0    0  0.00000000000E+00  0.00000000000E+00  0.12388438486E+04  0.33912824329E+04  0.31569071033E+04 0.  0.
        3    1    3    3  502    0 -0.33725545966E+03 -0.10752793482E+04 -0.56787009270E+03  0.12619205103E+04  0.10100000352E+00 0. -1.
       -3    1    3    3    0  502  0.33725545966E+03  0.10752793482E+04  0.18067139413E+04  0.21293619227E+04  0.10100000352E+00 0.  1.
</event>
<event>
 5   0  0.8681172E-07  0.3206501E+04  0.7818609E-02  0.8187102E-01
        1   -1    0    0  501    0  0.00000000000E+00  0.00000000000E+00  0.12577107061E+04  0.12577107061E+04  0.50400001928E-02 0.  1.
       -1   -1    0    0    0  501  0.00000000000E+00  0.00000000000E+00 -0.20437224485E+04  0.20437224485E+04  0.50400001928E-02 0. -1.
    10030    2    1    2    0    0  0.00000000000E+00  0.00000000000E+00 -0.78601174235E+03  0.33014331546E+04  0.32065006495E+04 0.  0.
        1    1    3    3  502    0  0.47980182124E+03 -0.10640001953E+04  0.73867399408E+03  0.13812839942E+04  0.50400001928E-02 0.  1.
       -1    1    3    3    0  502 -0.47980182124E+03  0.10640001953E+04 -0.15246857364E+04  0.19201491604E+04  0.50400001928E-02 0. -1.
</event>
<event>
 5   0  0.2404430E-06  0.3214552E+04  0.7818609E-02  0.8184984E-01
        2   -1    0    0  501    0  0.00000000000E+00  0.00000000000E+00  0.23709227458E+04  0.23709227458E+04  0.25500000920E-02 0.  1.
       -2   -1    0    0    0  501  0.00000000000E+00  0.00000000000E+00 -0.10895912953E+04  0.10895912953E+04  0.25500000920E-02 0. -1.
    10030    2    1    2    0    0  0.00000000000E+00  0.00000000000E+00  0.12813314505E+04  0.34605140411E+04  0.32145524017E+04 0.  0.
        4    1    3    3  502    0  0.36500500212E+03 -0.15422348472E+04  0.92875812333E+03  0.18369295686E+04  0.12699999809E+01 0. -1.
       -4    1    3    3    0  502 -0.36500500212E+03  0.15422348472E+04  0.35257332713E+03  0.16235844725E+04  0.12699999809E+01 0.  1.
</event>
<event>
 5   0  0.2337504E-06  0.3241669E+04  0.7818609E-02  0.8177898E-01
        2   -1    0    0  501    0  0.00000000000E+00  0.00000000000E+00  0.21523043445E+04  0.21523043445E+04  0.25500000920E-02 0. -1.
       -2   -1    0    0    0  501  0.00000000000E+00  0.00000000000E+00 -0.12206007542E+04  0.12206007542E+04  0.25500000920E-02 0.  1.
    10030    2    1    2    0    0  0.00000000000E+00  0.00000000000E+00  0.93170359027E+03  0.33729050987E+04  0.32416688950E+04 0.  0.
        1    1    3    3  502    0 -0.60499381867E+03  0.14796874388E+04  0.74428945312E+03  0.17633658802E+04  0.50400001928E-02 0.  1.
       -1    1    3    3    0  502  0.60499381867E+03 -0.14796874388E+04  0.18741413715E+03  0.16095392186E+04  0.50400001928E-02 0. -1.
</event>
<event>
 5   0  0.2466076E-06  0.3208428E+04  0.7818609E-02  0.8186595E-01
        2   -1    0    0  501    0  0.00000000000E+00  0.00000000000E+00  0.12134088363E+04  0.12134088363E+04  0.25500000920E-02 0.  1.
       -2   -1    0    0    0  501  0.00000000000E+00  0.00000000000E+00 -0.21208862866E+04  0.21208862866E+04  0.25500000920E-02 0. -1.
    10030    2    1    2    0    0  0.00000000000E+00  0.00000000000E+00 -0.90747745029E+03  0.33342951228E+04  0.32084277525E+04 0.  0.
        3    1    3    3  502    0  0.10121895741E+04  0.25064782816E+02  0.83940204824E+03  0.13152002836E+04  0.10100000352E+00 0.  1.
       -3    1    3    3    0  502 -0.10121895741E+04 -0.25064782816E+02 -0.17468794985E+04  0.20190948392E+04  0.10100000352E+00 0. -1.
</event>
<event>
 5   0  0.8512855E-07  0.3231958E+04  0.7818609E-02  0.8180428E-01
        1   -1    0    0  501    0  0.00000000000E+00  0.00000000000E+00  0.18633935071E+04  0.18633935071E+04  0.50400001928E-02 0. -1.
       -1   -1    0    0    0  501  0.00000000000E+00  0.00000000000E+00 -0.14014149846E+04  0.14014149846E+04  0.50400001928E-02 0.  1.
    10030    2    1    2    0    0  0.00000000000E+00  0.00000000000E+00  0.46197852250E+03  0.32648084917E+04  0.32319576625E+04 0.  0.
        5    1    3    3  502    0 -0.15318932199E+04 -0.22472034304E+03  0.69847759992E+03  0.16985550086E+04  0.46999998093E+01 0. -1.
       -5    1    3    3    0  502  0.15318932199E+04  0.22472034304E+03 -0.23649907742E+03  0.15662534831E+04  0.46999998093E+01 0.  1.
</event>
<event>
 5   0  0.8487944E-07  0.3189483E+04  0.7818609E-02  0.8191600E-01
       -1   -1    0    0    0  501  0.00000000000E+00  0.00000000000E+00  0.13642977420E+04  0.13642977420E+04  0.50400001928E-02 0. -1.
        1   -1    0    0  501    0  0.00000000000E+00  0.00000000000E+00 -0.18641100649E+04  0.18641100649E+04  0.50400001928E-02 0.  1.
    10030    2    1    2    0    0  0.00000000000E+00  0.00000000000E+00 -0.49981232295E+03  0.32284078069E+04  0.31894834393E+04 0.  0.
        2    1    3    3  502    0 -0.59306515481E+03  0.37734096479E+03 -0.16988395273E+04  0.18385233806E+04  0.25500000920E-02 0.  1.
       -2    1    3    3    0  502  0.59306515481E+03 -0.37734096479E+03  0.11990272044E+04  0.13898844263E+04  0.25500000920E-02 0. -1.
</event>
<event>
 5   0  0.8545153E-07  0.3152048E+04  0.7818609E-02  0.8201597E-01
       -1   -1    0    0    0  501  0.00000000000E+00  0.00000000000E+00  0.23469414375E+04  0.23469414375E+04  0.50400001928E-02 0. -1.
        1   -1    0    0  501    0  0.00000000000E+00  0.00000000000E+00 -0.10583358773E+04  0.10583358773E+04  0.50400001928E-02 0.  1.
    10030    2    1    2    0    0  0.00000000000E+00  0.00000000000E+00  0.12886055601E+04  0.34052773148E+04  0.31520484294E+04 0.  0.
        3    1    3    3  502    0 -0.26209002713E+03  0.27438068102E+03 -0.10082527428E+04  0.10772880506E+04  0.10100000352E+00 0.  1.
       -3    1    3    3    0  502  0.26209002713E+03 -0.27438068102E+03  0.22968583029E+04  0.23279892642E+04  0.10100000352E+00 0. -1.
</event>
<event>
 5   0  0.2621528E-06  0.3208797E+04  0.7818609E-02  0.8186498E-01
       -2   -1    0    0    0  501  0.00000000000E+00  0.00000000000E+00  0.14638520559E+04  0.14638520559E+04  0.25500000920E-02 0.  1.
        2   -1    0    0  501    0  0.00000000000E+00  0.00000000000E+00 -0.17584389498E+04  0.17584389498E+04  0.25500000920E-02 0. -1.
    10030    2    1    2    0    0  0.00000000000E+00  0.00000000000E+00 -0.29458689393E+03  0.32222910056E+04  0.32087969532E+04 0.  0.
        2    1    3    3  502    0  0.44402684520E+03 -0.35290005790E+03  0.13598164218E+04  0.14733631566E+04  0.25500000920E-02 0.  1.
       -2    1    3    3    0  502 -0.44402684520E+03  0.35290005790E+03 -0.16544033157E+04  0.17489278491E+04  0.25500000920E-02 0. -1.
</event>
<event>
 5   0  0.2404430E-06  0.3207920E+04  0.7818609E-02  0.8186729E-01
       -2   -1    0    0    0  501  0.00000000000E+00  0.00000000000E+00  0.20389282172E+04  0.20389282172E+04  0.25500000920E-02 0. -1.
        2   -1    0    0  501    0  0.00000000000E+00  0.00000000000E+00 -0.12617846121E+04  0.12617846121E+04  0.25500000920E-02 0.  1.
    10030    2    1    2    0    0  0.00000000000E+00  0.00000000000E+00  0.77714360513E+03  0.33007128294E+04  0.32079203542E+04 0.  0.
        4    1    3    3  502    0  0.92823733531E+02 -0.49515474332E+03 -0.11782674438E+04  0.12814484958E+04  0.12699999809E+01 0.  1.
       -4    1    3    3    0  502 -0.92823733531E+02  0.49515474332E+03  0.19554110490E+04  0.20192643335E+04  0.12699999809E+01 0. -1.
</event>
<event>
 5   0  0.8487944E-07  0.3194603E+04  0.7818609E-02  0.8190244E-01
        1   -1    0    0  501    0  0.00000000000E+00  0.00000000000E+00  0.22097506387E+04  0.22097506387E+04  0.50400001928E-02 0. -1.
       -1   -1    0    0    0  501  0.00000000000E+00  0.00000000000E+00 -0.11545973061E+04  0.11545973061E+04  0.50400001928E-02 0.  1.
    10030    2    1    2    0    0  0.00000000000E+00  0.00000000000E+00  0.10551533326E+04  0.33643479448E+04  0.31946030330E+04 0.  0.
        2    1    3    3  502    0 -0.11216208681E+04  0.59025505332E+03 -0.49615373651E+03  0.13611035706E+04  0.25500000920E-02 0.  1.
       -2    1    3    3    0  502  0.11216208681E+04 -0.59025505332E+03  0.15513070691E+04  0.20032443741E+04  0.25500000920E-02 0. -1.
</event>
<event>
 5   0  0.8512855E-07  0.3242976E+04  0.7818609E-02  0.8177559E-01
       -1   -1    0    0    0  501  0.00000000000E+00  0.00000000000E+00  0.10043297249E+04  0.10043297249E+04  0.50400001928E-02 0. -1.
        1   -1    0    0  501    0  0.00000000000E+00  0.00000000000E+00 -0.26178882895E+04  0.26178882895E+04  0.50400001928E-02 0.  1.
    10030    2    1    2    0    0  0.00000000000E+00  0.00000000000E+00 -0.16135585646E+04  0.36222180144E+04  0.32429758097E+04 0.  0.
        5    1    3    3  502    0  0.14607175200E+04 -0.61932324028E+03 -0.43307225795E+03  0.16446369264E+04  0.46999998093E+01 0. -1.
       -5    1    3    3    0  502 -0.14607175200E+04  0.61932324028E+03 -0.11804863066E+04  0.19775810879E+04  0.46999998093E+01 0.  1.
</event>
<event>
 5   0  0.8487944E-07  0.3213816E+04  0.7818609E-02  0.8185178E-01
       -1   -1    0    0    0  501  0.00000000000E+00  0.00000000000E+00  0.10632809344E+04  0.10632809344E+04  0.50400001928E-02 0. -1.
        1   -1    0    0  501    0  0.00000000000E+00  0.00000000000E+00 -0.24284769102E+04  0.24284769102E+04  0.50400001928E-02 0.  1.
    10030    2    1    2    0    0  0.00000000000E+00  0.00000000000E+00 -0.13651959757E+04  0.34917578446E+04  0.32138159240E+04 0.  0.
        2    1    3    3  502    0  0.99305069581E+03  0.88667639853E+03 -0.16603174920E+04  0.21281444722E+04  0.25500000920E-02 0.  1.
       -2    1    3    3    0  502 -0.99305069581E+03 -0.88667639853E+03  0.29512151625E+03  0.13636133725E+04  0.25500000920E-02 0. -1.
</event>
<event>
 5   0  0.2621528E-06  0.3235948E+04  0.7818609E-02  0.8179388E-01
       -2   -1    0    0    0  501  0.00000000000E+00  0.00000000000E+00  0.14619880473E+04  0.14619880473E+04  0.25500000920E-02 0.  1.
        2   -1    0    0  501    0  0.00000000000E+00  0.00000000000E+00 -0.17906022325E+04  0.17906022325E+04  0.25500000920E-02 0. -1.
    10030    2    1    2    0    0  0.00000000000E+00  0.00000000000E+00 -0.32861418515E+03  0.32525902798E+04  0.32359475035E+04 0.  0.
        2    1    3    3  502    0 -0.12079513913E+04  0.39934000127E+03 -0.11690581331E+04  0.17278066787E+04  0.25500000920E-02 0. -1.
       -2    1    3    3    0  502  0.12079513913E+04 -0.39934000127E+03  0.84044394797E+03  0.15247836011E+04  0.25500000920E-02 0.  1.
</event>
<event>
 5   0  0.2466076E-06  0.3183462E+04  0.7818609E-02  0.8193199E-01
        2   -1    0    0  501    0  0.00000000000E+00  0.00000000000E+00  0.15468963646E+04  0.15468963646E+04  0.25500000920E-02 0. -1.
       -2   -1    0    0    0  501  0.00000000000E+00  0.00000000000E+00 -0.16378647365E+04  0.16378647365E+04  0.25500000920E-02 0.  1.
    10030    2    1    2    0    0  0.00000000000E+00  0.00000000000E+00 -0.90968371873E+02  0.31847611010E+04  0.31834616420E+04 0.  0.
        3    1    3    3  502    0  0.13772445530E+04  0.27834622009E+03  0.70270331550E+03  0.15710095915E+04  0.10100000352E+00 0. -1.
       -3    1    3    3    0  502 -0.13772445530E+04 -0.27834622009E+03 -0.79367168737E+03  0.16137515095E+04  0.10100000352E+00 0.  1.
</event>
<event>
 5   0  0.2621528E-06  0.2990405E+04  0.7818609E-02  0.8246476E-01
        2   -1    0    0  501    0  0.00000000000E+00  0.00000000000E+00  0.10942124476E+04  0.10942124476E+04  0.25500000920E-02 0.  1.
       -2   -1    0    0    0  501  0.00000000000E+00  0.00000000000E+00 -0.20431412846E+04  0.20431412846E+04  0.25500000920E-02 0. -1.
    10030    2    1    2    0    0  0.00000000000E+00  0.00000000000E+00 -0.94892883706E+03  0.31373537322E+04  0.29904050734E+04 0.  0.
        2    1    3    3  502    0 -0.80686170597E+03  0.62730643876E+03 -0.16194658230E+04  0.19149957526E+04  0.25500000920E-02 0. -1.
       -2    1    3    3    0  502  0.80686170597E+03 -0.62730643876E+03  0.67053698595E+03  0.12223579796E+04  0.25500000920E-02 0.  1.
</event>
<event>
 5   0  0.8545153E-07  0.3187060E+04  0.7818609E-02  0.8192243E-01
       -1   -1    0    0    0  501  0.00000000000E+00  0.00000000000E+00  0.13674452402E+04  0.13674452402E+04  0.50400001928E-02 0. -1.
        1   -1    0    0  501    0  0.00000000000E+00  0.00000000000E+00 -0.18569945273E+04  0.18569945273E+04  0.50400001928E-02 0.  1.
    10030    2    1    2    0    0  0.00000000000E+00  0.00000000000E+00 -0.48954928706E+03  0.32244397675E+04  0.31870602927E+04 0.  0.
        3    1    3    3  502    0  0.14266776479E+03  0.97648246556E+03 -0.15106351183E+04  0.18044086476E+04  0.10100000352E+00 0.  1.
       -3    1    3    3    0  502 -0.14266776479E+03 -0.97648246556E+03  0.10210858312E+04  0.14200311199E+04  0.10100000352E+00 0. -1.
</event>
<event>
 5   0  0.8512855E-07  0.3265881E+04  0.7818609E-02  0.8171632E-01
       -1   -1    0    0    0  501  0.00000000000E+00  0.00000000000E+00  0.23398097317E+04  0.23398097317E+04  0.50400001928E-02 0.  1.
        1   -1    0    0  501    0  0.00000000000E+00  0.00000000000E+00 -0.11396202822E+04  0.11396202822E+04  0.50400001928E-02 0. -1.
    10030    2    1    2    0    0  0.00000000000E+00  0.00000000000E+00  0.12001894495E+04  0.34794300139E+04  0.32658809695E+04 0.  0.
        5    1    3    3  502    0 -0.73588357804E+02  0.20510423502E+03 -0.11240536437E+04  0.11449898155E+04  0.46999998093E+01 0. -1.
       -5    1    3    3    0  502  0.73588357804E+02 -0.20510423502E+03  0.23242430932E+04  0.23344401984E+04  0.46999998093E+01 0.  1.
</event>
<event>
 5   0  0.2401139E-06  0.3081030E+04  0.7818609E-02  0.8220964E-01
       -2   -1    0    0    0  501  0.00000000000E+00  0.00000000000E+00  0.84601378326E+03  0.84601378327E+03  0.25500000920E-02 0. -1.
        2   -1    0    0  501    0  0.00000000000E+00  0.00000000000E+00 -0.28051385124E+04  0.28051385124E+04  0.25500000920E-02 0.  1.
    10030    2    1    2    0    0  0.00000000000E+00  0.00000000000E+00 -0.19591247292E+04  0.36511522957E+04  0.30810295977E+04 0.  0.
        5    1    3    3  502    0  0.17375725157E+03 -0.15263237761E+04 -0.11162687806E+04  0.18989296808E+04  0.46999998093E+01 0.  1.
       -5    1    3    3    0  502 -0.17375725157E+03  0.15263237761E+04 -0.84285594860E+03  0.17522226149E+04  0.46999998093E+01 0. -1.
</event>
<event>
 5   0  0.8512855E-07  0.3228918E+04  0.7818609E-02  0.8181222E-01
        1   -1    0    0  501    0  0.00000000000E+00  0.00000000000E+00  0.23101183453E+04  0.23101183453E+04  0.50400001928E-02 0. -1.
       -1   -1    0    0    0  501  0.00000000000E+00  0.00000000000E+00 -0.11282873092E+04  0.11282873093E+04  0.50400001928E-02 0.  1.
    10030    2    1    2    0    0  0.00000000000E+00  0.00000000000E+00  0.11818310361E+04  0.34384056546E+04  0.32289175969E+04 0.  0.
        5    1    3    3  502    0 -0.13514871002E+03  0.38377616236E+03 -0.10727869493E+04  0.11473636064E+04  0.46999998093E+01 0.  1.
       -5    1    3    3    0  502  0.13514871002E+03 -0.38377616236E+03  0.22546179854E+04  0.22910420482E+04  0.46999998093E+01 0. -1.
</event>
<event>
 5   0  0.8487944E-07  0.3161247E+04  0.7818609E-02  0.8199127E-01
        1   -1    0    0  501    0  0.00000000000E+00  0.00000000000E+00  0.11044451871E+04  0.11044451871E+04  0.50400001928E-02 0. -1.
       -1   -1    0    0    0  501  0.00000000000E+00  0.00000000000E+00 -0.22621040383E+04  0.22621040383E+04  0.50400001928E-02 0.  1.
    10030    2    1    2    0    0  0.00000000000E+00  0.00000000000E+00 -0.11576588511E+04  0.33665492254E+04  0.31612465376E+04 0.  0.
        2    1    3    3  502    0  0.33376645365E+03  0.88266483821E+03  0.77153947391E+03  0.12189218277E+04  0.25500000920E-02 0. -1.
       -2    1    3    3    0  502 -0.33376645365E+03 -0.88266483821E+03 -0.19291983250E+04  0.21476273977E+04  0.25500000920E-02 0.  1.
</event>
<event>
 5   0  0.2401139E-06  0.3198270E+04  0.7818609E-02  0.8189274E-01
       -2   -1    0    0    0  501  0.00000000000E+00  0.00000000000E+00  0.11163452240E+04  0.11163452240E+04  0.25500000920E-02 0.  1.
        2   -1    0    0  501    0  0.00000000000E+00  0.00000000000E+00 -0.22907190359E+04  0.22907190359E+04  0.25500000920E-02 0. -1.
    10030    2    1    2    0    0  0.00000000000E+00  0.00000000000E+00 -0.11743738119E+04  0.34070642599E+04  0.31982703171E+04 0.  0.
        5    1    3    3  502    0 -0.13744411890E+03 -0.13476886246E+04 -0.14923993025E+04  0.20155478865E+04  0.46999998093E+01 0. -1.
       -5    1    3    3    0  502  0.13744411890E+03  0.13476886246E+04  0.31802549059E+03  0.13915163734E+04  0.46999998093E+01 0.  1.
</event>
<event>
 5   0  0.8681172E-07  0.3223161E+04  0.7818609E-02  0.8182727E-01
        1   -1    0    0  501    0  0.00000000000E+00  0.00000000000E+00  0.26323636444E+04  0.26323636444E+04  0.50400001928E-02 0.  1.
       -1   -1    0    0    0  501  0.00000000000E+00  0.00000000000E+00 -0.98663894757E+03  0.98663894758E+03  0.50400001928E-02 0. -1.
    10030    2    1    2    0    0  0.00000000000E+00  0.00000000000E+00  0.16457246968E+04  0.36190025920E+04  0.32231614888E+04 0.  0.
        1    1    3    3  502    0  0.13952157046E+04  0.26854021707E+03 -0.31103320794E+02  0.14211643561E+04  0.50400001928E-02 0. -1.
       -1    1    3    3    0  502 -0.13952157046E+04 -0.26854021707E+03  0.16768280176E+04  0.21978382359E+04  0.50400001928E-02 0.  1.
</event>
<event>
 5   0  0.2466076E-06  0.3181510E+04  0.7818609E-02  0.8193717E-01
       -2   -1    0    0    0  501  0.00000000000E+00  0.00000000000E+00  0.15655982394E+04  0.15655982394E+04  0.25500000920E-02 0. -1.
        2   -1    0    0  501    0  0.00000000000E+00  0.00000000000E+00 -0.16163161197E+04  0.16163161197E+04  0.25500000920E-02 0.  1.
    10030    2    1    2    0    0  0.00000000000E+00  0.00000000000E+00 -0.50717880292E+02  0.31819143591E+04  0.31815101265E+04 0.  0.
        3    1    3    3  502    0  0.12102883689E+03  0.80617714650E+03 -0.13915237469E+04  0.16127330589E+04  0.10100000352E+00 0.  1.
       -3    1    3    3    0  502 -0.12102883689E+03 -0.80617714650E+03  0.13408058666E+04  0.15691813002E+04  0.10100000352E+00 0. -1.
</event>
<event>
 5   0  0.2337504E-06  0.3196339E+04  0.7818609E-02  0.8189785E-01
        2   -1    0    0  501    0  0.00000000000E+00  0.00000000000E+00  0.19890279163E+04  0.19890279163E+04  0.25500000920E-02 0. -1.
       -2   -1    0    0    0  501  0.00000000000E+00  0.00000000000E+00 -0.12841175941E+04  0.12841175942E+04  0.25500000920E-02 0.  1.
    10030    2    1    2    0    0  0.00000000000E+00  0.00000000000E+00  0.70491032218E+03  0.32731455105E+04  0.31963389949E+04 0.  0.
        1    1    3    3  502    0  0.10986037842E+04 -0.27314101571E+03  0.15076627999E+04  0.18853602858E+04  0.50400001928E-02 0. -1.
       -1    1    3    3    0  502 -0.10986037842E+04  0.27314101571E+03 -0.80275247773E+03  0.13877852246E+04  0.50400001928E-02 0.  1.
</event>
<event>
 5   0  0.2466076E-06  0.3305022E+04  0.7818609E-02  0.8161619E-01
       -2   -1    0    0    0  501  0.00000000000E+00  0.00000000000E+00  0.13151091453E+04  0.13151091453E+04  0.25500000920E-02 0.  1.
        2   -1    0    0  501    0  0.00000000000E+00  0.00000000000E+00 -0.20764754991E+04  0.20764754991E+04  0.25500000920E-02 0. -1.
    10030    2    1    2    0    0  0.00000000000E+00  0.00000000000E+00 -0.76136635385E+03  0.33915846444E+04  0.33050215847E+04 0.  0.
        3    1    3    3  502    0  0.89259116239E+03 -0.59716572191E+03  0.90818460431E+03  0.14064583777E+04  0.10100000352E+00 0.  1.
       -3    1    3    3    0  502 -0.89259116239E+03  0.59716572191E+03 -0.16695509582E+04  0.19851262667E+04  0.10100000352E+00 0. -1.
</event>
<event>
 5   0  0.8487944E-07  0.3175262E+04  0.7818609E-02  0.8195381E-01
        1   -1    0    0  501    0  0.00000000000E+00  0.00000000000E+00  0.22353065303E+04  0.22353065303E+04  0.50400001928E-02 0. -1.
       -1   -1    0    0    0  501  0.00000000000E+00  0.00000000000E+00 -0.11276183613E+04  0.11276183613E+04  0.50400001928E-02 0.  1.
    10030    2    1    2    0    0  0.00000000000E+00  0.00000000000E+00  0.11076881690E+04  0.33629248916E+04  0.31752623115E+04 0.  0.
        2    1    3    3  502    0  0.94214832400E+03  0.12741865550E+03  0.19004838454E+04  0.21250218410E+04  0.25500000920E-02 0. -1.
       -2    1    3    3    0  502 -0.94214832400E+03 -0.12741865550E+03 -0.79279567637E+03  0.12379030506E+04  0.25500000920E-02 0.  1.
</event>
<event>
 5   0  0.2404430E-06  0.3165689E+04  0.7818609E-02  0.8197938E-01
       -2   -1    0    0    0  501  0.00000000000E+00  0.00000000000E+00  0.14525544104E+04  0.14525544104E+04  0.25500000920E-02 0. -1.
        2   -1    0    0  501    0  0.00000000000E+00  0.00000000000E+00 -0.17248210534E+04  0.17248210534E+04  0.25500000920E-02 0.  1.
    10030    2    1    2    0    0  0.00000000000E+00  0.00000000000E+00 -0.27226664295E+03  0.31773754638E+04  0.31656888212E+04 0.  0.
        4    1    3    3  502    0 -0.97788017361E+03  0.12424888985E+04 -0.20966028451E+03  0.15949881958E+04  0.12699999809E+01 0.  1.
       -4    1    3    3    0  502  0.97788017361E+03 -0.12424888985E+04 -0.62606358437E+02  0.15823872680E+04  0.12699999809E+01 0. -1.
</event>
<event>
 5   0  0.8512855E-07  0.2646198E+04  0.7818609E-02  0.8352676E-01
        1   -1    0    0  501    0  0.00000000000E+00  0.00000000000E+00  0.20413264723E+04  0.20413264723E+04  0.50400001928E-02 0.  1.
       -1   -1    0    0    0  501  0.00000000000E+00  0.00000000000E+00 -0.85757540670E+03  0.85757540672E+03  0.50400001928E-02 0. -1.
    10030    2    1    2    0    0  0.00000000000E+00  0.00000000000E+00  0.11837510656E+04  0.28989018790E+04  0.26461983144E+04 0.  0.
        5    1    3    3  502    0 -0.57837893445E+03 -0.16470361088E+03 -0.69919424429E+03  0.92224950664E+03  0.46999998093E+01 0. -1.
       -5    1    3    3    0  502  0.57837893445E+03  0.16470361088E+03  0.18829453099E+04  0.19766523724E+04  0.46999998093E+01 0.  1.
</event>
<event>
 5   0  0.8487944E-07  0.3183017E+04  0.7818609E-02  0.8193317E-01
       -1   -1    0    0    0  501  0.00000000000E+00  0.00000000000E+00  0.14801350136E+04  0.14801350136E+04  0.50400001928E-02 0.  1.
        1   -1    0    0  501    0  0.00000000000E+00  0.00000000000E+00 -0.17112627211E+04  0.17112627211E+04  0.50400001928E-02 0. -1.
    10030    2    1    2    0    0  0.00000000000E+00  0.00000000000E+00 -0.23112770747E+03  0.31913977347E+04  0.31830173552E+04 0.  0.
        2    1    3    3  502    0 -0.12917311790E+04  0.17171266053E+03  0.80054040397E+03  0.15293526785E+04  0.25500000920E-02 0.  1.
       -2    1    3    3    0  502  0.12917311790E+04 -0.17171266053E+03 -0.10316681114E+04  0.16620450562E+04  0.25500000920E-02 0. -1.
</event>
<event>
 5   0  0.8487944E-07  0.3180690E+04  0.7818609E-02  0.8193936E-01
       -1   -1    0    0    0  501  0.00000000000E+00  0.00000000000E+00  0.82297306582E+03  0.82297306584E+03  0.50400001928E-02 0.  1.
        1   -1    0    0  501    0  0.00000000000E+00  0.00000000000E+00 -0.30732441689E+04  0.30732441689E+04  0.50400001928E-02 0. -1.
    10030    2    1    2    0    0  0.00000000000E+00  0.00000000000E+00 -0.22502711031E+04  0.38962172347E+04  0.31806899728E+04 0.  0.
        2    1    3    3  502    0  0.46962418265E+03  0.74095139372E+03 -0.27500627234E+04  0.28865898260E+04  0.25500000920E-02 0. -1.
       -2    1    3    3    0  502 -0.46962418265E+03 -0.74095139372E+03  0.49979162032E+03  0.10096274088E+04  0.25500000920E-02 0.  1.
</event>
<event>
 5   0  0.8545153E-07  0.3253820E+04  0.7818609E-02  0.8174746E-01
       -1   -1    0    0    0  501  0.00000000000E+00  0.00000000000E+00  0.92733826657E+03  0.92733826658E+03  0.50400001928E-02 0. -1.
        1   -1    0    0  501    0  0.00000000000E+00  0.00000000000E+00 -0.28542300415E+04  0.28542300416E+04  0.50400001928E-02 0.  1.
    10030    2    1    2    0    0  0.00000000000E+00  0.00000000000E+00 -0.19268917750E+04  0.37815683081E+04  0.32538203633E+04 0.  0.
        3    1    3    3  502    0 -0.13812248019E+04  0.41315000652E+03 -0.18396208439E+04  0.23372376303E+04  0.10100000352E+00 0.  1.
       -3    1    3    3    0  502  0.13812248019E+04 -0.41315000652E+03 -0.87270931070E+02  0.14443306778E+04  0.10100000352E+00 0. -1.
</event>
<event>
 5   0  0.8512855E-07  0.3181032E+04  0.7818609E-02  0.8193845E-01
       -1   -1    0    0    0  501  0.00000000000E+00  0.00000000000E+00  0.14984321791E+04  0.14984321791E+04  0.50400001928E-02 0. -1.
        1   -1    0    0  501    0  0.00000000000E+00  0.00000000000E+00 -0.16882584818E+04  0.16882584818E+04  0.50400001928E-02 0.  1.
    10030    2    1    2    0    0  0.00000000000E+00  0.00000000000E+00 -0.18982630269E+03  0.31866906609E+04  0.31810318047E+04 0.  0.
        5    1    3    3  502    0  0.61612209111E+03 -0.15838055295E+03 -0.15552539413E+04  0.16803356041E+04  0.46999998093E+01 0.  1.
       -5    1    3    3    0  502 -0.61612209111E+03  0.15838055295E+03  0.13654276386E+04  0.15063550567E+04  0.46999998093E+01 0. -1.
</event>
<event>
 5   0  0.2401139E-06  0.3211878E+04  0.7818609E-02  0.8185687E-01
       -2   -1    0    0    0  501  0.00000000000E+00  0.00000000000E+00  0.13916983533E+04  0.13916983533E+04  0.25500000920E-02 0.  1.
        2   -1    0    0  501    0  0.00000000000E+00  0.00000000000E+00 -0.18531608198E+04  0.18531608198E+04  0.25500000920E-02 0. -1.
    10030    2    1    2    0    0  0.00000000000E+00  0.00000000000E+00 -0.46146246646E+03  0.32448591731E+04  0.32118784917E+04 0.  0.
        5    1    3    3  502    0 -0.16054433963E+04 -0.28628682009E+02 -0.25841095042E+03  0.16263660133E+04  0.46999998093E+01 0.  1.
       -5    1    3    3    0  502  0.16054433963E+04  0.28628682009E+02 -0.20305151604E+03  0.16184931598E+04  0.46999998093E+01 0. -1.
</event>
<event>
 5   0  0.8681172E-07  0.3194152E+04  0.7818609E-02  0.8190363E-01
        1   -1    0    0  501    0  0.00000000000E+00  0.00000000000E+00  0.26266130412E+04  0.26266130412E+04  0.50400001928E-02 0. -1.
       -1   -1    0    0    0  501  0.00000000000E+00  0.00000000000E+00 -0.97108014011E+03  0.97108014012E+03  0.50400001928E-02 0.  1.
    10030    2    1    2    0    0  0.00000000000E+00  0.00000000000E+00  0.16555329011E+04  0.35976931814E+04  0.31941520065E+04 0.  0.
        1    1    3    3  502    0  0.59591039803E+02 -0.14828197420E+03 -0.96205192564E+03  0.97523460949E+03  0.50400001928E-02 0.  1.
       -1    1    3    3    0  502 -0.59591039803E+02  0.14828197420E+03  0.26175848268E+04  0.26224585719E+04  0.50400001928E-02 0. -1.
</event>
<event>
 5   0  0.8512855E-07  0.3208747E+04  0.7818609E-02  0.8186511E-01
       -1   -1    0    0    0  501  0.00000000000E+00  0.00000000000E+00  0.12993556381E+04  0.12993556381E+04  0.50400001928E-02 0. -1.
        1   -1    0    0  501    0  0.00000000000E+00  0.00000000000E+00 -0.19809932002E+04  0.19809932002E+04  0.50400001928E-02 0.  1.
    10030    2    1    2    0    0  0.00000000000E+00  0.00000000000E+00 -0.68163756208E+03  0.32803488383E+04  0.32087472220E+04 0.  0.
        5    1    3    3  502    0 -0.72603899283E+03  0.40662105124E+03  0.10614745297E+04  0.13487859599E+04  0.46999998093E+01 0. -1.
       -5    1    3    3    0  502  0.72603899283E+03 -0.40662105124E+03 -0.17431120918E+04  0.19315628784E+04  0.46999998093E+01 0.  1.
</event>
<event>
 5   0  0.8383008E-07  0.3122175E+04  0.7818609E-02  0.8209679E-01
        1   -1    0    0  501    0  0.00000000000E+00  0.00000000000E+00  0.19904985738E+04  0.19904985738E+04  0.50400001928E-02 0.  1.
       -1   -1    0    0    0  501  0.00000000000E+00  0.00000000000E+00 -0.12243131700E+04  0.12243131700E+04  0.50400001928E-02 0. -1.
    10030    2    1    2    0    0  0.00000000000E+00  0.00000000000E+00  0.76618540382E+03  0.32148117439E+04  0.31221746388E+04 0.  0.
        4    1    3    3  502    0  0.34681103242E+03 -0.82874201363E+02 -0.11818190993E+04  0.12344407729E+04  0.12699999809E+01 0. -1.
       -4    1    3    3    0  502 -0.34681103242E+03  0.82874201363E+02  0.19480045031E+04  0.19803709709E+04  0.12699999809E+01 0.  1.
</event>
<event>
 5   0  0.8487944E-07  0.3212840E+04  0.7818609E-02  0.8185434E-01
        1   -1    0    0  501    0  0.00000000000E+00  0.00000000000E+00  0.13751269517E+04  0.13751269517E+04  0.50400001928E-02 0.  1.
       -1   -1    0    0    0  501  0.00000000000E+00  0.00000000000E+00 -0.18766159921E+04  0.18766159921E+04  0.50400001928E-02 0. -1.
    10030    2    1    2    0    0  0.00000000000E+00  0.00000000000E+00 -0.50148904041E+03  0.32517429437E+04  0.32128400076E+04 0.  0.
        2    1    3    3  502    0  0.95245487979E+03  0.76803757426E+03  0.80278866935E+03  0.14633938845E+04  0.25500000920E-02 0.  1.
       -2    1    3    3    0  502 -0.95245487979E+03 -0.76803757426E+03 -0.13042777098E+04  0.17883490592E+04  0.25500000920E-02 0. -1.
</event>
<event>
 5   0  0.2621528E-06  0.3188585E+04  0.7818609E-02  0.8191838E-01
       -2   -1    0    0    0  501  0.00000000000E+00  0.00000000000E+00  0.17109815849E+04  0.17109815849E+04  0.25500000920E-02 0.  1.
        2   -1    0    0  501    0  0.00000000000E+00  0.00000000000E+00 -0.14855620718E+04  0.14855620718E+04  0.25500000920E-02 0. -1.
    10030    2    1    2    0    0  0.00000000000E+00  0.00000000000E+00  0.22541951307E+03  0.31965436568E+04  0.31885854846E+04 0.  0.
        2    1    3    3  502    0 -0.41659951998E+03 -0.46150542773E+03 -0.13590234123E+04  0.14944855486E+04  0.25500000920E-02 0. -1.
       -2    1    3    3    0  502  0.41659951998E+03  0.46150542773E+03  0.15844429253E+04  0.17020581082E+04  0.25500000920E-02 0.  1.
</event>
<event>
 5   0  0.2466076E-06  0.3191204E+04  0.7818609E-02  0.8191144E-01
        2   -1    0    0  501    0  0.00000000000E+00  0.00000000000E+00  0.18069566173E+04  0.18069566173E+04  0.25500000920E-02 0.  1.
       -2   -1    0    0    0  501  0.00000000000E+00  0.00000000000E+00 -0.14089689141E+04  0.14089689141E+04  0.25500000920E-02 0. -1.
    10030    2    1    2    0    0  0.00000000000E+00  0.00000000000E+00  0.39798770327E+03  0.32159255314E+04  0.31912039752E+04 0.  0.
        3    1    3    3  502    0 -0.36816810081E+03  0.12341092642E+04  0.11482957403E+04  0.17254438686E+04  0.10100000352E+00 0.  1.
       -3    1    3    3    0  502  0.36816810081E+03 -0.12341092642E+04 -0.75030803705E+03  0.14904816628E+04  0.10100000352E+00 0. -1.
</event>
<event>
 5   0  0.2404430E-06  0.3217534E+04  0.7818609E-02  0.8184202E-01
       -2   -1    0    0    0  501  0.00000000000E+00  0.00000000000E+00  0.10703484643E+04  0.10703484643E+04  0.25500000920E-02 0.  1.
        2   -1    0    0  501    0  0.00000000000E+00  0.00000000000E+00 -0.24180270556E+04  0.24180270556E+04  0.25500000920E-02 0. -1.
    10030    2    1    2    0    0  0.00000000000E+00  0.00000000000E+00 -0.13476785913E+04  0.34883755199E+04  0.32175341773E+04 0.  0.
        4    1    3    3  502    0  0.11220134297E+04 -0.28336480119E+03  0.53778341129E+03  0.12760965313E+04  0.12699999809E+01 0.  1.
       -4    1    3    3    0  502 -0.11220134297E+04  0.28336480119E+03 -0.18854620026E+04  0.22122789885E+04  0.12699999809E+01 0. -1.
</event>
<event>
 5   0  0.8512855E-07  0.3301033E+04  0.7818609E-02  0.8162633E-01
        1   -1    0    0  501    0  0.00000000000E+00  0.00000000000E+00  0.31095707098E+04  0.31095707098E+04  0.50400001928E-02 0.  1.
       -1   -1    0    0    0  501  0.00000000000E+00  0.00000000000E+00 -0.87607113888E+03  0.87607113890E+03  0.50400001928E-02 0. -1.
    10030    2    1    2    0    0  0.00000000000E+00  0.00000000000E+00  0.22334995709E+04  0.39856418487E+04  0.33010332644E+04 0.  0.
        5    1    3    3  502    0 -0.11362122100E+03 -0.50959248317E+03  0.30072301994E+04  0.30522204775E+04  0.46999998093E+01 0.  1.
       -5    1    3    3    0  502  0.11362122100E+03  0.50959248317E+03 -0.77373062851E+03  0.93342137123E+03  0.46999998093E+01 0. -1.
</event>
<event>
 5   0  0.2337504E-06  0.3232283E+04  0.7818609E-02  0.8180343E-01
       -2   -1    0    0    0  501  0.00000000000E+00  0.00000000000E+00  0.11124593283E+04  0.11124593283E+04  0.25500000920E-02 0.  1.
        2   -1    0    0  501    0  0.00000000000E+00  0.00000000000E+00 -0.23478733178E+04  0.23478733178E+04  0.25500000920E-02 0. -1.
    10030    2    1    2    0    0  0.00000000000E+00  0.00000000000E+00 -0.12354139895E+04  0.34603326461E+04  0.32322831398E+04 0.  0.
        1    1    3    3  502    0  0.96858178340E+03  0.56458731071E+03  0.62846719839E+03  0.12852550416E+04  0.50400001928E-02 0.  1.
       -1    1    3    3    0  502 -0.96858178340E+03 -0.56458731071E+03 -0.18638811879E+04  0.21750776044E+04  0.50400001928E-02 0. -1.
</event>
<event>
 5   0  0.2401139E-06  0.3128571E+04  0.7818609E-02  0.8207940E-01
       -2   -1    0    0    0  501  0.00000000000E+00  0.00000000000E+00  0.23526140376E+04  0.23526140376E+04  0.25500000920E-02 0. -1.
        2   -1    0    0  501    0  0.00000000000E+00  0.00000000000E+00 -0.10401147632E+04  0.10401147632E+04  0.25500000920E-02 0.  1.
    10030    2    1    2    0    0  0.00000000000E+00  0.00000000000E+00  0.13124992744E+04  0.33927288008E+04  0.31285706593E+04 0.  0.
        5    1    3    3  502    0  0.13667923055E+03 -0.14599364386E+04  0.12471128908E+04  0.19249437055E+04  0.46999998093E+01 0. -1.
       -5    1    3    3    0  502 -0.13667923055E+03  0.14599364386E+04  0.65386383590E+02  0.14677850953E+04  0.46999998093E+01 0.  1.
</event>
<event>
 5   0  0.8383008E-07  0.3142983E+04  0.7818609E-02  0.8204040E-01
       -1   -1    0    0    0  501  0.00000000000E+00  0.00000000000E+00  0.19234123567E+04  0.19234123567E+04  0.50400001928E-02 0.  1.
        1   -1    0    0  501    0  0.00000000000E+00  0.00000000000E+00 -0.12839607118E+04  0.12839607118E+04  0.50400001928E-02 0. -1.
    10030    2    1    2    0    0  0.00000000000E+00  0.00000000000E+00  0.63945164498E+03  0.32073730685E+04  0.31429832316E+04 0.  0.
        4    1    3    3  502    0  0.36058711572E+03  0.11572190731E+04  0.13404194233E+04  0.18071814780E+04  0.12699999809E+01 0.  1.
       -4    1    3    3    0  502 -0.36058711572E+03 -0.11572190731E+04 -0.70096777829E+03  0.14001915905E+04  0.12699999809E+01 0. -1.
</event>
<event>
 5   0  0.8487944E-07  0.3182020E+04  0.7818609E-02  0.8193582E-01
        1   -1    0    0  501    0  0.00000000000E+00  0.00000000000E+00  0.16449505431E+04  0.16449505431E+04  0.50400001928E-02 0. -1.
       -1   -1    0    0    0  501  0.00000000000E+00  0.00000000000E+00 -0.15388386736E+04  0.15388386736E+04  0.50400001928E-02 0.  1.
    10030    2    1    2    0    0  0.00000000000E+00  0.00000000000E+00  0.10611186948E+03  0.31837892167E+04  0.31820204348E+04 0.  0.
        2    1    3    3  502    0  0.12570766688E+03 -0.10547954133E+04 -0.11320507427E+04  0.15523964266E+04  0.25500000920E-02 0.  1.
       -2    1    3    3    0  502 -0.12570766688E+03  0.10547954133E+04  0.12381626121E+04  0.16313927901E+04  0.25500000920E-02 0. -1.
</event>
<event>
 5   0  0.8487944E-07  0.3193439E+04  0.7818609E-02  0.8190552E-01
        1   -1    0    0  501    0  0.00000000000E+00  0.00000000000E+00  0.22017828897E+04  0.22017828898E+04  0.50400001928E-02 0.  1.
       -1   -1    0    0    0  501  0.00000000000E+00  0.00000000000E+00 -0.11579310068E+04  0.11579310068E+04  0.50400001928E-02 0. -1.
    10030    2    1    2    0    0  0.00000000000E+00  0.00000000000E+00  0.10438518829E+04  0.33597138966E+04  0.31934386973E+04 0.  0.
        2    1    3    3  502    0  0.11907813582E+03 -0.37739761048E+03  0.21493710927E+04  0.21854987195E+04  0.25500000920E-02 0.  1.
       -2    1    3    3    0  502 -0.11907813582E+03  0.37739761048E+03 -0.11055192098E+04  0.11742151770E+04  0.25500000920E-02 0. -1.
</event>
<event>
 5   0  0.8512855E-07  0.2730159E+04  0.7818609E-02  0.8325285E-01
       -1   -1    0    0    0  501  0.00000000000E+00  0.00000000000E+00  0.11719059788E+04  0.11719059788E+04  0.50400001928E-02 0.  1.
        1   -1    0    0  501    0  0.00000000000E+00  0.00000000000E+00 -0.15900950972E+04  0.15900950972E+04  0.50400001928E-02 0. -1.
    10030    2    1    2    0    0  0.00000000000E+00  0.00000000000E+00 -0.41818911844E+03  0.27620010760E+04  0.27301589341E+04 0.  0.
        5    1    3    3  502    0  0.10559490642E+03 -0.32010940710E+03  0.11291332887E+04  0.11783821072E+04  0.46999998093E+01 0.  1.
       -5    1    3    3    0  502 -0.10559490642E+03  0.32010940710E+03 -0.15473224072E+04  0.15836189689E+04  0.46999998093E+01 0. -1.
</event>
<event>
 5   0  0.8487944E-07  0.3188037E+04  0.7818609E-02  0.8191984E-01
        1   -1    0    0  501    0  0.00000000000E+00  0.00000000000E+00  0.14601535999E+04  0.14601535999E+04  0.50400001928E-02 0.  1.
       -1   -1    0    0    0  501  0.00000000000E+00  0.00000000000E+00 -0.17401563684E+04  0.17401563684E+04  0.50400001928E-02 0. -1.
    10030    2    1    2    0    0  0.00000000000E+00  0.00000000000E+00 -0.28000276853E+03  0.32003099683E+04  0.31880373810E+04 0.  0.
        2    1    3    3  502    0 -0.51373619661E+03 -0.10035832293E+04  0.99118672487E+03  0.15011846327E+04  0.25500000920E-02 0.  1.
       -2    1    3    3    0  502  0.51373619661E+03  0.10035832293E+04 -0.12711894934E+04  0.16991253356E+04  0.25500000920E-02 0. -1.
</event>
<event>
 5   0  0.2621528E-06  0.3214518E+04  0.7818609E-02  0.8184993E-01
       -2   -1    0    0    0  501  0.00000000000E+00  0.00000000000E+00  0.16357628394E+04  0.16357628394E+04  0.25500000920E-02 0.  1.
        2   -1    0    0  501    0  0.00000000000E+00  0.00000000000E+00 -0.15792522920E+04  0.15792522920E+04  0.25500000920E-02 0. -1.
    10030    2    1    2    0    0  0.00000000000E+00  0.00000000000E+00  0.56510547394E+02  0.32150151314E+04  0.32145184481E+04 0.  0.
        2    1    3    3  502    0  0.12579444602E+04  0.17910199364E+03 -0.95616324735E+03  0.15902043720E+04  0.25500000920E-02 0. -1.
       -2    1    3    3    0  502 -0.12579444602E+04 -0.17910199364E+03  0.10126737947E+04  0.16248107594E+04  0.25500000920E-02 0.  1.
</event>
<event>
 5   0  0.2621528E-06  0.3183533E+04  0.7818609E-02  0.8193180E-01
        2   -1    0    0  501    0  0.00000000000E+00  0.00000000000E+00  0.16756662090E+04  0.16756662090E+04  0.25500000920E-02 0.  1.
       -2   -1    0    0    0  501  0.00000000000E+00  0.00000000000E+00 -0.15120673808E+04  0.15120673808E+04  0.25500000920E-02 0. -1.
    10030    2    1    2    0    0  0.00000000000E+00  0.00000000000E+00  0.16359882825E+03  0.31877335898E+04  0.31835327645E+04 0.  0.
        2    1    3    3  502    0 -0.47466109197E+03 -0.25509264448E+02  0.16029374018E+04  0.16719336676E+04  0.25500000920E-02 0.  1.
       -2    1    3    3    0  502  0.47466109197E+03  0.25509264448E+02 -0.14393385735E+04  0.15157999222E+04  0.25500000920E-02 0. -1.
</event>
<event>
 5   0  0.2466076E-06  0.3209756E+04  0.7818609E-02  0.8186245E-01
        2   -1    0    0  501    0  0.00000000000E+00  0.00000000000E+00  0.16876962332E+04  0.16876962332E+04  0.25500000920E-02 0. -1.
       -2   -1    0    0    0  501  0.00000000000E+00  0.00000000000E+00 -0.15261242587E+04  0.15261242587E+04  0.25500000920E-02 0.  1.
    10030    2    1    2    0    0  0.00000000000E+00  0.00000000000E+00  0.16157197454E+03  0.32138204919E+04  0.32097564785E+04 0.  0.
        3    1    3    3  502    0 -0.24716535505E+03  0.81168393871E+03 -0.12831842458E+04  0.15383378523E+04  0.10100000352E+00 0.  1.
       -3    1    3    3    0  502  0.24716535505E+03 -0.81168393871E+03  0.14447562203E+04  0.16754826396E+04  0.10100000352E+00 0. -1.
</event>
<event>
 5   0  0.8681172E-07  0.3165861E+04  0.7818609E-02  0.8197892E-01
        1   -1    0    0  501    0  0.00000000000E+00  0.00000000000E+00  0.11760600679E+04  0.11760600680E+04  0.50400001928E-02 0.  1.
       -1   -1    0    0    0  501  0.00000000000E+00  0.00000000000E+00 -0.21305618528E+04  0.21305618528E+04  0.50400001928E-02 0. -1.
    10030    2    1    2    0    0  0.00000000000E+00  0.00000000000E+00 -0.95450178489E+03  0.33066219208E+04  0.31658608418E+04 0.  0.
        1    1    3    3  502    0 -0.57949169057E+03  0.12919518078E+04  0.26182594553E+03  0.14399662908E+04  0.50400001928E-02 0.  1.
       -1    1    3    3    0  502  0.57949169057E+03 -0.12919518078E+04 -0.12163277304E+04  0.18666556299E+04  0.50400001928E-02 0. -1.
</event>
<event>
 5   0  0.8487944E-07  0.3295392E+04  0.7818609E-02  0.8164069E-01
        1   -1    0    0  501    0  0.00000000000E+00  0.00000000000E+00  0.30729505656E+04  0.30729505656E+04  0.50400001928E-02 0.  1.
       -1   -1    0    0    0  501  0.00000000000E+00  0.00000000000E+00 -0.88348407039E+03  0.88348407041E+03  0.50400001928E-02 0. -1.
    10030    2    1    2    0    0  0.00000000000E+00  0.00000000000E+00  0.21894664952E+04  0.39564346360E+04  0.32953924646E+04 0.  0.
        2    1    3    3  502    0  0.14272613833E+04 -0.64910275022E+03  0.17027772087E+04  0.23147050912E+04  0.25500000920E-02 0.  1.
       -2    1    3    3    0  502 -0.14272613833E+04  0.64910275022E+03  0.48668928651E+03  0.16417295448E+04  0.25500000920E-02 0. -1.
</event>
<event>
 5   0  0.8487944E-07  0.3195761E+04  0.7818609E-02  0.8189938E-01
        1   -1    0    0  501    0  0.00000000000E+00  0.00000000000E+00  0.26547236167E+04  0.26547236167E+04  0.50400001928E-02 0.  1.
       -1   -1    0    0    0  501  0.00000000000E+00  0.00000000000E+00 -0.96176582746E+03  0.96176582748E+03  0.50400001928E-02 0. -1.
    10030    2    1    2    0    0  0.00000000000E+00  0.00000000000E+00  0.16929577892E+04  0.36164894441E+04  0.31957612276E+04 0.  0.
        2    1    3    3  502    0 -0.13344581088E+04 -0.80031248987E+03  0.12575411367E+04  0.20006719461E+04  0.25500000920E-02 0.  1.
       -2    1    3    3    0  502  0.13344581088E+04  0.80031248987E+03  0.43541665250E+03  0.16158174980E+04  0.25500000920E-02 0. -1.
</event>
<event>
 5   0  0.2466076E-06  0.3202899E+04  0.7818609E-02  0.8188052E-01
       -2   -1    0    0    0  501  0.00000000000E+00  0.00000000000E+00  0.95839424094E+03  0.95839424094E+03  0.25500000920E-02 0. -1.
        2   -1    0    0  501    0  0.00000000000E+00  0.00000000000E+00 -0.26759757147E+04  0.26759757147E+04  0.25500000920E-02 0.  1.
    10030    2    1    2    0    0  0.00000000000E+00  0.00000000000E+00 -0.17175814737E+04  0.36343699556E+04  0.32028985084E+04 0.  0.
        3    1    3    3  502    0  0.59084276108E+03  0.47753513320E+03  0.74091477819E+03  0.10611737325E+04  0.10100000352E+00 0. -1.
       -3    1    3    3    0  502 -0.59084276108E+03 -0.47753513320E+03 -0.24584962519E+04  0.25731962231E+04  0.10100000352E+00 0.  1.
</event>
<event>
 5   0  0.2621528E-06  0.3203633E+04  0.7818609E-02  0.8187858E-01
        2   -1    0    0  501    0  0.00000000000E+00  0.00000000000E+00  0.13722564005E+04  0.13722564005E+04  0.25500000920E-02 0. -1.
       -2   -1    0    0    0  501  0.00000000000E+00  0.00000000000E+00 -0.18697792627E+04  0.18697792627E+04  0.25500000920E-02 0.  1.
    10030    2    1    2    0    0  0.00000000000E+00  0.00000000000E+00 -0.49752286217E+03  0.32420356632E+04  0.32036332879E+04 0.  0.
        2    1    3    3  502    0  0.15597193325E+04 -0.23236225667E+03 -0.53337990397E+03  0.16646953885E+04  0.25500000920E-02 0.  1.
       -2    1    3    3    0  502 -0.15597193325E+04  0.23236225667E+03  0.35857041800E+02  0.15773402747E+04  0.25500000920E-02 0. -1.
</event>
<event>
 5   0  0.2621528E-06  0.3193615E+04  0.7818609E-02  0.8190506E-01
        2   -1    0    0  501    0  0.00000000000E+00  0.00000000000E+00  0.23422262244E+04  0.23422262244E+04  0.25500000920E-02 0. -1.
       -2   -1    0    0    0  501  0.00000000000E+00  0.00000000000E+00 -0.10886196920E+04  0.10886196920E+04  0.25500000920E-02 0.  1.
    10030    2    1    2    0    0  0.00000000000E+00  0.00000000000E+00  0.12536065323E+04  0.34308459164E+04  0.31936146236E+04 0.  0.
        2    1    3    3  502    0 -0.10418467068E+04 -0.72091022488E+02 -0.67088076453E+03  0.12412585050E+04  0.25500000920E-02 0.  1.
       -2    1    3    3    0  502  0.10418467068E+04  0.72091022488E+02  0.19244872969E+04  0.21895874113E+04  0.25500000920E-02 0. -1.
</event>
<event>
 5   0  0.8383008E-07  0.3174781E+04  0.7818609E-02  0.8195509E-01
       -1   -1    0    0    0  501  0.00000000000E+00  0.00000000000E+00  0.15968233870E+04  0.15968233870E+04  0.50400001928E-02 0. -1.
        1   -1    0    0  501    0  0.00000000000E+00  0.00000000000E+00 -0.15780130945E+04  0.15780130945E+04  0.50400001928E-02 0.  1.
    10030    2    1    2    0    0  0.00000000000E+00  0.00000000000E+00  0.18810292447E+02  0.31748364815E+04  0.31747807573E+04 0.  0.
        4    1    3    3  502    0  0.24569786083E+03 -0.20043428052E+03  0.15648311936E+04  0.15966338394E+04  0.12699999809E+01 0. -1.
       -4    1    3    3    0  502 -0.24569786083E+03  0.20043428052E+03 -0.15460209012E+04  0.15782026421E+04  0.12699999809E+01 0.  1.
</event>
<event>
 5   0  0.7934375E-07  0.3261710E+04  0.7818609E-02  0.8172707E-01
       -3   -1    0    0    0  501  0.00000000000E+00  0.00000000000E+00  0.14478815829E+04  0.14478815864E+04  0.10100000352E+00 0.  1.
        3   -1    0    0  501    0  0.00000000000E+00  0.00000000000E+00 -0.18369517494E+04  0.18369517522E+04  0.10100000352E+00 0. -1.
    10030    2    1    2    0    0  0.00000000000E+00  0.00000000000E+00 -0.38907016652E+03  0.32848333385E+04  0.32617103592E+04 0.  0.
        3    1    3    3  502    0  0.11459479437E+04  0.11543108171E+04 -0.75126172720E+02  0.16282733506E+04  0.10100000352E+00 0.  1.
       -3    1    3    3    0  502 -0.11459479437E+04 -0.11543108171E+04 -0.31394399380E+03  0.16565599880E+04  0.10100000352E+00 0. -1.
</event>
<event>
 5   0  0.2337504E-06  0.3283524E+04  0.7818609E-02  0.8167100E-01
        2   -1    0    0  501    0  0.00000000000E+00  0.00000000000E+00  0.16353204929E+04  0.16353204929E+04  0.25500000920E-02 0. -1.
       -2   -1    0    0    0  501  0.00000000000E+00  0.00000000000E+00 -0.16482289188E+04  0.16482289188E+04  0.25500000920E-02 0.  1.
    10030    2    1    2    0    0  0.00000000000E+00  0.00000000000E+00 -0.12908425884E+02  0.32835494117E+04  0.32835240385E+04 0.  0.
        1    1    3    3  502    0 -0.79244875435E+02  0.98199064348E+03 -0.13197796906E+04  0.16469377055E+04  0.50400001928E-02 0.  1.
       -1    1    3    3    0  502  0.79244875435E+02 -0.98199064348E+03  0.13068712647E+04  0.16366117062E+04  0.50400001928E-02 0. -1.
</event>
<event>
 5   0  0.2466076E-06  0.3220184E+04  0.7818609E-02  0.8183507E-01
        2   -1    0    0  501    0  0.00000000000E+00  0.00000000000E+00  0.13500357801E+04  0.13500357801E+04  0.25500000920E-02 0. -1.
       -2   -1    0    0    0  501  0.00000000000E+00  0.00000000000E+00 -0.19202431129E+04  0.19202431129E+04  0.25500000920E-02 0.  1.
    10030    2    1    2    0    0  0.00000000000E+00  0.00000000000E+00 -0.57020733284E+03  0.32702788930E+04  0.32201844102E+04 0.  0.
        3    1    3    3  502    0 -0.44871152410E+03  0.78686781700E+03  0.10667289023E+04  0.13994332977E+04  0.10100000352E+00 0. -1.
       -3    1    3    3    0  502  0.44871152410E+03 -0.78686781700E+03 -0.16369362352E+04  0.18708455953E+04  0.10100000352E+00 0.  1.
</event>
<event>
 5   0  0.8487944E-07  0.3198498E+04  0.7818609E-02  0.8189214E-01
        1   -1    0    0  501    0  0.00000000000E+00  0.00000000000E+00  0.27001270969E+04  0.27001270969E+04  0.50400001928E-02 0. -1.
       -1   -1    0    0    0  501  0.00000000000E+00  0.00000000000E+00 -0.94721387215E+03  0.94721387217E+03  0.50400001928E-02 0.  1.
    10030    2    1    2    0    0  0.00000000000E+00  0.00000000000E+00  0.17529132247E+04  0.36473409690E+04  0.31984982994E+04 0.  0.
        2    1    3    3  502    0 -0.13076764659E+04 -0.75613828260E+03  0.14753574594E+04  0.21115024212E+04  0.25500000920E-02 0. -1.
       -2    1    3    3    0  502  0.13076764659E+04  0.75613828260E+03  0.27755576535E+03  0.15358385478E+04  0.25500000920E-02 0.  1.
</event>
<event>
 5   0  0.2466076E-06  0.3196403E+04  0.7818609E-02  0.8189768E-01
        2   -1    0    0  501    0  0.00000000000E+00  0.00000000000E+00  0.15629115277E+04  0.15629115277E+04  0.25500000920E-02 0.  1.
       -2   -1    0    0    0  501  0.00000000000E+00  0.00000000000E+00 -0.16342879838E+04  0.16342879838E+04  0.25500000920E-02 0. -1.
    10030    2    1    2    0    0  0.00000000000E+00  0.00000000000E+00 -0.71376456075E+02  0.31971995114E+04  0.31964026839E+04 0.  0.
        3    1    3    3  502    0  0.66901233371E+02 -0.15325293575E+04  0.41289376194E+03  0.15885853063E+04  0.10100000352E+00 0.  1.
       -3    1    3    3    0  502 -0.66901233371E+02  0.15325293575E+04 -0.48427021801E+03  0.16086142051E+04  0.10100000352E+00 0. -1.
</event>
<event>
 5   0  0.2621528E-06  0.3135694E+04  0.7818609E-02  0.8206010E-01
        2   -1    0    0  501    0  0.00000000000E+00  0.00000000000E+00  0.14650480183E+04  0.14650480183E+04  0.25500000920E-02 0.  1.
       -2   -1    0    0    0  501  0.00000000000E+00  0.00000000000E+00 -0.16778592381E+04  0.16778592381E+04  0.25500000920E-02 0. -1.
    10030    2    1    2    0    0  0.00000000000E+00  0.00000000000E+00 -0.21281121982E+03  0.31429072564E+04  0.31356940870E+04 0.  0.
        2    1    3    3  502    0  0.83632293572E+03  0.83395623614E+03 -0.11399057237E+04  0.16414335550E+04  0.25500000920E-02 0. -1.
       -2    1    3    3    0  502 -0.83632293572E+03 -0.83395623614E+03  0.92709450392E+03  0.15014737013E+04  0.25500000920E-02 0.  1.
</event>
<event>
 5   0  0.2401139E-06  0.3193962E+04  0.7818609E-02  0.8190414E-01
       -2   -1    0    0    0  501  0.00000000000E+00  0.00000000000E+00  0.15198941733E+04  0.15198941734E+04  0.25500000920E-02 0.  1.
        2   -1    0    0  501    0  0.00000000000E+00  0.00000000000E+00 -0.16779774085E+04  0.16779774085E+04  0.25500000920E-02 0. -1.
    10030    2    1    2    0    0  0.00000000000E+00  0.00000000000E+00 -0.15808323513E+03  0.31978715818E+04  0.31939618571E+04 0.  0.
        5    1    3    3  502    0 -0.11331373649E+04  0.41709363074E+03 -0.11254806067E+04  0.16506653418E+04  0.46999998093E+01 0.  1.
       -5    1    3    3    0  502  0.11331373649E+04 -0.41709363074E+03  0.96739737161E+03  0.15472062400E+04  0.46999998093E+01 0. -1.
</event>
<event>
 5   0  0.8512855E-07  0.3215246E+04  0.7818609E-02  0.8184802E-01
        1   -1    0    0  501    0  0.00000000000E+00  0.00000000000E+00  0.12081544123E+04  0.12081544123E+04  0.50400001928E-02 0. -1.
       -1   -1    0    0    0  501  0.00000000000E+00  0.00000000000E+00 -0.21391727045E+04  0.21391727045E+04  0.50400001928E-02 0.  1.
    10030    2    1    2    0    0  0.00000000000E+00  0.00000000000E+00 -0.93101829221E+03  0.33473271169E+04  0.32152455220E+04 0.  0.
        5    1    3    3  502    0 -0.14218391243E+04  0.44636747908E+03 -0.10932366005E+04  0.18482583088E+04  0.46999998093E+01 0.  1.
       -5    1    3    3    0  502  0.14218391243E+04 -0.44636747908E+03  0.16221830824E+03  0.14990688080E+04  0.46999998093E+01 0. -1.
</event>
<event>
 5   0  0.8512855E-07  0.3215987E+04  0.7818609E-02  0.8184608E-01
       -1   -1    0    0    0  501  0.00000000000E+00  0.00000000000E+00  0.13639054524E+04  0.13639054524E+04  0.50400001928E-02 0. -1.
        1   -1    0    0  501    0  0.00000000000E+00  0.00000000000E+00 -0.18957646136E+04  0.18957646136E+04  0.50400001928E-02 0.  1.
    10030    2    1    2    0    0  0.00000000000E+00  0.00000000000E+00 -0.53185916123E+03  0.32596700660E+04  0.32159873712E+04 0.  0.
        5    1    3    3  502    0 -0.10961993886E+04  0.83466935569E+03  0.57436407005E+03  0.14927297840E+04  0.46999998093E+01 0. -1.
       -5    1    3    3    0  502  0.10961993886E+04 -0.83466935569E+03 -0.11062232313E+04  0.17669402821E+04  0.46999998093E+01 0.  1.
</event>
<event>
 5   0  0.2337504E-06  0.3204922E+04  0.7818609E-02  0.8187519E-01
        2   -1    0    0  501    0  0.00000000000E+00  0.00000000000E+00  0.20647196381E+04  0.20647196381E+04  0.25500000920E-02 0. -1.
       -2   -1    0    0    0  501  0.00000000000E+00  0.00000000000E+00 -0.12436946086E+04  0.12436946086E+04  0.25500000920E-02 0.  1.
    10030    2    1    2    0    0  0.00000000000E+00  0.00000000000E+00  0.82102502944E+03  0.33084142467E+04  0.32049216416E+04 0.  0.
        1    1    3    3  502    0  0.58935949113E+03 -0.12377108706E+03  0.19434629456E+04  0.20346282492E+04  0.50400001928E-02 0. -1.
       -1    1    3    3    0  502 -0.58935949113E+03  0.12377108706E+03 -0.11224379161E+04  0.12737859975E+04  0.50400001928E-02 0.  1.
</event>
<event>
 5   0  0.8383008E-07  0.2860222E+04  0.7818609E-02  0.8284812E-01
       -1   -1    0    0    0  501  0.00000000000E+00  0.00000000000E+00  0.18427915258E+04  0.18427915258E+04  0.50400001928E-02 0.  1.
        1   -1    0    0  501    0  0.00000000000E+00  0.00000000000E+00 -0.11098472957E+04  0.11098472957E+04  0.50400001928E-02 0. -1.
    10030    2    1    2    0    0  0.00000000000E+00  0.00000000000E+00  0.73294423006E+03  0.29526388215E+04  0.28602218036E+04 0.  0.
        4    1    3    3  502    0  0.96067437699E+02 -0.22096398380E+03 -0.10887430087E+04  0.11150860893E+04  0.12699999809E+01 0. -1.
       -4    1    3    3    0  502 -0.96067437699E+02  0.22096398380E+03  0.18216872388E+04  0.18375527322E+04  0.12699999809E+01 0.  1.
</event>
<event>
 5   0  0.2621528E-06  0.3044149E+04  0.7818609E-02  0.8231235E-01
       -2   -1    0    0    0  501  0.00000000000E+00  0.00000000000E+00  0.11496601693E+04  0.11496601693E+04  0.25500000920E-02 0.  1.
        2   -1    0    0  501    0  0.00000000000E+00  0.00000000000E+00 -0.20151266500E+04  0.20151266500E+04  0.25500000920E-02 0. -1.
    10030    2    1    2    0    0  0.00000000000E+00  0.00000000000E+00 -0.86546648070E+03  0.31647868194E+04  0.30441490408E+04 0.  0.
        2    1    3    3  502    0 -0.63412533672E+03 -0.10673621347E+04 -0.13481586384E+04  0.18327325455E+04  0.25500000920E-02 0. -1.
       -2    1    3    3    0  502  0.63412533672E+03  0.10673621347E+04  0.48269215766E+03  0.13320542738E+04  0.25500000920E-02 0.  1.
</event>
<event>
 5   0  0.8681172E-07  0.3294989E+04  0.7818609E-02  0.8164172E-01
        1   -1    0    0  501    0  0.00000000000E+00  0.00000000000E+00  0.28612983741E+04  0.28612983741E+04  0.50400001928E-02 0.  1.
       -1   -1    0    0    0  501  0.00000000000E+00  0.00000000000E+00 -0.94860360461E+03  0.94860360462E+03  0.50400001928E-02 0. -1.
    10030    2    1    2    0    0  0.00000000000E+00  0.00000000000E+00  0.19126947695E+04  0.38099019787E+04  0.32949888932E+04 0.  0.
        1    1    3    3  502    0 -0.97786442108E+03  0.13256278373E+04  0.98758732157E+03  0.19206344542E+04  0.50400001928E-02 0.  1.
       -1    1    3    3    0  502  0.97786442108E+03 -0.13256278373E+04  0.92510744794E+03  0.18892675245E+04  0.50400001928E-02 0. -1.
</event>
<event>
 5   0  0.2404430E-06  0.3213788E+04  0.7818609E-02  0.8185185E-01
        2   -1    0    0  501    0  0.00000000000E+00  0.00000000000E+00  0.18248978637E+04  0.18248978637E+04  0.25500000920E-02 0.  1.
       -2   -1    0    0    0  501  0.00000000000E+00  0.00000000000E+00 -0.14149331558E+04  0.14149331558E+04  0.25500000920E-02 0. -1.
    10030    2    1    2    0    0  0.00000000000E+00  0.00000000000E+00  0.40996470782E+03  0.32398310195E+04  0.32137881034E+04 0.  0.
        4    1    3    3  502    0  0.10973230488E+04 -0.11099828601E+04  0.59008192314E+03  0.16686455921E+04  0.12699999809E+01 0.  1.
       -4    1    3    3    0  502 -0.10973230488E+04  0.11099828601E+04 -0.18011721532E+03  0.15711854274E+04  0.12699999809E+01 0. -1.
</event>
<event>
 5   0  0.8383008E-07  0.3044208E+04  0.7818609E-02  0.8231218E-01
       -1   -1    0    0    0  501  0.00000000000E+00  0.00000000000E+00  0.31338142027E+04  0.31338142027E+04  0.50400001928E-02 0. -1.
        1   -1    0    0  501    0  0.00000000000E+00  0.00000000000E+00 -0.73929118988E+03  0.73929118990E+03  0.50400001928E-02 0.  1.
    10030    2    1    2    0    0  0.00000000000E+00  0.00000000000E+00  0.23945230129E+04  0.38731053926E+04  0.30442084231E+04 0.  0.
        4    1    3    3  502    0  0.53304864981E+03 -0.11143295377E+04  0.23287588186E+04  0.26360937824E+04  0.12699999809E+01 0. -1.
       -4    1    3    3    0  502 -0.53304864981E+03  0.11143295377E+04  0.65764194257E+02  0.12370116102E+04  0.12699999809E+01 0.  1.
</event>
<event>
 5   0  0.2401139E-06  0.3319130E+04  0.7818609E-02  0.8158045E-01
       -2   -1    0    0    0  501  0.00000000000E+00  0.00000000000E+00  0.11239212728E+04  0.11239212728E+04  0.25500000920E-02 0. -1.
        2   -1    0    0  501    0  0.00000000000E+00  0.00000000000E+00 -0.24504882258E+04  0.24504882258E+04  0.25500000920E-02 0.  1.
    10030    2    1    2    0    0  0.00000000000E+00  0.00000000000E+00 -0.13265669530E+04  0.35744094986E+04  0.33191299136E+04 0.  0.
        5    1    3    3  502    0 -0.10977051896E+04 -0.68344710102E+03  0.45695159147E+03  0.13714530506E+04  0.46999998093E+01 0. -1.
       -5    1    3    3    0  502  0.10977051896E+04  0.68344710102E+03 -0.17835185445E+04  0.22029564480E+04  0.46999998093E+01 0.  1.
</event>
<event>
 5   0  0.8383008E-07  0.3205712E+04  0.7818609E-02  0.8187310E-01
       -1   -1    0    0    0  501  0.00000000000E+00  0.00000000000E+00  0.88703285414E+03  0.88703285415E+03  0.50400001928E-02 0.  1.
        1   -1    0    0  501    0  0.00000000000E+00  0.00000000000E+00 -0.28963377037E+04  0.28963377037E+04  0.50400001928E-02 0. -1.
    10030    2    1    2    0    0  0.00000000000E+00  0.00000000000E+00 -0.20093048495E+04  0.37833705578E+04  0.32057115902E+04 0.  0.
        4    1    3    3  502    0 -0.56152371246E+03  0.53128742007E+03 -0.26617974611E+04  0.27717760623E+04  0.12699999809E+01 0. -1.
       -4    1    3    3    0  502  0.56152371246E+03 -0.53128742007E+03  0.65249261159E+03  0.10115944956E+04  0.12699999809E+01 0.  1.
</event>
<event>
 5   0  0.8512855E-07  0.3084487E+04  0.7818609E-02  0.8220008E-01
       -1   -1    0    0    0  501  0.00000000000E+00  0.00000000000E+00  0.16265124782E+04  0.16265124782E+04  0.50400001928E-02 0. -1.
        1   -1    0    0  501    0  0.00000000000E+00  0.00000000000E+00 -0.14623401861E+04  0.14623401861E+04  0.50400001928E-02 0.  1.
    10030    2    1    2    0    0  0.00000000000E+00  0.00000000000E+00  0.16417229210E+03  0.30888526643E+04  0.30844867061E+04 0.  0.
        5    1    3    3  502    0 -0.61720085636E+03 -0.62905486518E+03  0.13495179768E+04  0.16117902408E+04  0.46999998093E+01 0. -1.
       -5    1    3    3    0  502  0.61720085636E+03  0.62905486518E+03 -0.11853456847E+04  0.14770624235E+04  0.46999998093E+01 0.  1.
</event>
<event>
 5   0  0.2337504E-06  0.3174932E+04  0.7818609E-02  0.8195469E-01
        2   -1    0    0  501    0  0.00000000000E+00  0.00000000000E+00  0.20457604068E+04  0.20457604068E+04  0.25500000920E-02 0. -1.
       -2   -1    0    0    0  501  0.00000000000E+00  0.00000000000E+00 -0.12318393449E+04  0.12318393449E+04  0.25500000920E-02 0.  1.
    10030    2    1    2    0    0  0.00000000000E+00  0.00000000000E+00  0.81392106181E+03  0.32775997517E+04  0.31749319107E+04 0.  0.
        1    1    3    3  502    0  0.15802113694E+04 -0.66841048857E+01  0.56330254565E+03  0.16776240363E+04  0.50400001928E-02 0. -1.
       -1    1    3    3    0  502 -0.15802113694E+04  0.66841048857E+01  0.25061851616E+03  0.15999757154E+04  0.50400001928E-02 0.  1.
</event>
<event>
 5   0  0.8512855E-07  0.3214379E+04  0.7818609E-02  0.8185030E-01
        1   -1    0    0  501    0  0.00000000000E+00  0.00000000000E+00  0.20880748372E+04  0.20880748372E+04  0.50400001928E-02 0. -1.
       -1   -1    0    0    0  501  0.00000000000E+00  0.00000000000E+00 -0.12370524294E+04  0.12370524294E+04  0.50400001928E-02 0.  1.
    10030    2    1    2    0    0  0.00000000000E+00  0.00000000000E+00  0.85102240782E+03  0.33251272666E+04  0.32143789759E+04 0.  0.
        5    1    3    3  502    0  0.98558875236E+03  0.12480312873E+04  0.18497299853E+03  0.16010010565E+04  0.46999998093E+01 0.  1.
       -5    1    3    3    0  502 -0.98558875236E+03 -0.12480312873E+04  0.66604940928E+03  0.17241262101E+04  0.46999998093E+01 0. -1.
</event>
<event>
 5   0  0.2337504E-06  0.3184126E+04  0.7818609E-02  0.8193022E-01
        2   -1    0    0  501    0  0.00000000000E+00  0.00000000000E+00  0.16531828879E+04  0.16531828879E+04  0.25500000920E-02 0. -1.
       -2   -1    0    0    0  501  0.00000000000E+00  0.00000000000E+00 -0.15332028843E+04  0.15332028843E+04  0.25500000920E-02 0.  1.
    10030    2    1    2    0    0  0.00000000000E+00  0.00000000000E+00  0.11998000365E+03  0.31863857722E+04  0.31841261106E+04 0.  0.
        1    1    3    3  502    0  0.73117137016E+03 -0.23771973743E+02  0.14750260550E+04  0.16464745799E+04  0.50400001928E-02 0. -1.
       -1    1    3    3    0  502 -0.73117137016E+03  0.23771973743E+02 -0.13550460513E+04  0.15399111924E+04  0.50400001928E-02 0.  1.
</event>
<event>
 5   0  0.8545153E-07  0.3220896E+04  0.7818609E-02  0.8183320E-01
       -1   -1    0    0    0  501  0.00000000000E+00  0.00000000000E+00  0.15720090524E+04  0.15720090525E+04  0.50400001928E-02 0. -1.
        1   -1    0    0  501    0  0.00000000000E+00  0.00000000000E+00 -0.16498267635E+04  0.16498267635E+04  0.50400001928E-02 0.  1.
    10030    2    1    2    0    0  0.00000000000E+00  0.00000000000E+00 -0.77817711017E+02  0.32218358159E+04  0.32208959047E+04 0.  0.
        3    1    3    3  502    0 -0.64847461267E+03  0.67249355729E+02  0.14341039048E+04  0.15753399059E+04  0.10100000352E+00 0. -1.
       -3    1    3    3    0  502  0.64847461267E+03 -0.67249355729E+02 -0.15119216158E+04  0.16464959100E+04  0.10100000352E+00 0.  1.
</event>
<event>
 5   0  0.8512855E-07  0.3188594E+04  0.7818609E-02  0.8191836E-01
        1   -1    0    0  501    0  0.00000000000E+00  0.00000000000E+00  0.17955730087E+04  0.17955730087E+04  0.50400001928E-02 0. -1.
       -1   -1    0    0    0  501  0.00000000000E+00  0.00000000000E+00 -0.14155829188E+04  0.14155829188E+04  0.50400001928E-02 0.  1.
    10030    2    1    2    0    0  0.00000000000E+00  0.00000000000E+00  0.37999008996E+03  0.32111559275E+04  0.31885937217E+04 0.  0.
        5    1    3    3  502    0  0.91038926131E+03 -0.40174812533E+03 -0.10644311880E+04  0.14571362350E+04  0.46999998093E+01 0.  1.
       -5    1    3    3    0  502 -0.91038926131E+03  0.40174812533E+03  0.14444212780E+04  0.17540196925E+04  0.46999998093E+01 0. -1.
</event>
<event>
 5   0  0.2404430E-06  0.3196478E+04  0.7818609E-02  0.8189748E-01
       -2   -1    0    0    0  501  0.00000000000E+00  0.00000000000E+00  0.11260107861E+04  0.11260107861E+04  0.25500000920E-02 0.  1.
        2   -1    0    0  501    0  0.00000000000E+00  0.00000000000E+00 -0.22685115693E+04  0.22685115693E+04  0.25500000920E-02 0. -1.
    10030    2    1    2    0    0  0.00000000000E+00  0.00000000000E+00 -0.11425007832E+04  0.33945223553E+04  0.31964783718E+04 0.  0.
        4    1    3    3  502    0  0.84721151995E+02 -0.48092673779E+03  0.10448438421E+04  0.11533292973E+04  0.12699999809E+01 0.  1.
       -4    1    3    3    0  502 -0.84721151995E+02  0.48092673779E+03 -0.21873446253E+04  0.22411930581E+04  0.12699999809E+01 0. -1.
</event>
<event>
 5   0  0.2621528E-06  0.3213742E+04  0.7818609E-02  0.8185197E-01
        2   -1    0    0  501    0  0.00000000000E+00  0.00000000000E+00  0.24406447434E+04  0.24406447434E+04  0.25500000920E-02 0. -1.
       -2   -1    0    0    0  501  0.00000000000E+00  0.00000000000E+00 -0.10579314508E+04  0.10579314508E+04  0.25500000920E-02 0.  1.
    10030    2    1    2    0    0  0.00000000000E+00  0.00000000000E+00  0.13827132927E+04  0.34985761942E+04  0.32137422636E+04 0.  0.
        2    1    3    3  502    0  0.13315557145E+04 -0.57129153896E+03 -0.64924085944E+02  0.14503895271E+04  0.25500000920E-02 0.  1.
       -2    1    3    3    0  502 -0.13315557145E+04  0.57129153896E+03  0.14476373786E+04  0.20481866671E+04  0.25500000920E-02 0. -1.
</event>
<event>
 5   0  0.8383008E-07  0.2601717E+04  0.7818609E-02  0.8367618E-01
       -1   -1    0    0    0  501  0.00000000000E+00  0.00000000000E+00  0.70320452023E+03  0.70320452025E+03  0.50400001928E-02 0. -1.
        1   -1    0    0  501    0  0.00000000000E+00  0.00000000000E+00 -0.24064582629E+04  0.24064582629E+04  0.50400001928E-02 0.  1.
    10030    2    1    2    0    0  0.00000000000E+00  0.00000000000E+00 -0.17032537427E+04  0.31096627832E+04  0.26017166089E+04 0.  0.
        4    1    3    3  502    0  0.89941930877E+03 -0.93744228757E+03 -0.93160568823E+03  0.15986381413E+04  0.12699999809E+01 0.  1.
       -4    1    3    3    0  502 -0.89941930877E+03  0.93744228757E+03 -0.77164805445E+03  0.15110246419E+04  0.12699999809E+01 0. -1.
</event>
<event>
 5   0  0.2401139E-06  0.3035557E+04  0.7818609E-02  0.8233650E-01
       -2   -1    0    0    0  501  0.00000000000E+00  0.00000000000E+00  0.11860911906E+04  0.11860911906E+04  0.25500000920E-02 0. -1.
        2   -1    0    0  501    0  0.00000000000E+00  0.00000000000E+00 -0.19422214048E+04  0.19422214048E+04  0.25500000920E-02 0.  1.
    10030    2    1    2    0    0  0.00000000000E+00  0.00000000000E+00 -0.75613021418E+03  0.31283125955E+04  0.30355570813E+04 0.  0.
        5    1    3    3  502    0  0.85912702091E+03  0.83041631893E+03  0.58644925234E+03  0.13310279172E+04  0.46999998093E+01 0. -1.
       -5    1    3    3    0  502 -0.85912702091E+03 -0.83041631893E+03 -0.13425794665E+04  0.17972846783E+04  0.46999998093E+01 0.  1.
</event>
<event>
 5   0  0.8681172E-07  0.3181459E+04  0.7818609E-02  0.8193731E-01
       -1   -1    0    0    0  501  0.00000000000E+00  0.00000000000E+00  0.13949705846E+04  0.13949705846E+04  0.50400001928E-02 0. -1.
        1   -1    0    0  501    0  0.00000000000E+00  0.00000000000E+00 -0.18139596949E+04  0.18139596949E+04  0.50400001928E-02 0.  1.
    10030    2    1    2    0    0  0.00000000000E+00  0.00000000000E+00 -0.41898911029E+03  0.32089302796E+04  0.31814590465E+04 0.  0.
        1    1    3    3  502    0  0.83327991223E+03  0.39152678705E+02  0.11566498204E+04  0.14260880588E+04  0.50400001928E-02 0. -1.
       -1    1    3    3    0  502 -0.83327991223E+03 -0.39152678705E+02 -0.15756389307E+04  0.17828422208E+04  0.50400001928E-02 0.  1.
</event>
<event>
 5   0  0.2404430E-06  0.3172296E+04  0.7818609E-02  0.8196172E-01
       -2   -1    0    0    0  501  0.00000000000E+00  0.00000000000E+00  0.10897371329E+04  0.10897371329E+04  0.25500000920E-02 0. -1.
        2   -1    0    0  501    0  0.00000000000E+00  0.00000000000E+00 -0.23086903852E+04  0.23086903852E+04  0.25500000920E-02 0.  1.
    10030    2    1    2    0    0  0.00000000000E+00  0.00000000000E+00 -0.12189532523E+04  0.33984275181E+04  0.31722961029E+04 0.  0.
        4    1    3    3  502    0 -0.93822537670E+03  0.10338737654E+04 -0.14159346111E+04  0.19884753597E+04  0.12699999809E+01 0.  1.
       -4    1    3    3    0  502  0.93822537670E+03 -0.10338737654E+04  0.19698135888E+03  0.14099521584E+04  0.12699999809E+01 0. -1.
</event>
<event>
 5   0  0.8487944E-07  0.3230218E+04  0.7818609E-02  0.8180882E-01
        1   -1    0    0  501    0  0.00000000000E+00  0.00000000000E+00  0.21811520114E+04  0.21811520114E+04  0.50400001928E-02 0. -1.
       -1   -1    0    0    0  501  0.00000000000E+00  0.00000000000E+00 -0.11959628042E+04  0.11959628042E+04  0.50400001928E-02 0.  1.
    10030    2    1    2    0    0  0.00000000000E+00  0.00000000000E+00  0.98518920725E+03  0.33771148156E+04  0.32302177486E+04 0.  0.
        2    1    3    3  502    0  0.30079321261E+02  0.90620355514E+03  0.18899649712E+04  0.20962054387E+04  0.25500000920E-02 0. -1.
       -2    1    3    3    0  502 -0.30079321261E+02 -0.90620355514E+03 -0.90477576391E+03  0.12809093769E+04  0.25500000920E-02 0.  1.
</event>
<event>
 5   0  0.8487944E-07  0.3189905E+04  0.7818609E-02  0.8191488E-01
       -1   -1    0    0    0  501  0.00000000000E+00  0.00000000000E+00  0.12478883521E+04  0.12478883522E+04  0.50400001928E-02 0.  1.
        1   -1    0    0  501    0  0.00000000000E+00  0.00000000000E+00 -0.20385428240E+04  0.20385428240E+04  0.50400001928E-02 0. -1.
    10030    2    1    2    0    0  0.00000000000E+00  0.00000000000E+00 -0.79065447181E+03  0.32864311761E+04  0.31899052308E+04 0.  0.
        2    1    3    3  502    0  0.10751817342E+04 -0.88503166249E+03  0.40574667142E+03  0.14504920429E+04  0.25500000920E-02 0.  1.
       -2    1    3    3    0  502 -0.10751817342E+04  0.88503166249E+03 -0.11964011432E+04  0.18359391332E+04  0.25500000920E-02 0. -1.
</event>
<event>
 5   0  0.2621528E-06  0.3154869E+04  0.7818609E-02  0.8200839E-01
        2   -1    0    0  501    0  0.00000000000E+00  0.00000000000E+00  0.26400596572E+04  0.26400596572E+04  0.25500000920E-02 0. -1.
       -2   -1    0    0    0  501  0.00000000000E+00  0.00000000000E+00 -0.94251660028E+03  0.94251660029E+03  0.25500000920E-02 0.  1.
    10030    2    1    2    0    0  0.00000000000E+00  0.00000000000E+00  0.16975430569E+04  0.35825762575E+04  0.31548692858E+04 0.  0.
        2    1    3    3  502    0 -0.11290062962E+04  0.32287749705E+03  0.20448430975E+04  0.23580263756E+04  0.25500000920E-02 0. -1.
       -2    1    3    3    0  502  0.11290062962E+04 -0.32287749705E+03 -0.34730004055E+03  0.12245498818E+04  0.25500000920E-02 0.  1.
</event>
<event>
 5   0  0.8512855E-07  0.3401047E+04  0.7818609E-02  0.8137649E-01
        1   -1    0    0  501    0  0.00000000000E+00  0.00000000000E+00  0.86536988683E+03  0.86536988685E+03  0.50400001928E-02 0.  1.
       -1   -1    0    0    0  501  0.00000000000E+00  0.00000000000E+00 -0.33416693963E+04  0.33416693963E+04  0.50400001928E-02 0. -1.
    10030    2    1    2    0    0  0.00000000000E+00  0.00000000000E+00 -0.24762995095E+04  0.42070392832E+04  0.34010469373E+04 0.  0.
        5    1    3    3  502    0 -0.12563860626E+04  0.11444067952E+04 -0.11640842191E+04  0.20599240302E+04  0.46999998093E+01 0.  1.
       -5    1    3    3    0  502  0.12563860626E+04 -0.11444067952E+04 -0.13122152904E+04  0.21471152530E+04  0.46999998093E+01 0. -1.
</event>
<event>
 5   0  0.8681172E-07  0.3233467E+04  0.7818609E-02  0.8180034E-01
        1   -1    0    0  501    0  0.00000000000E+00  0.00000000000E+00  0.19256104639E+04  0.19256104639E+04  0.50400001928E-02 0.  1.
       -1   -1    0    0    0  501  0.00000000000E+00  0.00000000000E+00 -0.13574022088E+04  0.13574022088E+04  0.50400001928E-02 0. -1.
    10030    2    1    2    0    0  0.00000000000E+00  0.00000000000E+00  0.56820825513E+03  0.32830126728E+04  0.32334674250E+04 0.  0.
        1    1    3    3  502    0  0.15107077174E+04 -0.36358894607E+03 -0.16927258156E+03  0.15630380469E+04  0.50400001928E-02 0. -1.
       -1    1    3    3    0  502 -0.15107077174E+04  0.36358894607E+03  0.73748083670E+03  0.17199746259E+04  0.50400001928E-02 0.  1.
</event>
<event>
 5   0  0.8512855E-07  0.3205385E+04  0.7818609E-02  0.8187396E-01
        1   -1    0    0  501    0  0.00000000000E+00  0.00000000000E+00  0.17754358140E+04  0.17754358140E+04  0.50400001928E-02 0. -1.
       -1   -1    0    0    0  501  0.00000000000E+00  0.00000000000E+00 -0.14467566215E+04  0.14467566215E+04  0.50400001928E-02 0.  1.
    10030    2    1    2    0    0  0.00000000000E+00  0.00000000000E+00  0.32867919252E+03  0.32221924355E+04  0.32053851687E+04 0.  0.
        5    1    3    3  502    0 -0.42375570712E+03 -0.21435881498E+02 -0.13892650561E+04  0.14526210389E+04  0.46999998093E+01 0.  1.
       -5    1    3    3    0  502  0.42375570712E+03  0.21435881498E+02  0.17179442487E+04  0.17695713967E+04  0.46999998093E+01 0. -1.
</event>
<event>
 5   0  0.2621528E-06  0.2938349E+04  0.7818609E-02  0.8261558E-01
        2   -1    0    0  501    0  0.00000000000E+00  0.00000000000E+00  0.15430723394E+04  0.15430723394E+04  0.25500000920E-02 0.  1.
       -2   -1    0    0    0  501  0.00000000000E+00  0.00000000000E+00 -0.13988156381E+04  0.13988156381E+04  0.25500000920E-02 0. -1.
    10030    2    1    2    0    0  0.00000000000E+00  0.00000000000E+00  0.14425670133E+03  0.29418879775E+04  0.29383490052E+04 0.  0.
        2    1    3    3  502    0 -0.10882010967E+04 -0.31248288487E+03  0.10095500762E+04  0.15169108532E+04  0.25500000920E-02 0.  1.
       -2    1    3    3    0  502  0.10882010967E+04  0.31248288487E+03 -0.86529337485E+03  0.14249771243E+04  0.25500000920E-02 0. -1.
</event>
<event>
 5   0  0.2621528E-06  0.3181737E+04  0.7818609E-02  0.8193657E-01
       -2   -1    0    0    0  501  0.00000000000E+00  0.00000000000E+00  0.11795183287E+04  0.11795183287E+04  0.25500000920E-02 0.  1.
        2   -1    0    0  501    0  0.00000000000E+00  0.00000000000E+00 -0.21456745238E+04  0.21456745238E+04  0.25500000920E-02 0. -1.
    10030    2    1    2    0    0  0.00000000000E+00  0.00000000000E+00 -0.96615619510E+03  0.33251928526E+04  0.31817369020E+04 0.  0.
        2    1    3    3  502    0  0.13858312873E+04 -0.28292459079E+03  0.27796345491E+03  0.14414709027E+04  0.25500000920E-02 0.  1.
       -2    1    3    3    0  502 -0.13858312873E+04  0.28292459079E+03 -0.12441196500E+04  0.18837219499E+04  0.25500000920E-02 0. -1.
</event>
<event>
 5   0  0.8681172E-07  0.3539697E+04  0.7818609E-02  0.8104446E-01
       -1   -1    0    0    0  501  0.00000000000E+00  0.00000000000E+00  0.13442379793E+04  0.13442379793E+04  0.50400001928E-02 0. -1.
        1   -1    0    0  501    0  0.00000000000E+00  0.00000000000E+00 -0.23302156672E+04  0.23302156672E+04  0.50400001928E-02 0.  1.
    10030    2    1    2    0    0  0.00000000000E+00  0.00000000000E+00 -0.98597768784E+03  0.36744536465E+04  0.35396973881E+04 0.  0.
        1    1    3    3  502    0  0.35175944200E+03 -0.35903258543E+03  0.12685903349E+04  0.13645367493E+04  0.50400001928E-02 0. -1.
       -1    1    3    3    0  502 -0.35175944200E+03  0.35903258543E+03 -0.22545680228E+04  0.23099168971E+04  0.50400001928E-02 0.  1.
</event>
<event>
 5   0  0.2466076E-06  0.3357423E+04  0.7818609E-02  0.8148436E-01
       -2   -1    0    0    0  501  0.00000000000E+00  0.00000000000E+00  0.15536902901E+04  0.15536902901E+04  0.25500000920E-02 0.  1.
        2   -1    0    0  501    0  0.00000000000E+00  0.00000000000E+00 -0.18137923352E+04  0.18137923352E+04  0.25500000920E-02 0. -1.
    10030    2    1    2    0    0  0.00000000000E+00  0.00000000000E+00 -0.26010204510E+03  0.33674826253E+04  0.33574225469E+04 0.  0.
        3    1    3    3  502    0 -0.34057570825E+02  0.52923732069E+03  0.14674610252E+04  0.15603505793E+04  0.10100000352E+00 0.  1.
       -3    1    3    3    0  502  0.34057570825E+02 -0.52923732069E+03 -0.17275630703E+04  0.18071320460E+04  0.10100000352E+00 0. -1.
</event>
<event>
 5   0  0.2466076E-06  0.2758026E+04  0.7818609E-02  0.8316419E-01
        2   -1    0    0  501    0  0.00000000000E+00  0.00000000000E+00  0.21257543873E+04  0.21257543873E+04  0.25500000920E-02 0.  1.
       -2   -1    0    0    0  501  0.00000000000E+00  0.00000000000E+00 -0.89458925413E+03  0.89458925414E+03  0.25500000920E-02 0. -1.
    10030    2    1    2    0    0  0.00000000000E+00  0.00000000000E+00  0.12311651331E+04  0.30203436414E+04  0.27580261288E+04 0.  0.
        3    1    3    3  502    0  0.63051398527E+03  0.21618218381E+02 -0.72728462481E+03  0.96278666830E+03  0.10100000352E+00 0. -1.
       -3    1    3    3    0  502 -0.63051398527E+03 -0.21618218381E+02  0.19584497580E+04  0.20575569731E+04  0.10100000352E+00 0.  1.
</event>
<event>
 5   0  0.2404430E-06  0.3225688E+04  0.7818609E-02  0.8182066E-01
        2   -1    0    0  501    0  0.00000000000E+00  0.00000000000E+00  0.18227425508E+04  0.18227425508E+04  0.25500000920E-02 0.  1.
       -2   -1    0    0    0  501  0.00000000000E+00  0.00000000000E+00 -0.14271163009E+04  0.14271163009E+04  0.25500000920E-02 0. -1.
    10030    2    1    2    0    0  0.00000000000E+00  0.00000000000E+00  0.39562624987E+03  0.32498588517E+04  0.32256878997E+04 0.  0.
        4    1    3    3  502    0 -0.85358965464E+01  0.39407223902E+03  0.17734688904E+04  0.18167441507E+04  0.12699999809E+01 0.  1.
       -4    1    3    3    0  502  0.85358965464E+01 -0.39407223902E+03 -0.13778426405E+04  0.14331147010E+04  0.12699999809E+01 0. -1.
</event>
<event>
 5   0  0.8383008E-07  0.3126877E+04  0.7818609E-02  0.8208400E-01
        1   -1    0    0  501    0  0.00000000000E+00  0.00000000000E+00  0.12236074206E+04  0.12236074206E+04  0.50400001928E-02 0. -1.
       -1   -1    0    0    0  501  0.00000000000E+00  0.00000000000E+00 -0.19976510464E+04  0.19976510464E+04  0.50400001928E-02 0.  1.
    10030    2    1    2    0    0  0.00000000000E+00  0.00000000000E+00 -0.77404362579E+03  0.32212584670E+04  0.31268774483E+04 0.  0.
        4    1    3    3  502    0  0.29651007641E+03 -0.16748695621E+03  0.11849349992E+04  0.12329001059E+04  0.12699999809E+01 0. -1.
       -4    1    3    3    0  502 -0.29651007641E+03  0.16748695621E+03 -0.19589786250E+04  0.19883583611E+04  0.12699999809E+01 0.  1.
</event>
<event>
 5   0  0.8383008E-07  0.3183622E+04  0.7818609E-02  0.8193156E-01
        1   -1    0    0  501    0  0.00000000000E+00  0.00000000000E+00  0.24905675711E+04  0.24905675711E+04  0.50400001928E-02 0.  1.
       -1   -1    0    0    0  501  0.00000000000E+00  0.00000000000E+00 -0.10173835635E+04  0.10173835635E+04  0.50400001928E-02 0. -1.
    10030    2    1    2    0    0  0.00000000000E+00  0.00000000000E+00  0.14731840076E+04  0.35079511346E+04  0.31836221576E+04 0.  0.
        4    1    3    3  502    0  0.14987155249E+04  0.51879790113E+03  0.88671164186E+03  0.18170191621E+04  0.12699999809E+01 0.  1.
       -4    1    3    3    0  502 -0.14987155249E+04 -0.51879790113E+03  0.58647236571E+03  0.16909319725E+04  0.12699999809E+01 0. -1.
</event>
<event>
 5   0  0.2401139E-06  0.3201812E+04  0.7818609E-02  0.8188339E-01
       -2   -1    0    0    0  501  0.00000000000E+00  0.00000000000E+00  0.86479588969E+03  0.86479588969E+03  0.25500000920E-02 0.  1.
        2   -1    0    0  501    0  0.00000000000E+00  0.00000000000E+00 -0.29635885813E+04  0.29635885813E+04  0.25500000920E-02 0. -1.
    10030    2    1    2    0    0  0.00000000000E+00  0.00000000000E+00 -0.20987926917E+04  0.38283844710E+04  0.32018115022E+04 0.  0.
        5    1    3    3  502    0  0.80549071122E+03  0.61332621939E+01 -0.27036172371E+04  0.28210673792E+04  0.46999998093E+01 0. -1.
       -5    1    3    3    0  502 -0.80549071122E+03 -0.61332621939E+01  0.60482454549E+03  0.10073170919E+04  0.46999998093E+01 0.  1.
</event>
<event>
 5   0  0.8383008E-07  0.3212686E+04  0.7818609E-02  0.8185475E-01
        1   -1    0    0  501    0  0.00000000000E+00  0.00000000000E+00  0.25738256133E+04  0.25738256133E+04  0.50400001928E-02 0. -1.
       -1   -1    0    0    0  501  0.00000000000E+00  0.00000000000E+00 -0.10025300249E+04  0.10025300249E+04  0.50400001928E-02 0.  1.
    10030    2    1    2    0    0  0.00000000000E+00  0.00000000000E+00  0.15712955883E+04  0.35763556382E+04  0.32126857650E+04 0.  0.
        4    1    3    3  502    0  0.10231503642E+04 -0.10658399169E+04  0.14874787506E+04  0.20965319083E+04  0.12699999809E+01 0. -1.
       -4    1    3    3    0  502 -0.10231503642E+04  0.10658399169E+04  0.83816837748E+02  0.14798237298E+04  0.12699999809E+01 0.  1.
</event>
<event>
 5   0  0.2466076E-06  0.3206802E+04  0.7818609E-02  0.8187023E-01
       -2   -1    0    0    0  501  0.00000000000E+00  0.00000000000E+00  0.14083293980E+04  0.14083293980E+04  0.25500000920E-02 0.  1.
        2   -1    0    0  501    0  0.00000000000E+00  0.00000000000E+00 -0.18254924953E+04  0.18254924953E+04  0.25500000920E-02 0. -1.
    10030    2    1    2    0    0  0.00000000000E+00  0.00000000000E+00 -0.41716309732E+03  0.32338218933E+04  0.32068019876E+04 0.  0.
        3    1    3    3  502    0 -0.48950766779E+03 -0.25841409727E+03  0.13089231075E+04  0.14211528117E+04  0.10100000352E+00 0.  1.
       -3    1    3    3    0  502  0.48950766779E+03  0.25841409727E+03 -0.17260862049E+04  0.18126690816E+04  0.10100000352E+00 0. -1.
</event>
<event>
 5   0  0.2466076E-06  0.3163625E+04  0.7818609E-02  0.8198490E-01
       -2   -1    0    0    0  501  0.00000000000E+00  0.00000000000E+00  0.24271477708E+04  0.24271477708E+04  0.25500000920E-02 0. -1.
        2   -1    0    0  501    0  0.00000000000E+00  0.00000000000E+00 -0.10308934084E+04  0.10308934084E+04  0.25500000920E-02 0.  1.
    10030    2    1    2    0    0  0.00000000000E+00  0.00000000000E+00  0.13962543624E+04  0.34580411792E+04  0.31636249071E+04 0.  0.
        3    1    3    3  502    0  0.30860740800E+03 -0.51909499432E+03 -0.89992654879E+03  0.10837739381E+04  0.10100000352E+00 0.  1.
       -3    1    3    3    0  502 -0.30860740800E+03  0.51909499432E+03  0.22961809112E+04  0.23742672412E+04  0.10100000352E+00 0. -1.
</event>
<event>
 5   0  0.8383008E-07  0.3202025E+04  0.7818609E-02  0.8188282E-01
        1   -1    0    0  501    0  0.00000000000E+00  0.00000000000E+00  0.19032544872E+04  0.19032544873E+04  0.50400001928E-02 0.  1.
       -1   -1    0    0    0  501  0.00000000000E+00  0.00000000000E+00 -0.13467677725E+04  0.13467677725E+04  0.50400001928E-02 0. -1.
    10030    2    1    2    0    0  0.00000000000E+00  0.00000000000E+00  0.55648671475E+03  0.32500222598E+04  0.32020254879E+04 0.  0.
        4    1    3    3  502    0 -0.11990411642E+04  0.27126925034E+03 -0.76277842545E+03  0.14467616455E+04  0.12699999809E+01 0. -1.
       -4    1    3    3    0  502  0.11990411642E+04 -0.27126925034E+03  0.13192651402E+04  0.18032606142E+04  0.12699999809E+01 0.  1.
</event>
<event>
 5   0  0.8545153E-07  0.3195083E+04  0.7818609E-02  0.8190117E-01
       -1   -1    0    0    0  501  0.00000000000E+00  0.00000000000E+00  0.14053708168E+04  0.14053708169E+04  0.50400001928E-02 0.  1.
        1   -1    0    0  501    0  0.00000000000E+00  0.00000000000E+00 -0.18159897050E+04  0.18159897050E+04  0.50400001928E-02 0. -1.
    10030    2    1    2    0    0  0.00000000000E+00  0.00000000000E+00 -0.41061888818E+03  0.32213605219E+04  0.31950830569E+04 0.  0.
        3    1    3    3  502    0  0.13356264355E+04 -0.65481360956E+02  0.67592312627E+03  0.14983517166E+04  0.10100000352E+00 0.  1.
       -3    1    3    3    0  502 -0.13356264355E+04  0.65481360956E+02 -0.10865420145E+04  0.17230088053E+04  0.10100000352E+00 0. -1.
</event>
<event>
 5   0  0.8383008E-07  0.3194864E+04  0.7818609E-02  0.8190175E-01
       -1   -1    0    0    0  501  0.00000000000E+00  0.00000000000E+00  0.15041686345E+04  0.15041686345E+04  0.50400001928E-02 0. -1.
        1   -1    0    0  501    0  0.00000000000E+00  0.00000000000E+00 -0.16964775609E+04  0.16964775609E+04  0.50400001928E-02 0.  1.
    10030    2    1    2    0    0  0.00000000000E+00  0.00000000000E+00 -0.19230892648E+03  0.32006461954E+04  0.31948635879E+04 0.  0.
        4    1    3    3  502    0 -0.39690084256E+03  0.37080028019E+03 -0.16011263364E+04  0.16907484392E+04  0.12699999809E+01 0.  1.
       -4    1    3    3    0  502  0.39690084256E+03 -0.37080028019E+03  0.14088174100E+04  0.15098977562E+04  0.12699999809E+01 0. -1.
</event>
<event>
 5   0  0.2401139E-06  0.3192681E+04  0.7818609E-02  0.8190753E-01
       -2   -1    0    0    0  501  0.00000000000E+00  0.00000000000E+00  0.12885786035E+04  0.12885786035E+04  0.25500000920E-02 0.  1.
        2   -1    0    0  501    0  0.00000000000E+00  0.00000000000E+00 -0.19776073818E+04  0.19776073818E+04  0.25500000920E-02 0. -1.
    10030    2    1    2    0    0  0.00000000000E+00  0.00000000000E+00 -0.68902877829E+03  0.32661859854E+04  0.31926807284E+04 0.  0.
        5    1    3    3  502    0  0.11806076339E+04  0.10114921054E+04 -0.71525235957E+03  0.17113032146E+04  0.46999998093E+01 0. -1.
       -5    1    3    3    0  502 -0.11806076339E+04 -0.10114921054E+04  0.26223581284E+02  0.15548827707E+04  0.46999998093E+01 0.  1.
</event>
<event>
 5   0  0.8383008E-07  0.3135231E+04  0.7818609E-02  0.8206135E-01
        1   -1    0    0  501    0  0.00000000000E+00  0.00000000000E+00  0.26348242190E+04  0.26348242190E+04  0.50400001928E-02 0.  1.
       -1   -1    0    0    0  501  0.00000000000E+00  0.00000000000E+00 -0.93266852150E+03  0.93266852151E+03  0.50400001928E-02 0. -1.
    10030    2    1    2    0    0  0.00000000000E+00  0.00000000000E+00  0.17021556975E+04  0.35674927405E+04  0.31352305235E+04 0.  0.
        4    1    3    3  502    0  0.88407675815E+03 -0.69274233424E+03 -0.39328467899E+03  0.11900244147E+04  0.12699999809E+01 0. -1.
       -4    1    3    3    0  502 -0.88407675815E+03  0.69274233424E+03  0.20954403765E+04  0.23774683258E+04  0.12699999809E+01 0.  1.
</event>
<event>
 5   0  0.8487944E-07  0.3184345E+04  0.7818609E-02  0.8192964E-01
       -1   -1    0    0    0  501  0.00000000000E+00  0.00000000000E+00  0.13756320850E+04  0.13756320851E+04  0.50400001928E-02 0.  1.
        1   -1    0    0  501    0  0.00000000000E+00  0.00000000000E+00 -0.18427991477E+04  0.18427991477E+04  0.50400001928E-02 0. -1.
    10030    2    1    2    0    0  0.00000000000E+00  0.00000000000E+00 -0.46716706268E+03  0.32184312328E+04  0.31843452287E+04 0.  0.
        2    1    3    3  502    0 -0.89328037777E+03  0.58857185196E+03 -0.14254635431E+04  0.17822213586E+04  0.25500000920E-02 0. -1.
       -2    1    3    3    0  502  0.89328037777E+03 -0.58857185196E+03  0.95829648046E+03  0.14362098742E+04  0.25500000920E-02 0.  1.
</event>
<event>
 5   0  0.8512855E-07  0.3158093E+04  0.7818609E-02  0.8199973E-01
        1   -1    0    0  501    0  0.00000000000E+00  0.00000000000E+00  0.16523358273E+04  0.16523358273E+04  0.50400001928E-02 0.  1.
       -1   -1    0    0    0  501  0.00000000000E+00  0.00000000000E+00 -0.15090074536E+04  0.15090074536E+04  0.50400001928E-02 0. -1.
    10030    2    1    2    0    0  0.00000000000E+00  0.00000000000E+00  0.14332837370E+03  0.31613432809E+04  0.31580925125E+04 0.  0.
        5    1    3    3  502    0 -0.13916328126E+04 -0.71883969154E+03 -0.12852316729E+03  0.15715955847E+04  0.46999998093E+01 0.  1.
       -5    1    3    3    0  502  0.13916328126E+04  0.71883969154E+03  0.27185154099E+03  0.15897476962E+04  0.46999998093E+01 0. -1.
</event>
<event>
 5   0  0.2621528E-06  0.3183929E+04  0.7818609E-02  0.8193074E-01
       -2   -1    0    0    0  501  0.00000000000E+00  0.00000000000E+00  0.10365186856E+04  0.10365186856E+04  0.25500000920E-02 0. -1.
        2   -1    0    0  501    0  0.00000000000E+00  0.00000000000E+00 -0.24450611191E+04  0.24450611191E+04  0.25500000920E-02 0.  1.
    10030    2    1    2    0    0  0.00000000000E+00  0.00000000000E+00 -0.14085424335E+04  0.34815798047E+04  0.31839293568E+04 0.  0.
        2    1    3    3  502    0 -0.12063260815E+04  0.77165458685E+03  0.56214659121E+02  0.14331201988E+04  0.25500000920E-02 0. -1.
       -2    1    3    3    0  502  0.12063260815E+04 -0.77165458685E+03 -0.14647570926E+04  0.20484596058E+04  0.25500000920E-02 0.  1.
</event>
<event>
 5   0  0.2404430E-06  0.3256192E+04  0.7818609E-02  0.8174133E-01
        2   -1    0    0  501    0  0.00000000000E+00  0.00000000000E+00  0.18510853720E+04  0.18510853720E+04  0.25500000920E-02 0. -1.
       -2   -1    0    0    0  501  0.00000000000E+00  0.00000000000E+00 -0.14319691519E+04  0.14319691519E+04  0.25500000920E-02 0.  1.
    10030    2    1    2    0    0  0.00000000000E+00  0.00000000000E+00  0.41911622007E+03  0.32830545240E+04  0.32561923471E+04 0.  0.
        4    1    3    3  502    0  0.11949435527E+04 -0.35778108322E+03  0.12645158664E+04  0.17762036446E+04  0.12699999809E+01 0. -1.
       -4    1    3    3    0  502 -0.11949435527E+04  0.35778108322E+03 -0.84539964636E+03  0.15068508794E+04  0.12699999809E+01 0.  1.
</event>
<event>
 5   0  0.2466076E-06  0.3217047E+04  0.7818609E-02  0.8184330E-01
        2   -1    0    0  501    0  0.00000000000E+00  0.00000000000E+00  0.28476003696E+04  0.28476003696E+04  0.25500000920E-02 0.  1.
       -2   -1    0    0    0  501  0.00000000000E+00  0.00000000000E+00 -0.90860617536E+03  0.90860617536E+03  0.25500000920E-02 0. -1.
    10030    2    1    2    0    0  0.00000000000E+00  0.00000000000E+00  0.19389941943E+04  0.37562065450E+04  0.32170466461E+04 0.  0.
        3    1    3    3  502    0 -0.12212256221E+04  0.10458274546E+04  0.91472974118E+03  0.18498317746E+04  0.10100000352E+00 0.  1.
       -3    1    3    3    0  502  0.12212256221E+04 -0.10458274546E+04  0.10242644531E+04  0.19063747703E+04  0.10100000352E+00 0. -1.
</event>
<event>
 5   0  0.8681172E-07  0.3161226E+04  0.7818609E-02  0.8199133E-01
        1   -1    0    0  501    0  0.00000000000E+00  0.00000000000E+00  0.18754236226E+04  0.18754236226E+04  0.50400001928E-02 0.  1.
       -1   -1    0    0    0  501  0.00000000000E+00  0.00000000000E+00 -0.13321457653E+04  0.13321457653E+04  0.50400001928E-02 0. -1.
    10030    2    1    2    0    0  0.00000000000E+00  0.00000000000E+00  0.54327785732E+03  0.32075693879E+04  0.31612261146E+04 0.  0.
        1    1    3    3  502    0  0.32867540980E+03  0.12632905929E+04 -0.63272249206E+03  0.14506096647E+04  0.50400001928E-02 0. -1.
       -1    1    3    3    0  502 -0.32867540980E+03 -0.12632905929E+04  0.11760003494E+04  0.17569597232E+04  0.50400001928E-02 0.  1.
</event>
<event>
 5   0  0.8545153E-07  0.3229991E+04  0.7818609E-02  0.8180941E-01
       -1   -1    0    0    0  501  0.00000000000E+00  0.00000000000E+00  0.12326657743E+04  0.12326657743E+04  0.50400001928E-02 0. -1.
        1   -1    0    0  501    0  0.00000000000E+00  0.00000000000E+00 -0.21159106977E+04  0.21159106977E+04  0.50400001928E-02 0.  1.
    10030    2    1    2    0    0  0.00000000000E+00  0.00000000000E+00 -0.88324492334E+03  0.33485764720E+04  0.32299911446E+04 0.  0.
        3    1    3    3  502    0 -0.24263833580E+02  0.59282253874E+03  0.11155836115E+04  0.12635482185E+04  0.10100000352E+00 0. -1.
       -3    1    3    3    0  502  0.24263833580E+02 -0.59282253874E+03 -0.19988285348E+04  0.20850282535E+04  0.10100000352E+00 0.  1.
</event>
<event>
 5   0  0.8512855E-07  0.3197144E+04  0.7818609E-02  0.8189572E-01
        1   -1    0    0  501    0  0.00000000000E+00  0.00000000000E+00  0.21993689414E+04  0.21993689414E+04  0.50400001928E-02 0.  1.
       -1   -1    0    0    0  501  0.00000000000E+00  0.00000000000E+00 -0.11618937302E+04  0.11618937302E+04  0.50400001928E-02 0. -1.
    10030    2    1    2    0    0  0.00000000000E+00  0.00000000000E+00  0.10374752112E+04  0.33612626716E+04  0.31971443405E+04 0.  0.
        5    1    3    3  502    0  0.38756719959E+03  0.25375543816E+03  0.21272461018E+04  0.21771077659E+04  0.46999998093E+01 0.  1.
       -5    1    3    3    0  502 -0.38756719959E+03 -0.25375543816E+03 -0.10897708907E+04  0.11841549057E+04  0.46999998093E+01 0. -1.
</event>
<event>
 5   0  0.8512855E-07  0.3195607E+04  0.7818609E-02  0.8189978E-01
       -1   -1    0    0    0  501  0.00000000000E+00  0.00000000000E+00  0.16466656206E+04  0.16466656206E+04  0.50400001928E-02 0. -1.
        1   -1    0    0  501    0  0.00000000000E+00  0.00000000000E+00 -0.15503913751E+04  0.15503913751E+04  0.50400001928E-02 0.  1.
    10030    2    1    2    0    0  0.00000000000E+00  0.00000000000E+00  0.96274245503E+02  0.31970569957E+04  0.31956070946E+04 0.  0.
        5    1    3    3  502    0  0.92646728579E+03  0.50380482741E+03  0.12490121667E+04  0.16346909244E+04  0.46999998093E+01 0. -1.
       -5    1    3    3    0  502 -0.92646728579E+03 -0.50380482741E+03 -0.11527379212E+04  0.15623660713E+04  0.46999998093E+01 0.  1.
</event>
<event>
 5   0  0.2621528E-06  0.3249350E+04  0.7818609E-02  0.8175904E-01
       -2   -1    0    0    0  501  0.00000000000E+00  0.00000000000E+00  0.89076875346E+03  0.89076875346E+03  0.25500000920E-02 0. -1.
        2   -1    0    0  501    0  0.00000000000E+00  0.00000000000E+00 -0.29632489283E+04  0.29632489283E+04  0.25500000920E-02 0.  1.
    10030    2    1    2    0    0  0.00000000000E+00  0.00000000000E+00 -0.20724801748E+04  0.38540176817E+04  0.32493504299E+04 0.  0.
        2    1    3    3  502    0  0.86688495005E+03  0.93238213840E+03 -0.22333929148E+04  0.25707722342E+04  0.25500000920E-02 0.  1.
       -2    1    3    3    0  502 -0.86688495005E+03 -0.93238213840E+03  0.16091273996E+03  0.12832454475E+04  0.25500000920E-02 0. -1.
</event>
<event>
 5   0  0.2621528E-06  0.3231755E+04  0.7818609E-02  0.8180481E-01
       -2   -1    0    0    0  501  0.00000000000E+00  0.00000000000E+00  0.18408042153E+04  0.18408042153E+04  0.25500000920E-02 0.  1.
        2   -1    0    0  501    0  0.00000000000E+00  0.00000000000E+00 -0.14184342227E+04  0.14184342227E+04  0.25500000920E-02 0. -1.
    10030    2    1    2    0    0  0.00000000000E+00  0.00000000000E+00  0.42236999258E+03  0.32592384380E+04  0.32317547533E+04 0.  0.
        2    1    3    3  502    0  0.90510232439E+03 -0.13375405442E+04  0.15748963772E+03  0.16226607505E+04  0.25500000920E-02 0. -1.
       -2    1    3    3    0  502 -0.90510232439E+03  0.13375405442E+04  0.26488035486E+03  0.16365776876E+04  0.25500000920E-02 0.  1.
</event>
<event>
 5   0  0.8545153E-07  0.3157820E+04  0.7818609E-02  0.8200046E-01
        1   -1    0    0  501    0  0.00000000000E+00  0.00000000000E+00  0.13629357063E+04  0.13629357063E+04  0.50400001928E-02 0. -1.
       -1   -1    0    0    0  501  0.00000000000E+00  0.00000000000E+00 -0.18291080271E+04  0.18291080271E+04  0.50400001928E-02 0.  1.
    10030    2    1    2    0    0  0.00000000000E+00  0.00000000000E+00 -0.46617232074E+03  0.31920437334E+04  0.31578199068E+04 0.  0.
        3    1    3    3  502    0 -0.12036526093E+04 -0.72835090311E+03 -0.95756990210E+03  0.17018268918E+04  0.10100000352E+00 0.  1.
       -3    1    3    3    0  502  0.12036526093E+04  0.72835090311E+03  0.49139758136E+03  0.14902168417E+04  0.10100000352E+00 0. -1.
</event>
<event>
 5   0  0.8681172E-07  0.3186036E+04  0.7818609E-02  0.8192515E-01
       -1   -1    0    0    0  501  0.00000000000E+00  0.00000000000E+00  0.13458039293E+04  0.13458039293E+04  0.50400001928E-02 0. -1.
        1   -1    0    0  501    0  0.00000000000E+00  0.00000000000E+00 -0.18856439226E+04  0.18856439226E+04  0.50400001928E-02 0.  1.
    10030    2    1    2    0    0  0.00000000000E+00  0.00000000000E+00 -0.53983999329E+03  0.32314478519E+04  0.31860364093E+04 0.  0.
        1    1    3    3  502    0 -0.14542272656E+04 -0.48479800710E+03  0.16973388138E+03  0.15422761225E+04  0.50400001928E-02 0. -1.
       -1    1    3    3    0  502  0.14542272656E+04  0.48479800710E+03 -0.70957387467E+03  0.16891717294E+04  0.50400001928E-02 0.  1.
</event>
<event>
 5   0  0.2337504E-06  0.3195991E+04  0.7818609E-02  0.8189877E-01
        2   -1    0    0  501    0  0.00000000000E+00  0.00000000000E+00  0.23125873117E+04  0.23125873117E+04  0.25500000920E-02 0. -1.
       -2   -1    0    0    0  501  0.00000000000E+00  0.00000000000E+00 -0.11042134008E+04  0.11042134008E+04  0.25500000920E-02 0.  1.
    10030    2    1    2    0    0  0.00000000000E+00  0.00000000000E+00  0.12083739108E+04  0.34168007125E+04  0.31959911766E+04 0.  0.
        1    1    3    3  502    0  0.14805712313E+04  0.39396977033E+03  0.10897543682E+04  0.18801244464E+04  0.50400001928E-02 0. -1.
       -1    1    3    3    0  502 -0.14805712313E+04 -0.39396977033E+03  0.11861954258E+03  0.15366762661E+04  0.50400001928E-02 0.  1.
</event>
<event>
 5   0  0.2401139E-06  0.3182931E+04  0.7818609E-02  0.8193340E-01
        2   -1    0    0  501    0  0.00000000000E+00  0.00000000000E+00  0.19445433866E+04  0.19445433866E+04  0.25500000920E-02 0. -1.
       -2   -1    0    0    0  501  0.00000000000E+00  0.00000000000E+00 -0.13024976485E+04  0.13024976485E+04  0.25500000920E-02 0.  1.
    10030    2    1    2    0    0  0.00000000000E+00  0.00000000000E+00  0.64204573810E+03  0.32470410351E+04  0.31829314717E+04 0.  0.
        5    1    3    3  502    0  0.46935276550E+02 -0.85210558729E+03  0.16913789334E+04  0.18944845310E+04  0.46999998093E+01 0. -1.
       -5    1    3    3    0  502 -0.46935276550E+02  0.85210558729E+03 -0.10493331953E+04  0.13525565041E+04  0.46999998093E+01 0.  1.
</event>
<event>
 5   0  0.8487944E-07  0.3199683E+04  0.7818609E-02  0.8188901E-01
       -1   -1    0    0    0  501  0.00000000000E+00  0.00000000000E+00  0.25340120934E+04  0.25340120934E+04  0.50400001928E-02 0.  1.
        1   -1    0    0  501    0  0.00000000000E+00  0.00000000000E+00 -0.10100555531E+04  0.10100555532E+04  0.50400001928E-02 0. -1.
    10030    2    1    2    0    0  0.00000000000E+00  0.00000000000E+00  0.15239565403E+04  0.35440676466E+04  0.31996831010E+04 0.  0.
        2    1    3    3  502    0 -0.12301977660E+04 -0.43383091677E+03  0.17878962828E+04  0.22131807260E+04  0.25500000920E-02 0.  1.
       -2    1    3    3    0  502  0.12301977660E+04  0.43383091677E+03 -0.26393974252E+03  0.13308869206E+04  0.25500000920E-02 0. -1.
</event>
<event>
 5   0  0.8487944E-07  0.3197852E+04  0.7818609E-02  0.8189385E-01
       -1   -1    0    0    0  501  0.00000000000E+00  0.00000000000E+00  0.22275852405E+04  0.22275852405E+04  0.50400001928E-02 0. -1.
        1   -1    0    0  501    0  0.00000000000E+00  0.00000000000E+00 -0.11476842834E+04  0.11476842834E+04  0.50400001928E-02 0.  1.
    10030    2    1    2    0    0  0.00000000000E+00  0.00000000000E+00  0.10799009571E+04  0.33752695239E+04  0.31978521357E+04 0.  0.
        2    1    3    3  502    0 -0.14299031387E+04  0.66246541969E+03  0.82528398387E+03  0.17789258198E+04  0.25500000920E-02 0.  1.
       -2    1    3    3    0  502  0.14299031387E+04 -0.66246541969E+03  0.25461697319E+03  0.15963437041E+04  0.25500000920E-02 0. -1.
</event>
<event>
 5   0  0.8545153E-07  0.3587284E+04  0.7818609E-02  0.8093411E-01
       -1   -1    0    0    0  501  0.00000000000E+00  0.00000000000E+00  0.11116012746E+04  0.11116012746E+04  0.50400001928E-02 0. -1.
        1   -1    0    0  501    0  0.00000000000E+00  0.00000000000E+00 -0.28941593704E+04  0.28941593704E+04  0.50400001928E-02 0.  1.
    10030    2    1    2    0    0  0.00000000000E+00  0.00000000000E+00 -0.17825580958E+04  0.40057606450E+04  0.35872837887E+04 0.  0.
        3    1    3    3  502    0  0.82282896655E+03  0.14522477278E+04 -0.16244383187E+04  0.23291352113E+04  0.10100000352E+00 0.  1.
       -3    1    3    3    0  502 -0.82282896655E+03 -0.14522477278E+04 -0.15811977704E+03  0.16766254337E+04  0.10100000352E+00 0. -1.
</event>
<event>
 5   0  0.2466076E-06  0.2889394E+04  0.7818609E-02  0.8276040E-01
       -2   -1    0    0    0  501  0.00000000000E+00  0.00000000000E+00  0.78798010370E+03  0.78798010370E+03  0.25500000920E-02 0.  1.
        2   -1    0    0  501    0  0.00000000000E+00  0.00000000000E+00 -0.26487343408E+04  0.26487343408E+04  0.25500000920E-02 0. -1.
    10030    2    1    2    0    0  0.00000000000E+00  0.00000000000E+00 -0.18607542371E+04  0.34367144445E+04  0.28893943729E+04 0.  0.
        3    1    3    3  502    0  0.12013302219E+04 -0.80246647163E+03 -0.92824601551E+03  0.17172033705E+04  0.10100000352E+00 0.  1.
       -3    1    3    3    0  502 -0.12013302219E+04  0.80246647163E+03 -0.93250822159E+03  0.17195110740E+04  0.10100000352E+00 0. -1.
</event>
<event>
 5   0  0.8512855E-07  0.3139664E+04  0.7818609E-02  0.8204936E-01
        1   -1    0    0  501    0  0.00000000000E+00  0.00000000000E+00  0.15634421650E+04  0.15634421650E+04  0.50400001928E-02 0. -1.
       -1   -1    0    0    0  501  0.00000000000E+00  0.00000000000E+00 -0.15762483620E+04  0.15762483620E+04  0.50400001928E-02 0.  1.
    10030    2    1    2    0    0  0.00000000000E+00  0.00000000000E+00 -0.12806196989E+02  0.31396905271E+04  0.31396644099E+04 0.  0.
        5    1    3    3  502    0 -0.20778400806E+03  0.14923635580E+04 -0.44689271976E+03  0.15716419364E+04  0.46999998093E+01 0.  1.
       -5    1    3    3    0  502  0.20778400806E+03 -0.14923635580E+04  0.43408652277E+03  0.15680485906E+04  0.46999998093E+01 0. -1.
</event>
<event>
 5   0  0.8383008E-07  0.3185824E+04  0.7818609E-02  0.8192571E-01
       -1   -1    0    0    0  501  0.00000000000E+00  0.00000000000E+00  0.11596432284E+04  0.11596432284E+04  0.50400001928E-02 0.  1.
        1   -1    0    0  501    0  0.00000000000E+00  0.00000000000E+00 -0.21880603789E+04  0.21880603789E+04  0.50400001928E-02 0. -1.
    10030    2    1    2    0    0  0.00000000000E+00  0.00000000000E+00 -0.10284171506E+04  0.33477036073E+04  0.31858244783E+04 0.  0.
        4    1    3    3  502    0  0.15334763235E+04  0.19181621837E+03 -0.10855596710E+03  0.15492350071E+04  0.12699999809E+01 0.  1.
       -4    1    3    3    0  502 -0.15334763235E+04 -0.19181621837E+03 -0.91986118347E+03  0.17984686002E+04  0.12699999809E+01 0. -1.
</event>
<event>
 5   0  0.2466076E-06  0.3228441E+04  0.7818609E-02  0.8181346E-01
       -2   -1    0    0    0  501  0.00000000000E+00  0.00000000000E+00  0.12568252291E+04  0.12568252291E+04  0.25500000920E-02 0. -1.
        2   -1    0    0  501    0  0.00000000000E+00  0.00000000000E+00 -0.20732457834E+04  0.20732457834E+04  0.25500000920E-02 0.  1.
    10030    2    1    2    0    0  0.00000000000E+00  0.00000000000E+00 -0.81642055431E+03  0.33300710125E+04  0.32284408662E+04 0.  0.
        3    1    3    3  502    0  0.13307494951E+04 -0.85210330328E+03 -0.74833799044E+03  0.17484232944E+04  0.10100000352E+00 0. -1.
       -3    1    3    3    0  502 -0.13307494951E+04  0.85210330328E+03 -0.68082563867E+02  0.15816477180E+04  0.10100000352E+00 0.  1.
</event>
<event>
 5   0  0.2401139E-06  0.3129418E+04  0.7818609E-02  0.8207710E-01
        2   -1    0    0  501    0  0.00000000000E+00  0.00000000000E+00  0.19433901644E+04  0.19433901644E+04  0.25500000920E-02 0. -1.
       -2   -1    0    0    0  501  0.00000000000E+00  0.00000000000E+00 -0.12598162821E+04  0.12598162821E+04  0.25500000920E-02 0.  1.
    10030    2    1    2    0    0  0.00000000000E+00  0.00000000000E+00  0.68357388224E+03  0.32032064465E+04  0.31294182025E+04 0.  0.
        5    1    3    3  502    0 -0.15475852944E+04 -0.23036372431E+03  0.32713893024E+03  0.15984772937E+04  0.46999998093E+01 0. -1.
       -5    1    3    3    0  502  0.15475852944E+04  0.23036372431E+03  0.35643495200E+03  0.16047291528E+04  0.46999998093E+01 0.  1.
</event>
<event>
 5   0  0.2401139E-06  0.3286343E+04  0.7818609E-02  0.8166379E-01
       -2   -1    0    0    0  501  0.00000000000E+00  0.00000000000E+00  0.15080602421E+04  0.15080602421E+04  0.25500000920E-02 0. -1.
        2   -1    0    0  501    0  0.00000000000E+00  0.00000000000E+00 -0.17903876021E+04  0.17903876021E+04  0.25500000920E-02 0.  1.
    10030    2    1    2    0    0  0.00000000000E+00  0.00000000000E+00 -0.28232735999E+03  0.32984478441E+04  0.32863428674E+04 0.  0.
        5    1    3    3  502    0 -0.30712800270E+02  0.65513187238E+03  0.13709876453E+04  0.15197928346E+04  0.46999998093E+01 0. -1.
       -5    1    3    3    0  502  0.30712800270E+02 -0.65513187238E+03 -0.16533150053E+04  0.17786550096E+04  0.46999998093E+01 0.  1.
</event>
<event>
 5   0  0.2401139E-06  0.3084973E+04  0.7818609E-02  0.8219874E-01
        2   -1    0    0  501    0  0.00000000000E+00  0.00000000000E+00  0.23406542823E+04  0.23406542823E+04  0.25500000920E-02 0.  1.
       -2   -1    0    0    0  501  0.00000000000E+00  0.00000000000E+00 -0.10164956352E+04  0.10164956352E+04  0.25500000920E-02 0. -1.
    10030    2    1    2    0    0  0.00000000000E+00  0.00000000000E+00  0.13241586472E+04  0.33571499175E+04  0.30849731677E+04 0.  0.
        5    1    3    3  502    0 -0.14283472779E+04 -0.17990702978E+03  0.59413678976E+02  0.14408659066E+04  0.46999998093E+01 0. -1.
       -5    1    3    3    0  502  0.14283472779E+04  0.17990702978E+03  0.12647449682E+04  0.19162840109E+04  0.46999998093E+01 0.  1.
</event>
<event>
 5   0  0.2621528E-06  0.3203895E+04  0.7818609E-02  0.8187789E-01
        2   -1    0    0  501    0  0.00000000000E+00  0.00000000000E+00  0.23169343130E+04  0.23169343130E+04  0.25500000920E-02 0. -1.
       -2   -1    0    0    0  501  0.00000000000E+00  0.00000000000E+00 -0.11075999414E+04  0.11075999414E+04  0.25500000920E-02 0.  1.
    10030    2    1    2    0    0  0.00000000000E+00  0.00000000000E+00  0.12093343716E+04  0.34245342545E+04  0.32038953225E+04 0.  0.
        2    1    3    3  502    0  0.15807395360E+04  0.20330886266E+03  0.77756043945E+03  0.17733223653E+04  0.25500000920E-02 0.  1.
       -2    1    3    3    0  502 -0.15807395360E+04 -0.20330886266E+03  0.43177393214E+03  0.16512118891E+04  0.25500000920E-02 0. -1.
</event>
<event>
 5   0  0.2404430E-06  0.3195696E+04  0.7818609E-02  0.8189955E-01
        2   -1    0    0  501    0  0.00000000000E+00  0.00000000000E+00  0.22054858315E+04  0.22054858315E+04  0.25500000920E-02 0.  1.
       -2   -1    0    0    0  501  0.00000000000E+00  0.00000000000E+00 -0.11576216577E+04  0.11576216577E+04  0.25500000920E-02 0. -1.
    10030    2    1    2    0    0  0.00000000000E+00  0.00000000000E+00  0.10478641737E+04  0.33631074892E+04  0.31956959582E+04 0.  0.
        4    1    3    3  502    0 -0.55072543255E+03  0.10345161430E+04  0.16669200206E+04  0.20376815551E+04  0.12699999809E+01 0.  1.
       -4    1    3    3    0  502  0.55072543255E+03 -0.10345161430E+04 -0.61905584684E+03  0.13254259341E+04  0.12699999809E+01 0. -1.
</event>
<event>
 5   0  0.2466076E-06  0.3217293E+04  0.7818609E-02  0.8184265E-01
        2   -1    0    0  501    0  0.00000000000E+00  0.00000000000E+00  0.11898103051E+04  0.11898103051E+04  0.25500000920E-02 0. -1.
       -2   -1    0    0    0  501  0.00000000000E+00  0.00000000000E+00 -0.21749207293E+04  0.21749207293E+04  0.25500000920E-02 0.  1.
    10030    2    1    2    0    0  0.00000000000E+00  0.00000000000E+00 -0.98511042419E+03  0.33647310343E+04  0.32172927106E+04 0.  0.
        3    1    3    3  502    0  0.60685704134E+03  0.23590505050E+03  0.10458473177E+04  0.12319591241E+04  0.10100000352E+00 0. -1.
       -3    1    3    3    0  502 -0.60685704134E+03 -0.23590505050E+03 -0.20309577419E+04  0.21327719102E+04  0.10100000352E+00 0.  1.
</event>
<event>
 5   0  0.2401139E-06  0.3266417E+04  0.7818609E-02  0.8171493E-01
        2   -1    0    0  501    0  0.00000000000E+00  0.00000000000E+00  0.17850927760E+04  0.17850927760E+04  0.25500000920E-02 0.  1.
       -2   -1    0    0    0  501  0.00000000000E+00  0.00000000000E+00 -0.14942474578E+04  0.14942474578E+04  0.25500000920E-02 0. -1.
    10030    2    1    2    0    0  0.00000000000E+00  0.00000000000E+00  0.29084531818E+03  0.32793402339E+04  0.32664172070E+04 0.  0.
        5    1    3    3  502    0 -0.15171735038E+04 -0.56482884814E+03  0.36191713993E+03  0.16588710542E+04  0.46999998093E+01 0.  1.
       -5    1    3    3    0  502  0.15171735038E+04  0.56482884814E+03 -0.71071821750E+02  0.16204691797E+04  0.46999998093E+01 0. -1.
</event>
<event>
 5   0  0.2337504E-06  0.3150881E+04  0.7818609E-02  0.8201911E-01
        2   -1    0    0  501    0  0.00000000000E+00  0.00000000000E+00  0.18296081528E+04  0.18296081528E+04  0.25500000920E-02 0. -1.
       -2   -1    0    0    0  501  0.00000000000E+00  0.00000000000E+00 -0.13565816438E+04  0.13565816438E+04  0.25500000920E-02 0.  1.
    10030    2    1    2    0    0  0.00000000000E+00  0.00000000000E+00  0.47302650906E+03  0.31861897966E+04  0.31508810422E+04 0.  0.
        1    1    3    3  502    0 -0.64572905429E+03  0.80759251182E+03  0.14384629851E+04  0.17715381554E+04  0.50400001928E-02 0. -1.
       -1    1    3    3    0  502  0.64572905429E+03 -0.80759251182E+03 -0.96543647602E+03  0.14146516412E+04  0.50400001928E-02 0.  1.
</event>
<event>
 5   0  0.2337504E-06  0.3222403E+04  0.7818609E-02  0.8182926E-01
       -2   -1    0    0    0  501  0.00000000000E+00  0.00000000000E+00  0.15810855600E+04  0.15810855600E+04  0.25500000920E-02 0. -1.
        2   -1    0    0  501    0  0.00000000000E+00  0.00000000000E+00 -0.16418908242E+04  0.16418908242E+04  0.25500000920E-02 0.  1.
    10030    2    1    2    0    0  0.00000000000E+00  0.00000000000E+00 -0.60805264191E+02  0.32229763842E+04  0.32224027515E+04 0.  0.
        1    1    3    3  502    0  0.76827663647E+03  0.79608639498E+03  0.11411159708E+04  0.15893861071E+04  0.50400001928E-02 0. -1.
       -1    1    3    3    0  502 -0.76827663647E+03 -0.79608639498E+03 -0.12019212350E+04  0.16335902772E+04  0.50400001928E-02 0.  1.
</event>
<event>
 5   0  0.8487944E-07  0.2925274E+04  0.7818609E-02  0.8265397E-01
       -1   -1    0    0    0  501  0.00000000000E+00  0.00000000000E+00  0.17721230219E+04  0.17721230219E+04  0.50400001928E-02 0.  1.
        1   -1    0    0  501    0  0.00000000000E+00  0.00000000000E+00 -0.12071996551E+04  0.12071996551E+04  0.50400001928E-02 0. -1.
    10030    2    1    2    0    0  0.00000000000E+00  0.00000000000E+00  0.56492336678E+03  0.29793226770E+04  0.29252735263E+04 0.  0.
        2    1    3    3  502    0  0.72155514146E+03  0.32165686923E+03 -0.97121697802E+03  0.12519454389E+04  0.25500000920E-02 0. -1.
       -2    1    3    3    0  502 -0.72155514146E+03 -0.32165686923E+03  0.15361403448E+04  0.17273772381E+04  0.25500000920E-02 0.  1.
</event>
<event>
 5   0  0.2466076E-06  0.2858168E+04  0.7818609E-02  0.8285434E-01
        2   -1    0    0  501    0  0.00000000000E+00  0.00000000000E+00  0.19471812241E+04  0.19471812241E+04  0.25500000920E-02 0. -1.
       -2   -1    0    0    0  501  0.00000000000E+00  0.00000000000E+00 -0.10488399684E+04  0.10488399684E+04  0.25500000920E-02 0.  1.
    10030    2    1    2    0    0  0.00000000000E+00  0.00000000000E+00  0.89834125572E+03  0.29960211925E+04  0.28581682901E+04 0.  0.
        3    1    3    3  502    0  0.61764664662E+03  0.12654304530E+04  0.70481844944E+03  0.15746652560E+04  0.10100000352E+00 0. -1.
       -3    1    3    3    0  502 -0.61764664662E+03 -0.12654304530E+04  0.19352280628E+03  0.14213559365E+04  0.10100000352E+00 0.  1.
</event>
<event>
 5   0  0.8383008E-07  0.3322553E+04  0.7818609E-02  0.8157180E-01
       -1   -1    0    0    0  501  0.00000000000E+00  0.00000000000E+00  0.14367472098E+04  0.14367472098E+04  0.50400001928E-02 0.  1.
        1   -1    0    0  501    0  0.00000000000E+00  0.00000000000E+00 -0.19208943732E+04  0.19208943732E+04  0.50400001928E-02 0. -1.
    10030    2    1    2    0    0  0.00000000000E+00  0.00000000000E+00 -0.48414716343E+03  0.33576415830E+04  0.33225530130E+04 0.  0.
        4    1    3    3  502    0  0.12431621189E+04 -0.52998755017E+03  0.73430755785E+03  0.15380338292E+04  0.12699999809E+01 0.  1.
       -4    1    3    3    0  502 -0.12431621189E+04  0.52998755017E+03 -0.12184547213E+04  0.18196077539E+04  0.12699999809E+01 0. -1.
</event>
<event>
 5   0  0.8681172E-07  0.3161479E+04  0.7818609E-02  0.8199065E-01
        1   -1    0    0  501    0  0.00000000000E+00  0.00000000000E+00  0.25666343366E+04  0.25666343366E+04  0.50400001928E-02 0. -1.
       -1   -1    0    0    0  501  0.00000000000E+00  0.00000000000E+00 -0.97354610168E+03  0.97354610169E+03  0.50400001928E-02 0.  1.
    10030    2    1    2    0    0  0.00000000000E+00  0.00000000000E+00  0.15930882349E+04  0.35401804383E+04  0.31614786748E+04 0.  0.
        1    1    3    3  502    0  0.31623863649E+03 -0.10511729906E+04  0.20702316399E+04  0.23432521363E+04  0.50400001928E-02 0. -1.
       -1    1    3    3    0  502 -0.31623863649E+03  0.10511729906E+04 -0.47714340494E+03  0.11969283020E+04  0.50400001928E-02 0.  1.
</event>
<event>
 5   0  0.8512855E-07  0.3168228E+04  0.7818609E-02  0.8197259E-01
       -1   -1    0    0    0  501  0.00000000000E+00  0.00000000000E+00  0.14505379932E+04  0.14505379932E+04  0.50400001928E-02 0.  1.
        1   -1    0    0  501    0  0.00000000000E+00  0.00000000000E+00 -0.17299901446E+04  0.17299901446E+04  0.50400001928E-02 0. -1.
    10030    2    1    2    0    0  0.00000000000E+00  0.00000000000E+00 -0.27945215142E+03  0.31805281377E+04  0.31682275376E+04 0.  0.
        5    1    3    3  502    0 -0.15126440678E+04  0.23194585128E+03  0.27113469503E+03  0.15541644271E+04  0.46999998093E+01 0.  1.
       -5    1    3    3    0  502  0.15126440678E+04 -0.23194585128E+03 -0.55058684645E+03  0.16263637106E+04  0.46999998093E+01 0. -1.
</event>
<event>
 5   0  0.2404430E-06  0.3133755E+04  0.7818609E-02  0.8206535E-01
       -2   -1    0    0    0  501  0.00000000000E+00  0.00000000000E+00  0.10682954889E+04  0.10682954889E+04  0.25500000920E-02 0.  1.
        2   -1    0    0  501    0  0.00000000000E+00  0.00000000000E+00 -0.22981513660E+04  0.22981513660E+04  0.25500000920E-02 0. -1.
    10030    2    1    2    0    0  0.00000000000E+00  0.00000000000E+00 -0.12298558772E+04  0.33664468549E+04  0.31337547684E+04 0.  0.
        4    1    3    3  502    0  0.19875628383E+03 -0.14221241322E+04 -0.12885131318E+04  0.19293026749E+04  0.12699999809E+01 0.  1.
       -4    1    3    3    0  502 -0.19875628383E+03  0.14221241322E+04  0.58657254649E+02  0.14371441800E+04  0.12699999809E+01 0. -1.
</event>
<event>
 5   0  0.8487944E-07  0.2902352E+04  0.7818609E-02  0.8272178E-01
       -1   -1    0    0    0  501  0.00000000000E+00  0.00000000000E+00  0.11179506434E+04  0.11179506434E+04  0.50400001928E-02 0. -1.
        1   -1    0    0  501    0  0.00000000000E+00  0.00000000000E+00 -0.18837252544E+04  0.18837252544E+04  0.50400001928E-02 0.  1.
    10030    2    1    2    0    0  0.00000000000E+00  0.00000000000E+00 -0.76577461101E+03  0.30016758978E+04  0.29023520532E+04 0.  0.
        2    1    3    3  502    0 -0.48233904747E+03 -0.79042770342E+03  0.77270691919E+03  0.12060277335E+04  0.25500000920E-02 0. -1.
       -2    1    3    3    0  502  0.48233904747E+03  0.79042770342E+03 -0.15384815302E+04  0.17956481643E+04  0.25500000920E-02 0.  1.
</event>
<event>
 5   0  0.2621528E-06  0.3184678E+04  0.7818609E-02  0.8192876E-01
        2   -1    0    0  501    0  0.00000000000E+00  0.00000000000E+00  0.23078425707E+04  0.23078425707E+04  0.25500000920E-02 0.  1.
       -2   -1    0    0    0  501  0.00000000000E+00  0.00000000000E+00 -0.10986637306E+04  0.10986637306E+04  0.25500000920E-02 0. -1.
    10030    2    1    2    0    0  0.00000000000E+00  0.00000000000E+00  0.12091788400E+04  0.34065063013E+04  0.31846776467E+04 0.  0.
        2    1    3    3  502    0 -0.14705157001E+04 -0.49457048669E+03  0.22111171326E+03  0.15671333001E+04  0.25500000920E-02 0.  1.
       -2    1    3    3    0  502  0.14705157001E+04  0.49457048669E+03  0.98806712676E+03  0.18393730012E+04  0.25500000920E-02 0. -1.
</event>
<event>
 5   0  0.2337504E-06  0.3258661E+04  0.7818609E-02  0.8173495E-01
       -2   -1    0    0    0  501  0.00000000000E+00  0.00000000000E+00  0.19368760514E+04  0.19368760514E+04  0.25500000920E-02 0.  1.
        2   -1    0    0  501    0  0.00000000000E+00  0.00000000000E+00 -0.13706181884E+04  0.13706181884E+04  0.25500000920E-02 0. -1.
    10030    2    1    2    0    0  0.00000000000E+00  0.00000000000E+00  0.56625786308E+03  0.33074942398E+04  0.32586607953E+04 0.  0.
        1    1    3    3  502    0 -0.22346790366E+03  0.59761982754E+03 -0.12385476907E+04  0.13932292505E+04  0.50400001928E-02 0. -1.
       -1    1    3    3    0  502  0.22346790366E+03 -0.59761982754E+03  0.18048055538E+04  0.19142649893E+04  0.50400001928E-02 0.  1.
</event>
<event>
 5   0  0.2401139E-06  0.3186291E+04  0.7818609E-02  0.8192447E-01
       -2   -1    0    0    0  501  0.00000000000E+00  0.00000000000E+00  0.16093643347E+04  0.16093643347E+04  0.25500000920E-02 0.  1.
        2   -1    0    0  501    0  0.00000000000E+00  0.00000000000E+00 -0.15770905940E+04  0.15770905940E+04  0.25500000920E-02 0. -1.
    10030    2    1    2    0    0  0.00000000000E+00  0.00000000000E+00  0.32273740650E+02  0.31864549287E+04  0.31862914836E+04 0.  0.
        5    1    3    3  502    0  0.12867764485E+04 -0.93018087989E+03  0.14676197286E+03  0.15945504897E+04  0.46999998093E+01 0.  1.
       -5    1    3    3    0  502 -0.12867764485E+04  0.93018087989E+03 -0.11448823221E+03  0.15919044390E+04  0.46999998093E+01 0. -1.
</event>
<event>
 5   0  0.8487944E-07  0.3210127E+04  0.7818609E-02  0.8186148E-01
       -1   -1    0    0    0  501  0.00000000000E+00  0.00000000000E+00  0.10512312363E+04  0.10512312363E+04  0.50400001928E-02 0. -1.
        1   -1    0    0  501    0  0.00000000000E+00  0.00000000000E+00 -0.24506779600E+04  0.24506779600E+04  0.50400001928E-02 0.  1.
    10030    2    1    2    0    0  0.00000000000E+00  0.00000000000E+00 -0.13994467237E+04  0.35019091963E+04  0.32101272384E+04 0.  0.
        2    1    3    3  502    0  0.10810094366E+04 -0.84224667973E+03  0.21185459090E+03  0.13866662321E+04  0.25500000920E-02 0. -1.
       -2    1    3    3    0  502 -0.10810094366E+04  0.84224667973E+03 -0.16113013146E+04  0.21152429643E+04  0.25500000920E-02 0.  1.
</event>
<event>
 5   0  0.8383008E-07  0.3187958E+04  0.7818609E-02  0.8192005E-01
        1   -1    0    0  501    0  0.00000000000E+00  0.00000000000E+00  0.17278270591E+04  0.17278270591E+04  0.50400001928E-02 0. -1.
       -1   -1    0    0    0  501  0.00000000000E+00  0.00000000000E+00 -0.14705000002E+04  0.14705000002E+04  0.50400001928E-02 0.  1.
    10030    2    1    2    0    0  0.00000000000E+00  0.00000000000E+00  0.25732705889E+03  0.31983270593E+04  0.31879584004E+04 0.  0.
        4    1    3    3  502    0  0.15946420781E+03  0.92824021592E+03 -0.11614853132E+04  0.14953623232E+04  0.12699999809E+01 0.  1.
       -4    1    3    3    0  502 -0.15946420781E+03 -0.92824021592E+03  0.14188123721E+04  0.17029647360E+04  0.12699999809E+01 0. -1.
</event>
<event>
 5   0  0.2404430E-06  0.3091421E+04  0.7818609E-02  0.8218096E-01
        2   -1    0    0  501    0  0.00000000000E+00  0.00000000000E+00  0.17419668309E+04  0.17419668309E+04  0.25500000920E-02 0. -1.
       -2   -1    0    0    0  501  0.00000000000E+00  0.00000000000E+00 -0.13715647118E+04  0.13715647118E+04  0.25500000920E-02 0.  1.
    10030    2    1    2    0    0  0.00000000000E+00  0.00000000000E+00  0.37040211902E+03  0.31135315427E+04  0.30914205372E+04 0.  0.
        4    1    3    3  502    0 -0.13403393743E+04  0.55908259620E+03  0.71826506684E+03  0.16201818746E+04  0.12699999809E+01 0.  1.
       -4    1    3    3    0  502  0.13403393743E+04 -0.55908259620E+03 -0.34786294782E+03  0.14933496681E+04  0.12699999809E+01 0. -1.
</event>
<event>
 5   0  0.2466076E-06  0.3251066E+04  0.7818609E-02  0.8175460E-01
        2   -1    0    0  501    0  0.00000000000E+00  0.00000000000E+00  0.21150881458E+04  0.21150881458E+04  0.25500000920E-02 0.  1.
       -2   -1    0    0    0  501  0.00000000000E+00  0.00000000000E+00 -0.12492893831E+04  0.12492893831E+04  0.25500000920E-02 0. -1.
    10030    2    1    2    0    0  0.00000000000E+00  0.00000000000E+00  0.86579876277E+03  0.33643775289E+04  0.32510657728E+04 0.  0.
        3    1    3    3  502    0 -0.57820225452E+03  0.34637596865E+03  0.19636656316E+04  0.20761206327E+04  0.10100000352E+00 0.  1.
       -3    1    3    3    0  502  0.57820225452E+03 -0.34637596865E+03 -0.10978668688E+04  0.12882568962E+04  0.10100000352E+00 0. -1.
</event>
<event>
 5   0  0.8681172E-07  0.3202713E+04  0.7818609E-02  0.8188101E-01
       -1   -1    0    0    0  501  0.00000000000E+00  0.00000000000E+00  0.11134507453E+04  0.11134507453E+04  0.50400001928E-02 0. -1.
        1   -1    0    0  501    0  0.00000000000E+00  0.00000000000E+00 -0.23030586524E+04  0.23030586524E+04  0.50400001928E-02 0.  1.
    10030    2    1    2    0    0  0.00000000000E+00  0.00000000000E+00 -0.11896079071E+04  0.34165093976E+04  0.32027128331E+04 0.  0.
        1    1    3    3  502    0  0.15604278759E+04  0.17641852958E+03 -0.26037381314E+03  0.15918081468E+04  0.50400001928E-02 0.  1.
       -1    1    3    3    0  502 -0.15604278759E+04 -0.17641852958E+03 -0.92923409397E+03  0.18247012509E+04  0.50400001928E-02 0. -1.
</event>
<event>
 5   0  0.8545153E-07  0.3243949E+04  0.7818609E-02  0.8177306E-01
        1   -1    0    0  501    0  0.00000000000E+00  0.00000000000E+00  0.99929261022E+03  0.99929261023E+03  0.50400001928E-02 0. -1.
       -1   -1    0    0    0  501  0.00000000000E+00  0.00000000000E+00 -0.26326643938E+04  0.26326643938E+04  0.50400001928E-02 0.  1.
    10030    2    1    2    0    0  0.00000000000E+00  0.00000000000E+00 -0.16333717836E+04  0.36319570041E+04  0.32439494904E+04 0.  0.
        3    1    3    3  502    0  0.10316860415E+04 -0.24672950940E+03  0.55708491261E+03  0.11981632398E+04  0.10100000352E+00 0. -1.
       -3    1    3    3    0  502 -0.10316860415E+04  0.24672950940E+03 -0.21904566962E+04  0.24337937643E+04  0.10100000352E+00 0.  1.
</event>
<event>
 5   0  0.8487944E-07  0.2898348E+04  0.7818609E-02  0.8273369E-01
       -1   -1    0    0    0  501  0.00000000000E+00  0.00000000000E+00  0.11626462762E+04  0.11626462762E+04  0.50400001928E-02 0. -1.
        1   -1    0    0  501    0  0.00000000000E+00  0.00000000000E+00 -0.18063151698E+04  0.18063151698E+04  0.50400001928E-02 0.  1.
    10030    2    1    2    0    0  0.00000000000E+00  0.00000000000E+00 -0.64366889361E+03  0.29689614461E+04  0.28983482233E+04 0.  0.
        2    1    3    3  502    0  0.20342230499E+03 -0.21146782760E+03  0.11318977556E+04  0.11693125353E+04  0.25500000920E-02 0. -1.
       -2    1    3    3    0  502 -0.20342230499E+03  0.21146782760E+03 -0.17755666492E+04  0.17996489107E+04  0.25500000920E-02 0.  1.
</event>
<event>
 5   0  0.8487944E-07  0.3186448E+04  0.7818609E-02  0.8192405E-01
       -1   -1    0    0    0  501  0.00000000000E+00  0.00000000000E+00  0.13527716995E+04  0.13527716995E+04  0.50400001928E-02 0.  1.
        1   -1    0    0  501    0  0.00000000000E+00  0.00000000000E+00 -0.18764161986E+04  0.18764161986E+04  0.50400001928E-02 0. -1.
    10030    2    1    2    0    0  0.00000000000E+00  0.00000000000E+00 -0.52364449913E+03  0.32291878981E+04  0.31864480099E+04 0.  0.
        2    1    3    3  502    0  0.92217001014E+03 -0.12674175980E+04  0.27698046174E+02  0.15676453926E+04  0.25500000920E-02 0. -1.
       -2    1    3    3    0  502 -0.92217001014E+03  0.12674175980E+04 -0.55134254530E+03  0.16615425055E+04  0.25500000920E-02 0.  1.
</event>
<event>
 5   0  0.2401139E-06  0.3252755E+04  0.7818609E-02  0.8175022E-01
       -2   -1    0    0    0  501  0.00000000000E+00  0.00000000000E+00  0.27954709956E+04  0.27954709956E+04  0.25500000920E-02 0.  1.
        2   -1    0    0  501    0  0.00000000000E+00  0.00000000000E+00 -0.94621050926E+03  0.94621050927E+03  0.25500000920E-02 0. -1.
    10030    2    1    2    0    0  0.00000000000E+00  0.00000000000E+00  0.18492604863E+04  0.37416815048E+04  0.32527551610E+04 0.  0.
        5    1    3    3  502    0  0.14954468034E+04 -0.11706079021E+02  0.16599157375E+04  0.22342427173E+04  0.46999998093E+01 0.  1.
       -5    1    3    3    0  502 -0.14954468034E+04  0.11706079021E+02  0.18934474875E+03  0.15074387875E+04  0.46999998093E+01 0. -1.
</event>
<event>
 5   0  0.8512855E-07  0.3264626E+04  0.7818609E-02  0.8171955E-01
       -1   -1    0    0    0  501  0.00000000000E+00  0.00000000000E+00  0.15174339128E+04  0.15174339128E+04  0.50400001928E-02 0. -1.
        1   -1    0    0  501    0  0.00000000000E+00  0.00000000000E+00 -0.17558895552E+04  0.17558895552E+04  0.50400001928E-02 0.  1.
    10030    2    1    2    0    0  0.00000000000E+00  0.00000000000E+00 -0.23845564240E+03  0.32733234680E+04  0.32646263849E+04 0.  0.
        5    1    3    3  502    0  0.49277006188E+03  0.21918741464E+03  0.14255123351E+04  0.15241302320E+04  0.46999998093E+01 0. -1.
       -5    1    3    3    0  502 -0.49277006188E+03 -0.21918741464E+03 -0.16639679775E+04  0.17491932360E+04  0.46999998093E+01 0.  1.
</event>
<event>
 5   0  0.8545153E-07  0.2867696E+04  0.7818609E-02  0.8282554E-01
       -1   -1    0    0    0  501  0.00000000000E+00  0.00000000000E+00  0.16105484410E+04  0.16105484410E+04  0.50400001928E-02 0. -1.
        1   -1    0    0  501    0  0.00000000000E+00  0.00000000000E+00 -0.12765337332E+04  0.12765337332E+04  0.50400001928E-02 0.  1.
    10030    2    1    2    0    0  0.00000000000E+00  0.00000000000E+00  0.33401470787E+03  0.28870821742E+04  0.28676955305E+04 0.  0.
        3    1    3    3  502    0 -0.73920162797E+03  0.11056689360E+04  0.70634961569E+03  0.15059391198E+04  0.10100000352E+00 0. -1.
       -3    1    3    3    0  502  0.73920162797E+03 -0.11056689360E+04 -0.37233490782E+03  0.13811430544E+04  0.10100000352E+00 0.  1.
</event>
<event>
 5   0  0.8512855E-07  0.2846987E+04  0.7818609E-02  0.8288828E-01
        1   -1    0    0  501    0  0.00000000000E+00  0.00000000000E+00  0.13385373504E+04  0.13385373504E+04  0.50400001928E-02 0.  1.
       -1   -1    0    0    0  501  0.00000000000E+00  0.00000000000E+00 -0.15138414179E+04  0.15138414179E+04  0.50400001928E-02 0. -1.
    10030    2    1    2    0    0  0.00000000000E+00  0.00000000000E+00 -0.17530406748E+03  0.28523787683E+04  0.28469866740E+04 0.  0.
        5    1    3    3  502    0  0.24804273575E+02 -0.13855080734E+04 -0.41394248420E+03  0.14462428370E+04  0.46999998093E+01 0. -1.
       -5    1    3    3    0  502 -0.24804273575E+02  0.13855080734E+04  0.23863841672E+03  0.14061359313E+04  0.46999998093E+01 0.  1.
</event>
<event>
 5   0  0.8681172E-07  0.3188948E+04  0.7818609E-02  0.8191742E-01
        1   -1    0    0  501    0  0.00000000000E+00  0.00000000000E+00  0.21040068408E+04  0.21040068408E+04  0.50400001928E-02 0. -1.
       -1   -1    0    0    0  501  0.00000000000E+00  0.00000000000E+00 -0.12083358621E+04  0.12083358621E+04  0.50400001928E-02 0.  1.
    10030    2    1    2    0    0  0.00000000000E+00  0.00000000000E+00  0.89567097875E+03  0.33123427029E+04  0.31889477386E+04 0.  0.
        1    1    3    3  502    0  0.88539348124E+03  0.29909807046E+03 -0.89403796161E+03  0.12933232965E+04  0.50400001928E-02 0.  1.
       -1    1    3    3    0  502 -0.88539348124E+03 -0.29909807046E+03  0.17897089404E+04  0.20190194064E+04  0.50400001928E-02 0. -1.
</event>
<event>
 5   0  0.2621528E-06  0.2853327E+04  0.7818609E-02  0.8286901E-01
       -2   -1    0    0    0  501  0.00000000000E+00  0.00000000000E+00  0.11124980835E+04  0.11124980835E+04  0.25500000920E-02 0.  1.
        2   -1    0    0  501    0  0.00000000000E+00  0.00000000000E+00 -0.18295476273E+04  0.18295476273E+04  0.25500000920E-02 0. -1.
    10030    2    1    2    0    0  0.00000000000E+00  0.00000000000E+00 -0.71704954372E+03  0.29420457108E+04  0.28533266403E+04 0.  0.
        2    1    3    3  502    0  0.29975605433E+03  0.13882989453E+04 -0.21964996922E+03  0.14371756200E+04  0.25500000920E-02 0.  1.
       -2    1    3    3    0  502 -0.29975605433E+03 -0.13882989453E+04 -0.49739957450E+03  0.15048700909E+04  0.25500000920E-02 0. -1.
</event>
<event>
 5   0  0.2337504E-06  0.3195923E+04  0.7818609E-02  0.8189895E-01
        2   -1    0    0  501    0  0.00000000000E+00  0.00000000000E+00  0.20968788309E+04  0.20968788309E+04  0.25500000920E-02 0. -1.
       -2   -1    0    0    0  501  0.00000000000E+00  0.00000000000E+00 -0.12177535476E+04  0.12177535476E+04  0.25500000920E-02 0.  1.
    10030    2    1    2    0    0  0.00000000000E+00  0.00000000000E+00  0.87912528332E+03  0.33146323784E+04  0.31959234253E+04 0.  0.
        1    1    3    3  502    0  0.44670639874E+02  0.11346901965E+04  0.16055837483E+04  0.19665748094E+04  0.50400001928E-02 0. -1.
       -1    1    3    3    0  502 -0.44670639874E+02 -0.11346901965E+04 -0.72645846498E+03  0.13480575691E+04  0.50400001928E-02 0.  1.
</event>
<event>
 5   0  0.7934375E-07  0.3092570E+04  0.7818609E-02  0.8217780E-01
        3   -1    0    0  501    0  0.00000000000E+00  0.00000000000E+00  0.16489616824E+04  0.16489616855E+04  0.10100000352E+00 0. -1.
       -3   -1    0    0    0  501  0.00000000000E+00  0.00000000000E+00 -0.14500018079E+04  0.14500018114E+04  0.10100000352E+00 0.  1.
    10030    2    1    2    0    0  0.00000000000E+00  0.00000000000E+00  0.19895987450E+03  0.30989634969E+04  0.30925700838E+04 0.  0.
        2    1    3    3  502    0 -0.79006387418E+02  0.73783077262E+03 -0.12599237429E+04  0.14622052168E+04  0.25500000920E-02 0.  1.
       -2    1    3    3    0  502  0.79006387418E+02 -0.73783077262E+03  0.14588836173E+04  0.16367582800E+04  0.25500000920E-02 0. -1.
</event>
<event>
 5   0  0.8487944E-07  0.3209609E+04  0.7818609E-02  0.8186284E-01
       -1   -1    0    0    0  501  0.00000000000E+00  0.00000000000E+00  0.16332698388E+04  0.16332698388E+04  0.50400001928E-02 0.  1.
        1   -1    0    0  501    0  0.00000000000E+00  0.00000000000E+00 -0.15768349226E+04  0.15768349226E+04  0.50400001928E-02 0. -1.
    10030    2    1    2    0    0  0.00000000000E+00  0.00000000000E+00  0.56434916159E+02  0.32101047614E+04  0.32096086490E+04 0.  0.
        2    1    3    3  502    0  0.11351112172E+04 -0.98845202938E+03 -0.52853907315E+03  0.15952643799E+04  0.25500000920E-02 0.  1.
       -2    1    3    3    0  502 -0.11351112172E+04  0.98845202938E+03  0.58497398931E+03  0.16148403816E+04  0.25500000920E-02 0. -1.
</event>
<event>
 5   0  0.8545153E-07  0.3405274E+04  0.7818609E-02  0.8136613E-01
        1   -1    0    0  501    0  0.00000000000E+00  0.00000000000E+00  0.17829409003E+04  0.17829409003E+04  0.50400001928E-02 0.  1.
       -1   -1    0    0    0  501  0.00000000000E+00  0.00000000000E+00 -0.16259502527E+04  0.16259502527E+04  0.50400001928E-02 0. -1.
    10030    2    1    2    0    0  0.00000000000E+00  0.00000000000E+00  0.15699064761E+03  0.34088911531E+04  0.34052742665E+04 0.  0.
        3    1    3    3  502    0 -0.10130623759E+04  0.14208402676E+03  0.14410030323E+04  0.17671935371E+04  0.10100000352E+00 0.  1.
       -3    1    3    3    0  502  0.10130623759E+04 -0.14208402676E+03 -0.12840123847E+04  0.16416976160E+04  0.10100000352E+00 0. -1.
</event>
<event>
 5   0  0.2621528E-06  0.3204944E+04  0.7818609E-02  0.8187513E-01
       -2   -1    0    0    0  501  0.00000000000E+00  0.00000000000E+00  0.13828359647E+04  0.13828359647E+04  0.25500000920E-02 0. -1.
        2   -1    0    0  501    0  0.00000000000E+00  0.00000000000E+00 -0.18569926365E+04  0.18569926365E+04  0.25500000920E-02 0.  1.
    10030    2    1    2    0    0  0.00000000000E+00  0.00000000000E+00 -0.47415667174E+03  0.32398286012E+04  0.32049438085E+04 0.  0.
        2    1    3    3  502    0  0.11106558427E+04 -0.11312558754E+04 -0.47333129333E+03  0.16544904865E+04  0.25500000920E-02 0.  1.
       -2    1    3    3    0  502 -0.11106558427E+04  0.11312558754E+04 -0.82537841327E+00  0.15853381147E+04  0.25500000920E-02 0. -1.
</event>
<event>
 5   0  0.2337504E-06  0.3195811E+04  0.7818609E-02  0.8189924E-01
        2   -1    0    0  501    0  0.00000000000E+00  0.00000000000E+00  0.11126587334E+04  0.11126587334E+04  0.25500000920E-02 0. -1.
       -2   -1    0    0    0  501  0.00000000000E+00  0.00000000000E+00 -0.22947747988E+04  0.22947747988E+04  0.25500000920E-02 0.  1.
    10030    2    1    2    0    0  0.00000000000E+00  0.00000000000E+00 -0.11821160654E+04  0.34074335322E+04  0.31958105207E+04 0.  0.
        1    1    3    3  502    0 -0.43136491255E+03 -0.44351500178E+03  0.97976863070E+03  0.11587613276E+04  0.50400001928E-02 0. -1.
       -1    1    3    3    0  502  0.43136491255E+03  0.44351500178E+03 -0.21618846961E+04  0.22486722046E+04  0.50400001928E-02 0.  1.
</event>
<event>
 5   0  0.8681172E-07  0.3147422E+04  0.7818609E-02  0.8202843E-01
       -1   -1    0    0    0  501  0.00000000000E+00  0.00000000000E+00  0.87979861810E+03  0.87979861812E+03  0.50400001928E-02 0.  1.
        1   -1    0    0  501    0  0.00000000000E+00  0.00000000000E+00 -0.28149234504E+04  0.28149234504E+04  0.50400001928E-02 0. -1.
    10030    2    1    2    0    0  0.00000000000E+00  0.00000000000E+00 -0.19351248323E+04  0.36947220686E+04  0.31474216507E+04 0.  0.
        1    1    3    3  502    0  0.12926666916E+04  0.89686631707E+03 -0.10083859886E+04  0.18687425367E+04  0.50400001928E-02 0.  1.
       -1    1    3    3    0  502 -0.12926666916E+04 -0.89686631707E+03 -0.92673884376E+03  0.18259795319E+04  0.50400001928E-02 0. -1.
</event>
<event>
 5   0  0.2621528E-06  0.3196793E+04  0.7818609E-02  0.8189665E-01
       -2   -1    0    0    0  501  0.00000000000E+00  0.00000000000E+00  0.93575260917E+03  0.93575260917E+03  0.25500000920E-02 0.  1.
        2   -1    0    0  501    0  0.00000000000E+00  0.00000000000E+00 -0.27302852919E+04  0.27302852919E+04  0.25500000920E-02 0. -1.
    10030    2    1    2    0    0  0.00000000000E+00  0.00000000000E+00 -0.17945326827E+04  0.36660379011E+04  0.31967931342E+04 0.  0.
        2    1    3    3  502    0  0.47641794111E+03 -0.10272194418E+04 -0.21910106944E+04  0.24663093276E+04  0.25500000920E-02 0. -1.
       -2    1    3    3    0  502 -0.47641794111E+03  0.10272194418E+04  0.39647801169E+03  0.11997285735E+04  0.25500000920E-02 0.  1.
</event>
<event>
 5   0  0.8383008E-07  0.3197730E+04  0.7818609E-02  0.8189417E-01
        1   -1    0    0  501    0  0.00000000000E+00  0.00000000000E+00  0.22310725378E+04  0.22310725378E+04  0.50400001928E-02 0. -1.
       -1   -1    0    0    0  501  0.00000000000E+00  0.00000000000E+00 -0.11458025542E+04  0.11458025542E+04  0.50400001928E-02 0.  1.
    10030    2    1    2    0    0  0.00000000000E+00  0.00000000000E+00  0.10852699836E+04  0.33768750920E+04  0.31977295773E+04 0.  0.
        4    1    3    3  502    0  0.62415530864E+03  0.10641456422E+04  0.16166631606E+04  0.20336118570E+04  0.12699999809E+01 0.  1.
       -4    1    3    3    0  502 -0.62415530864E+03 -0.10641456422E+04 -0.53139317698E+03  0.13432632350E+04  0.12699999809E+01 0. -1.
</event>
<event>
 5   0  0.8545153E-07  0.2960801E+04  0.7818609E-02  0.8255014E-01
        1   -1    0    0  501    0  0.00000000000E+00  0.00000000000E+00  0.17530776696E+04  0.17530776696E+04  0.50400001928E-02 0.  1.
       -1   -1    0    0    0  501  0.00000000000E+00  0.00000000000E+00 -0.12501363783E+04  0.12501363783E+04  0.50400001928E-02 0. -1.
    10030    2    1    2    0    0  0.00000000000E+00  0.00000000000E+00  0.50294129124E+03  0.30032140479E+04  0.29608013569E+04 0.  0.
        3    1    3    3  502    0 -0.13954202121E+04 -0.46636370617E+03  0.85129170755E+02  0.14737502030E+04  0.10100000352E+00 0. -1.
       -3    1    3    3    0  502  0.13954202121E+04  0.46636370617E+03  0.41781212049E+03  0.15294638450E+04  0.10100000352E+00 0.  1.
</event>
<event>
 5   0  0.2401139E-06  0.3213379E+04  0.7818609E-02  0.8185293E-01
        2   -1    0    0  501    0  0.00000000000E+00  0.00000000000E+00  0.14803781200E+04  0.14803781200E+04  0.25500000920E-02 0. -1.
       -2   -1    0    0    0  501  0.00000000000E+00  0.00000000000E+00 -0.17437781571E+04  0.17437781571E+04  0.25500000920E-02 0.  1.
    10030    2    1    2    0    0  0.00000000000E+00  0.00000000000E+00 -0.26340003711E+03  0.32241562771E+04  0.32133789256E+04 0.  0.
        5    1    3    3  502    0  0.13917417772E+04  0.24493449302E+03 -0.89878416128E+03  0.16747456938E+04  0.46999998093E+01 0.  1.
       -5    1    3    3    0  502 -0.13917417772E+04 -0.24493449302E+03  0.63538412417E+03  0.15494105833E+04  0.46999998093E+01 0. -1.
</event>
<event>
 5   0  0.2621528E-06  0.3208064E+04  0.7818609E-02  0.8186691E-01
        2   -1    0    0  501    0  0.00000000000E+00  0.00000000000E+00  0.23464647115E+04  0.23464647115E+04  0.25500000920E-02 0.  1.
       -2   -1    0    0    0  501  0.00000000000E+00  0.00000000000E+00 -0.10965082301E+04  0.10965082301E+04  0.25500000920E-02 0. -1.
    10030    2    1    2    0    0  0.00000000000E+00  0.00000000000E+00  0.12499564814E+04  0.34429729416E+04  0.32080635080E+04 0.  0.
        2    1    3    3  502    0  0.10316457083E+04 -0.10441443247E+04  0.13191709849E+04  0.19735101534E+04  0.25500000920E-02 0.  1.
       -2    1    3    3    0  502 -0.10316457083E+04  0.10441443247E+04 -0.69214503468E+02  0.14694627882E+04  0.25500000920E-02 0. -1.
</event>
<event>
 5   0  0.7934375E-07  0.3233994E+04  0.7818609E-02  0.8179897E-01
       -3   -1    0    0    0  501  0.00000000000E+00  0.00000000000E+00  0.23460997251E+04  0.23460997273E+04  0.10100000352E+00 0.  1.
        3   -1    0    0  501    0  0.00000000000E+00  0.00000000000E+00 -0.11144791113E+04  0.11144791159E+04  0.10100000352E+00 0. -1.
    10030    2    1    2    0    0  0.00000000000E+00  0.00000000000E+00  0.12316206138E+04  0.34605788431E+04  0.32339939074E+04 0.  0.
        5    1    3    3  502    0  0.14074962087E+04 -0.62999856953E+03  0.95190285652E+02  0.15450006652E+04  0.46999998093E+01 0. -1.
       -5    1    3    3    0  502 -0.14074962087E+04  0.62999856953E+03  0.11364303282E+04  0.19155781779E+04  0.46999998093E+01 0.  1.
</event>
<event>
 5   0  0.8512855E-07  0.3191766E+04  0.7818609E-02  0.8190995E-01
       -1   -1    0    0    0  501  0.00000000000E+00  0.00000000000E+00  0.19071888502E+04  0.19071888502E+04  0.50400001928E-02 0.  1.
        1   -1    0    0  501    0  0.00000000000E+00  0.00000000000E+00 -0.13353904785E+04  0.13353904785E+04  0.50400001928E-02 0. -1.
    10030    2    1    2    0    0  0.00000000000E+00  0.00000000000E+00  0.57179837166E+03  0.32425793287E+04  0.31917655498E+04 0.  0.
        5    1    3    3  502    0  0.34090596127E+03 -0.11808788631E+04  0.13200082081E+04  0.18036450657E+04  0.46999998093E+01 0.  1.
       -5    1    3    3    0  502 -0.34090596127E+03  0.11808788631E+04 -0.74820983642E+03  0.14389342630E+04  0.46999998093E+01 0. -1.
</event>
<event>
 5   0  0.8487944E-07  0.3163292E+04  0.7818609E-02  0.8198580E-01
       -1   -1    0    0    0  501  0.00000000000E+00  0.00000000000E+00  0.11529453375E+04  0.11529453375E+04  0.50400001928E-02 0.  1.
        1   -1    0    0  501    0  0.00000000000E+00  0.00000000000E+00 -0.21697501614E+04  0.21697501614E+04  0.50400001928E-02 0. -1.
    10030    2    1    2    0    0  0.00000000000E+00  0.00000000000E+00 -0.10168048239E+04  0.33226954990E+04  0.31632915340E+04 0.  0.
        2    1    3    3  502    0  0.67621227883E+03 -0.14212602561E+04 -0.34446195624E+03  0.16111790096E+04  0.25500000920E-02 0.  1.
       -2    1    3    3    0  502 -0.67621227883E+03  0.14212602561E+04 -0.67234286764E+03  0.17115164894E+04  0.25500000920E-02 0. -1.
</event>
<event>
 5   0  0.8681172E-07  0.3073211E+04  0.7818609E-02  0.8223129E-01
       -1   -1    0    0    0  501  0.00000000000E+00  0.00000000000E+00  0.12418240150E+04  0.12418240150E+04  0.50400001928E-02 0.  1.
        1   -1    0    0  501    0  0.00000000000E+00  0.00000000000E+00 -0.19013617132E+04  0.19013617133E+04  0.50400001928E-02 0. -1.
    10030    2    1    2    0    0  0.00000000000E+00  0.00000000000E+00 -0.65953769824E+03  0.31431857283E+04  0.30732111133E+04 0.  0.
        1    1    3    3  502    0  0.24871500741E+03 -0.21813022816E+03  0.12049701245E+04  0.12495571025E+04  0.50400001928E-02 0.  1.
       -1    1    3    3    0  502 -0.24871500741E+03  0.21813022816E+03 -0.18645078227E+04  0.18936286258E+04  0.50400001928E-02 0. -1.
</event>
<event>
 5   0  0.2621528E-06  0.3199862E+04  0.7818609E-02  0.8188854E-01
       -2   -1    0    0    0  501  0.00000000000E+00  0.00000000000E+00  0.12617935002E+04  0.12617935002E+04  0.25500000920E-02 0. -1.
        2   -1    0    0  501    0  0.00000000000E+00  0.00000000000E+00 -0.20286826285E+04  0.20286826285E+04  0.25500000920E-02 0.  1.
    10030    2    1    2    0    0  0.00000000000E+00  0.00000000000E+00 -0.76688912829E+03  0.32904761286E+04  0.31998615936E+04 0.  0.
        2    1    3    3  502    0  0.86713793492E+03 -0.42029505801E+03 -0.16967975909E+04  0.19513324161E+04  0.25500000920E-02 0.  1.
       -2    1    3    3    0  502 -0.86713793492E+03  0.42029505801E+03  0.92990846257E+03  0.13391437125E+04  0.25500000920E-02 0. -1.
</event>
<event>
 5   0  0.8681172E-07  0.3122549E+04  0.7818609E-02  0.8209577E-01
       -1   -1    0    0    0  501  0.00000000000E+00  0.00000000000E+00  0.12294888959E+04  0.12294888959E+04  0.50400001928E-02 0. -1.
        1   -1    0    0  501    0  0.00000000000E+00  0.00000000000E+00 -0.19825944771E+04  0.19825944771E+04  0.50400001928E-02 0.  1.
    10030    2    1    2    0    0  0.00000000000E+00  0.00000000000E+00 -0.75310558119E+03  0.32120833729E+04  0.31225488912E+04 0.  0.
        1    1    3    3  502    0  0.90986355874E+03 -0.15430068470E+03  0.91888886424E+03  0.13023122289E+04  0.50400001928E-02 0. -1.
       -1    1    3    3    0  502 -0.90986355874E+03  0.15430068470E+03 -0.16719944454E+04  0.19097711440E+04  0.50400001928E-02 0.  1.
</event>
<event>
 5   0  0.2401139E-06  0.3197185E+04  0.7818609E-02  0.8189561E-01
       -2   -1    0    0    0  501  0.00000000000E+00  0.00000000000E+00  0.14896467549E+04  0.14896467549E+04  0.25500000920E-02 0.  1.
        2   -1    0    0  501    0  0.00000000000E+00  0.00000000000E+00 -0.17155060475E+04  0.17155060475E+04  0.25500000920E-02 0. -1.
    10030    2    1    2    0    0  0.00000000000E+00  0.00000000000E+00 -0.22585929259E+03  0.32051528025E+04  0.31971850223E+04 0.  0.
        5    1    3    3  502    0  0.46376471063E+03  0.67339627708E+03  0.12641514504E+04  0.15055368585E+04  0.46999998093E+01 0.  1.
       -5    1    3    3    0  502 -0.46376471063E+03 -0.67339627708E+03 -0.14900107430E+04  0.16996159440E+04  0.46999998093E+01 0. -1.
</event>
<event>
 5   0  0.8545153E-07  0.2980704E+04  0.7818609E-02  0.8249263E-01
        1   -1    0    0  501    0  0.00000000000E+00  0.00000000000E+00  0.15810904346E+04  0.15810904346E+04  0.50400001928E-02 0.  1.
       -1   -1    0    0    0  501  0.00000000000E+00  0.00000000000E+00 -0.14048206985E+04  0.14048206985E+04  0.50400001928E-02 0. -1.
    10030    2    1    2    0    0  0.00000000000E+00  0.00000000000E+00  0.17626973607E+03  0.29859111331E+04  0.29807036544E+04 0.  0.
        3    1    3    3  502    0  0.15988772849E+03 -0.61700015199E+03 -0.12613992366E+04  0.14132874151E+04  0.10100000352E+00 0. -1.
       -3    1    3    3    0  502 -0.15988772849E+03  0.61700015199E+03  0.14376689727E+04  0.15726237180E+04  0.10100000352E+00 0.  1.
</event>
<event>
 5   0  0.7934375E-07  0.3186997E+04  0.7818609E-02  0.8192260E-01
       -3   -1    0    0    0  501  0.00000000000E+00  0.00000000000E+00  0.11696716710E+04  0.11696716753E+04  0.10100000352E+00 0.  1.
        3   -1    0    0  501    0  0.00000000000E+00  0.00000000000E+00 -0.21708973013E+04  0.21708973037E+04  0.10100000352E+00 0. -1.
    10030    2    1    2    0    0  0.00000000000E+00  0.00000000000E+00 -0.10012256304E+04  0.33405689790E+04  0.31869967588E+04 0.  0.
        3    1    3    3  502    0 -0.43924974952E+03 -0.15081923878E+03  0.10971593843E+04  0.11914048472E+04  0.10100000352E+00 0.  1.
       -3    1    3    3    0  502  0.43924974952E+03  0.15081923878E+03 -0.20983850147E+04  0.21491641318E+04  0.10100000352E+00 0. -1.
</event>
<event>
 5   0  0.8512855E-07  0.3223691E+04  0.7818609E-02  0.8182588E-01
        1   -1    0    0  501    0  0.00000000000E+00  0.00000000000E+00  0.16453061978E+04  0.16453061978E+04  0.50400001928E-02 0. -1.
       -1   -1    0    0    0  501  0.00000000000E+00  0.00000000000E+00 -0.15790654513E+04  0.15790654513E+04  0.50400001928E-02 0.  1.
    10030    2    1    2    0    0  0.00000000000E+00  0.00000000000E+00  0.66240746480E+02  0.32243716491E+04  0.32236911600E+04 0.  0.
        5    1    3    3  502    0  0.95031218978E+03 -0.40760350496E+03 -0.12035831892E+04  0.15867792722E+04  0.46999998093E+01 0.  1.
       -5    1    3    3    0  502 -0.95031218978E+03  0.40760350496E+03  0.12698239357E+04  0.16375923769E+04  0.46999998093E+01 0. -1.
</event>
<event>
 5   0  0.2621528E-06  0.3203711E+04  0.7818609E-02  0.8187838E-01
        2   -1    0    0  501    0  0.00000000000E+00  0.00000000000E+00  0.22092371167E+04  0.22092371167E+04  0.25500000920E-02 0. -1.
       -2   -1    0    0    0  501  0.00000000000E+00  0.00000000000E+00 -0.11614601780E+04  0.11614601780E+04  0.25500000920E-02 0.  1.
    10030    2    1    2    0    0  0.00000000000E+00  0.00000000000E+00  0.10477769387E+04  0.33706972947E+04  0.32037109325E+04 0.  0.
        2    1    3    3  502    0  0.73452152638E+03 -0.48580675512E+03  0.19316943689E+04  0.21229633088E+04  0.25500000920E-02 0. -1.
       -2    1    3    3    0  502 -0.73452152638E+03  0.48580675512E+03 -0.88391743019E+03  0.12477339858E+04  0.25500000920E-02 0.  1.
</event>
<event>
 5   0  0.7934375E-07  0.3167415E+04  0.7818609E-02  0.8197476E-01
        3   -1    0    0  501    0  0.00000000000E+00  0.00000000000E+00  0.16941307125E+04  0.16941307156E+04  0.10100000352E+00 0.  1.
       -3   -1    0    0    0  501  0.00000000000E+00  0.00000000000E+00 -0.14804820801E+04  0.14804820836E+04  0.10100000352E+00 0. -1.
    10030    2    1    2    0    0  0.00000000000E+00  0.00000000000E+00  0.21364863241E+03  0.31746127991E+04  0.31674154584E+04 0.  0.
        3    1    3    3  502    0  0.73717138578E+02  0.77878565989E+03  0.14869750610E+04  0.16801893235E+04  0.10100000352E+00 0.  1.
       -3    1    3    3    0  502 -0.73717138578E+02 -0.77878565989E+03 -0.12733264286E+04  0.14944234756E+04  0.10100000352E+00 0. -1.
</event>
<event>
 5   0  0.8681172E-07  0.3215805E+04  0.7818609E-02  0.8184656E-01
        1   -1    0    0  501    0  0.00000000000E+00  0.00000000000E+00  0.19585920869E+04  0.19585920869E+04  0.50400001928E-02 0.  1.
       -1   -1    0    0    0  501  0.00000000000E+00  0.00000000000E+00 -0.13200042110E+04  0.13200042110E+04  0.50400001928E-02 0. -1.
    10030    2    1    2    0    0  0.00000000000E+00  0.00000000000E+00  0.63858787584E+03  0.32785962979E+04  0.32158045976E+04 0.  0.
        1    1    3    3  502    0 -0.13991411673E+04 -0.73155032836E+03  0.90699038785E+01  0.15788743307E+04  0.50400001928E-02 0. -1.
       -1    1    3    3    0  502  0.13991411673E+04  0.73155032836E+03  0.62951797196E+03  0.16997219672E+04  0.50400001928E-02 0.  1.
</event>
<event>
 5   0  0.2621528E-06  0.3205903E+04  0.7818609E-02  0.8187260E-01
        2   -1    0    0  501    0  0.00000000000E+00  0.00000000000E+00  0.22595192852E+04  0.22595192852E+04  0.25500000920E-02 0. -1.
       -2   -1    0    0    0  501  0.00000000000E+00  0.00000000000E+00 -0.11371681622E+04  0.11371681622E+04  0.25500000920E-02 0.  1.
    10030    2    1    2    0    0  0.00000000000E+00  0.00000000000E+00  0.11223511230E+04  0.33966874474E+04  0.32059029261E+04 0.  0.
        2    1    3    3  502    0  0.21001168876E+03  0.13814651428E+04 -0.27099720399E+03  0.14233728727E+04  0.25500000920E-02 0.  1.
       -2    1    3    3    0  502 -0.21001168876E+03 -0.13814651428E+04  0.13933483270E+04  0.19733145747E+04  0.25500000920E-02 0. -1.
</event>
<event>
 5   0  0.8487944E-07  0.3206285E+04  0.7818609E-02  0.8187159E-01
       -1   -1    0    0    0  501  0.00000000000E+00  0.00000000000E+00  0.33480555021E+04  0.33480555021E+04  0.50400001928E-02 0.  1.
        1   -1    0    0  501    0  0.00000000000E+00  0.00000000000E+00 -0.76762917276E+03  0.76762917277E+03  0.50400001928E-02 0. -1.
    10030    2    1    2    0    0  0.00000000000E+00  0.00000000000E+00  0.25804263293E+04  0.41156846749E+04  0.32062845011E+04 0.  0.
        2    1    3    3  502    0 -0.44451360404E+03 -0.15364505332E+04  0.11508195746E+04  0.19704462130E+04  0.25500000920E-02 0. -1.
       -2    1    3    3    0  502  0.44451360404E+03  0.15364505332E+04  0.14296067547E+04  0.21452384618E+04  0.25500000920E-02 0.  1.
</event>
<event>
 5   0  0.8487944E-07  0.3046683E+04  0.7818609E-02  0.8230525E-01
        1   -1    0    0  501    0  0.00000000000E+00  0.00000000000E+00  0.23578322590E+04  0.23578322590E+04  0.50400001928E-02 0. -1.
       -1   -1    0    0    0  501  0.00000000000E+00  0.00000000000E+00 -0.98419593554E+03  0.98419593555E+03  0.50400001928E-02 0.  1.
    10030    2    1    2    0    0  0.00000000000E+00  0.00000000000E+00  0.13736363235E+04  0.33420281946E+04  0.30466827377E+04 0.  0.
        2    1    3    3  502    0  0.59005471009E+03 -0.14044114047E+04  0.68051943301E+03  0.16684252015E+04  0.25500000920E-02 0.  1.
       -2    1    3    3    0  502 -0.59005471009E+03  0.14044114047E+04  0.69311689048E+03  0.16736029930E+04  0.25500000920E-02 0. -1.
</event>
<event>
 5   0  0.8383008E-07  0.3188830E+04  0.7818609E-02  0.8191773E-01
        1   -1    0    0  501    0  0.00000000000E+00  0.00000000000E+00  0.15342473023E+04  0.15342473023E+04  0.50400001928E-02 0. -1.
       -1   -1    0    0    0  501  0.00000000000E+00  0.00000000000E+00 -0.16569424268E+04  0.16569424268E+04  0.50400001928E-02 0.  1.
    10030    2    1    2    0    0  0.00000000000E+00  0.00000000000E+00 -0.12269512448E+03  0.31911897291E+04  0.31888301607E+04 0.  0.
        4    1    3    3  502    0 -0.15206621049E+04  0.47166060436E+03 -0.14673872992E+03  0.15988779912E+04  0.12699999809E+01 0.  1.
       -4    1    3    3    0  502  0.15206621049E+04 -0.47166060436E+03  0.24043605436E+02  0.15923117379E+04  0.12699999809E+01 0. -1.
</event>
<event>
 5   0  0.8383008E-07  0.2866751E+04  0.7818609E-02  0.8282839E-01
       -1   -1    0    0    0  501  0.00000000000E+00  0.00000000000E+00  0.13192660060E+04  0.13192660060E+04  0.50400001928E-02 0. -1.
        1   -1    0    0  501    0  0.00000000000E+00  0.00000000000E+00 -0.15573549794E+04  0.15573549794E+04  0.50400001928E-02 0.  1.
    10030    2    1    2    0    0  0.00000000000E+00  0.00000000000E+00 -0.23808897346E+03  0.28766209854E+04  0.28667511114E+04 0.  0.
        4    1    3    3  502    0  0.83262612928E+03  0.58949376545E+03  0.89129578256E+03  0.13546877705E+04  0.12699999809E+01 0. -1.
       -4    1    3    3    0  502 -0.83262612928E+03 -0.58949376545E+03 -0.11293847560E+04  0.15219332149E+04  0.12699999809E+01 0.  1.
</event>
<event>
 5   0  0.8512855E-07  0.3207742E+04  0.7818609E-02  0.8186775E-01
       -1   -1    0    0    0  501  0.00000000000E+00  0.00000000000E+00  0.15553441677E+04  0.15553441678E+04  0.50400001928E-02 0. -1.
        1   -1    0    0  501    0  0.00000000000E+00  0.00000000000E+00 -0.16539120561E+04  0.16539120561E+04  0.50400001928E-02 0.  1.
    10030    2    1    2    0    0  0.00000000000E+00  0.00000000000E+00 -0.98567888309E+02  0.32092562238E+04  0.32077421781E+04 0.  0.
        5    1    3    3  502    0 -0.45058430526E+03 -0.10926310438E+04 -0.11340058001E+04  0.16379438509E+04  0.46999998093E+01 0.  1.
       -5    1    3    3    0  502  0.45058430526E+03  0.10926310438E+04  0.10354379118E+04  0.15713123729E+04  0.46999998093E+01 0. -1.
</event>
<event>
 5   0  0.8545153E-07  0.3299287E+04  0.7818609E-02  0.8163077E-01
       -1   -1    0    0    0  501  0.00000000000E+00  0.00000000000E+00  0.22583851564E+04  0.22583851564E+04  0.50400001928E-02 0. -1.
        1   -1    0    0  501    0  0.00000000000E+00  0.00000000000E+00 -0.12049862185E+04  0.12049862185E+04  0.50400001928E-02 0.  1.
    10030    2    1    2    0    0  0.00000000000E+00  0.00000000000E+00  0.10533989379E+04  0.34633713749E+04  0.32992865832E+04 0.  0.
        3    1    3    3  502    0  0.15406197157E+03  0.22843188950E+03 -0.11806611174E+04  0.12123848001E+04  0.10100000352E+00 0.  1.
       -3    1    3    3    0  502 -0.15406197157E+03 -0.22843188950E+03  0.22340600552E+04  0.22509865748E+04  0.10100000352E+00 0. -1.
</event>
<event>
 5   0  0.2401139E-06  0.3216201E+04  0.7818609E-02  0.8184552E-01
        2   -1    0    0  501    0  0.00000000000E+00  0.00000000000E+00  0.24372444548E+04  0.24372444548E+04  0.25500000920E-02 0.  1.
       -2   -1    0    0    0  501  0.00000000000E+00  0.00000000000E+00 -0.10610290026E+04  0.10610290026E+04  0.25500000920E-02 0. -1.
    10030    2    1    2    0    0  0.00000000000E+00  0.00000000000E+00  0.13762154522E+04  0.34982734574E+04  0.32162008973E+04 0.  0.
        5    1    3    3  502    0  0.28778233349E+03 -0.18332237461E+03 -0.10211932797E+04  0.10767003153E+04  0.46999998093E+01 0. -1.
       -5    1    3    3    0  502 -0.28778233349E+03  0.18332237461E+03  0.23974087319E+04  0.24215731421E+04  0.46999998093E+01 0.  1.
</event>
<event>
 5   0  0.8512855E-07  0.3189183E+04  0.7818609E-02  0.8191680E-01
       -1   -1    0    0    0  501  0.00000000000E+00  0.00000000000E+00  0.24357128010E+04  0.24357128010E+04  0.50400001928E-02 0.  1.
        1   -1    0    0  501    0  0.00000000000E+00  0.00000000000E+00 -0.10439334679E+04  0.10439334679E+04  0.50400001928E-02 0. -1.
    10030    2    1    2    0    0  0.00000000000E+00  0.00000000000E+00  0.13917793331E+04  0.34796462689E+04  0.31891830371E+04 0.  0.
        5    1    3    3  502    0  0.79683720270E+03  0.73995097067E+03 -0.57661890756E+03  0.12308486589E+04  0.46999998093E+01 0. -1.
       -5    1    3    3    0  502 -0.79683720270E+03 -0.73995097067E+03  0.19683982407E+04  0.22487976100E+04  0.46999998093E+01 0.  1.
</event>
<event>
 5   0  0.2337504E-06  0.3225820E+04  0.7818609E-02  0.8182031E-01
        2   -1    0    0  501    0  0.00000000000E+00  0.00000000000E+00  0.18906462512E+04  0.18906462512E+04  0.25500000920E-02 0.  1.
       -2   -1    0    0    0  501  0.00000000000E+00  0.00000000000E+00 -0.13759728556E+04  0.13759728556E+04  0.25500000920E-02 0. -1.
    10030    2    1    2    0    0  0.00000000000E+00  0.00000000000E+00  0.51467339557E+03  0.32666191069E+04  0.32258195370E+04 0.  0.
        1    1    3    3  502    0 -0.11532449360E+03  0.15975646665E+04  0.65292854778E+02  0.16030520139E+04  0.50400001928E-02 0. -1.
       -1    1    3    3    0  502  0.11532449360E+03 -0.15975646665E+04  0.44938054079E+03  0.16635670930E+04  0.50400001928E-02 0.  1.
</event>
<event>
 5   0  0.8545153E-07  0.3177474E+04  0.7818609E-02  0.8194792E-01
        1   -1    0    0  501    0  0.00000000000E+00  0.00000000000E+00  0.16479580295E+04  0.16479580295E+04  0.50400001928E-02 0. -1.
       -1   -1    0    0    0  501  0.00000000000E+00  0.00000000000E+00 -0.15316445515E+04  0.15316445515E+04  0.50400001928E-02 0.  1.
    10030    2    1    2    0    0  0.00000000000E+00  0.00000000000E+00  0.11631347794E+03  0.31796025810E+04  0.31774744291E+04 0.  0.
        3    1    3    3  502    0 -0.90383236164E+03  0.60728871287E+03  0.12158124701E+04  0.16321496535E+04  0.10100000352E+00 0. -1.
       -3    1    3    3    0  502  0.90383236164E+03 -0.60728871287E+03 -0.10994989922E+04  0.15474529275E+04  0.10100000352E+00 0.  1.
</event>
<event>
 5   0  0.8383008E-07  0.3207199E+04  0.7818609E-02  0.8186919E-01
        1   -1    0    0  501    0  0.00000000000E+00  0.00000000000E+00  0.17078162901E+04  0.17078162901E+04  0.50400001928E-02 0. -1.
       -1   -1    0    0    0  501  0.00000000000E+00  0.00000000000E+00 -0.15057424126E+04  0.15057424126E+04  0.50400001928E-02 0.  1.
    10030    2    1    2    0    0  0.00000000000E+00  0.00000000000E+00  0.20207387745E+03  0.32135587027E+04  0.32071990403E+04 0.  0.
        4    1    3    3  502    0  0.13701082363E+04  0.36747884461E+02 -0.73306966379E+03  0.15543293509E+04  0.12699999809E+01 0.  1.
       -4    1    3    3    0  502 -0.13701082363E+04 -0.36747884461E+02  0.93514354124E+03  0.16592293518E+04  0.12699999809E+01 0. -1.
</event>
<event>
 5   0  0.2337504E-06  0.3049996E+04  0.7818609E-02  0.8229597E-01
       -2   -1    0    0    0  501  0.00000000000E+00  0.00000000000E+00  0.12936289578E+04  0.12936289578E+04  0.25500000920E-02 0.  1.
        2   -1    0    0  501    0  0.00000000000E+00  0.00000000000E+00 -0.17977476843E+04  0.17977476843E+04  0.25500000920E-02 0. -1.
    10030    2    1    2    0    0  0.00000000000E+00  0.00000000000E+00 -0.50411872649E+03  0.30913766421E+04  0.30499957136E+04 0.  0.
        1    1    3    3  502    0  0.33234563648E+03 -0.23746458406E+03 -0.17412710085E+04  0.17885378878E+04  0.50400001928E-02 0. -1.
       -1    1    3    3    0  502 -0.33234563648E+03  0.23746458406E+03  0.12371522821E+04  0.13028387543E+04  0.50400001928E-02 0.  1.
</event>
<event>
 5   0  0.2466076E-06  0.3189484E+04  0.7818609E-02  0.8191600E-01
        2   -1    0    0  501    0  0.00000000000E+00  0.00000000000E+00  0.11991920290E+04  0.11991920290E+04  0.25500000920E-02 0.  1.
       -2   -1    0    0    0  501  0.00000000000E+00  0.00000000000E+00 -0.21207631687E+04  0.21207631687E+04  0.25500000920E-02 0. -1.
    10030    2    1    2    0    0  0.00000000000E+00  0.00000000000E+00 -0.92157113969E+03  0.33199551977E+04  0.31894841509E+04 0.  0.
        3    1    3    3  502    0 -0.30456426756E+03 -0.23871473462E+03  0.11495808080E+04  0.12129633803E+04  0.10100000352E+00 0.  1.
       -3    1    3    3    0  502  0.30456426756E+03  0.23871473462E+03 -0.20711519477E+04  0.21069918174E+04  0.10100000352E+00 0. -1.
</event>
<event>
 5   0  0.2337504E-06  0.3196763E+04  0.7818609E-02  0.8189673E-01
       -2   -1    0    0    0  501  0.00000000000E+00  0.00000000000E+00  0.29122555955E+04  0.29122555955E+04  0.25500000920E-02 0.  1.
        2   -1    0    0  501    0  0.00000000000E+00  0.00000000000E+00 -0.87726629820E+03  0.87726629821E+03  0.25500000920E-02 0. -1.
    10030    2    1    2    0    0  0.00000000000E+00  0.00000000000E+00  0.20349892973E+04  0.37895218937E+04  0.31967631665E+04 0.  0.
        1    1    3    3  502    0  0.15061981949E+04 -0.81814268454E+01  0.16515846578E+04  0.22352699658E+04  0.50400001928E-02 0.  1.
       -1    1    3    3    0  502 -0.15061981949E+04  0.81814268454E+01  0.38340463948E+03  0.15542519279E+04  0.50400001928E-02 0. -1.
</event>
<event>
 5   0  0.2466076E-06  0.3174559E+04  0.7818609E-02  0.8195568E-01
       -2   -1    0    0    0  501  0.00000000000E+00  0.00000000000E+00  0.16788937951E+04  0.16788937951E+04  0.25500000920E-02 0. -1.
        2   -1    0    0  501    0  0.00000000000E+00  0.00000000000E+00 -0.15006647816E+04  0.15006647816E+04  0.25500000920E-02 0.  1.
    10030    2    1    2    0    0  0.00000000000E+00  0.00000000000E+00  0.17822901352E+03  0.31795585767E+04  0.31745593649E+04 0.  0.
        3    1    3    3  502    0 -0.50802099147E+03  0.65487117966E+03  0.14449505320E+04  0.16657801895E+04  0.10100000352E+00 0. -1.
       -3    1    3    3    0  502  0.50802099147E+03 -0.65487117966E+03 -0.12667215185E+04  0.15137783871E+04  0.10100000352E+00 0.  1.
</event>
<event>
 5   0  0.2621528E-06  0.3217706E+04  0.7818609E-02  0.8184157E-01
        2   -1    0    0  501    0  0.00000000000E+00  0.00000000000E+00  0.20974036128E+04  0.20974036128E+04  0.25500000920E-02 0.  1.
       -2   -1    0    0    0  501  0.00000000000E+00  0.00000000000E+00 -0.12341013325E+04  0.12341013325E+04  0.25500000920E-02 0. -1.
    10030    2    1    2    0    0  0.00000000000E+00  0.00000000000E+00  0.86330228033E+03  0.33315049454E+04  0.32177063840E+04 0.  0.
        2    1    3    3  502    0 -0.11479941659E+04  0.26248734484E+03 -0.70330043490E+03  0.13716492674E+04  0.25500000920E-02 0. -1.
       -2    1    3    3    0  502  0.11479941659E+04 -0.26248734484E+03  0.15666027152E+04  0.19598556780E+04  0.25500000920E-02 0.  1.
</event>
<event>
 5   0  0.2337504E-06  0.3207836E+04  0.7818609E-02  0.8186751E-01
       -2   -1    0    0    0  501  0.00000000000E+00  0.00000000000E+00  0.11649702796E+04  0.11649702796E+04  0.25500000920E-02 0.  1.
        2   -1    0    0  501    0  0.00000000000E+00  0.00000000000E+00 -0.22082562274E+04  0.22082562274E+04  0.25500000920E-02 0. -1.
    10030    2    1    2    0    0  0.00000000000E+00  0.00000000000E+00 -0.10432859478E+04  0.33732265071E+04  0.32078359527E+04 0.  0.
        1    1    3    3  502    0 -0.15711294105E+03 -0.92103298347E+03  0.84924653551E+03  0.12626186720E+04  0.50400001928E-02 0.  1.
       -1    1    3    3    0  502  0.15711294105E+03  0.92103298347E+03 -0.18925324833E+04  0.21106078350E+04  0.50400001928E-02 0. -1.
</event>
<event>
 5   0  0.8512855E-07  0.3197062E+04  0.7818609E-02  0.8189594E-01
       -1   -1    0    0    0  501  0.00000000000E+00  0.00000000000E+00  0.14937248782E+04  0.14937248782E+04  0.50400001928E-02 0. -1.
        1   -1    0    0  501    0  0.00000000000E+00  0.00000000000E+00 -0.17106904240E+04  0.17106904240E+04  0.50400001928E-02 0.  1.
    10030    2    1    2    0    0  0.00000000000E+00  0.00000000000E+00 -0.21696554579E+03  0.32044153023E+04  0.31970616793E+04 0.  0.
        5    1    3    3  502    0 -0.21590434245E+03  0.14800156077E+04 -0.67388832013E+03  0.16404903054E+04  0.46999998093E+01 0.  1.
       -5    1    3    3    0  502  0.21590434245E+03 -0.14800156077E+04  0.45692277435E+03  0.15639249969E+04  0.46999998093E+01 0. -1.
</event>
<event>
 5   0  0.8512855E-07  0.3178851E+04  0.7818609E-02  0.8194425E-01
       -1   -1    0    0    0  501  0.00000000000E+00  0.00000000000E+00  0.21911075318E+04  0.21911075318E+04  0.50400001928E-02 0.  1.
        1   -1    0    0  501    0  0.00000000000E+00  0.00000000000E+00 -0.11529663867E+04  0.11529663868E+04  0.50400001928E-02 0. -1.
    10030    2    1    2    0    0  0.00000000000E+00  0.00000000000E+00  0.10381411450E+04  0.33440739185E+04  0.31788509458E+04 0.  0.
        5    1    3    3  502    0  0.36409271223E+03 -0.14542861038E+04 -0.36328428378E+02  0.14996177578E+04  0.46999998093E+01 0. -1.
       -5    1    3    3    0  502 -0.36409271223E+03  0.14542861038E+04  0.10744695734E+04  0.18444561608E+04  0.46999998093E+01 0.  1.
</event>
<event>
 5   0  0.2621528E-06  0.3204333E+04  0.7818609E-02  0.8187674E-01
       -2   -1    0    0    0  501  0.00000000000E+00  0.00000000000E+00  0.15403450382E+04  0.15403450382E+04  0.25500000920E-02 0. -1.
        2   -1    0    0  501    0  0.00000000000E+00  0.00000000000E+00 -0.16664690387E+04  0.16664690387E+04  0.25500000920E-02 0.  1.
    10030    2    1    2    0    0  0.00000000000E+00  0.00000000000E+00 -0.12612400057E+03  0.32068140769E+04  0.32043328885E+04 0.  0.
        2    1    3    3  502    0 -0.13538691338E+04 -0.55044211397E+03  0.59394398956E+03  0.15775669923E+04  0.25500000920E-02 0. -1.
       -2    1    3    3    0  502  0.13538691338E+04  0.55044211397E+03 -0.72006799013E+03  0.16292470846E+04  0.25500000920E-02 0.  1.
</event>
<event>
 5   0  0.8545153E-07  0.3195638E+04  0.7818609E-02  0.8189970E-01
       -1   -1    0    0    0  501  0.00000000000E+00  0.00000000000E+00  0.11198248443E+04  0.11198248443E+04  0.50400001928E-02 0. -1.
        1   -1    0    0  501    0  0.00000000000E+00  0.00000000000E+00 -0.22798439111E+04  0.22798439111E+04  0.50400001928E-02 0.  1.
    10030    2    1    2    0    0  0.00000000000E+00  0.00000000000E+00 -0.11600190667E+04  0.33996687554E+04  0.31956381853E+04 0.  0.
        3    1    3    3  502    0  0.68967085314E+03  0.49373942783E+03 -0.20205698933E+04  0.21913756438E+04  0.10100000352E+00 0.  1.
       -3    1    3    3    0  502 -0.68967085314E+03 -0.49373942783E+03  0.86055082658E+03  0.12082931116E+04  0.10100000352E+00 0. -1.
</event>
<event>
 5   0  0.8512855E-07  0.3172707E+04  0.7818609E-02  0.8196063E-01
       -1   -1    0    0    0  501  0.00000000000E+00  0.00000000000E+00  0.13001961009E+04  0.13001961009E+04  0.50400001928E-02 0. -1.
        1   -1    0    0  501    0  0.00000000000E+00  0.00000000000E+00 -0.19354900696E+04  0.19354900696E+04  0.50400001928E-02 0.  1.
    10030    2    1    2    0    0  0.00000000000E+00  0.00000000000E+00 -0.63529396866E+03  0.32356861705E+04  0.31727065051E+04 0.  0.
        5    1    3    3  502    0  0.15695306272E+04  0.20724325333E+03 -0.42023398392E+03  0.16379849960E+04  0.46999998093E+01 0. -1.
       -5    1    3    3    0  502 -0.15695306272E+04 -0.20724325333E+03 -0.21505998474E+03  0.15977011745E+04  0.46999998093E+01 0.  1.
</event>
<event>
 5   0  0.2401139E-06  0.3241173E+04  0.7818609E-02  0.8178027E-01
       -2   -1    0    0    0  501  0.00000000000E+00  0.00000000000E+00  0.13000289639E+04  0.13000289639E+04  0.25500000920E-02 0. -1.
        2   -1    0    0  501    0  0.00000000000E+00  0.00000000000E+00 -0.20201863393E+04  0.20201863393E+04  0.25500000920E-02 0.  1.
    10030    2    1    2    0    0  0.00000000000E+00  0.00000000000E+00 -0.72015737538E+03  0.33202153033E+04  0.32411730924E+04 0.  0.
        5    1    3    3  502    0  0.13952706446E+03  0.80131313558E+03 -0.17959418124E+04  0.19715475207E+04  0.46999998093E+01 0.  1.
       -5    1    3    3    0  502 -0.13952706446E+03 -0.80131313558E+03  0.10757844370E+04  0.13486677826E+04  0.46999998093E+01 0. -1.
</event>
<event>
 5   0  0.2466076E-06  0.3226874E+04  0.7818609E-02  0.8181756E-01
       -2   -1    0    0    0  501  0.00000000000E+00  0.00000000000E+00  0.16837093418E+04  0.16837093418E+04  0.25500000920E-02 0. -1.
        2   -1    0    0  501    0  0.00000000000E+00  0.00000000000E+00 -0.15460971501E+04  0.15460971502E+04  0.25500000920E-02 0.  1.
    10030    2    1    2    0    0  0.00000000000E+00  0.00000000000E+00  0.13761219169E+03  0.32298064920E+04  0.32268735427E+04 0.  0.
        3    1    3    3  502    0 -0.10561083662E+03  0.10719134753E+04  0.12711581332E+04  0.16661317947E+04  0.10100000352E+00 0. -1.
       -3    1    3    3    0  502  0.10561083662E+03 -0.10719134753E+04 -0.11335459415E+04  0.15636746973E+04  0.10100000352E+00 0.  1.
</event>
<event>
 5   0  0.8512855E-07  0.3195711E+04  0.7818609E-02  0.8189951E-01
        1   -1    0    0  501    0  0.00000000000E+00  0.00000000000E+00  0.19045189174E+04  0.19045189174E+04  0.50400001928E-02 0. -1.
       -1   -1    0    0    0  501  0.00000000000E+00  0.00000000000E+00 -0.13405702908E+04  0.13405702908E+04  0.50400001928E-02 0.  1.
    10030    2    1    2    0    0  0.00000000000E+00  0.00000000000E+00  0.56394862659E+03  0.32450892082E+04  0.31957105494E+04 0.  0.
        5    1    3    3  502    0 -0.52139958296E+03 -0.38502598397E+03 -0.12010775795E+04  0.13648120659E+04  0.46999998093E+01 0.  1.
       -5    1    3    3    0  502  0.52139958296E+03  0.38502598397E+03  0.17650262061E+04  0.18802771422E+04  0.46999998093E+01 0. -1.
</event>
<event>
 5   0  0.2621528E-06  0.3215771E+04  0.7818609E-02  0.8184664E-01
        2   -1    0    0  501    0  0.00000000000E+00  0.00000000000E+00  0.27883251601E+04  0.27883251601E+04  0.25500000920E-02 0. -1.
       -2   -1    0    0    0  501  0.00000000000E+00  0.00000000000E+00 -0.92718596340E+03  0.92718596341E+03  0.25500000920E-02 0.  1.
    10030    2    1    2    0    0  0.00000000000E+00  0.00000000000E+00  0.18611391967E+04  0.37155111235E+04  0.32157711050E+04 0.  0.
        2    1    3    3  502    0 -0.10973050992E+04  0.51875998231E+02  0.22871357395E+04  0.25372740276E+04  0.25500000920E-02 0. -1.
       -2    1    3    3    0  502  0.10973050992E+04 -0.51875998231E+02 -0.42599654281E+03  0.11782370960E+04  0.25500000920E-02 0.  1.
</event>
<event>
 5   0  0.8681172E-07  0.3199224E+04  0.7818609E-02  0.8189022E-01
        1   -1    0    0  501    0  0.00000000000E+00  0.00000000000E+00  0.18514521102E+04  0.18514521102E+04  0.50400001928E-02 0.  1.
       -1   -1    0    0    0  501  0.00000000000E+00  0.00000000000E+00 -0.13820275280E+04  0.13820275280E+04  0.50400001928E-02 0. -1.
    10030    2    1    2    0    0  0.00000000000E+00  0.00000000000E+00  0.46942458221E+03  0.32334796383E+04  0.31992235203E+04 0.  0.
        1    1    3    3  502    0 -0.10064471923E+04 -0.18151147310E+03  0.14778725823E+04  0.17972172198E+04  0.50400001928E-02 0.  1.
       -1    1    3    3    0  502  0.10064471923E+04  0.18151147310E+03 -0.10084480001E+04  0.14362624184E+04  0.50400001928E-02 0. -1.
</event>
<event>
 5   0  0.2466076E-06  0.3208196E+04  0.7818609E-02  0.8186656E-01
        2   -1    0    0  501    0  0.00000000000E+00  0.00000000000E+00  0.13799933361E+04  0.13799933361E+04  0.25500000920E-02 0.  1.
       -2   -1    0    0    0  501  0.00000000000E+00  0.00000000000E+00 -0.18645965840E+04  0.18645965840E+04  0.25500000920E-02 0. -1.
    10030    2    1    2    0    0  0.00000000000E+00  0.00000000000E+00 -0.48460324790E+03  0.32445899201E+04  0.32081962910E+04 0.  0.
        3    1    3    3  502    0  0.88813368549E+03  0.97847280122E+02  0.11050178040E+04  0.14210629440E+04  0.10100000352E+00 0.  1.
       -3    1    3    3    0  502 -0.88813368549E+03 -0.97847280122E+02 -0.15896210519E+04  0.18235269760E+04  0.10100000352E+00 0. -1.
</event>
<event>
 5   0  0.8487944E-07  0.3205181E+04  0.7818609E-02  0.8187450E-01
       -1   -1    0    0    0  501  0.00000000000E+00  0.00000000000E+00  0.19805833657E+04  0.19805833657E+04  0.50400001928E-02 0.  1.
        1   -1    0    0  501    0  0.00000000000E+00  0.00000000000E+00 -0.12967376115E+04  0.12967376115E+04  0.50400001928E-02 0. -1.
    10030    2    1    2    0    0  0.00000000000E+00  0.00000000000E+00  0.68384575413E+03  0.32773209772E+04  0.32051813946E+04 0.  0.
        2    1    3    3  502    0 -0.92412018825E+01 -0.15731707971E+04  0.29521939775E+02  0.15734749129E+04  0.25500000920E-02 0. -1.
       -2    1    3    3    0  502  0.92412018825E+01  0.15731707971E+04  0.65432381435E+03  0.17038460643E+04  0.25500000920E-02 0.  1.
</event>
<event>
 5   0  0.8545153E-07  0.3184938E+04  0.7818609E-02  0.8192806E-01
       -1   -1    0    0    0  501  0.00000000000E+00  0.00000000000E+00  0.20758607659E+04  0.20758607659E+04  0.50400001928E-02 0. -1.
        1   -1    0    0  501    0  0.00000000000E+00  0.00000000000E+00 -0.12216412089E+04  0.12216412089E+04  0.50400001928E-02 0.  1.
    10030    2    1    2    0    0  0.00000000000E+00  0.00000000000E+00  0.85421955703E+03  0.32975019748E+04  0.31849377109E+04 0.  0.
        3    1    3    3  502    0 -0.31138324258E+02 -0.57048750191E+03  0.19660941730E+04  0.20474256744E+04  0.10100000352E+00 0. -1.
       -3    1    3    3    0  502  0.31138324258E+02  0.57048750191E+03 -0.11118746159E+04  0.12500763004E+04  0.10100000352E+00 0.  1.
</event>
<event>
 5   0  0.8512855E-07  0.3168787E+04  0.7818609E-02  0.8197109E-01
        1   -1    0    0  501    0  0.00000000000E+00  0.00000000000E+00  0.26274292838E+04  0.26274292839E+04  0.50400001928E-02 0.  1.
       -1   -1    0    0    0  501  0.00000000000E+00  0.00000000000E+00 -0.95542188825E+03  0.95542188826E+03  0.50400001928E-02 0. -1.
    10030    2    1    2    0    0  0.00000000000E+00  0.00000000000E+00  0.16720073956E+04  0.35828511721E+04  0.31687874322E+04 0.  0.
        5    1    3    3  502    0 -0.10950576382E+03  0.26141963199E+03 -0.92651728648E+03  0.96891078457E+03  0.46999998093E+01 0. -1.
       -5    1    3    3    0  502  0.10950576382E+03 -0.26141963199E+03  0.25985246821E+04  0.26139403875E+04  0.46999998093E+01 0.  1.
</event>
<event>
 5   0  0.8487944E-07  0.3231588E+04  0.7818609E-02  0.8180524E-01
        1   -1    0    0  501    0  0.00000000000E+00  0.00000000000E+00  0.22622032715E+04  0.22622032715E+04  0.50400001928E-02 0. -1.
       -1   -1    0    0    0  501  0.00000000000E+00  0.00000000000E+00 -0.11540917444E+04  0.11540917445E+04  0.50400001928E-02 0.  1.
    10030    2    1    2    0    0  0.00000000000E+00  0.00000000000E+00  0.11081115271E+04  0.34162950160E+04  0.32315879192E+04 0.  0.
        2    1    3    3  502    0 -0.90575685218E+03  0.12697845162E+04  0.10001232146E+04  0.18528342174E+04  0.25500000920E-02 0. -1.
       -2    1    3    3    0  502  0.90575685218E+03 -0.12697845162E+04  0.10798831252E+03  0.15634607986E+04  0.25500000920E-02 0.  1.
</event>
<event>
 5   0  0.2404430E-06  0.3221039E+04  0.7818609E-02  0.8183283E-01
        2   -1    0    0  501    0  0.00000000000E+00  0.00000000000E+00  0.20014547776E+04  0.20014547776E+04  0.25500000920E-02 0.  1.
       -2   -1    0    0    0  501  0.00000000000E+00  0.00000000000E+00 -0.12959435827E+04  0.12959435827E+04  0.25500000920E-02 0. -1.
    10030    2    1    2    0    0  0.00000000000E+00  0.00000000000E+00  0.70551119483E+03  0.32973983603E+04  0.32210386369E+04 0.  0.
        4    1    3    3  502    0  0.25700217292E+03 -0.10598448501E+04  0.15659448904E+04  0.19082731030E+04  0.12699999809E+01 0.  1.
       -4    1    3    3    0  502 -0.25700217292E+03  0.10598448501E+04 -0.86043369556E+03  0.13891252573E+04  0.12699999809E+01 0. -1.
</event>
<event>
 5   0  0.8383008E-07  0.2577088E+04  0.7818609E-02  0.8376026E-01
       -1   -1    0    0    0  501  0.00000000000E+00  0.00000000000E+00  0.14679128212E+04  0.14679128213E+04  0.50400001928E-02 0. -1.
        1   -1    0    0  501    0  0.00000000000E+00  0.00000000000E+00 -0.11310926289E+04  0.11310926289E+04  0.50400001928E-02 0.  1.
    10030    2    1    2    0    0  0.00000000000E+00  0.00000000000E+00  0.33682019232E+03  0.25990054502E+04  0.25770877921E+04 0.  0.
        4    1    3    3  502    0  0.40249219988E+03  0.79114682531E+03  0.11103938091E+04  0.14215798586E+04  0.12699999809E+01 0.  1.
       -4    1    3    3    0  502 -0.40249219988E+03 -0.79114682531E+03 -0.77357361682E+03  0.11774255916E+04  0.12699999809E+01 0. -1.
</event>
<event>
 5   0  0.8512855E-07  0.3234473E+04  0.7818609E-02  0.8179772E-01
       -1   -1    0    0    0  501  0.00000000000E+00  0.00000000000E+00  0.15376462568E+04  0.15376462568E+04  0.50400001928E-02 0.  1.
        1   -1    0    0  501    0  0.00000000000E+00  0.00000000000E+00 -0.17009463302E+04  0.17009463302E+04  0.50400001928E-02 0. -1.
    10030    2    1    2    0    0  0.00000000000E+00  0.00000000000E+00 -0.16330007348E+03  0.32385925870E+04  0.32344729139E+04 0.  0.
        5    1    3    3  502    0  0.88569111741E+03  0.11035272407E+04 -0.86572503329E+03  0.16588318328E+04  0.46999998093E+01 0. -1.
       -5    1    3    3    0  502 -0.88569111741E+03 -0.11035272407E+04  0.70242495982E+03  0.15797607542E+04  0.46999998093E+01 0.  1.
</event>
<event>
 5   0  0.8487944E-07  0.3231228E+04  0.7818609E-02  0.8180618E-01
       -1   -1    0    0    0  501  0.00000000000E+00  0.00000000000E+00  0.13247744639E+04  0.13247744639E+04  0.50400001928E-02 0.  1.
        1   -1    0    0  501    0  0.00000000000E+00  0.00000000000E+00 -0.19703037133E+04  0.19703037133E+04  0.50400001928E-02 0. -1.
    10030    2    1    2    0    0  0.00000000000E+00  0.00000000000E+00 -0.64552924940E+03  0.32950781772E+04  0.32312276586E+04 0.  0.
        2    1    3    3  502    0  0.38456657643E+03  0.11070239580E+04  0.81133304504E+03  0.14253612894E+04  0.25500000920E-02 0.  1.
       -2    1    3    3    0  502 -0.38456657643E+03 -0.11070239580E+04 -0.14568622944E+04  0.18697168878E+04  0.25500000920E-02 0. -1.
</event>
<event>
 5   0  0.2337504E-06  0.3206531E+04  0.7818609E-02  0.8187095E-01
       -2   -1    0    0    0  501  0.00000000000E+00  0.00000000000E+00  0.11351473804E+04  0.11351473804E+04  0.25500000920E-02 0.  1.
        2   -1    0    0  501    0  0.00000000000E+00  0.00000000000E+00 -0.22644282000E+04  0.22644282000E+04  0.25500000920E-02 0. -1.
    10030    2    1    2    0    0  0.00000000000E+00  0.00000000000E+00 -0.11292808196E+04  0.33995755803E+04  0.32065306730E+04 0.  0.
        1    1    3    3  502    0 -0.31785088319E+03  0.11503265099E+04 -0.16996920382E+04  0.20768325132E+04  0.50400001928E-02 0. -1.
       -1    1    3    3    0  502  0.31785088319E+03 -0.11503265099E+04  0.57041121863E+03  0.13227430671E+04  0.50400001928E-02 0.  1.
</event>
<event>
 5   0  0.2466076E-06  0.3198683E+04  0.7818609E-02  0.8189165E-01
       -2   -1    0    0    0  501  0.00000000000E+00  0.00000000000E+00  0.10625026428E+04  0.10625026428E+04  0.25500000920E-02 0.  1.
        2   -1    0    0  501    0  0.00000000000E+00  0.00000000000E+00 -0.24074233969E+04  0.24074233969E+04  0.25500000920E-02 0. -1.
    10030    2    1    2    0    0  0.00000000000E+00  0.00000000000E+00 -0.13449207541E+04  0.34699260398E+04  0.31986833052E+04 0.  0.
        3    1    3    3  502    0 -0.93511377169E+03  0.10613831680E+04 -0.14820148017E+04  0.20487410471E+04  0.10100000352E+00 0. -1.
       -3    1    3    3    0  502  0.93511377169E+03 -0.10613831680E+04  0.13709404760E+03  0.14211849927E+04  0.10100000352E+00 0.  1.
</event>
<event>
 5   0  0.2466076E-06  0.3178046E+04  0.7818609E-02  0.8194639E-01
       -2   -1    0    0    0  501  0.00000000000E+00  0.00000000000E+00  0.17626996463E+04  0.17626996463E+04  0.25500000920E-02 0.  1.
        2   -1    0    0  501    0  0.00000000000E+00  0.00000000000E+00 -0.14324581626E+04  0.14324581626E+04  0.25500000920E-02 0. -1.
    10030    2    1    2    0    0  0.00000000000E+00  0.00000000000E+00  0.33024148366E+03  0.31951578089E+04  0.31780456237E+04 0.  0.
        3    1    3    3  502    0  0.81820111302E+03 -0.69023947472E+03  0.13457991528E+04  0.17196101196E+04  0.10100000352E+00 0.  1.
       -3    1    3    3    0  502 -0.81820111302E+03  0.69023947472E+03 -0.10155576691E+04  0.14755476893E+04  0.10100000352E+00 0. -1.
</event>
<event>
 5   0  0.8383008E-07  0.3171190E+04  0.7818609E-02  0.8196468E-01
        1   -1    0    0  501    0  0.00000000000E+00  0.00000000000E+00  0.34489719568E+04  0.34489719568E+04  0.50400001928E-02 0.  1.
       -1   -1    0    0    0  501  0.00000000000E+00  0.00000000000E+00 -0.72894506237E+03  0.72894506239E+03  0.50400001928E-02 0. -1.
    10030    2    1    2    0    0  0.00000000000E+00  0.00000000000E+00  0.27200268944E+04  0.41779170192E+04  0.31711897315E+04 0.  0.
        4    1    3    3  502    0  0.20586733150E+03 -0.14709059695E+04  0.62865825566E+03  0.16128107591E+04  0.12699999809E+01 0.  1.
       -4    1    3    3    0  502 -0.20586733150E+03  0.14709059695E+04  0.20913686388E+04  0.25651062601E+04  0.12699999809E+01 0. -1.
</event>
<event>
 5   0  0.2337504E-06  0.3131563E+04  0.7818609E-02  0.8207129E-01
        2   -1    0    0  501    0  0.00000000000E+00  0.00000000000E+00  0.17588177257E+04  0.17588177257E+04  0.25500000920E-02 0.  1.
       -2   -1    0    0    0  501  0.00000000000E+00  0.00000000000E+00 -0.13939316773E+04  0.13939316773E+04  0.25500000920E-02 0. -1.
    10030    2    1    2    0    0  0.00000000000E+00  0.00000000000E+00  0.36488604841E+03  0.31527494030E+04  0.31315630235E+04 0.  0.
        1    1    3    3  502    0  0.14604342033E+04  0.20517959100E+03  0.71202940918E+03  0.16376668179E+04  0.50400001928E-02 0.  1.
       -1    1    3    3    0  502 -0.14604342033E+04 -0.20517959100E+03 -0.34714336078E+03  0.15150825851E+04  0.50400001928E-02 0. -1.
</event>
<event>
 5   0  0.8487944E-07  0.3194470E+04  0.7818609E-02  0.8190279E-01
        1   -1    0    0  501    0  0.00000000000E+00  0.00000000000E+00  0.17071212847E+04  0.17071212847E+04  0.50400001928E-02 0. -1.
       -1   -1    0    0    0  501  0.00000000000E+00  0.00000000000E+00 -0.14944222168E+04  0.14944222168E+04  0.50400001928E-02 0.  1.
    10030    2    1    2    0    0  0.00000000000E+00  0.00000000000E+00  0.21269906785E+03  0.32015435015E+04  0.31944702062E+04 0.  0.
        2    1    3    3  502    0 -0.81956890183E+03  0.25623248375E+01 -0.12676201009E+04  0.15094901360E+04  0.25500000920E-02 0.  1.
       -2    1    3    3    0  502  0.81956890183E+03 -0.25623248375E+01  0.14803191688E+04  0.16920533655E+04  0.25500000920E-02 0. -1.
</event>
<event>
 5   0  0.8681172E-07  0.3177783E+04  0.7818609E-02  0.8194709E-01
       -1   -1    0    0    0  501  0.00000000000E+00  0.00000000000E+00  0.19018678843E+04  0.19018678843E+04  0.50400001928E-02 0. -1.
        1   -1    0    0  501    0  0.00000000000E+00  0.00000000000E+00 -0.13274194605E+04  0.13274194605E+04  0.50400001928E-02 0.  1.
    10030    2    1    2    0    0  0.00000000000E+00  0.00000000000E+00  0.57444842385E+03  0.32292873448E+04  0.31777831524E+04 0.  0.
        1    1    3    3  502    0  0.11333391230E+04 -0.78473947518E+03  0.10901586476E+04  0.17574753166E+04  0.50400001928E-02 0. -1.
       -1    1    3    3    0  502 -0.11333391230E+04  0.78473947518E+03 -0.51571022372E+03  0.14718120282E+04  0.50400001928E-02 0.  1.
</event>
<event>
 5   0  0.8512855E-07  0.3182939E+04  0.7818609E-02  0.8193338E-01
        1   -1    0    0  501    0  0.00000000000E+00  0.00000000000E+00  0.14744106408E+04  0.14744106408E+04  0.50400001928E-02 0. -1.
       -1   -1    0    0    0  501  0.00000000000E+00  0.00000000000E+00 -0.17178217361E+04  0.17178217361E+04  0.50400001928E-02 0.  1.
    10030    2    1    2    0    0  0.00000000000E+00  0.00000000000E+00 -0.24341109530E+03  0.31922323768E+04  0.31829386715E+04 0.  0.
        5    1    3    3  502    0  0.91994788395E+03  0.12102080056E+04  0.35067399325E+03  0.15600967488E+04  0.46999998093E+01 0. -1.
       -5    1    3    3    0  502 -0.91994788395E+03 -0.12102080056E+04 -0.59408508856E+03  0.16321356281E+04  0.46999998093E+01 0.  1.
</event>
<event>
 5   0  0.2621528E-06  0.3183814E+04  0.7818609E-02  0.8193105E-01
        2   -1    0    0  501    0  0.00000000000E+00  0.00000000000E+00  0.15050763828E+04  0.15050763828E+04  0.25500000920E-02 0.  1.
       -2   -1    0    0    0  501  0.00000000000E+00  0.00000000000E+00 -0.16837473258E+04  0.16837473258E+04  0.25500000920E-02 0. -1.
    10030    2    1    2    0    0  0.00000000000E+00  0.00000000000E+00 -0.17867094303E+03  0.31888237086E+04  0.31838142752E+04 0.  0.
        2    1    3    3  502    0  0.12481395593E+04 -0.95185207380E+03  0.17621109608E+03  0.15795331843E+04  0.25500000920E-02 0.  1.
       -2    1    3    3    0  502 -0.12481395593E+04  0.95185207380E+03 -0.35488203911E+03  0.16092905243E+04  0.25500000920E-02 0. -1.
</event>
<event>
 5   0  0.2337504E-06  0.3205931E+04  0.7818609E-02  0.8187252E-01
       -2   -1    0    0    0  501  0.00000000000E+00  0.00000000000E+00  0.12614001781E+04  0.12614001781E+04  0.25500000920E-02 0. -1.
        2   -1    0    0  501    0  0.00000000000E+00  0.00000000000E+00 -0.20370211700E+04  0.20370211700E+04  0.25500000920E-02 0.  1.
    10030    2    1    2    0    0  0.00000000000E+00  0.00000000000E+00 -0.77562099188E+03  0.32984213482E+04  0.32059312948E+04 0.  0.
        1    1    3    3  502    0  0.99693275879E+03 -0.11377372797E+03  0.89832545006E+03  0.13467768935E+04  0.50400001928E-02 0. -1.
       -1    1    3    3    0  502 -0.99693275879E+03  0.11377372797E+03 -0.16739464419E+04  0.19516444546E+04  0.50400001928E-02 0.  1.
</event>
<event>
 5   0  0.2401139E-06  0.3170921E+04  0.7818609E-02  0.8196539E-01
        2   -1    0    0  501    0  0.00000000000E+00  0.00000000000E+00  0.15990836354E+04  0.15990836354E+04  0.25500000920E-02 0.  1.
       -2   -1    0    0    0  501  0.00000000000E+00  0.00000000000E+00 -0.15719533311E+04  0.15719533311E+04  0.25500000920E-02 0. -1.
    10030    2    1    2    0    0  0.00000000000E+00  0.00000000000E+00  0.27130304280E+02  0.31710369666E+04  0.31709209057E+04 0.  0.
        5    1    3    3  502    0  0.96739446556E+03 -0.28286275283E+03  0.12374560845E+04  0.15959896742E+04  0.46999998093E+01 0.  1.
       -5    1    3    3    0  502 -0.96739446556E+03  0.28286275283E+03 -0.12103257803E+04  0.15750472924E+04  0.46999998093E+01 0. -1.
</event>
<event>
 5   0  0.8487944E-07  0.3256968E+04  0.7818609E-02  0.8173932E-01
        1   -1    0    0  501    0  0.00000000000E+00  0.00000000000E+00  0.17414558597E+04  0.17414558597E+04  0.50400001928E-02 0. -1.
       -1   -1    0    0    0  501  0.00000000000E+00  0.00000000000E+00 -0.15228408301E+04  0.15228408301E+04  0.50400001928E-02 0.  1.
    10030    2    1    2    0    0  0.00000000000E+00  0.00000000000E+00  0.21861502958E+03  0.32642966898E+04  0.32569679685E+04 0.  0.
        2    1    3    3  502    0  0.58179860665E+03 -0.21478765347E+03  0.16184635651E+04  0.17332188743E+04  0.25500000920E-02 0. -1.
       -2    1    3    3    0  502 -0.58179860665E+03  0.21478765347E+03 -0.13998485355E+04  0.15310778155E+04  0.25500000920E-02 0.  1.
</event>
<event>
 5   0  0.2404430E-06  0.3235916E+04  0.7818609E-02  0.8179396E-01
       -2   -1    0    0    0  501  0.00000000000E+00  0.00000000000E+00  0.91170494387E+03  0.91170494388E+03  0.25500000920E-02 0.  1.
        2   -1    0    0  501    0  0.00000000000E+00  0.00000000000E+00 -0.28713097397E+04  0.28713097397E+04  0.25500000920E-02 0. -1.
    10030    2    1    2    0    0  0.00000000000E+00  0.00000000000E+00 -0.19596047958E+04  0.37830146836E+04  0.32359155027E+04 0.  0.
        4    1    3    3  502    0 -0.49784698442E+03 -0.65396852704E+03 -0.26090776093E+04  0.27354732750E+04  0.12699999809E+01 0. -1.
       -4    1    3    3    0  502  0.49784698442E+03  0.65396852704E+03  0.64947281347E+03  0.10475414085E+04  0.12699999809E+01 0.  1.
</event>
<event>
 5   0  0.2337504E-06  0.3272300E+04  0.7818609E-02  0.8169980E-01
        2   -1    0    0  501    0  0.00000000000E+00  0.00000000000E+00  0.23145438835E+04  0.23145438835E+04  0.25500000920E-02 0. -1.
       -2   -1    0    0    0  501  0.00000000000E+00  0.00000000000E+00 -0.11565935627E+04  0.11565935627E+04  0.25500000920E-02 0.  1.
    10030    2    1    2    0    0  0.00000000000E+00  0.00000000000E+00  0.11579503208E+04  0.34711374463E+04  0.32722998373E+04 0.  0.
        1    1    3    3  502    0 -0.43865327877E+02 -0.34574481975E+03 -0.11167622804E+04  0.11698810360E+04  0.50400001928E-02 0.  1.
       -1    1    3    3    0  502  0.43865327877E+02  0.34574481975E+03  0.22747126012E+04  0.23012564102E+04  0.50400001928E-02 0. -1.
</event>
<event>
 5   0  0.8681172E-07  0.3200993E+04  0.7818609E-02  0.8188555E-01
       -1   -1    0    0    0  501  0.00000000000E+00  0.00000000000E+00  0.99573598233E+03  0.99573598234E+03  0.50400001928E-02 0. -1.
        1   -1    0    0  501    0  0.00000000000E+00  0.00000000000E+00 -0.25725588773E+04  0.25725588773E+04  0.50400001928E-02 0.  1.
    10030    2    1    2    0    0  0.00000000000E+00  0.00000000000E+00 -0.15768228950E+04  0.35682948597E+04  0.32009932464E+04 0.  0.
        1    1    3    3  502    0 -0.87619395687E+03 -0.96593558028E+03 -0.18226904594E+04  0.22411934112E+04  0.50400001928E-02 0.  1.
       -1    1    3    3    0  502  0.87619395687E+03  0.96593558028E+03  0.24586756447E+03  0.13271014485E+04  0.50400001928E-02 0. -1.
</event>
<event>
 5   0  0.8512855E-07  0.3185335E+04  0.7818609E-02  0.8192701E-01
        1   -1    0    0  501    0  0.00000000000E+00  0.00000000000E+00  0.13929271910E+04  0.13929271910E+04  0.50400001928E-02 0.  1.
       -1   -1    0    0    0  501  0.00000000000E+00  0.00000000000E+00 -0.18210492534E+04  0.18210492534E+04  0.50400001928E-02 0. -1.
    10030    2    1    2    0    0  0.00000000000E+00  0.00000000000E+00 -0.42812206246E+03  0.32139764444E+04  0.31853345327E+04 0.  0.
        5    1    3    3  502    0  0.14572029836E+04 -0.63656342781E+03 -0.30381820071E+03  0.16189444469E+04  0.46999998093E+01 0. -1.
       -5    1    3    3    0  502 -0.14572029836E+04  0.63656342781E+03 -0.12430386175E+03  0.15950319975E+04  0.46999998093E+01 0.  1.
</event>
<event>
 5   0  0.2401139E-06  0.3217048E+04  0.7818609E-02  0.8184329E-01
       -2   -1    0    0    0  501  0.00000000000E+00  0.00000000000E+00  0.14450071655E+04  0.14450071655E+04  0.25500000920E-02 0.  1.
        2   -1    0    0  501    0  0.00000000000E+00  0.00000000000E+00 -0.17905448139E+04  0.17905448139E+04  0.25500000920E-02 0. -1.
    10030    2    1    2    0    0  0.00000000000E+00  0.00000000000E+00 -0.34553764845E+03  0.32355519794E+04  0.32170483902E+04 0.  0.
        5    1    3    3  502    0  0.26781167344E+03  0.41152043605E+03  0.13677906546E+04  0.14532534282E+04  0.46999998093E+01 0.  1.
       -5    1    3    3    0  502 -0.26781167344E+03 -0.41152043605E+03 -0.17133283031E+04  0.17822985512E+04  0.46999998093E+01 0. -1.
</event>
<event>
 5   0  0.2401139E-06  0.2591368E+04  0.7818609E-02  0.8371139E-01
        2   -1    0    0  501    0  0.00000000000E+00  0.00000000000E+00  0.13457328698E+04  0.13457328698E+04  0.25500000920E-02 0.  1.
       -2   -1    0    0    0  501  0.00000000000E+00  0.00000000000E+00 -0.12474965210E+04  0.12474965210E+04  0.25500000920E-02 0. -1.
    10030    2    1    2    0    0  0.00000000000E+00  0.00000000000E+00  0.98236348870E+02  0.25932293908E+04  0.25913680350E+04 0.  0.
        5    1    3    3  502    0  0.10292586106E+04 -0.74283208998E+03  0.30930912902E+03  0.13064712123E+04  0.46999998093E+01 0.  1.
       -5    1    3    3    0  502 -0.10292586106E+04  0.74283208998E+03 -0.21107278015E+03  0.12867581785E+04  0.46999998093E+01 0. -1.
</event>
<event>
 5   0  0.2401139E-06  0.3217421E+04  0.7818609E-02  0.8184231E-01
       -2   -1    0    0    0  501  0.00000000000E+00  0.00000000000E+00  0.95136067580E+03  0.95136067580E+03  0.25500000920E-02 0. -1.
        2   -1    0    0  501    0  0.00000000000E+00  0.00000000000E+00 -0.27202609190E+04  0.27202609190E+04  0.25500000920E-02 0.  1.
    10030    2    1    2    0    0  0.00000000000E+00  0.00000000000E+00 -0.17689002432E+04  0.36716215948E+04  0.32174208716E+04 0.  0.
        5    1    3    3  502    0 -0.11983271742E+04 -0.10118843553E+03  0.33489333700E+03  0.12483600254E+04  0.46999998093E+01 0. -1.
       -5    1    3    3    0  502  0.11983271742E+04  0.10118843553E+03 -0.21037935802E+04  0.24232615694E+04  0.46999998093E+01 0.  1.
</event>
<event>
 5   0  0.2404430E-06  0.3245819E+04  0.7818609E-02  0.8176820E-01
       -2   -1    0    0    0  501  0.00000000000E+00  0.00000000000E+00  0.15897275546E+04  0.15897275546E+04  0.25500000920E-02 0.  1.
        2   -1    0    0  501    0  0.00000000000E+00  0.00000000000E+00 -0.16567839586E+04  0.16567839586E+04  0.25500000920E-02 0. -1.
    10030    2    1    2    0    0  0.00000000000E+00  0.00000000000E+00 -0.67056404078E+02  0.32465115132E+04  0.32458189173E+04 0.  0.
        4    1    3    3  502    0 -0.65665013192E+03  0.12927443615E+04  0.69563772392E+03  0.16081948998E+04  0.12699999809E+01 0. -1.
       -4    1    3    3    0  502  0.65665013192E+03 -0.12927443615E+04 -0.76269412800E+03  0.16383166134E+04  0.12699999809E+01 0.  1.
</event>
<event>
 5   0  0.2404430E-06  0.3142465E+04  0.7818609E-02  0.8204180E-01
       -2   -1    0    0    0  501  0.00000000000E+00  0.00000000000E+00  0.70549998013E+03  0.70549998013E+03  0.25500000920E-02 0.  1.
        2   -1    0    0  501    0  0.00000000000E+00  0.00000000000E+00 -0.34993214356E+04  0.34993214356E+04  0.25500000920E-02 0. -1.
    10030    2    1    2    0    0  0.00000000000E+00  0.00000000000E+00 -0.27938214555E+04  0.42048214158E+04  0.31424647672E+04 0.  0.
        4    1    3    3  502    0  0.46575431513E+03 -0.76545505313E+03 -0.31239584920E+04  0.32499179672E+04  0.12699999809E+01 0. -1.
       -4    1    3    3    0  502 -0.46575431513E+03  0.76545505313E+03  0.33013703651E+03  0.95490344862E+03  0.12699999809E+01 0.  1.
</event>
<event>
 5   0  0.8512855E-07  0.3209090E+04  0.7818609E-02  0.8186421E-01
       -1   -1    0    0    0  501  0.00000000000E+00  0.00000000000E+00  0.14455226447E+04  0.14455226447E+04  0.50400001928E-02 0.  1.
        1   -1    0    0  501    0  0.00000000000E+00  0.00000000000E+00 -0.17810616395E+04  0.17810616395E+04  0.50400001928E-02 0. -1.
    10030    2    1    2    0    0  0.00000000000E+00  0.00000000000E+00 -0.33553899478E+03  0.32265842843E+04  0.32090901711E+04 0.  0.
        5    1    3    3  502    0 -0.13202950357E+03  0.89490495634E+03  0.11646930948E+04  0.14747266749E+04  0.46999998093E+01 0.  1.
       -5    1    3    3    0  502  0.13202950357E+03 -0.89490495634E+03 -0.15002320896E+04  0.17518576093E+04  0.46999998093E+01 0. -1.
</event>
<event>
 5   0  0.2466076E-06  0.3195255E+04  0.7818609E-02  0.8190072E-01
       -2   -1    0    0    0  501  0.00000000000E+00  0.00000000000E+00  0.14981729781E+04  0.14981729781E+04  0.25500000920E-02 0. -1.
        2   -1    0    0  501    0  0.00000000000E+00  0.00000000000E+00 -0.17036839423E+04  0.17036839423E+04  0.25500000920E-02 0.  1.
    10030    2    1    2    0    0  0.00000000000E+00  0.00000000000E+00 -0.20551096415E+03  0.32018569204E+04  0.31952547602E+04 0.  0.
        3    1    3    3  502    0 -0.18041813940E+03  0.15571016666E+04 -0.41209534327E+03  0.16207834177E+04  0.10100000352E+00 0. -1.
       -3    1    3    3    0  502  0.18041813940E+03 -0.15571016666E+04  0.20658437911E+03  0.15810735027E+04  0.10100000352E+00 0.  1.
</event>
<event>
 5   0  0.2404430E-06  0.2954443E+04  0.7818609E-02  0.8256861E-01
       -2   -1    0    0    0  501  0.00000000000E+00  0.00000000000E+00  0.18013193877E+04  0.18013193877E+04  0.25500000920E-02 0.  1.
        2   -1    0    0  501    0  0.00000000000E+00  0.00000000000E+00 -0.12114359709E+04  0.12114359709E+04  0.25500000920E-02 0. -1.
    10030    2    1    2    0    0  0.00000000000E+00  0.00000000000E+00  0.58988341680E+03  0.30127553586E+04  0.29544428249E+04 0.  0.
        4    1    3    3  502    0  0.67804619597E+03  0.10061963648E+04  0.11541898269E+04  0.16746144445E+04  0.12699999809E+01 0.  1.
       -4    1    3    3    0  502 -0.67804619597E+03 -0.10061963648E+04 -0.56430641011E+03  0.13381409140E+04  0.12699999809E+01 0. -1.
</event>
<event>
 5   0  0.8545153E-07  0.3140659E+04  0.7818609E-02  0.8204667E-01
        1   -1    0    0  501    0  0.00000000000E+00  0.00000000000E+00  0.16065835104E+04  0.16065835104E+04  0.50400001928E-02 0. -1.
       -1   -1    0    0    0  501  0.00000000000E+00  0.00000000000E+00 -0.15348933066E+04  0.15348933066E+04  0.50400001928E-02 0.  1.
    10030    2    1    2    0    0  0.00000000000E+00  0.00000000000E+00  0.71690203732E+02  0.31414768170E+04  0.31406587058E+04 0.  0.
        3    1    3    3  502    0 -0.11934725426E+04  0.16578586369E+03 -0.97142893477E+03  0.15477518690E+04  0.10100000352E+00 0.  1.
       -3    1    3    3    0  502  0.11934725426E+04 -0.16578586369E+03  0.10431191385E+04  0.15937249480E+04  0.10100000352E+00 0. -1.
</event>
<event>
 5   0  0.2401139E-06  0.3218504E+04  0.7818609E-02  0.8183947E-01
       -2   -1    0    0    0  501  0.00000000000E+00  0.00000000000E+00  0.18407586668E+04  0.18407586668E+04  0.25500000920E-02 0. -1.
        2   -1    0    0  501    0  0.00000000000E+00  0.00000000000E+00 -0.14068613932E+04  0.14068613932E+04  0.25500000920E-02 0.  1.
    10030    2    1    2    0    0  0.00000000000E+00  0.00000000000E+00  0.43389727360E+03  0.32476200600E+04  0.32185041883E+04 0.  0.
        5    1    3    3  502    0 -0.24107269994E+03 -0.45506109020E+03  0.17553634143E+04  0.18293494605E+04  0.46999998093E+01 0. -1.
       -5    1    3    3    0  502  0.24107269994E+03  0.45506109020E+03 -0.13214661407E+04  0.14182705995E+04  0.46999998093E+01 0.  1.
</event>
<event>
 5   0  0.2621528E-06  0.3206791E+04  0.7818609E-02  0.8187026E-01
       -2   -1    0    0    0  501  0.00000000000E+00  0.00000000000E+00  0.10748207114E+04  0.10748207114E+04  0.25500000920E-02 0.  1.
        2   -1    0    0  501    0  0.00000000000E+00  0.00000000000E+00 -0.23919126859E+04  0.23919126859E+04  0.25500000920E-02 0. -1.
    10030    2    1    2    0    0  0.00000000000E+00  0.00000000000E+00 -0.13170919745E+04  0.34667333973E+04  0.32067911031E+04 0.  0.
        2    1    3    3  502    0 -0.62225930534E+03 -0.22942991238E+03 -0.22366834071E+04  0.23329375027E+04  0.25500000920E-02 0. -1.
       -2    1    3    3    0  502  0.62225930534E+03  0.22942991238E+03  0.91959143261E+03  0.11337958946E+04  0.25500000920E-02 0.  1.
</event>
<event>
 5   0  0.8681172E-07  0.3222648E+04  0.7818609E-02  0.8182861E-01
       -1   -1    0    0    0  501  0.00000000000E+00  0.00000000000E+00  0.12649548575E+04  0.12649548575E+04  0.50400001928E-02 0.  1.
        1   -1    0    0  501    0  0.00000000000E+00  0.00000000000E+00 -0.20525352108E+04  0.20525352108E+04  0.50400001928E-02 0. -1.
    10030    2    1    2    0    0  0.00000000000E+00  0.00000000000E+00 -0.78758035328E+03  0.33174900684E+04  0.32226475980E+04 0.  0.
        1    1    3    3  502    0 -0.42467290293E+02 -0.31843081839E+03 -0.20192346081E+04  0.20446295653E+04  0.50400001928E-02 0. -1.
       -1    1    3    3    0  502  0.42467290293E+02  0.31843081839E+03  0.12316542548E+04  0.12728605031E+04  0.50400001928E-02 0.  1.
</event>
<event>
 5   0  0.2401139E-06  0.3227667E+04  0.7818609E-02  0.8181549E-01
       -2   -1    0    0    0  501  0.00000000000E+00  0.00000000000E+00  0.11634944649E+04  0.11634944649E+04  0.25500000920E-02 0.  1.
        2   -1    0    0  501    0  0.00000000000E+00  0.00000000000E+00 -0.22384788761E+04  0.22384788761E+04  0.25500000920E-02 0. -1.
    10030    2    1    2    0    0  0.00000000000E+00  0.00000000000E+00 -0.10749844112E+04  0.34019733410E+04  0.32276665144E+04 0.  0.
        5    1    3    3  502    0 -0.25000022773E+03  0.18137282488E+03 -0.22070290070E+04  0.22285410795E+04  0.46999998093E+01 0. -1.
       -5    1    3    3    0  502  0.25000022773E+03 -0.18137282488E+03  0.11320445958E+04  0.11734322615E+04  0.46999998093E+01 0.  1.
</event>
<event>
 5   0  0.2401139E-06  0.3103572E+04  0.7818609E-02  0.8214758E-01
        2   -1    0    0  501    0  0.00000000000E+00  0.00000000000E+00  0.25681075944E+04  0.25681075944E+04  0.25500000920E-02 0. -1.
       -2   -1    0    0    0  501  0.00000000000E+00  0.00000000000E+00 -0.93767090256E+03  0.93767090257E+03  0.25500000920E-02 0.  1.
    10030    2    1    2    0    0  0.00000000000E+00  0.00000000000E+00  0.16304366918E+04  0.35057784969E+04  0.31035719846E+04 0.  0.
        5    1    3    3  502    0  0.11282385487E+04 -0.88013038251E+03  0.14934136547E+04  0.20682983699E+04  0.46999998093E+01 0. -1.
       -5    1    3    3    0  502 -0.11282385487E+04  0.88013038251E+03  0.13702303715E+03  0.14374801271E+04  0.46999998093E+01 0.  1.
</event>
<event>
 5   0  0.2466076E-06  0.3197431E+04  0.7818609E-02  0.8189496E-01
        2   -1    0    0  501    0  0.00000000000E+00  0.00000000000E+00  0.22415812332E+04  0.22415812332E+04  0.25500000920E-02 0.  1.
       -2   -1    0    0    0  501  0.00000000000E+00  0.00000000000E+00 -0.11402179775E+04  0.11402179775E+04  0.25500000920E-02 0. -1.
    10030    2    1    2    0    0  0.00000000000E+00  0.00000000000E+00  0.11013632556E+04  0.33817992107E+04  0.31974309814E+04 0.  0.
        3    1    3    3  502    0  0.12069963321E+04  0.57959256993E+03 -0.37325898718E+03  0.13899963937E+04  0.10100000352E+00 0. -1.
       -3    1    3    3    0  502 -0.12069963321E+04 -0.57959256993E+03  0.14746222428E+04  0.19918028170E+04  0.10100000352E+00 0.  1.
</event>
<event>
 5   0  0.8487944E-07  0.3217418E+04  0.7818609E-02  0.8184232E-01
        1   -1    0    0  501    0  0.00000000000E+00  0.00000000000E+00  0.25193959622E+04  0.25193959622E+04  0.50400001928E-02 0.  1.
       -1   -1    0    0    0  501  0.00000000000E+00  0.00000000000E+00 -0.10272081104E+04  0.10272081104E+04  0.50400001928E-02 0. -1.
    10030    2    1    2    0    0  0.00000000000E+00  0.00000000000E+00  0.14921878519E+04  0.35466040726E+04  0.32174175767E+04 0.  0.
        2    1    3    3  502    0  0.58336906869E+03  0.85850299171E+03 -0.60871984687E+03  0.12032816416E+04  0.25500000920E-02 0. -1.
       -2    1    3    3    0  502 -0.58336906869E+03 -0.85850299171E+03  0.21009076987E+04  0.23433224310E+04  0.25500000920E-02 0.  1.
</event>
<event>
 5   0  0.8512855E-07  0.3159786E+04  0.7818609E-02  0.8199519E-01
        1   -1    0    0  501    0  0.00000000000E+00  0.00000000000E+00  0.15146001380E+04  0.15146001380E+04  0.50400001928E-02 0. -1.
       -1   -1    0    0    0  501  0.00000000000E+00  0.00000000000E+00 -0.16480000991E+04  0.16480000991E+04  0.50400001928E-02 0.  1.
    10030    2    1    2    0    0  0.00000000000E+00  0.00000000000E+00 -0.13339996105E+03  0.31626002371E+04  0.31597855482E+04 0.  0.
        5    1    3    3  502    0  0.41790425550E+03  0.12589943327E+04 -0.92556015286E+03  0.16175272434E+04  0.46999998093E+01 0.  1.
       -5    1    3    3    0  502 -0.41790425550E+03 -0.12589943327E+04  0.79216019181E+03  0.15450729938E+04  0.46999998093E+01 0. -1.
</event>
<event>
 5   0  0.2621528E-06  0.3217257E+04  0.7818609E-02  0.8184275E-01
        2   -1    0    0  501    0  0.00000000000E+00  0.00000000000E+00  0.16217134383E+04  0.16217134383E+04  0.25500000920E-02 0.  1.
       -2   -1    0    0    0  501  0.00000000000E+00  0.00000000000E+00 -0.15956488457E+04  0.15956488457E+04  0.25500000920E-02 0. -1.
    10030    2    1    2    0    0  0.00000000000E+00  0.00000000000E+00  0.26064592661E+02  0.32173622840E+04  0.32172567046E+04 0.  0.
        2    1    3    3  502    0  0.14926611141E+04 -0.59237242166E+03 -0.80474186522E+02  0.16079236245E+04  0.25500000920E-02 0. -1.
       -2    1    3    3    0  502 -0.14926611141E+04  0.59237242166E+03  0.10653877918E+03  0.16094386595E+04  0.25500000920E-02 0.  1.
</event>
<event>
 5   0  0.2337504E-06  0.3178062E+04  0.7818609E-02  0.8194635E-01
        2   -1    0    0  501    0  0.00000000000E+00  0.00000000000E+00  0.19703428531E+04  0.19703428531E+04  0.25500000920E-02 0.  1.
       -2   -1    0    0    0  501  0.00000000000E+00  0.00000000000E+00 -0.12815128572E+04  0.12815128572E+04  0.25500000920E-02 0. -1.
    10030    2    1    2    0    0  0.00000000000E+00  0.00000000000E+00  0.68882999592E+03  0.32518557103E+04  0.31780621136E+04 0.  0.
        1    1    3    3  502    0  0.26803756118E+03 -0.12112968652E+04 -0.67158365349E+03  0.14107121724E+04  0.50400001928E-02 0. -1.
       -1    1    3    3    0  502 -0.26803756118E+03  0.12112968652E+04  0.13604136494E+04  0.18411435379E+04  0.50400001928E-02 0.  1.
</event>
<event>
 5   0  0.8383008E-07  0.3219105E+04  0.7818609E-02  0.8183790E-01
       -1   -1    0    0    0  501  0.00000000000E+00  0.00000000000E+00  0.12016013868E+04  0.12016013868E+04  0.50400001928E-02 0.  1.
        1   -1    0    0  501    0  0.00000000000E+00  0.00000000000E+00 -0.21560059986E+04  0.21560059986E+04  0.50400001928E-02 0. -1.
    10030    2    1    2    0    0  0.00000000000E+00  0.00000000000E+00 -0.95440461182E+03  0.33576073854E+04  0.32191053402E+04 0.  0.
        4    1    3    3  502    0 -0.77746847074E+03 -0.11838994507E+04  0.32027408236E+03  0.14521199100E+04  0.12699999809E+01 0.  1.
       -4    1    3    3    0  502  0.77746847074E+03  0.11838994507E+04 -0.12746786942E+04  0.19054874753E+04  0.12699999809E+01 0. -1.
</event>
<event>
 5   0  0.8545153E-07  0.3247181E+04  0.7818609E-02  0.8176467E-01
       -1   -1    0    0    0  501  0.00000000000E+00  0.00000000000E+00  0.27834214134E+04  0.27834214134E+04  0.50400001928E-02 0.  1.
        1   -1    0    0  501    0  0.00000000000E+00  0.00000000000E+00 -0.94705259491E+03  0.94705259492E+03  0.50400001928E-02 0. -1.
    10030    2    1    2    0    0  0.00000000000E+00  0.00000000000E+00  0.18363688185E+04  0.37304740083E+04  0.32471812221E+04 0.  0.
        3    1    3    3  502    0  0.11263254185E+04  0.29882339931E+03  0.22169987041E+04  0.25045933076E+04  0.10100000352E+00 0.  1.
       -3    1    3    3    0  502 -0.11263254185E+04 -0.29882339931E+03 -0.38062988563E+03  0.12258807007E+04  0.10100000352E+00 0. -1.
</event>
<event>
 5   0  0.2621528E-06  0.3214420E+04  0.7818609E-02  0.8185019E-01
        2   -1    0    0  501    0  0.00000000000E+00  0.00000000000E+00  0.22202529965E+04  0.22202529965E+04  0.25500000920E-02 0.  1.
       -2   -1    0    0    0  501  0.00000000000E+00  0.00000000000E+00 -0.11634369327E+04  0.11634369327E+04  0.25500000920E-02 0. -1.
    10030    2    1    2    0    0  0.00000000000E+00  0.00000000000E+00  0.10568160638E+04  0.33836899291E+04  0.32144202189E+04 0.  0.
        2    1    3    3  502    0  0.12649917149E+04 -0.56625804084E+03  0.13850634119E+04  0.19594011490E+04  0.25500000920E-02 0.  1.
       -2    1    3    3    0  502 -0.12649917149E+04  0.56625804084E+03 -0.32824734810E+03  0.14242887801E+04  0.25500000920E-02 0. -1.
</event>
<event>
 5   0  0.8681172E-07  0.3195899E+04  0.7818609E-02  0.8189901E-01
        1   -1    0    0  501    0  0.00000000000E+00  0.00000000000E+00  0.16110892183E+04  0.16110892183E+04  0.50400001928E-02 0. -1.
       -1   -1    0    0    0  501  0.00000000000E+00  0.00000000000E+00 -0.15849168439E+04  0.15849168439E+04  0.50400001928E-02 0.  1.
    10030    2    1    2    0    0  0.00000000000E+00  0.00000000000E+00  0.26172374343E+02  0.31960060622E+04  0.31958988965E+04 0.  0.
        1    1    3    3  502    0  0.12203384635E+04  0.92222634910E+03  0.47539492340E+03  0.16017889179E+04  0.50400001928E-02 0.  1.
       -1    1    3    3    0  502 -0.12203384635E+04 -0.92222634910E+03 -0.44922254906E+03  0.15942171442E+04  0.50400001928E-02 0. -1.
</event>
<event>
 5   0  0.8681172E-07  0.2849811E+04  0.7818609E-02  0.8287969E-01
       -1   -1    0    0    0  501  0.00000000000E+00  0.00000000000E+00  0.84197276625E+03  0.84197276627E+03  0.50400001928E-02 0. -1.
        1   -1    0    0  501    0  0.00000000000E+00  0.00000000000E+00 -0.24114270407E+04  0.24114270407E+04  0.50400001928E-02 0.  1.
    10030    2    1    2    0    0  0.00000000000E+00  0.00000000000E+00 -0.15694542744E+04  0.32533998070E+04  0.28498111489E+04 0.  0.
        1    1    3    3  502    0 -0.87447166994E+02  0.45571030573E+03  0.75330035127E+03  0.88474872648E+03  0.50400001928E-02 0. -1.
       -1    1    3    3    0  502  0.87447166994E+02 -0.45571030573E+03 -0.23227546257E+04  0.23686510805E+04  0.50400001928E-02 0.  1.
</event>
<event>
 5   0  0.8487944E-07  0.3300336E+04  0.7818609E-02  0.8162810E-01
       -1   -1    0    0    0  501  0.00000000000E+00  0.00000000000E+00  0.17930300797E+04  0.17930300797E+04  0.50400001928E-02 0.  1.
        1   -1    0    0  501    0  0.00000000000E+00  0.00000000000E+00 -0.15186890803E+04  0.15186890804E+04  0.50400001928E-02 0. -1.
    10030    2    1    2    0    0  0.00000000000E+00  0.00000000000E+00  0.27434099939E+03  0.33117191601E+04  0.33003364694E+04 0.  0.
        2    1    3    3  502    0  0.15235876434E+04 -0.58003344476E+03  0.39358478942E+03  0.16771007992E+04  0.25500000920E-02 0.  1.
       -2    1    3    3    0  502 -0.15235876434E+04  0.58003344476E+03 -0.11924379003E+03  0.16346183609E+04  0.25500000920E-02 0. -1.
</event>
<event>
 5   0  0.2404430E-06  0.3198489E+04  0.7818609E-02  0.8189216E-01
        2   -1    0    0  501    0  0.00000000000E+00  0.00000000000E+00  0.20265152774E+04  0.20265152774E+04  0.25500000920E-02 0.  1.
       -2   -1    0    0    0  501  0.00000000000E+00  0.00000000000E+00 -0.12620597566E+04  0.12620597566E+04  0.25500000920E-02 0. -1.
    10030    2    1    2    0    0  0.00000000000E+00  0.00000000000E+00  0.76445552085E+03  0.32885750340E+04  0.31984892545E+04 0.  0.
        4    1    3    3  502    0  0.10779740878E+04 -0.56517531407E+03  0.14488124093E+04  0.18922236337E+04  0.12699999809E+01 0.  1.
       -4    1    3    3    0  502 -0.10779740878E+04  0.56517531407E+03 -0.68435688841E+03  0.13963514004E+04  0.12699999809E+01 0. -1.
</event>
<event>
 5   0  0.7934375E-07  0.2584663E+04  0.7818609E-02  0.8373430E-01
        4   -1    0    0  501    0  0.00000000000E+00  0.00000000000E+00  0.17666580974E+04  0.17666585539E+04  0.12699999809E+01 0. -1.
       -4   -1    0    0    0  501  0.00000000000E+00  0.00000000000E+00 -0.94535472606E+03  0.94535557913E+03  0.12699999809E+01 0.  1.
    10030    2    1    2    0    0  0.00000000000E+00  0.00000000000E+00  0.82130337132E+03  0.27120141330E+04  0.25846627304E+04 0.  0.
        2    1    3    3  502    0  0.10234842994E+04  0.78521968704E+03  0.32917053622E+03  0.13313314050E+04  0.25500000920E-02 0.  1.
       -2    1    3    3    0  502 -0.10234842994E+04 -0.78521968704E+03  0.49213283510E+03  0.13806827280E+04  0.25500000920E-02 0. -1.
</event>
<event>
 5   0  0.2404430E-06  0.3176927E+04  0.7818609E-02  0.8194937E-01
       -2   -1    0    0    0  501  0.00000000000E+00  0.00000000000E+00  0.23033565653E+04  0.23033565653E+04  0.25500000920E-02 0.  1.
        2   -1    0    0  501    0  0.00000000000E+00  0.00000000000E+00 -0.10954519427E+04  0.10954519427E+04  0.25500000920E-02 0. -1.
    10030    2    1    2    0    0  0.00000000000E+00  0.00000000000E+00  0.12079046226E+04  0.33988085080E+04  0.31769270839E+04 0.  0.
        4    1    3    3  502    0  0.14015062643E+04 -0.14403545955E+03  0.13888462589E+04  0.19783481913E+04  0.12699999809E+01 0.  1.
       -4    1    3    3    0  502 -0.14015062643E+04  0.14403545955E+03 -0.18094163632E+03  0.14204603166E+04  0.12699999809E+01 0. -1.
</event>
<event>
 5   0  0.2337504E-06  0.3208865E+04  0.7818609E-02  0.8186480E-01
       -2   -1    0    0    0  501  0.00000000000E+00  0.00000000000E+00  0.11356365306E+04  0.11356365306E+04  0.25500000920E-02 0. -1.
        2   -1    0    0  501    0  0.00000000000E+00  0.00000000000E+00 -0.22667495622E+04  0.22667495622E+04  0.25500000920E-02 0.  1.
    10030    2    1    2    0    0  0.00000000000E+00  0.00000000000E+00 -0.11311130315E+04  0.34023860928E+04  0.32088649760E+04 0.  0.
        1    1    3    3  502    0 -0.65854926197E+03 -0.67340696213E+03  0.81163640754E+03  0.12433493979E+04  0.50400001928E-02 0. -1.
       -1    1    3    3    0  502  0.65854926197E+03  0.67340696213E+03 -0.19427494391E+04  0.21590366949E+04  0.50400001928E-02 0.  1.
</event>
<event>
 5   0  0.2401139E-06  0.3191926E+04  0.7818609E-02  0.8190953E-01
        2   -1    0    0  501    0  0.00000000000E+00  0.00000000000E+00  0.26682998805E+04  0.26682998805E+04  0.25500000920E-02 0.  1.
       -2   -1    0    0    0  501  0.00000000000E+00  0.00000000000E+00 -0.95457701835E+03  0.95457701836E+03  0.25500000920E-02 0. -1.
    10030    2    1    2    0    0  0.00000000000E+00  0.00000000000E+00  0.17137228621E+04  0.36228768988E+04  0.31919259039E+04 0.  0.
        5    1    3    3  502    0 -0.11738552178E+04  0.10129784030E+04  0.42763094082E+03  0.16084003323E+04  0.46999998093E+01 0. -1.
       -5    1    3    3    0  502  0.11738552178E+04 -0.10129784030E+04  0.12860919213E+04  0.20144765666E+04  0.46999998093E+01 0.  1.
</event>
<event>
 5   0  0.2466076E-06  0.3156576E+04  0.7818609E-02  0.8200380E-01
       -2   -1    0    0    0  501  0.00000000000E+00  0.00000000000E+00  0.17513026495E+04  0.17513026495E+04  0.25500000920E-02 0. -1.
        2   -1    0    0  501    0  0.00000000000E+00  0.00000000000E+00 -0.14223660996E+04  0.14223660996E+04  0.25500000920E-02 0.  1.
    10030    2    1    2    0    0  0.00000000000E+00  0.00000000000E+00  0.32893654987E+03  0.31736687491E+04  0.31565763217E+04 0.  0.
        3    1    3    3  502    0 -0.10261857998E+04 -0.79441190878E+03 -0.73864163490E+03  0.14932310777E+04  0.10100000352E+00 0.  1.
       -3    1    3    3    0  502  0.10261857998E+04  0.79441190878E+03  0.10675781848E+04  0.16804376713E+04  0.10100000352E+00 0. -1.
</event>
<event>
 5   0  0.2404430E-06  0.2783305E+04  0.7818609E-02  0.8308470E-01
        2   -1    0    0  501    0  0.00000000000E+00  0.00000000000E+00  0.16819059699E+04  0.16819059699E+04  0.25500000920E-02 0.  1.
       -2   -1    0    0    0  501  0.00000000000E+00  0.00000000000E+00 -0.11514892300E+04  0.11514892300E+04  0.25500000920E-02 0. -1.
    10030    2    1    2    0    0  0.00000000000E+00  0.00000000000E+00  0.53041673985E+03  0.28333951999E+04  0.27833049493E+04 0.  0.
        4    1    3    3  502    0 -0.12390030245E+04  0.18481986031E+03 -0.35184217225E+03  0.13011846151E+04  0.12699999809E+01 0. -1.
       -4    1    3    3    0  502  0.12390030245E+04 -0.18481986031E+03  0.88225891210E+03  0.15322105848E+04  0.12699999809E+01 0.  1.
</event>
<event>
 5   0  0.8545153E-07  0.3197231E+04  0.7818609E-02  0.8189549E-01
       -1   -1    0    0    0  501  0.00000000000E+00  0.00000000000E+00  0.13416001724E+04  0.13416001724E+04  0.50400001928E-02 0. -1.
        1   -1    0    0  501    0  0.00000000000E+00  0.00000000000E+00 -0.19048677303E+04  0.19048677303E+04  0.50400001928E-02 0.  1.
    10030    2    1    2    0    0  0.00000000000E+00  0.00000000000E+00 -0.56326755789E+03  0.32464679028E+04  0.31972305988E+04 0.  0.
        3    1    3    3  502    0  0.97518224193E+03 -0.10302040215E+04  0.46678567568E+03  0.14933819365E+04  0.10100000352E+00 0. -1.
       -3    1    3    3    0  502 -0.97518224193E+03  0.10302040215E+04 -0.10300532336E+04  0.17530859663E+04  0.10100000352E+00 0.  1.
</event>
<event>
 5   0  0.8487944E-07  0.3178518E+04  0.7818609E-02  0.8194514E-01
        1   -1    0    0  501    0  0.00000000000E+00  0.00000000000E+00  0.15621912785E+04  0.15621912785E+04  0.50400001928E-02 0. -1.
       -1   -1    0    0    0  501  0.00000000000E+00  0.00000000000E+00 -0.16167959575E+04  0.16167959575E+04  0.50400001928E-02 0.  1.
    10030    2    1    2    0    0  0.00000000000E+00  0.00000000000E+00 -0.54604678990E+02  0.31789872360E+04  0.31785182358E+04 0.  0.
        2    1    3    3  502    0  0.40677581686E+03 -0.90457155784E+02  0.15065782460E+04  0.15631465298E+04  0.25500000920E-02 0. -1.
       -2    1    3    3    0  502 -0.40677581686E+03  0.90457155784E+02 -0.15611829250E+04  0.16158407061E+04  0.25500000920E-02 0.  1.
</event>
<event>
 5   0  0.8512855E-07  0.3185648E+04  0.7818609E-02  0.8192618E-01
        1   -1    0    0  501    0  0.00000000000E+00  0.00000000000E+00  0.26663844139E+04  0.26663844139E+04  0.50400001928E-02 0.  1.
       -1   -1    0    0    0  501  0.00000000000E+00  0.00000000000E+00 -0.95150895837E+03  0.95150895838E+03  0.50400001928E-02 0. -1.
    10030    2    1    2    0    0  0.00000000000E+00  0.00000000000E+00  0.17148754555E+04  0.36178933723E+04  0.31856482269E+04 0.  0.
        5    1    3    3  502    0 -0.68728979580E+03  0.53132304517E+03  0.23736497588E+04  0.25276286731E+04  0.46999998093E+01 0.  1.
       -5    1    3    3    0  502  0.68728979580E+03 -0.53132304517E+03 -0.65877430323E+03  0.10902646992E+04  0.46999998093E+01 0. -1.
</event>
<event>
 5   0  0.2404430E-06  0.3191388E+04  0.7818609E-02  0.8191095E-01
        2   -1    0    0  501    0  0.00000000000E+00  0.00000000000E+00  0.17723935076E+04  0.17723935076E+04  0.25500000920E-02 0.  1.
       -2   -1    0    0    0  501  0.00000000000E+00  0.00000000000E+00 -0.14366103943E+04  0.14366103943E+04  0.25500000920E-02 0. -1.
    10030    2    1    2    0    0  0.00000000000E+00  0.00000000000E+00  0.33578311331E+03  0.32090039019E+04  0.31913877457E+04 0.  0.
        4    1    3    3  502    0 -0.24750376410E+03 -0.22079798041E+03  0.17373491632E+04  0.17687265444E+04  0.12699999809E+01 0.  1.
       -4    1    3    3    0  502  0.24750376410E+03  0.22079798041E+03 -0.14015660498E+04  0.14402773574E+04  0.12699999809E+01 0. -1.
</event>
<event>
 5   0  0.8681172E-07  0.3198502E+04  0.7818609E-02  0.8189213E-01
       -1   -1    0    0    0  501  0.00000000000E+00  0.00000000000E+00  0.14556080399E+04  0.14556080399E+04  0.50400001928E-02 0.  1.
        1   -1    0    0  501    0  0.00000000000E+00  0.00000000000E+00 -0.17570687297E+04  0.17570687297E+04  0.50400001928E-02 0. -1.
    10030    2    1    2    0    0  0.00000000000E+00  0.00000000000E+00 -0.30146068986E+03  0.32126767696E+04  0.31985017552E+04 0.  0.
        1    1    3    3  502    0  0.73224074450E+03 -0.13778476813E+04  0.20148397530E+03  0.15732884456E+04  0.50400001928E-02 0. -1.
       -1    1    3    3    0  502 -0.73224074450E+03  0.13778476813E+04 -0.50294466516E+03  0.16393883240E+04  0.50400001928E-02 0.  1.
</event>
<event>
 5   0  0.8512855E-07  0.3224673E+04  0.7818609E-02  0.8182331E-01
        1   -1    0    0  501    0  0.00000000000E+00  0.00000000000E+00  0.27581790887E+04  0.27581790887E+04  0.50400001928E-02 0.  1.
       -1   -1    0    0    0  501  0.00000000000E+00  0.00000000000E+00 -0.94251630859E+03  0.94251630860E+03  0.50400001928E-02 0. -1.
    10030    2    1    2    0    0  0.00000000000E+00  0.00000000000E+00  0.18156627801E+04  0.37006953973E+04  0.32246728660E+04 0.  0.
        5    1    3    3  502    0 -0.17294150051E+03 -0.11258824120E+04  0.22173679589E+04  0.24928422982E+04  0.46999998093E+01 0.  1.
       -5    1    3    3    0  502  0.17294150051E+03  0.11258824120E+04 -0.40170517884E+03  0.12078530991E+04  0.46999998093E+01 0. -1.
</event>
<event>
 5   0  0.8681172E-07  0.3211727E+04  0.7818609E-02  0.8185727E-01
        1   -1    0    0  501    0  0.00000000000E+00  0.00000000000E+00  0.99314554356E+03  0.99314554357E+03  0.50400001928E-02 0.  1.
       -1   -1    0    0    0  501  0.00000000000E+00  0.00000000000E+00 -0.25965952480E+04  0.25965952480E+04  0.50400001928E-02 0. -1.
    10030    2    1    2    0    0  0.00000000000E+00  0.00000000000E+00 -0.16034497045E+04  0.35897407916E+04  0.32117266378E+04 0.  0.
        1    1    3    3  502    0  0.10842061526E+04 -0.38623595630E+03 -0.20534049209E+04  0.23539653703E+04  0.50400001928E-02 0. -1.
       -1    1    3    3    0  502 -0.10842061526E+04  0.38623595630E+03  0.44995521642E+03  0.12357754213E+04  0.50400001928E-02 0.  1.
</event>
<event>
 5   0  0.8487944E-07  0.3194075E+04  0.7818609E-02  0.8190384E-01
        1   -1    0    0  501    0  0.00000000000E+00  0.00000000000E+00  0.19316390632E+04  0.19316390632E+04  0.50400001928E-02 0. -1.
       -1   -1    0    0    0  501  0.00000000000E+00  0.00000000000E+00 -0.13203962970E+04  0.13203962970E+04  0.50400001928E-02 0.  1.
    10030    2    1    2    0    0  0.00000000000E+00  0.00000000000E+00  0.61124276626E+03  0.32520353602E+04  0.31940751814E+04 0.  0.
        2    1    3    3  502    0 -0.34309628576E+03  0.22000412418E+03  0.18777960413E+04  0.19215188911E+04  0.25500000920E-02 0. -1.
       -2    1    3    3    0  502  0.34309628576E+03 -0.22000412418E+03 -0.12665532751E+04  0.13305164691E+04  0.25500000920E-02 0.  1.
</event>
<event>
 5   0  0.2401139E-06  0.3264914E+04  0.7818609E-02  0.8171881E-01
       -2   -1    0    0    0  501  0.00000000000E+00  0.00000000000E+00  0.95326378422E+03  0.95326378422E+03  0.25500000920E-02 0. -1.
        2   -1    0    0  501    0  0.00000000000E+00  0.00000000000E+00 -0.27955700467E+04  0.27955700467E+04  0.25500000920E-02 0.  1.
    10030    2    1    2    0    0  0.00000000000E+00  0.00000000000E+00 -0.18423062625E+04  0.37488338310E+04  0.32649138928E+04 0.  0.
        5    1    3    3  502    0 -0.13738653383E+04 -0.86826866400E+03 -0.10971609916E+04  0.19609132495E+04  0.46999998093E+01 0.  1.
       -5    1    3    3    0  502  0.13738653383E+04  0.86826866400E+03 -0.74514527093E+03  0.17879205814E+04  0.46999998093E+01 0. -1.
</event>
<event>
 5   0  0.2404430E-06  0.3126629E+04  0.7818609E-02  0.8208468E-01
        2   -1    0    0  501    0  0.00000000000E+00  0.00000000000E+00  0.19967139389E+04  0.19967139389E+04  0.25500000920E-02 0.  1.
       -2   -1    0    0    0  501  0.00000000000E+00  0.00000000000E+00 -0.12239872558E+04  0.12239872559E+04  0.25500000920E-02 0. -1.
    10030    2    1    2    0    0  0.00000000000E+00  0.00000000000E+00  0.77272668305E+03  0.32207011948E+04  0.31266291208E+04 0.  0.
        4    1    3    3  502    0 -0.25088177571E+03 -0.14860237646E+04  0.81449138453E+03  0.17130692113E+04  0.12699999809E+01 0.  1.
       -4    1    3    3    0  502  0.25088177571E+03  0.14860237646E+04 -0.41764701475E+02  0.15076319835E+04  0.12699999809E+01 0. -1.
</event>
<event>
 5   0  0.8545153E-07  0.3236839E+04  0.7818609E-02  0.8179155E-01
       -1   -1    0    0    0  501  0.00000000000E+00  0.00000000000E+00  0.15179768066E+04  0.15179768066E+04  0.50400001928E-02 0.  1.
        1   -1    0    0  501    0  0.00000000000E+00  0.00000000000E+00 -0.17255082048E+04  0.17255082048E+04  0.50400001928E-02 0. -1.
    10030    2    1    2    0    0  0.00000000000E+00  0.00000000000E+00 -0.20753139815E+03  0.32434850114E+04  0.32368388496E+04 0.  0.
        3    1    3    3  502    0  0.66538864308E+03  0.14584212212E+04  0.11928271860E+03  0.16074709583E+04  0.10100000352E+00 0.  1.
       -3    1    3    3    0  502 -0.66538864308E+03 -0.14584212212E+04 -0.32681411675E+03  0.16360140531E+04  0.10100000352E+00 0. -1.
</event>
<event>
 5   0  0.8487944E-07  0.3034273E+04  0.7818609E-02  0.8234011E-01
        1   -1    0    0  501    0  0.00000000000E+00  0.00000000000E+00  0.24214265276E+04  0.24214265276E+04  0.50400001928E-02 0. -1.
       -1   -1    0    0    0  501  0.00000000000E+00  0.00000000000E+00 -0.95055671041E+03  0.95055671042E+03  0.50400001928E-02 0.  1.
    10030    2    1    2    0    0  0.00000000000E+00  0.00000000000E+00  0.14708698172E+04  0.33719832381E+04  0.30342730494E+04 0.  0.
        2    1    3    3  502    0  0.40898957626E+01 -0.82341137251E+03 -0.68062294604E+03  0.10683026773E+04  0.25500000920E-02 0.  1.
       -2    1    3    3    0  502 -0.40898957626E+01  0.82341137251E+03  0.21514927633E+04  0.23036805608E+04  0.25500000920E-02 0. -1.
</event>
<event>
 5   0  0.2404430E-06  0.3191342E+04  0.7818609E-02  0.8191108E-01
        2   -1    0    0  501    0  0.00000000000E+00  0.00000000000E+00  0.25063209112E+04  0.25063209112E+04  0.25500000920E-02 0.  1.
       -2   -1    0    0    0  501  0.00000000000E+00  0.00000000000E+00 -0.10158976506E+04  0.10158976506E+04  0.25500000920E-02 0. -1.
    10030    2    1    2    0    0  0.00000000000E+00  0.00000000000E+00  0.14904232607E+04  0.35222185618E+04  0.31913417399E+04 0.  0.
        4    1    3    3  502    0 -0.62292998270E+03  0.19695052729E+03  0.23519403340E+04  0.24409949244E+04  0.12699999809E+01 0.  1.
       -4    1    3    3    0  502  0.62292998270E+03 -0.19695052729E+03 -0.86151707330E+03  0.10812236374E+04  0.12699999809E+01 0. -1.
</event>
<event>
 5   0  0.8681172E-07  0.3137291E+04  0.7818609E-02  0.8205578E-01
        1   -1    0    0  501    0  0.00000000000E+00  0.00000000000E+00  0.18849163407E+04  0.18849163408E+04  0.50400001928E-02 0.  1.
       -1   -1    0    0    0  501  0.00000000000E+00  0.00000000000E+00 -0.13054417899E+04  0.13054417899E+04  0.50400001928E-02 0. -1.
    10030    2    1    2    0    0  0.00000000000E+00  0.00000000000E+00  0.57947455081E+03  0.31903581307E+04  0.31372909089E+04 0.  0.
        1    1    3    3  502    0 -0.10499587756E+04  0.47615030350E+03  0.13714576244E+04  0.17916552563E+04  0.50400001928E-02 0.  1.
       -1    1    3    3    0  502  0.10499587756E+04 -0.47615030350E+03 -0.79198307355E+03  0.13987028744E+04  0.50400001928E-02 0. -1.
</event>
<event>
 5   0  0.2337504E-06  0.3176117E+04  0.7818609E-02  0.8195153E-01
       -2   -1    0    0    0  501  0.00000000000E+00  0.00000000000E+00  0.10382500846E+04  0.10382500846E+04  0.25500000920E-02 0. -1.
        2   -1    0    0  501    0  0.00000000000E+00  0.00000000000E+00 -0.24290191235E+04  0.24290191235E+04  0.25500000920E-02 0.  1.
    10030    2    1    2    0    0  0.00000000000E+00  0.00000000000E+00 -0.13907690388E+04  0.34672692081E+04  0.31761166921E+04 0.  0.
        1    1    3    3  502    0 -0.10832569515E+04  0.41073119658E+03  0.49036316357E+03  0.12580150123E+04  0.50400001928E-02 0. -1.
       -1    1    3    3    0  502  0.10832569515E+04 -0.41073119658E+03 -0.18811322024E+04  0.22092541958E+04  0.50400001928E-02 0.  1.
</event>
<event>
 5   0  0.8681172E-07  0.3196064E+04  0.7818609E-02  0.8189858E-01
       -1   -1    0    0    0  501  0.00000000000E+00  0.00000000000E+00  0.20310182303E+04  0.20310182303E+04  0.50400001928E-02 0. -1.
        1   -1    0    0  501    0  0.00000000000E+00  0.00000000000E+00 -0.12573524084E+04  0.12573524084E+04  0.50400001928E-02 0.  1.
    10030    2    1    2    0    0  0.00000000000E+00  0.00000000000E+00  0.77366582198E+03  0.32883706387E+04  0.31960636185E+04 0.  0.
        1    1    3    3  502    0  0.57705269831E+03  0.14386901238E+04 -0.12827053626E+02  0.15501559994E+04  0.50400001928E-02 0.  1.
       -1    1    3    3    0  502 -0.57705269831E+03 -0.14386901238E+04  0.78649287561E+03  0.17382146393E+04  0.50400001928E-02 0. -1.
</event>
<event>
 5   0  0.8681172E-07  0.3203396E+04  0.7818609E-02  0.8187921E-01
       -1   -1    0    0    0  501  0.00000000000E+00  0.00000000000E+00  0.13225259154E+04  0.13225259154E+04  0.50400001928E-02 0.  1.
        1   -1    0    0  501    0  0.00000000000E+00  0.00000000000E+00 -0.19398004082E+04  0.19398004083E+04  0.50400001928E-02 0. -1.
    10030    2    1    2    0    0  0.00000000000E+00  0.00000000000E+00 -0.61727449289E+03  0.32623263236E+04  0.32033958922E+04 0.  0.
        1    1    3    3  502    0 -0.10053342309E+04  0.93172137601E+03  0.53524072647E+03  0.14714904939E+04  0.50400001928E-02 0.  1.
       -1    1    3    3    0  502  0.10053342309E+04 -0.93172137601E+03 -0.11525152194E+04  0.17908358297E+04  0.50400001928E-02 0. -1.
</event>
<event>
 5   0  0.2466076E-06  0.3243750E+04  0.7818609E-02  0.8177358E-01
        2   -1    0    0  501    0  0.00000000000E+00  0.00000000000E+00  0.14655190569E+04  0.14655190570E+04  0.25500000920E-02 0.  1.
       -2   -1    0    0    0  501  0.00000000000E+00  0.00000000000E+00 -0.17949125187E+04  0.17949125187E+04  0.25500000920E-02 0. -1.
    10030    2    1    2    0    0  0.00000000000E+00  0.00000000000E+00 -0.32939346176E+03  0.32604315757E+04  0.32437499914E+04 0.  0.
        3    1    3    3  502    0  0.96053974497E+03  0.85912645224E+03  0.82512317590E+03  0.15302166932E+04  0.10100000352E+00 0. -1.
       -3    1    3    3    0  502 -0.96053974497E+03 -0.85912645224E+03 -0.11545166377E+04  0.17302148824E+04  0.10100000352E+00 0.  1.
</event>
<event>
 5   0  0.8512855E-07  0.3160904E+04  0.7818609E-02  0.8199219E-01
       -1   -1    0    0    0  501  0.00000000000E+00  0.00000000000E+00  0.14704893173E+04  0.14704893173E+04  0.50400001928E-02 0. -1.
        1   -1    0    0  501    0  0.00000000000E+00  0.00000000000E+00 -0.16986381847E+04  0.16986381847E+04  0.50400001928E-02 0.  1.
    10030    2    1    2    0    0  0.00000000000E+00  0.00000000000E+00 -0.22814886739E+03  0.31691275020E+04  0.31609044936E+04 0.  0.
        5    1    3    3  502    0 -0.12411953067E+04 -0.27669896002E+03 -0.10549608227E+04  0.16522991652E+04  0.46999998093E+01 0.  1.
       -5    1    3    3    0  502  0.12411953067E+04  0.27669896002E+03  0.82681195528E+03  0.15168283368E+04  0.46999998093E+01 0. -1.
</event>
<event>
 5   0  0.2466076E-06  0.3174870E+04  0.7818609E-02  0.8195486E-01
        2   -1    0    0  501    0  0.00000000000E+00  0.00000000000E+00  0.18398329708E+04  0.18398329708E+04  0.25500000920E-02 0. -1.
       -2   -1    0    0    0  501  0.00000000000E+00  0.00000000000E+00 -0.13696627054E+04  0.13696627054E+04  0.25500000920E-02 0.  1.
    10030    2    1    2    0    0  0.00000000000E+00  0.00000000000E+00  0.47017026548E+03  0.32094956762E+04  0.31748704567E+04 0.  0.
        3    1    3    3  502    0  0.13719312164E+04 -0.70028894431E+03 -0.15296418589E+03  0.15479011340E+04  0.10100000352E+00 0.  1.
       -3    1    3    3    0  502 -0.13719312164E+04  0.70028894431E+03  0.62313445138E+03  0.16615945422E+04  0.10100000352E+00 0. -1.
</event>
<event>
 5   0  0.2404430E-06  0.3033026E+04  0.7818609E-02  0.8234363E-01
        2   -1    0    0  501    0  0.00000000000E+00  0.00000000000E+00  0.15239689815E+04  0.15239689815E+04  0.25500000920E-02 0.  1.
       -2   -1    0    0    0  501  0.00000000000E+00  0.00000000000E+00 -0.15090932855E+04  0.15090932855E+04  0.25500000920E-02 0. -1.
    10030    2    1    2    0    0  0.00000000000E+00  0.00000000000E+00  0.14875695975E+02  0.30330622670E+04  0.30330257878E+04 0.  0.
        4    1    3    3  502    0  0.66737640403E+03  0.22166540425E+03  0.13510621832E+04  0.15231209577E+04  0.12699999809E+01 0.  1.
       -4    1    3    3    0  502 -0.66737640403E+03 -0.22166540425E+03 -0.13361864872E+04  0.15099413093E+04  0.12699999809E+01 0. -1.
</event>
<event>
 5   0  0.2466076E-06  0.3158356E+04  0.7818609E-02  0.8199903E-01
        2   -1    0    0  501    0  0.00000000000E+00  0.00000000000E+00  0.20377687939E+04  0.20377687939E+04  0.25500000920E-02 0.  1.
       -2   -1    0    0    0  501  0.00000000000E+00  0.00000000000E+00 -0.12237909354E+04  0.12237909354E+04  0.25500000920E-02 0. -1.
    10030    2    1    2    0    0  0.00000000000E+00  0.00000000000E+00  0.81397785850E+03  0.32615597293E+04  0.31583558878E+04 0.  0.
        3    1    3    3  502    0 -0.10253032058E+04 -0.11822986213E+04  0.62538540828E+03  0.16852844309E+04  0.10100000352E+00 0. -1.
       -3    1    3    3    0  502  0.10253032058E+04  0.11822986213E+04  0.18859245022E+03  0.15762752984E+04  0.10100000352E+00 0.  1.
</event>
<event>
 5   0  0.2337504E-06  0.3538695E+04  0.7818609E-02  0.8104680E-01
       -2   -1    0    0    0  501  0.00000000000E+00  0.00000000000E+00  0.23505836587E+04  0.23505836587E+04  0.25500000920E-02 0.  1.
        2   -1    0    0  501    0  0.00000000000E+00  0.00000000000E+00 -0.13318355420E+04  0.13318355420E+04  0.25500000920E-02 0. -1.
    10030    2    1    2    0    0  0.00000000000E+00  0.00000000000E+00  0.10187481167E+04  0.36824192007E+04  0.35386951613E+04 0.  0.
        1    1    3    3  502    0 -0.10647517859E+04 -0.32617523570E+03  0.19401739504E+04  0.22370430500E+04  0.50400001928E-02 0.  1.
       -1    1    3    3    0  502  0.10647517859E+04  0.32617523570E+03 -0.92142583370E+03  0.14453761507E+04  0.50400001928E-02 0. -1.
</event>
<event>
 5   0  0.8487944E-07  0.3234350E+04  0.7818609E-02  0.8179804E-01
        1   -1    0    0  501    0  0.00000000000E+00  0.00000000000E+00  0.12458054041E+04  0.12458054041E+04  0.50400001928E-02 0.  1.
       -1   -1    0    0    0  501  0.00000000000E+00  0.00000000000E+00 -0.20992486752E+04  0.20992486752E+04  0.50400001928E-02 0. -1.
    10030    2    1    2    0    0  0.00000000000E+00  0.00000000000E+00 -0.85344327112E+03  0.33450540794E+04  0.32343502248E+04 0.  0.
        2    1    3    3  502    0 -0.57610390666E+03 -0.70928570469E+03  0.95321597852E+03  0.13204554608E+04  0.25500000920E-02 0.  1.
       -2    1    3    3    0  502  0.57610390666E+03  0.70928570469E+03 -0.18066592496E+04  0.20245986186E+04  0.25500000920E-02 0. -1.
</event>
<event>
 5   0  0.8383008E-07  0.3160742E+04  0.7818609E-02  0.8199263E-01
        1   -1    0    0  501    0  0.00000000000E+00  0.00000000000E+00  0.26791265280E+04  0.26791265280E+04  0.50400001928E-02 0.  1.
       -1   -1    0    0    0  501  0.00000000000E+00  0.00000000000E+00 -0.93223410636E+03  0.93223410637E+03  0.50400001928E-02 0. -1.
    10030    2    1    2    0    0  0.00000000000E+00  0.00000000000E+00  0.17468924217E+04  0.36113606344E+04  0.31607423968E+04 0.  0.
        4    1    3    3  502    0  0.15175635352E+03  0.23335375065E+03  0.26508958162E+04  0.26654707286E+04  0.12699999809E+01 0.  1.
       -4    1    3    3    0  502 -0.15175635352E+03 -0.23335375065E+03 -0.90400339451E+03  0.94588990583E+03  0.12699999809E+01 0. -1.
</event>
<event>
 5   0  0.2401139E-06  0.3245647E+04  0.7818609E-02  0.8176865E-01
       -2   -1    0    0    0  501  0.00000000000E+00  0.00000000000E+00  0.14399950972E+04  0.14399950972E+04  0.25500000920E-02 0. -1.
        2   -1    0    0  501    0  0.00000000000E+00  0.00000000000E+00 -0.18288643567E+04  0.18288643567E+04  0.25500000920E-02 0.  1.
    10030    2    1    2    0    0  0.00000000000E+00  0.00000000000E+00 -0.38886925951E+03  0.32688594539E+04  0.32456467504E+04 0.  0.
        5    1    3    3  502    0  0.10738028737E+04 -0.95468025697E+03 -0.95419485015E+03  0.17248121366E+04  0.46999998093E+01 0.  1.
       -5    1    3    3    0  502 -0.10738028737E+04  0.95468025697E+03  0.56532559064E+03  0.15440473173E+04  0.46999998093E+01 0. -1.
</event>
<event>
 5   0  0.8681172E-07  0.2918324E+04  0.7818609E-02  0.8267446E-01
       -1   -1    0    0    0  501  0.00000000000E+00  0.00000000000E+00  0.28697622476E+04  0.28697622476E+04  0.50400001928E-02 0. -1.
        1   -1    0    0  501    0  0.00000000000E+00  0.00000000000E+00 -0.74192677651E+03  0.74192677653E+03  0.50400001928E-02 0.  1.
    10030    2    1    2    0    0  0.00000000000E+00  0.00000000000E+00  0.21278354711E+04  0.36116890241E+04  0.29183238023E+04 0.  0.
        1    1    3    3  502    0  0.11968403414E+04  0.80757688567E+03  0.80271223206E+03  0.16519546473E+04  0.50400001928E-02 0. -1.
       -1    1    3    3    0  502 -0.11968403414E+04 -0.80757688567E+03  0.13251232390E+04  0.19597343768E+04  0.50400001928E-02 0.  1.
</event>
<event>
 5   0  0.8383008E-07  0.3182238E+04  0.7818609E-02  0.8193524E-01
       -1   -1    0    0    0  501  0.00000000000E+00  0.00000000000E+00  0.10643755949E+04  0.10643755949E+04  0.50400001928E-02 0.  1.
        1   -1    0    0  501    0  0.00000000000E+00  0.00000000000E+00 -0.23785395595E+04  0.23785395595E+04  0.50400001928E-02 0. -1.
    10030    2    1    2    0    0  0.00000000000E+00  0.00000000000E+00 -0.13141639646E+04  0.34429151544E+04  0.31822378659E+04 0.  0.
        4    1    3    3  502    0 -0.14161534929E+04 -0.60451125275E+03 -0.22332490023E+03  0.15558920895E+04  0.12699999809E+01 0.  1.
       -4    1    3    3    0  502  0.14161534929E+04  0.60451125275E+03 -0.10908390644E+04  0.18870230649E+04  0.12699999809E+01 0. -1.
</event>
<event>
 5   0  0.8512855E-07  0.3323821E+04  0.7818609E-02  0.8156861E-01
       -1   -1    0    0    0  501  0.00000000000E+00  0.00000000000E+00  0.20101748777E+04  0.20101748777E+04  0.50400001928E-02 0. -1.
        1   -1    0    0  501    0  0.00000000000E+00  0.00000000000E+00 -0.13739828410E+04  0.13739828410E+04  0.50400001928E-02 0.  1.
    10030    2    1    2    0    0  0.00000000000E+00  0.00000000000E+00  0.63619203676E+03  0.33841577187E+04  0.33238205664E+04 0.  0.
        5    1    3    3  502    0 -0.49515827495E+03  0.14254899998E+04 -0.39076093330E+03  0.15588199556E+04  0.46999998093E+01 0.  1.
       -5    1    3    3    0  502  0.49515827495E+03 -0.14254899998E+04  0.10269529701E+04  0.18253377631E+04  0.46999998093E+01 0. -1.
</event>
<event>
 5   0  0.2404430E-06  0.3205074E+04  0.7818609E-02  0.8187478E-01
        2   -1    0    0  501    0  0.00000000000E+00  0.00000000000E+00  0.22414265542E+04  0.22414265542E+04  0.25500000920E-02 0.  1.
       -2   -1    0    0    0  501  0.00000000000E+00  0.00000000000E+00 -0.11457549667E+04  0.11457549667E+04  0.25500000920E-02 0. -1.
    10030    2    1    2    0    0  0.00000000000E+00  0.00000000000E+00  0.10956715874E+04  0.33871815209E+04  0.32050744809E+04 0.  0.
        4    1    3    3  502    0 -0.73815419118E+03 -0.84143935969E+03  0.17598328347E+04  0.20856425928E+04  0.12699999809E+01 0.  1.
       -4    1    3    3    0  502  0.73815419118E+03  0.84143935969E+03 -0.66416124727E+03  0.13015389281E+04  0.12699999809E+01 0. -1.
</event>
<event>
 5   0  0.8681172E-07  0.3151738E+04  0.7818609E-02  0.8201681E-01
        1   -1    0    0  501    0  0.00000000000E+00  0.00000000000E+00  0.28352978938E+04  0.28352978938E+04  0.50400001928E-02 0. -1.
       -1   -1    0    0    0  501  0.00000000000E+00  0.00000000000E+00 -0.87587377844E+03  0.87587377845E+03  0.50400001928E-02 0.  1.
    10030    2    1    2    0    0  0.00000000000E+00  0.00000000000E+00  0.19594241153E+04  0.37111716722E+04  0.31517379836E+04 0.  0.
        1    1    3    3  502    0  0.79417321801E+03  0.11607628786E+04  0.14270784142E+03  0.14136644186E+04  0.50400001928E-02 0. -1.
       -1    1    3    3    0  502 -0.79417321801E+03 -0.11607628786E+04  0.18167162739E+04  0.22975072536E+04  0.50400001928E-02 0.  1.
</event>
<event>
 5   0  0.2621528E-06  0.3200327E+04  0.7818609E-02  0.8188731E-01
        2   -1    0    0  501    0  0.00000000000E+00  0.00000000000E+00  0.20051920757E+04  0.20051920757E+04  0.25500000920E-02 0.  1.
       -2   -1    0    0    0  501  0.00000000000E+00  0.00000000000E+00 -0.12769469611E+04  0.12769469611E+04  0.25500000920E-02 0. -1.
    10030    2    1    2    0    0  0.00000000000E+00  0.00000000000E+00  0.72824511458E+03  0.32821390368E+04  0.32003274379E+04 0.  0.
        2    1    3    3  502    0  0.47406824438E+03 -0.37788494029E+03 -0.11546072226E+04  0.13040918553E+04  0.25500000920E-02 0. -1.
       -2    1    3    3    0  502 -0.47406824438E+03  0.37788494029E+03  0.18828523372E+04  0.19780471815E+04  0.25500000920E-02 0.  1.
</event>
<event>
 5   0  0.2401139E-06  0.3217842E+04  0.7818609E-02  0.8184121E-01
       -2   -1    0    0    0  501  0.00000000000E+00  0.00000000000E+00  0.11968756704E+04  0.11968756704E+04  0.25500000920E-02 0.  1.
        2   -1    0    0  501    0  0.00000000000E+00  0.00000000000E+00 -0.21628202820E+04  0.21628202820E+04  0.25500000920E-02 0. -1.
    10030    2    1    2    0    0  0.00000000000E+00  0.00000000000E+00 -0.96594461160E+03  0.33596959525E+04  0.32178421186E+04 0.  0.
        5    1    3    3  502    0  0.24732874917E+03  0.11746475709E+04 -0.16014759738E+04  0.20014284426E+04  0.46999998093E+01 0. -1.
       -5    1    3    3    0  502 -0.24732874917E+03 -0.11746475709E+04  0.63553136219E+03  0.13582675099E+04  0.46999998093E+01 0.  1.
</event>
<event>
 5   0  0.8545153E-07  0.3206274E+04  0.7818609E-02  0.8187162E-01
       -1   -1    0    0    0  501  0.00000000000E+00  0.00000000000E+00  0.11953657732E+04  0.11953657732E+04  0.50400001928E-02 0.  1.
        1   -1    0    0  501    0  0.00000000000E+00  0.00000000000E+00 -0.21500100274E+04  0.21500100274E+04  0.50400001928E-02 0. -1.
    10030    2    1    2    0    0  0.00000000000E+00  0.00000000000E+00 -0.95464425419E+03  0.33453758006E+04  0.32062740986E+04 0.  0.
        3    1    3    3  502    0  0.14729925315E+04 -0.63271604903E+03 -0.48090504580E+03  0.16737103304E+04  0.10100000352E+00 0. -1.
       -3    1    3    3    0  502 -0.14729925315E+04  0.63271604903E+03 -0.47373920838E+03  0.16716654702E+04  0.10100000352E+00 0.  1.
</event>
<event>
 5   0  0.8512855E-07  0.3207323E+04  0.7818609E-02  0.8186886E-01
       -1   -1    0    0    0  501  0.00000000000E+00  0.00000000000E+00  0.90059720324E+03  0.90059720325E+03  0.50400001928E-02 0.  1.
        1   -1    0    0  501    0  0.00000000000E+00  0.00000000000E+00 -0.28555837130E+04  0.28555837130E+04  0.50400001928E-02 0. -1.
    10030    2    1    2    0    0  0.00000000000E+00  0.00000000000E+00 -0.19549865098E+04  0.37561809163E+04  0.32073233112E+04 0.  0.
        5    1    3    3  502    0  0.11045507886E+03 -0.15886357514E+04 -0.11989096801E+04  0.19933314793E+04  0.46999998093E+01 0.  1.
       -5    1    3    3    0  502 -0.11045507886E+03  0.15886357514E+04 -0.75607682968E+03  0.17628494370E+04  0.46999998093E+01 0. -1.
</event>
<event>
 5   0  0.2621528E-06  0.3213777E+04  0.7818609E-02  0.8185188E-01
       -2   -1    0    0    0  501  0.00000000000E+00  0.00000000000E+00  0.11776597748E+04  0.11776597748E+04  0.25500000920E-02 0. -1.
        2   -1    0    0  501    0  0.00000000000E+00  0.00000000000E+00 -0.21925604233E+04  0.21925604234E+04  0.25500000920E-02 0.  1.
    10030    2    1    2    0    0  0.00000000000E+00  0.00000000000E+00 -0.10149006486E+04  0.33702201981E+04  0.32137767280E+04 0.  0.
        2    1    3    3  502    0  0.63718031051E+03 -0.10745492987E+04  0.55240845251E+03  0.13659465736E+04  0.25500000920E-02 0. -1.
       -2    1    3    3    0  502 -0.63718031051E+03  0.10745492987E+04 -0.15673091011E+04  0.20042736245E+04  0.25500000920E-02 0.  1.
</event>
<event>
 5   0  0.8383008E-07  0.3208288E+04  0.7818609E-02  0.8186632E-01
       -1   -1    0    0    0  501  0.00000000000E+00  0.00000000000E+00  0.13646003967E+04  0.13646003967E+04  0.50400001928E-02 0.  1.
        1   -1    0    0  501    0  0.00000000000E+00  0.00000000000E+00 -0.18857369953E+04  0.18857369953E+04  0.50400001928E-02 0. -1.
    10030    2    1    2    0    0  0.00000000000E+00  0.00000000000E+00 -0.52113659862E+03  0.32503373921E+04  0.32082876754E+04 0.  0.
        4    1    3    3  502    0 -0.11387061118E+04 -0.10804520550E+04 -0.59542659887E+03  0.16788575579E+04  0.12699999809E+01 0. -1.
       -4    1    3    3    0  502  0.11387061118E+04  0.10804520550E+04  0.74290000242E+02  0.15714798342E+04  0.12699999809E+01 0.  1.
</event>
<event>
 5   0  0.2466076E-06  0.3240043E+04  0.7818609E-02  0.8178321E-01
        2   -1    0    0  501    0  0.00000000000E+00  0.00000000000E+00  0.23269816070E+04  0.23269816070E+04  0.25500000920E-02 0.  1.
       -2   -1    0    0    0  501  0.00000000000E+00  0.00000000000E+00 -0.11278430947E+04  0.11278430947E+04  0.25500000920E-02 0. -1.
    10030    2    1    2    0    0  0.00000000000E+00  0.00000000000E+00  0.11991385123E+04  0.34548247018E+04  0.32400432942E+04 0.  0.
        3    1    3    3  502    0 -0.13817861108E+04 -0.25719707523E+03  0.14585692878E+04  0.20255635189E+04  0.10100000352E+00 0.  1.
       -3    1    3    3    0  502  0.13817861108E+04  0.25719707523E+03 -0.25943077546E+03  0.14292611829E+04  0.10100000352E+00 0. -1.
</event>
<event>
 5   0  0.2401139E-06  0.3162000E+04  0.7818609E-02  0.8198926E-01
        2   -1    0    0  501    0  0.00000000000E+00  0.00000000000E+00  0.23601745890E+04  0.23601745890E+04  0.25500000920E-02 0.  1.
       -2   -1    0    0    0  501  0.00000000000E+00  0.00000000000E+00 -0.10590573936E+04  0.10590573936E+04  0.25500000920E-02 0. -1.
    10030    2    1    2    0    0  0.00000000000E+00  0.00000000000E+00  0.13011171955E+04  0.34192319826E+04  0.31619995880E+04 0.  0.
        5    1    3    3  502    0 -0.17455526535E+03 -0.84871547644E+03  0.20805410758E+04  0.22537659059E+04  0.46999998093E+01 0.  1.
       -5    1    3    3    0  502  0.17455526535E+03  0.84871547644E+03 -0.77942388033E+03  0.11654660767E+04  0.46999998093E+01 0. -1.
</event>
<event>
 5   0  0.2337504E-06  0.3202294E+04  0.7818609E-02  0.8188211E-01
       -2   -1    0    0    0  501  0.00000000000E+00  0.00000000000E+00  0.12596224568E+04  0.12596224568E+04  0.25500000920E-02 0. -1.
        2   -1    0    0  501    0  0.00000000000E+00  0.00000000000E+00 -0.20352705197E+04  0.20352705198E+04  0.25500000920E-02 0.  1.
    10030    2    1    2    0    0  0.00000000000E+00  0.00000000000E+00 -0.77564806298E+03  0.32948929765E+04  0.32022944601E+04 0.  0.
        1    1    3    3  502    0  0.13606334825E+04 -0.45240609335E+03 -0.11209423888E+04  0.18200292816E+04  0.50400001928E-02 0.  1.
       -1    1    3    3    0  502 -0.13606334825E+04  0.45240609335E+03  0.34529432577E+03  0.14748636949E+04  0.50400001928E-02 0. -1.
</event>
<event>
 5   0  0.8383008E-07  0.3192471E+04  0.7818609E-02  0.8190808E-01
        1   -1    0    0  501    0  0.00000000000E+00  0.00000000000E+00  0.16117901573E+04  0.16117901573E+04  0.50400001928E-02 0.  1.
       -1   -1    0    0    0  501  0.00000000000E+00  0.00000000000E+00 -0.15808314393E+04  0.15808314393E+04  0.50400001928E-02 0. -1.
    10030    2    1    2    0    0  0.00000000000E+00  0.00000000000E+00  0.30958717946E+02  0.31926215966E+04  0.31924714904E+04 0.  0.
        4    1    3    3  502    0  0.31865105502E+03 -0.91977668647E+03  0.12806235399E+04  0.16085788484E+04  0.12699999809E+01 0.  1.
       -4    1    3    3    0  502 -0.31865105502E+03  0.91977668647E+03 -0.12496648219E+04  0.15840427481E+04  0.12699999809E+01 0. -1.
</event>
<event>
 5   0  0.2337504E-06  0.3197843E+04  0.7818609E-02  0.8189387E-01
       -2   -1    0    0    0  501  0.00000000000E+00  0.00000000000E+00  0.17518097336E+04  0.17518097336E+04  0.25500000920E-02 0.  1.
        2   -1    0    0  501    0  0.00000000000E+00  0.00000000000E+00 -0.14593767332E+04  0.14593767332E+04  0.25500000920E-02 0. -1.
    10030    2    1    2    0    0  0.00000000000E+00  0.00000000000E+00  0.29243300041E+03  0.32111864669E+04  0.31978432522E+04 0.  0.
        1    1    3    3  502    0 -0.11377107330E+04 -0.69891180689E+03  0.10294814273E+04  0.16860294882E+04  0.50400001928E-02 0. -1.
       -1    1    3    3    0  502  0.11377107330E+04  0.69891180689E+03 -0.73704842694E+03  0.15251569787E+04  0.50400001928E-02 0.  1.
</event>
<event>
 5   0  0.8681172E-07  0.3190118E+04  0.7818609E-02  0.8191432E-01
       -1   -1    0    0    0  501  0.00000000000E+00  0.00000000000E+00  0.13941114109E+04  0.13941114109E+04  0.50400001928E-02 0.  1.
        1   -1    0    0  501    0  0.00000000000E+00  0.00000000000E+00 -0.18249715717E+04  0.18249715717E+04  0.50400001928E-02 0. -1.
    10030    2    1    2    0    0  0.00000000000E+00  0.00000000000E+00 -0.43086016078E+03  0.32190829826E+04  0.31901183004E+04 0.  0.
        1    1    3    3  502    0  0.73585412190E+03  0.13590599029E+04  0.18272638136E+03  0.15562499924E+04  0.50400001928E-02 0.  1.
       -1    1    3    3    0  502 -0.73585412190E+03 -0.13590599029E+04 -0.61358654214E+03  0.16628329902E+04  0.50400001928E-02 0. -1.
</event>
<event>
 5   0  0.2404430E-06  0.3203072E+04  0.7818609E-02  0.8188006E-01
        2   -1    0    0  501    0  0.00000000000E+00  0.00000000000E+00  0.17025477439E+04  0.17025477439E+04  0.25500000920E-02 0.  1.
       -2   -1    0    0    0  501  0.00000000000E+00  0.00000000000E+00 -0.15065168277E+04  0.15065168277E+04  0.25500000920E-02 0. -1.
    10030    2    1    2    0    0  0.00000000000E+00  0.00000000000E+00  0.19603091615E+03  0.32090645717E+04  0.32030715423E+04 0.  0.
        4    1    3    3  502    0  0.88014282622E+03 -0.12597205800E+04 -0.35379158498E+03  0.15769329195E+04  0.12699999809E+01 0. -1.
       -4    1    3    3    0  502 -0.88014282622E+03  0.12597205800E+04  0.54982250113E+03  0.16321316521E+04  0.12699999809E+01 0.  1.
</event>
<event>
 5   0  0.8681172E-07  0.3201628E+04  0.7818609E-02  0.8188387E-01
        1   -1    0    0  501    0  0.00000000000E+00  0.00000000000E+00  0.18769485696E+04  0.18769485696E+04  0.50400001928E-02 0.  1.
       -1   -1    0    0    0  501  0.00000000000E+00  0.00000000000E+00 -0.13653042728E+04  0.13653042728E+04  0.50400001928E-02 0. -1.
    10030    2    1    2    0    0  0.00000000000E+00  0.00000000000E+00  0.51164429682E+03  0.32422528425E+04  0.32016282745E+04 0.  0.
        1    1    3    3  502    0 -0.42370951565E+03 -0.11866862367E+03 -0.13028613757E+04  0.13751580855E+04  0.50400001928E-02 0. -1.
       -1    1    3    3    0  502  0.42370951565E+03  0.11866862367E+03  0.18145056725E+04  0.18670947570E+04  0.50400001928E-02 0.  1.
</event>
<event>
 5   0  0.2401139E-06  0.3228778E+04  0.7818609E-02  0.8181258E-01
       -2   -1    0    0    0  501  0.00000000000E+00  0.00000000000E+00  0.12438735456E+04  0.12438735456E+04  0.25500000920E-02 0.  1.
        2   -1    0    0  501    0  0.00000000000E+00  0.00000000000E+00 -0.20952702071E+04  0.20952702071E+04  0.25500000920E-02 0. -1.
    10030    2    1    2    0    0  0.00000000000E+00  0.00000000000E+00 -0.85139666150E+03  0.33391437527E+04  0.32287775901E+04 0.  0.
        5    1    3    3  502    0 -0.10654620763E+03 -0.81162542939E+03 -0.18647139063E+04  0.20364842191E+04  0.46999998093E+01 0. -1.
       -5    1    3    3    0  502  0.10654620763E+03  0.81162542939E+03  0.10133172448E+04  0.13026595337E+04  0.46999998093E+01 0.  1.
</event>
<event>
 5   0  0.2401139E-06  0.3186652E+04  0.7818609E-02  0.8192351E-01
        2   -1    0    0  501    0  0.00000000000E+00  0.00000000000E+00  0.22009311145E+04  0.22009311145E+04  0.25500000920E-02 0. -1.
       -2   -1    0    0    0  501  0.00000000000E+00  0.00000000000E+00 -0.11534610435E+04  0.11534610435E+04  0.25500000920E-02 0.  1.
    10030    2    1    2    0    0  0.00000000000E+00  0.00000000000E+00  0.10474700711E+04  0.33543921580E+04  0.31866523500E+04 0.  0.
        5    1    3    3  502    0  0.26908785836E+03 -0.14572354768E+04 -0.92505954632E+02  0.14847636014E+04  0.46999998093E+01 0.  1.
       -5    1    3    3    0  502 -0.26908785836E+03  0.14572354768E+04  0.11399760257E+04  0.18696285566E+04  0.46999998093E+01 0. -1.
</event>
<event>
 5   0  0.2621528E-06  0.3199159E+04  0.7818609E-02  0.8189039E-01
       -2   -1    0    0    0  501  0.00000000000E+00  0.00000000000E+00  0.12838342483E+04  0.12838342483E+04  0.25500000920E-02 0. -1.
        2   -1    0    0  501    0  0.00000000000E+00  0.00000000000E+00 -0.19929792048E+04  0.19929792048E+04  0.25500000920E-02 0.  1.
    10030    2    1    2    0    0  0.00000000000E+00  0.00000000000E+00 -0.70914495647E+03  0.32768134531E+04  0.31991592392E+04 0.  0.
        2    1    3    3  502    0 -0.86391090627E+03 -0.10725640336E+04 -0.11879050980E+04  0.18187507202E+04  0.25500000920E-02 0.  1.
       -2    1    3    3    0  502  0.86391090627E+03  0.10725640336E+04  0.47876014157E+03  0.14580627330E+04  0.25500000920E-02 0. -1.
</event>
<event>
 5   0  0.2621528E-06  0.3009186E+04  0.7818609E-02  0.8241113E-01
        2   -1    0    0  501    0  0.00000000000E+00  0.00000000000E+00  0.99222111523E+03  0.99222111523E+03  0.25500000920E-02 0.  1.
       -2   -1    0    0    0  501  0.00000000000E+00  0.00000000000E+00 -0.22815480706E+04  0.22815480706E+04  0.25500000920E-02 0. -1.
    10030    2    1    2    0    0  0.00000000000E+00  0.00000000000E+00 -0.12893269553E+04  0.32737691858E+04  0.30091860501E+04 0.  0.
        2    1    3    3  502    0  0.89444483896E+02 -0.11888585637E+04 -0.16431957516E+04  0.20301421818E+04  0.25500000920E-02 0. -1.
       -2    1    3    3    0  502 -0.89444483896E+02  0.11888585637E+04  0.35386879623E+03  0.12436270040E+04  0.25500000920E-02 0.  1.
</event>
<event>
 5   0  0.2337504E-06  0.3204265E+04  0.7818609E-02  0.8187692E-01
       -2   -1    0    0    0  501  0.00000000000E+00  0.00000000000E+00  0.13195625628E+04  0.13195625628E+04  0.25500000920E-02 0.  1.
        2   -1    0    0  501    0  0.00000000000E+00  0.00000000000E+00 -0.19452122393E+04  0.19452122393E+04  0.25500000920E-02 0. -1.
    10030    2    1    2    0    0  0.00000000000E+00  0.00000000000E+00 -0.62564967651E+03  0.32647748021E+04  0.32042654370E+04 0.  0.
        1    1    3    3  502    0  0.12374381845E+04 -0.60813772003E+03  0.51851489619E+03  0.14730724506E+04  0.50400001928E-02 0.  1.
       -1    1    3    3    0  502 -0.12374381845E+04  0.60813772003E+03 -0.11441645727E+04  0.17917023515E+04  0.50400001928E-02 0. -1.
</event>
<event>
 5   0  0.8512855E-07  0.3201040E+04  0.7818609E-02  0.8188543E-01
        1   -1    0    0  501    0  0.00000000000E+00  0.00000000000E+00  0.20766805805E+04  0.20766805805E+04  0.50400001928E-02 0. -1.
       -1   -1    0    0    0  501  0.00000000000E+00  0.00000000000E+00 -0.12335379119E+04  0.12335379119E+04  0.50400001928E-02 0.  1.
    10030    2    1    2    0    0  0.00000000000E+00  0.00000000000E+00  0.84314266863E+03  0.33102184924E+04  0.32010399729E+04 0.  0.
        5    1    3    3  502    0  0.99350153590E+03  0.10263233415E+04  0.11681775661E+04  0.18452766240E+04  0.46999998093E+01 0. -1.
       -5    1    3    3    0  502 -0.99350153590E+03 -0.10263233415E+04 -0.32503489749E+03  0.14649418684E+04  0.46999998093E+01 0.  1.
</event>
<event>
 5   0  0.8545153E-07  0.3235367E+04  0.7818609E-02  0.8179539E-01
        1   -1    0    0  501    0  0.00000000000E+00  0.00000000000E+00  0.14090311546E+04  0.14090311546E+04  0.50400001928E-02 0. -1.
       -1   -1    0    0    0  501  0.00000000000E+00  0.00000000000E+00 -0.18572340636E+04  0.18572340636E+04  0.50400001928E-02 0.  1.
    10030    2    1    2    0    0  0.00000000000E+00  0.00000000000E+00 -0.44820290903E+03  0.32662652182E+04  0.32353674641E+04 0.  0.
        3    1    3    3  502    0 -0.14701862392E+04 -0.65852787877E+03 -0.75063350375E+02  0.16126813268E+04  0.10100000352E+00 0. -1.
       -3    1    3    3    0  502  0.14701862392E+04  0.65852787877E+03 -0.37313955866E+03  0.16535838913E+04  0.10100000352E+00 0.  1.
</event>
<event>
 5   0  0.2466076E-06  0.3201338E+04  0.7818609E-02  0.8188464E-01
       -2   -1    0    0    0  501  0.00000000000E+00  0.00000000000E+00  0.95027259735E+03  0.95027259735E+03  0.25500000920E-02 0.  1.
        2   -1    0    0  501    0  0.00000000000E+00  0.00000000000E+00 -0.26962174310E+04  0.26962174310E+04  0.25500000920E-02 0. -1.
    10030    2    1    2    0    0  0.00000000000E+00  0.00000000000E+00 -0.17459448336E+04  0.36464900283E+04  0.32013381834E+04 0.  0.
        3    1    3    3  502    0 -0.46435108845E+03 -0.15130789591E+04 -0.11451835430E+04  0.19535801051E+04  0.10100000352E+00 0. -1.
       -3    1    3    3    0  502  0.46435108845E+03  0.15130789591E+04 -0.60076129067E+03  0.16929099233E+04  0.10100000352E+00 0.  1.
</event>
<event>
 5   0  0.8681172E-07  0.3108364E+04  0.7818609E-02  0.8213446E-01
        1   -1    0    0  501    0  0.00000000000E+00  0.00000000000E+00  0.14486015324E+04  0.14486015324E+04  0.50400001928E-02 0. -1.
       -1   -1    0    0    0  501  0.00000000000E+00  0.00000000000E+00 -0.16674574212E+04  0.16674574212E+04  0.50400001928E-02 0.  1.
    10030    2    1    2    0    0  0.00000000000E+00  0.00000000000E+00 -0.21885588881E+03  0.31160589537E+04  0.31083637983E+04 0.  0.
        1    1    3    3  502    0 -0.35023348676E+03 -0.10659743769E+04 -0.11875048469E+04  0.16337480310E+04  0.50400001928E-02 0.  1.
       -1    1    3    3    0  502  0.35023348676E+03  0.10659743769E+04  0.96864895805E+03  0.14823109227E+04  0.50400001928E-02 0. -1.
</event>
<event>
 5   0  0.2621528E-06  0.3122115E+04  0.7818609E-02  0.8209695E-01
        2   -1    0    0  501    0  0.00000000000E+00  0.00000000000E+00  0.19102614914E+04  0.19102614914E+04  0.25500000920E-02 0.  1.
       -2   -1    0    0    0  501  0.00000000000E+00  0.00000000000E+00 -0.12756890880E+04  0.12756890880E+04  0.25500000920E-02 0. -1.
    10030    2    1    2    0    0  0.00000000000E+00  0.00000000000E+00  0.63457240336E+03  0.31859505794E+04  0.31221145013E+04 0.  0.
        2    1    3    3  502    0 -0.21521175259E+03  0.12693324381E+04  0.12181611357E+04  0.17724100793E+04  0.25500000920E-02 0.  1.
       -2    1    3    3    0  502  0.21521175259E+03 -0.12693324381E+04 -0.58358873230E+03  0.14135405001E+04  0.25500000920E-02 0. -1.
</event>
<event>
 5   0  0.8383008E-07  0.3219681E+04  0.7818609E-02  0.8183639E-01
        1   -1    0    0  501    0  0.00000000000E+00  0.00000000000E+00  0.21277874780E+04  0.21277874780E+04  0.50400001928E-02 0. -1.
       -1   -1    0    0    0  501  0.00000000000E+00  0.00000000000E+00 -0.12179723373E+04  0.12179723373E+04  0.50400001928E-02 0.  1.
    10030    2    1    2    0    0  0.00000000000E+00  0.00000000000E+00  0.90981514069E+03  0.33457598153E+04  0.32196809083E+04 0.  0.
        4    1    3    3  502    0 -0.34543631958E+03  0.63157448668E+03  0.19512140361E+04  0.20797717208E+04  0.12699999809E+01 0. -1.
       -4    1    3    3    0  502  0.34543631958E+03 -0.63157448668E+03 -0.10413988954E+04  0.12659880945E+04  0.12699999809E+01 0.  1.
</event>
<event>
 5   0  0.8681172E-07  0.3231376E+04  0.7818609E-02  0.8180580E-01
        1   -1    0    0  501    0  0.00000000000E+00  0.00000000000E+00  0.14131328490E+04  0.14131328490E+04  0.50400001928E-02 0. -1.
       -1   -1    0    0    0  501  0.00000000000E+00  0.00000000000E+00 -0.18472774962E+04  0.18472774963E+04  0.50400001928E-02 0.  1.
    10030    2    1    2    0    0  0.00000000000E+00  0.00000000000E+00 -0.43414464729E+03  0.32604103452E+04  0.32313764938E+04 0.  0.
        1    1    3    3  502    0 -0.48192882610E+03 -0.29730371377E+03  0.13097335422E+04  0.14269011330E+04  0.50400001928E-02 0. -1.
       -1    1    3    3    0  502  0.48192882610E+03  0.29730371377E+03 -0.17438781895E+04  0.18335092123E+04  0.50400001928E-02 0.  1.
</event>
<event>
 5   0  0.8487944E-07  0.3056283E+04  0.7818609E-02  0.8227839E-01
        1   -1    0    0  501    0  0.00000000000E+00  0.00000000000E+00  0.23320457259E+04  0.23320457259E+04  0.50400001928E-02 0. -1.
       -1   -1    0    0    0  501  0.00000000000E+00  0.00000000000E+00 -0.10013597200E+04  0.10013597200E+04  0.50400001928E-02 0.  1.
    10030    2    1    2    0    0  0.00000000000E+00  0.00000000000E+00  0.13306860059E+04  0.33334054459E+04  0.30562831381E+04 0.  0.
        2    1    3    3  502    0 -0.12927391124E+04  0.76544585650E+03  0.97021465140E+03  0.17884066209E+04  0.25500000920E-02 0. -1.
       -2    1    3    3    0  502  0.12927391124E+04 -0.76544585650E+03  0.36047135453E+03  0.15449988250E+04  0.25500000920E-02 0.  1.
</event>
<event>
 5   0  0.8512855E-07  0.3207082E+04  0.7818609E-02  0.8186949E-01
        1   -1    0    0  501    0  0.00000000000E+00  0.00000000000E+00  0.16428641024E+04  0.16428641024E+04  0.50400001928E-02 0. -1.
       -1   -1    0    0    0  501  0.00000000000E+00  0.00000000000E+00 -0.15651594857E+04  0.15651594857E+04  0.50400001928E-02 0.  1.
    10030    2    1    2    0    0  0.00000000000E+00  0.00000000000E+00  0.77704616676E+02  0.32080235881E+04  0.32070823710E+04 0.  0.
        5    1    3    3  502    0  0.14417303274E+04  0.15164102351E+03 -0.64672530727E+03  0.15874057610E+04  0.46999998093E+01 0.  1.
       -5    1    3    3    0  502 -0.14417303274E+04 -0.15164102351E+03  0.72442992395E+03  0.16206178271E+04  0.46999998093E+01 0. -1.
</event>
<event>
 5   0  0.2404430E-06  0.3233949E+04  0.7818609E-02  0.8179908E-01
        2   -1    0    0  501    0  0.00000000000E+00  0.00000000000E+00  0.14033332532E+04  0.14033332532E+04  0.25500000920E-02 0.  1.
       -2   -1    0    0    0  501  0.00000000000E+00  0.00000000000E+00 -0.18631402583E+04  0.18631402583E+04  0.25500000920E-02 0. -1.
    10030    2    1    2    0    0  0.00000000000E+00  0.00000000000E+00 -0.45980700505E+03  0.32664735115E+04  0.32339490904E+04 0.  0.
        4    1    3    3  502    0 -0.14512383118E+03  0.12344490891E+04  0.81475132592E+03  0.14861853236E+04  0.12699999809E+01 0.  1.
       -4    1    3    3    0  502  0.14512383118E+03 -0.12344490891E+04 -0.12745583310E+04  0.17802881879E+04  0.12699999809E+01 0. -1.
</event>
<event>
 5   0  0.2404430E-06  0.3197874E+04  0.7818609E-02  0.8189379E-01
       -2   -1    0    0    0  501  0.00000000000E+00  0.00000000000E+00  0.11875367518E+04  0.11875367518E+04  0.25500000920E-02 0.  1.
        2   -1    0    0  501    0  0.00000000000E+00  0.00000000000E+00 -0.21528593452E+04  0.21528593452E+04  0.25500000920E-02 0. -1.
    10030    2    1    2    0    0  0.00000000000E+00  0.00000000000E+00 -0.96532259347E+03  0.33403960970E+04  0.31978740400E+04 0.  0.
        4    1    3    3  502    0 -0.11924850059E+04 -0.64904810369E+03 -0.13648815089E+04  0.19251459884E+04  0.12699999809E+01 0. -1.
       -4    1    3    3    0  502  0.11924850059E+04  0.64904810369E+03  0.39955891546E+03  0.14152501087E+04  0.12699999809E+01 0.  1.
</event>
<event>
 5   0  0.8487944E-07  0.3189252E+04  0.7818609E-02  0.8191661E-01
       -1   -1    0    0    0  501  0.00000000000E+00  0.00000000000E+00  0.14165853325E+04  0.14165853325E+04  0.50400001928E-02 0.  1.
        1   -1    0    0  501    0  0.00000000000E+00  0.00000000000E+00 -0.17950432433E+04  0.17950432433E+04  0.50400001928E-02 0. -1.
    10030    2    1    2    0    0  0.00000000000E+00  0.00000000000E+00 -0.37845791083E+03  0.32116285758E+04  0.31892519058E+04 0.  0.
        2    1    3    3  502    0  0.13326005799E+04 -0.83722285221E+03 -0.44806450176E+03  0.16363154364E+04  0.25500000920E-02 0. -1.
       -2    1    3    3    0  502 -0.13326005799E+04  0.83722285221E+03  0.69606590929E+02  0.15753131394E+04  0.25500000920E-02 0.  1.
</event>
<event>
 5   0  0.2404430E-06  0.3173157E+04  0.7818609E-02  0.8195942E-01
       -2   -1    0    0    0  501  0.00000000000E+00  0.00000000000E+00  0.12907561979E+04  0.12907561979E+04  0.25500000920E-02 0.  1.
        2   -1    0    0  501    0  0.00000000000E+00  0.00000000000E+00 -0.19501992983E+04  0.19501992984E+04  0.25500000920E-02 0. -1.
    10030    2    1    2    0    0  0.00000000000E+00  0.00000000000E+00 -0.65944310045E+03  0.32409554963E+04  0.31731573119E+04 0.  0.
        4    1    3    3  502    0  0.12870896786E+04  0.78313664113E+03 -0.83766757052E+03  0.17238304473E+04  0.12699999809E+01 0. -1.
       -4    1    3    3    0  502 -0.12870896786E+04 -0.78313664113E+03  0.17822447007E+03  0.15171250489E+04  0.12699999809E+01 0.  1.
</event>
<event>
 5   0  0.2337504E-06  0.2958262E+04  0.7818609E-02  0.8255751E-01
        2   -1    0    0  501    0  0.00000000000E+00  0.00000000000E+00  0.14503583545E+04  0.14503583545E+04  0.25500000920E-02 0.  1.
       -2   -1    0    0    0  501  0.00000000000E+00  0.00000000000E+00 -0.15084745483E+04  0.15084745483E+04  0.25500000920E-02 0. -1.
    10030    2    1    2    0    0  0.00000000000E+00  0.00000000000E+00 -0.58116193809E+02  0.29588329029E+04  0.29582621005E+04 0.  0.
        1    1    3    3  502    0 -0.13154516885E+03  0.17523041672E+03 -0.14921523103E+04  0.15081539536E+04  0.50400001928E-02 0. -1.
       -1    1    3    3    0  502  0.13154516885E+03 -0.17523041672E+03  0.14340361165E+04  0.14506789493E+04  0.50400001928E-02 0.  1.
</event>
<event>
 5   0  0.2404430E-06  0.3210741E+04  0.7818609E-02  0.8185986E-01
       -2   -1    0    0    0  501  0.00000000000E+00  0.00000000000E+00  0.10320552947E+04  0.10320552947E+04  0.25500000920E-02 0.  1.
        2   -1    0    0  501    0  0.00000000000E+00  0.00000000000E+00 -0.24971677884E+04  0.24971677884E+04  0.25500000920E-02 0. -1.
    10030    2    1    2    0    0  0.00000000000E+00  0.00000000000E+00 -0.14651124937E+04  0.35292230831E+04  0.32107414955E+04 0.  0.
        4    1    3    3  502    0  0.82195671721E+03 -0.12334290610E+04 -0.54742460064E+02  0.14832256886E+04  0.12699999809E+01 0.  1.
       -4    1    3    3    0  502 -0.82195671721E+03  0.12334290610E+04 -0.14103700336E+04  0.20459973945E+04  0.12699999809E+01 0. -1.
</event>
<event>
 5   0  0.8512855E-07  0.3192512E+04  0.7818609E-02  0.8190798E-01
       -1   -1    0    0    0  501  0.00000000000E+00  0.00000000000E+00  0.13125639406E+04  0.13125639406E+04  0.50400001928E-02 0.  1.
        1   -1    0    0  501    0  0.00000000000E+00  0.00000000000E+00 -0.19412640466E+04  0.19412640466E+04  0.50400001928E-02 0. -1.
    10030    2    1    2    0    0  0.00000000000E+00  0.00000000000E+00 -0.62870010601E+03  0.32538279871E+04  0.31925119806E+04 0.  0.
        5    1    3    3  502    0  0.13847645076E+04 -0.70189643452E+03  0.63965983630E+02  0.15538162966E+04  0.46999998093E+01 0. -1.
       -5    1    3    3    0  502 -0.13847645076E+04  0.70189643452E+03 -0.69266608964E+03  0.17000116906E+04  0.46999998093E+01 0.  1.
</event>
<event>
 5   0  0.2401139E-06  0.3201145E+04  0.7818609E-02  0.8188515E-01
       -2   -1    0    0    0  501  0.00000000000E+00  0.00000000000E+00  0.18578477702E+04  0.18578477702E+04  0.25500000920E-02 0. -1.
        2   -1    0    0  501    0  0.00000000000E+00  0.00000000000E+00 -0.13789247433E+04  0.13789247433E+04  0.25500000920E-02 0.  1.
    10030    2    1    2    0    0  0.00000000000E+00  0.00000000000E+00  0.47892302687E+03  0.32367725136E+04  0.32011449575E+04 0.  0.
        5    1    3    3  502    0  0.99428016885E+02 -0.27247553914E+03  0.18310454964E+04  0.18538820216E+04  0.46999998093E+01 0. -1.
       -5    1    3    3    0  502 -0.99428016885E+02  0.27247553914E+03 -0.13521224696E+04  0.13828904919E+04  0.46999998093E+01 0.  1.
</event>
<event>
 5   0  0.8512855E-07  0.3286805E+04  0.7818609E-02  0.8166261E-01
       -1   -1    0    0    0  501  0.00000000000E+00  0.00000000000E+00  0.35151352575E+04  0.35151352575E+04  0.50400001928E-02 0.  1.
        1   -1    0    0  501    0  0.00000000000E+00  0.00000000000E+00 -0.76832651693E+03  0.76832651694E+03  0.50400001928E-02 0. -1.
    10030    2    1    2    0    0  0.00000000000E+00  0.00000000000E+00  0.27468087406E+04  0.42834617744E+04  0.32868049099E+04 0.  0.
        5    1    3    3  502    0  0.73905354890E+03 -0.14560717009E+04  0.11316751346E+04  0.19867198209E+04  0.46999998093E+01 0. -1.
       -5    1    3    3    0  502 -0.73905354890E+03  0.14560717009E+04  0.16151336060E+04  0.22967419536E+04  0.46999998093E+01 0.  1.
</event>
<event>
 5   0  0.8545153E-07  0.3124380E+04  0.7818609E-02  0.8209079E-01
       -1   -1    0    0    0  501  0.00000000000E+00  0.00000000000E+00  0.12611383851E+04  0.12611383851E+04  0.50400001928E-02 0.  1.
        1   -1    0    0  501    0  0.00000000000E+00  0.00000000000E+00 -0.19351071896E+04  0.19351071896E+04  0.50400001928E-02 0. -1.
    10030    2    1    2    0    0  0.00000000000E+00  0.00000000000E+00 -0.67396880455E+03  0.31962455747E+04  0.31243802304E+04 0.  0.
        3    1    3    3  502    0 -0.28421022677E+02  0.26132896378E+03  0.12383506294E+04  0.12659434716E+04  0.10100000352E+00 0.  1.
       -3    1    3    3    0  502  0.28421022677E+02 -0.26132896378E+03 -0.19123194339E+04  0.19303021031E+04  0.10100000352E+00 0. -1.
</event>
<event>
 5   0  0.2466076E-06  0.3248492E+04  0.7818609E-02  0.8176127E-01
       -2   -1    0    0    0  501  0.00000000000E+00  0.00000000000E+00  0.15941071145E+04  0.15941071145E+04  0.25500000920E-02 0. -1.
        2   -1    0    0  501    0  0.00000000000E+00  0.00000000000E+00 -0.16549546500E+04  0.16549546500E+04  0.25500000920E-02 0.  1.
    10030    2    1    2    0    0  0.00000000000E+00  0.00000000000E+00 -0.60847535532E+02  0.32490617644E+04  0.32484919465E+04 0.  0.
        3    1    3    3  502    0  0.75216910994E+03 -0.40229209908E+03  0.13520551638E+04  0.15986401968E+04  0.10100000352E+00 0. -1.
       -3    1    3    3    0  502 -0.75216910994E+03  0.40229209908E+03 -0.14129026993E+04  0.16504215676E+04  0.10100000352E+00 0.  1.
</event>
<event>
 5   0  0.8681172E-07  0.3235423E+04  0.7818609E-02  0.8179524E-01
       -1   -1    0    0    0  501  0.00000000000E+00  0.00000000000E+00  0.12780811686E+04  0.12780811686E+04  0.50400001928E-02 0.  1.
        1   -1    0    0  501    0  0.00000000000E+00  0.00000000000E+00 -0.20475930166E+04  0.20475930166E+04  0.50400001928E-02 0. -1.
    10030    2    1    2    0    0  0.00000000000E+00  0.00000000000E+00 -0.76951184808E+03  0.33256741852E+04  0.32354227393E+04 0.  0.
        1    1    3    3  502    0  0.95538516127E+03 -0.24323580319E+03 -0.17031349282E+04  0.19678905066E+04  0.50400001928E-02 0. -1.
       -1    1    3    3    0  502 -0.95538516127E+03  0.24323580319E+03  0.93362308008E+03  0.13577836786E+04  0.50400001928E-02 0.  1.
</event>
<event>
 5   0  0.8383008E-07  0.3209454E+04  0.7818609E-02  0.8186325E-01
       -1   -1    0    0    0  501  0.00000000000E+00  0.00000000000E+00  0.13735288393E+04  0.13735288393E+04  0.50400001928E-02 0.  1.
        1   -1    0    0  501    0  0.00000000000E+00  0.00000000000E+00 -0.18748416473E+04  0.18748416473E+04  0.50400001928E-02 0. -1.
    10030    2    1    2    0    0  0.00000000000E+00  0.00000000000E+00 -0.50131280805E+03  0.32483704866E+04  0.32094542039E+04 0.  0.
        4    1    3    3  502    0 -0.73203031195E+03  0.55006128441E+03 -0.15844795010E+04  0.18300307911E+04  0.12699999809E+01 0. -1.
       -4    1    3    3    0  502  0.73203031195E+03 -0.55006128441E+03  0.10831666930E+04  0.14183396955E+04  0.12699999809E+01 0.  1.
</event>
<event>
 5   0  0.8512855E-07  0.3184121E+04  0.7818609E-02  0.8193023E-01
       -1   -1    0    0    0  501  0.00000000000E+00  0.00000000000E+00  0.11973523140E+04  0.11973523140E+04  0.50400001928E-02 0. -1.
        1   -1    0    0  501    0  0.00000000000E+00  0.00000000000E+00 -0.21168850981E+04  0.21168850981E+04  0.50400001928E-02 0.  1.
    10030    2    1    2    0    0  0.00000000000E+00  0.00000000000E+00 -0.91953278407E+03  0.33142374121E+04  0.31841213989E+04 0.  0.
        5    1    3    3  502    0 -0.20256608617E+03  0.73218655488E+03  0.99651546586E+03  0.12530743530E+04  0.46999998093E+01 0. -1.
       -5    1    3    3    0  502  0.20256608617E+03 -0.73218655488E+03 -0.19160482499E+04  0.20611630592E+04  0.46999998093E+01 0.  1.
</event>
<event>
 5   0  0.8681172E-07  0.3218773E+04  0.7818609E-02  0.8183877E-01
       -1   -1    0    0    0  501  0.00000000000E+00  0.00000000000E+00  0.16153200022E+04  0.16153200022E+04  0.50400001928E-02 0.  1.
        1   -1    0    0  501    0  0.00000000000E+00  0.00000000000E+00 -0.16034749850E+04  0.16034749850E+04  0.50400001928E-02 0. -1.
    10030    2    1    2    0    0  0.00000000000E+00  0.00000000000E+00  0.11845017153E+02  0.32187949872E+04  0.32187731926E+04 0.  0.
        1    1    3    3  502    0 -0.90938598997E+02  0.15190436824E+04 -0.51787649277E+03  0.16074699374E+04  0.50400001928E-02 0. -1.
       -1    1    3    3    0  502  0.90938598997E+02 -0.15190436824E+04  0.52972150992E+03  0.16113250498E+04  0.50400001928E-02 0.  1.
</event>
<event>
 5   0  0.8681172E-07  0.3181987E+04  0.7818609E-02  0.8193591E-01
       -1   -1    0    0    0  501  0.00000000000E+00  0.00000000000E+00  0.13917604971E+04  0.13917604971E+04  0.50400001928E-02 0.  1.
        1   -1    0    0  501    0  0.00000000000E+00  0.00000000000E+00 -0.18187470329E+04  0.18187470329E+04  0.50400001928E-02 0. -1.
    10030    2    1    2    0    0  0.00000000000E+00  0.00000000000E+00 -0.42698653576E+03  0.32105075300E+04  0.31819869733E+04 0.  0.
        1    1    3    3  502    0 -0.46233922068E+03 -0.12373509994E+04 -0.11082707730E+04  0.17242561170E+04  0.50400001928E-02 0. -1.
       -1    1    3    3    0  502  0.46233922068E+03  0.12373509994E+04  0.68128423723E+03  0.14862514130E+04  0.50400001928E-02 0.  1.
</event>
<event>
 5   0  0.2404430E-06  0.3105012E+04  0.7818609E-02  0.8214364E-01
       -2   -1    0    0    0  501  0.00000000000E+00  0.00000000000E+00  0.15298802721E+04  0.15298802721E+04  0.25500000920E-02 0.  1.
        2   -1    0    0  501    0  0.00000000000E+00  0.00000000000E+00 -0.15754663398E+04  0.15754663398E+04  0.25500000920E-02 0. -1.
    10030    2    1    2    0    0  0.00000000000E+00  0.00000000000E+00 -0.45586067652E+02  0.31053466119E+04  0.31050119952E+04 0.  0.
        4    1    3    3  502    0  0.30009081924E+03 -0.14501823401E+04  0.44329360476E+03  0.15458312172E+04  0.12699999809E+01 0. -1.
       -4    1    3    3    0  502 -0.30009081924E+03  0.14501823401E+04 -0.48887967241E+03  0.15595153947E+04  0.12699999809E+01 0.  1.
</event>
<event>
 5   0  0.8383008E-07  0.3213286E+04  0.7818609E-02  0.8185317E-01
        1   -1    0    0  501    0  0.00000000000E+00  0.00000000000E+00  0.13055700538E+04  0.13055700538E+04  0.50400001928E-02 0.  1.
       -1   -1    0    0    0  501  0.00000000000E+00  0.00000000000E+00 -0.19771451389E+04  0.19771451389E+04  0.50400001928E-02 0. -1.
    10030    2    1    2    0    0  0.00000000000E+00  0.00000000000E+00 -0.67157508512E+03  0.32827151927E+04  0.32132858481E+04 0.  0.
        4    1    3    3  502    0 -0.58444440321E+03  0.13159422081E+04 -0.10639437486E+04  0.17903231744E+04  0.12699999809E+01 0. -1.
       -4    1    3    3    0  502  0.58444440321E+03 -0.13159422081E+04  0.39236866346E+03  0.14923920184E+04  0.12699999809E+01 0.  1.
</event>
<event>
 5   0  0.8681172E-07  0.3207214E+04  0.7818609E-02  0.8186915E-01
       -1   -1    0    0    0  501  0.00000000000E+00  0.00000000000E+00  0.13527170765E+04  0.13527170766E+04  0.50400001928E-02 0.  1.
        1   -1    0    0  501    0  0.00000000000E+00  0.00000000000E+00 -0.19010297009E+04  0.19010297009E+04  0.50400001928E-02 0. -1.
    10030    2    1    2    0    0  0.00000000000E+00  0.00000000000E+00 -0.54831262430E+03  0.32537467774E+04  0.32072139557E+04 0.  0.
        1    1    3    3  502    0  0.96885795372E+02 -0.79384922834E+03 -0.16842767883E+04  0.18645030851E+04  0.50400001928E-02 0. -1.
       -1    1    3    3    0  502 -0.96885795372E+02  0.79384922834E+03  0.11359641640E+04  0.13892436923E+04  0.50400001928E-02 0.  1.
</event>
<event>
 5   0  0.8545153E-07  0.3196051E+04  0.7818609E-02  0.8189861E-01
        1   -1    0    0  501    0  0.00000000000E+00  0.00000000000E+00  0.19459902561E+04  0.19459902561E+04  0.50400001928E-02 0. -1.
       -1   -1    0    0    0  501  0.00000000000E+00  0.00000000000E+00 -0.13122806543E+04  0.13122806543E+04  0.50400001928E-02 0.  1.
    10030    2    1    2    0    0  0.00000000000E+00  0.00000000000E+00  0.63370960182E+03  0.32582709105E+04  0.31960509174E+04 0.  0.
        3    1    3    3  502    0 -0.16395121033E+03 -0.98198850681E+03 -0.95748151750E+03  0.13812864632E+04  0.10100000352E+00 0.  1.
       -3    1    3    3    0  502  0.16395121033E+03  0.98198850681E+03  0.15911911193E+04  0.18769844473E+04  0.10100000352E+00 0. -1.
</event>
<event>
 5   0  0.8545153E-07  0.3199846E+04  0.7818609E-02  0.8188858E-01
        1   -1    0    0  501    0  0.00000000000E+00  0.00000000000E+00  0.22595472486E+04  0.22595472486E+04  0.50400001928E-02 0. -1.
       -1   -1    0    0    0  501  0.00000000000E+00  0.00000000000E+00 -0.11328615739E+04  0.11328615739E+04  0.50400001928E-02 0.  1.
    10030    2    1    2    0    0  0.00000000000E+00  0.00000000000E+00  0.11266856747E+04  0.33924088224E+04  0.31998464040E+04 0.  0.
        3    1    3    3  502    0 -0.33924769012E+03  0.68022129544E+03  0.20558862035E+04  0.21919074109E+04  0.10100000352E+00 0. -1.
       -3    1    3    3    0  502  0.33924769012E+03 -0.68022129544E+03 -0.92920052884E+03  0.12005014115E+04  0.10100000352E+00 0.  1.
</event>
<event>
 5   0  0.2404430E-06  0.3233884E+04  0.7818609E-02  0.8179925E-01
        2   -1    0    0  501    0  0.00000000000E+00  0.00000000000E+00  0.21067109449E+04  0.21067109449E+04  0.25500000920E-02 0.  1.
       -2   -1    0    0    0  501  0.00000000000E+00  0.00000000000E+00 -0.12410349498E+04  0.12410349498E+04  0.25500000920E-02 0. -1.
    10030    2    1    2    0    0  0.00000000000E+00  0.00000000000E+00  0.86567599510E+03  0.33477458946E+04  0.32338842970E+04 0.  0.
        4    1    3    3  502    0 -0.47687693827E+03 -0.57468010202E+03 -0.10518232142E+04  0.12899622168E+04  0.12699999809E+01 0. -1.
       -4    1    3    3    0  502  0.47687693827E+03  0.57468010202E+03  0.19174992093E+04  0.20577836778E+04  0.12699999809E+01 0.  1.
</event>
<event>
 5   0  0.8487944E-07  0.3212029E+04  0.7818609E-02  0.8185648E-01
       -1   -1    0    0    0  501  0.00000000000E+00  0.00000000000E+00  0.12830244328E+04  0.12830244328E+04  0.50400001928E-02 0. -1.
        1   -1    0    0  501    0  0.00000000000E+00  0.00000000000E+00 -0.20103145372E+04  0.20103145372E+04  0.50400001928E-02 0.  1.
    10030    2    1    2    0    0  0.00000000000E+00  0.00000000000E+00 -0.72729010444E+03  0.32933389700E+04  0.32120290589E+04 0.  0.
        2    1    3    3  502    0 -0.82064915285E+03 -0.76943411806E+03 -0.15388665872E+04  0.19062015285E+04  0.25500000920E-02 0.  1.
       -2    1    3    3    0  502  0.82064915285E+03  0.76943411806E+03  0.81157648276E+03  0.13871374415E+04  0.25500000920E-02 0. -1.
</event>
<event>
 5   0  0.8383008E-07  0.2652005E+04  0.7818609E-02  0.8350748E-01
        1   -1    0    0  501    0  0.00000000000E+00  0.00000000000E+00  0.28078297124E+04  0.28078297124E+04  0.50400001928E-02 0. -1.
       -1   -1    0    0    0  501  0.00000000000E+00  0.00000000000E+00 -0.62620701505E+03  0.62620701507E+03  0.50400001928E-02 0.  1.
    10030    2    1    2    0    0  0.00000000000E+00  0.00000000000E+00  0.21816226973E+04  0.34340367275E+04  0.26520050249E+04 0.  0.
        4    1    3    3  502    0 -0.57550254342E+03 -0.10076152974E+04  0.19217483800E+04  0.22449076181E+04  0.12699999809E+01 0. -1.
       -4    1    3    3    0  502  0.57550254342E+03  0.10076152974E+04  0.25987431733E+03  0.11891291093E+04  0.12699999809E+01 0.  1.
</event>
<event>
 5   0  0.2404430E-06  0.3179339E+04  0.7818609E-02  0.8194295E-01
        2   -1    0    0  501    0  0.00000000000E+00  0.00000000000E+00  0.18068253713E+04  0.18068253713E+04  0.25500000920E-02 0.  1.
       -2   -1    0    0    0  501  0.00000000000E+00  0.00000000000E+00 -0.13986126846E+04  0.13986126846E+04  0.25500000920E-02 0. -1.
    10030    2    1    2    0    0  0.00000000000E+00  0.00000000000E+00  0.40821268677E+03  0.32054380559E+04  0.31793388515E+04 0.  0.
        4    1    3    3  502    0  0.15680509509E+04 -0.22347497102E+03  0.67634824419E+02  0.15853393736E+04  0.12699999809E+01 0.  1.
       -4    1    3    3    0  502 -0.15680509509E+04  0.22347497102E+03  0.34057786235E+03  0.16200986823E+04  0.12699999809E+01 0. -1.
</event>
<event>
 5   0  0.2401139E-06  0.3206830E+04  0.7818609E-02  0.8187016E-01
       -2   -1    0    0    0  501  0.00000000000E+00  0.00000000000E+00  0.21365535885E+04  0.21365535885E+04  0.25500000920E-02 0. -1.
        2   -1    0    0  501    0  0.00000000000E+00  0.00000000000E+00 -0.12033114199E+04  0.12033114199E+04  0.25500000920E-02 0.  1.
    10030    2    1    2    0    0  0.00000000000E+00  0.00000000000E+00  0.93324216862E+03  0.33398650085E+04  0.32068297943E+04 0.  0.
        5    1    3    3  502    0 -0.31843900753E+03 -0.40407997255E+03  0.20482500694E+04  0.21118793674E+04  0.46999998093E+01 0. -1.
       -5    1    3    3    0  502  0.31843900753E+03  0.40407997255E+03 -0.11150079008E+04  0.12279856410E+04  0.46999998093E+01 0.  1.
</event>
<event>
 5   0  0.8383008E-07  0.3139039E+04  0.7818609E-02  0.8205105E-01
       -1   -1    0    0    0  501  0.00000000000E+00  0.00000000000E+00  0.14020598341E+04  0.14020598341E+04  0.50400001928E-02 0.  1.
        1   -1    0    0  501    0  0.00000000000E+00  0.00000000000E+00 -0.17569800245E+04  0.17569800245E+04  0.50400001928E-02 0. -1.
    10030    2    1    2    0    0  0.00000000000E+00  0.00000000000E+00 -0.35492019047E+03  0.31590398586E+04  0.31390387839E+04 0.  0.
        4    1    3    3  502    0  0.11983733021E+04 -0.36304288734E+03 -0.11297934339E+04  0.16865152016E+04  0.12699999809E+01 0. -1.
       -4    1    3    3    0  502 -0.11983733021E+04  0.36304288734E+03  0.77487324341E+03  0.14725246570E+04  0.12699999809E+01 0.  1.
</event>
<event>
 5   0  0.2404430E-06  0.3181523E+04  0.7818609E-02  0.8193714E-01
        2   -1    0    0  501    0  0.00000000000E+00  0.00000000000E+00  0.24016907898E+04  0.24016907898E+04  0.25500000920E-02 0. -1.
       -2   -1    0    0    0  501  0.00000000000E+00  0.00000000000E+00 -0.10536420826E+04  0.10536420826E+04  0.25500000920E-02 0.  1.
    10030    2    1    2    0    0  0.00000000000E+00  0.00000000000E+00  0.13480487072E+04  0.34553328724E+04  0.31815232110E+04 0.  0.
        4    1    3    3  502    0  0.62177112873E+03  0.10891932937E+03 -0.91179719590E+03  0.11089808367E+04  0.12699999809E+01 0.  1.
       -4    1    3    3    0  502 -0.62177112873E+03 -0.10891932937E+03  0.22598459031E+04  0.23463520357E+04  0.12699999809E+01 0. -1.
</event>
<event>
 5   0  0.2466076E-06  0.3208114E+04  0.7818609E-02  0.8186677E-01
        2   -1    0    0  501    0  0.00000000000E+00  0.00000000000E+00  0.15774288311E+04  0.15774288311E+04  0.25500000920E-02 0.  1.
       -2   -1    0    0    0  501  0.00000000000E+00  0.00000000000E+00 -0.16311350564E+04  0.16311350564E+04  0.25500000920E-02 0. -1.
    10030    2    1    2    0    0  0.00000000000E+00  0.00000000000E+00 -0.53706225318E+02  0.32085638875E+04  0.32081143778E+04 0.  0.
        3    1    3    3  502    0 -0.72664677772E+03 -0.14005907524E+03 -0.14502065422E+04  0.16281066026E+04  0.10100000352E+00 0. -1.
       -3    1    3    3    0  502  0.72664677772E+03  0.14005907524E+03  0.13965003169E+04  0.15804572849E+04  0.10100000352E+00 0.  1.
</event>
<event>
 5   0  0.8512855E-07  0.3250389E+04  0.7818609E-02  0.8175635E-01
        1   -1    0    0  501    0  0.00000000000E+00  0.00000000000E+00  0.20808826070E+04  0.20808826070E+04  0.50400001928E-02 0. -1.
       -1   -1    0    0    0  501  0.00000000000E+00  0.00000000000E+00 -0.12692965445E+04  0.12692965445E+04  0.50400001928E-02 0.  1.
    10030    2    1    2    0    0  0.00000000000E+00  0.00000000000E+00  0.81158606251E+03  0.33501791515E+04  0.32503889629E+04 0.  0.
        5    1    3    3  502    0 -0.87744372457E+03  0.23610616670E+03  0.17945957550E+04  0.20115291759E+04  0.46999998093E+01 0. -1.
       -5    1    3    3    0  502  0.87744372457E+03 -0.23610616670E+03 -0.98300969245E+03  0.13386499756E+04  0.46999998093E+01 0.  1.
</event>
<event>
 5   0  0.2621528E-06  0.3377731E+04  0.7818609E-02  0.8143394E-01
        2   -1    0    0  501    0  0.00000000000E+00  0.00000000000E+00  0.16864160276E+04  0.16864160276E+04  0.25500000920E-02 0. -1.
       -2   -1    0    0    0  501  0.00000000000E+00  0.00000000000E+00 -0.16913187359E+04  0.16913187359E+04  0.25500000920E-02 0.  1.
    10030    2    1    2    0    0  0.00000000000E+00  0.00000000000E+00 -0.49027082937E+01  0.33777347636E+04  0.33777312055E+04 0.  0.
        2    1    3    3  502    0 -0.13076913982E+04 -0.99747629325E+03  0.38128238903E+03  0.16883104006E+04  0.25500000920E-02 0. -1.
       -2    1    3    3    0  502  0.13076913982E+04  0.99747629325E+03 -0.38618509732E+03  0.16894243629E+04  0.25500000920E-02 0.  1.
</event>
<event>
 5   0  0.7934375E-07  0.3191163E+04  0.7818609E-02  0.8191155E-01
       -3   -1    0    0    0  501  0.00000000000E+00  0.00000000000E+00  0.22262434910E+04  0.22262434933E+04  0.10100000352E+00 0.  1.
        3   -1    0    0  501    0  0.00000000000E+00  0.00000000000E+00 -0.11435766745E+04  0.11435766790E+04  0.10100000352E+00 0. -1.
    10030    2    1    2    0    0  0.00000000000E+00  0.00000000000E+00  0.10826668165E+04  0.33698201723E+04  0.31911628849E+04 0.  0.
        4    1    3    3  502    0  0.21610966952E+03 -0.19828248241E+03 -0.11148669628E+04  0.11528006288E+04  0.12699999809E+01 0. -1.
       -4    1    3    3    0  502 -0.21610966952E+03  0.19828248241E+03  0.21975337793E+04  0.22170195435E+04  0.12699999809E+01 0.  1.
</event>
<event>
 5   0  0.2621528E-06  0.3187821E+04  0.7818609E-02  0.8192041E-01
        2   -1    0    0  501    0  0.00000000000E+00  0.00000000000E+00  0.32223449811E+04  0.32223449811E+04  0.25500000920E-02 0.  1.
       -2   -1    0    0    0  501  0.00000000000E+00  0.00000000000E+00 -0.78841663200E+03  0.78841663201E+03  0.25500000920E-02 0. -1.
    10030    2    1    2    0    0  0.00000000000E+00  0.00000000000E+00  0.24339283491E+04  0.40107616131E+04  0.31878208088E+04 0.  0.
        2    1    3    3  502    0  0.11810166306E+04  0.14471880346E+03  0.25513206557E+04  0.28151342600E+04  0.25500000920E-02 0.  1.
       -2    1    3    3    0  502 -0.11810166306E+04 -0.14471880346E+03 -0.11739230653E+03  0.11956273531E+04  0.25500000920E-02 0. -1.
</event>
<event>
 5   0  0.8545153E-07  0.3199478E+04  0.7818609E-02  0.8188955E-01
       -1   -1    0    0    0  501  0.00000000000E+00  0.00000000000E+00  0.91934923747E+03  0.91934923749E+03  0.50400001928E-02 0. -1.
        1   -1    0    0  501    0  0.00000000000E+00  0.00000000000E+00 -0.27836692290E+04  0.27836692291E+04  0.50400001928E-02 0.  1.
    10030    2    1    2    0    0  0.00000000000E+00  0.00000000000E+00 -0.18643199916E+04  0.37030184665E+04  0.31994775718E+04 0.  0.
        3    1    3    3  502    0  0.12037086796E+04  0.34418450592E+03  0.22045941419E+03  0.12712119898E+04  0.10100000352E+00 0. -1.
       -3    1    3    3    0  502 -0.12037086796E+04 -0.34418450592E+03 -0.20847794058E+04  0.24318064767E+04  0.10100000352E+00 0.  1.
</event>
<event>
 5   0  0.2466076E-06  0.3168282E+04  0.7818609E-02  0.8197244E-01
        2   -1    0    0  501    0  0.00000000000E+00  0.00000000000E+00  0.15182590294E+04  0.15182590294E+04  0.25500000920E-02 0.  1.
       -2   -1    0    0    0  501  0.00000000000E+00  0.00000000000E+00 -0.16528816547E+04  0.16528816547E+04  0.25500000920E-02 0. -1.
    10030    2    1    2    0    0  0.00000000000E+00  0.00000000000E+00 -0.13462262534E+03  0.31711406841E+04  0.31682818667E+04 0.  0.
        3    1    3    3  502    0 -0.86515517548E+03  0.13269980660E+04 -0.76546871281E+02  0.15859624139E+04  0.10100000352E+00 0.  1.
       -3    1    3    3    0  502  0.86515517548E+03 -0.13269980660E+04 -0.58075754059E+02  0.15851782701E+04  0.10100000352E+00 0. -1.
</event>
<event>
 5   0  0.8383008E-07  0.3166507E+04  0.7818609E-02  0.8197719E-01
       -1   -1    0    0    0  501  0.00000000000E+00  0.00000000000E+00  0.16343116543E+04  0.16343116543E+04  0.50400001928E-02 0. -1.
        1   -1    0    0  501    0  0.00000000000E+00  0.00000000000E+00 -0.15337901583E+04  0.15337901584E+04  0.50400001928E-02 0.  1.
    10030    2    1    2    0    0  0.00000000000E+00  0.00000000000E+00  0.10052149596E+03  0.31681018127E+04  0.31665066752E+04 0.  0.
        4    1    3    3  502    0  0.31703802518E+03  0.14313390325E+04  0.64842895291E+03  0.16030303351E+04  0.12699999809E+01 0. -1.
       -4    1    3    3    0  502 -0.31703802518E+03 -0.14313390325E+04 -0.54790745695E+03  0.15650714775E+04  0.12699999809E+01 0.  1.
</event>
<event>
 5   0  0.8681172E-07  0.3198315E+04  0.7818609E-02  0.8189262E-01
       -1   -1    0    0    0  501  0.00000000000E+00  0.00000000000E+00  0.28995435472E+04  0.28995435472E+04  0.50400001928E-02 0. -1.
        1   -1    0    0  501    0  0.00000000000E+00  0.00000000000E+00 -0.88196793059E+03  0.88196793060E+03  0.50400001928E-02 0.  1.
    10030    2    1    2    0    0  0.00000000000E+00  0.00000000000E+00  0.20175756166E+04  0.37815114778E+04  0.31983148200E+04 0.  0.
        1    1    3    3  502    0 -0.15817745642E+04 -0.23240885659E+03  0.96649069269E+03  0.18681886703E+04  0.50400001928E-02 0.  1.
       -1    1    3    3    0  502  0.15817745642E+04  0.23240885659E+03  0.10510849239E+04  0.19133228076E+04  0.50400001928E-02 0. -1.
</event>
<event>
 5   0  0.2621528E-06  0.2985091E+04  0.7818609E-02  0.8248001E-01
       -2   -1    0    0    0  501  0.00000000000E+00  0.00000000000E+00  0.21427486203E+04  0.21427486203E+04  0.25500000920E-02 0.  1.
        2   -1    0    0  501    0  0.00000000000E+00  0.00000000000E+00 -0.10396423792E+04  0.10396423792E+04  0.25500000920E-02 0. -1.
    10030    2    1    2    0    0  0.00000000000E+00  0.00000000000E+00  0.11031062411E+04  0.31823909995E+04  0.29850911367E+04 0.  0.
        2    1    3    3  502    0 -0.30473742919E+03  0.41869271259E+03  0.20439049155E+04  0.21084866117E+04  0.25500000920E-02 0.  1.
       -2    1    3    3    0  502  0.30473742919E+03 -0.41869271259E+03 -0.94079867434E+03  0.10739043877E+04  0.25500000920E-02 0. -1.
</event>
<event>
 5   0  0.8545153E-07  0.3228437E+04  0.7818609E-02  0.8181347E-01
       -1   -1    0    0    0  501  0.00000000000E+00  0.00000000000E+00  0.21931834507E+04  0.21931834508E+04  0.50400001928E-02 0. -1.
        1   -1    0    0  501    0  0.00000000000E+00  0.00000000000E+00 -0.11880910096E+04  0.11880910096E+04  0.50400001928E-02 0.  1.
    10030    2    1    2    0    0  0.00000000000E+00  0.00000000000E+00  0.10050924411E+04  0.33812744604E+04  0.32284371082E+04 0.  0.
        3    1    3    3  502    0  0.12229185219E+03  0.28261783094E+03 -0.11570426018E+04  0.11973202279E+04  0.10100000352E+00 0.  1.
       -3    1    3    3    0  502 -0.12229185219E+03 -0.28261783094E+03  0.21621350430E+04  0.21839542325E+04  0.10100000352E+00 0. -1.
</event>
<event>
 5   0  0.2404430E-06  0.3215648E+04  0.7818609E-02  0.8184697E-01
        2   -1    0    0  501    0  0.00000000000E+00  0.00000000000E+00  0.16486021350E+04  0.16486021350E+04  0.25500000920E-02 0.  1.
       -2   -1    0    0    0  501  0.00000000000E+00  0.00000000000E+00 -0.15680549954E+04  0.15680549954E+04  0.25500000920E-02 0. -1.
    10030    2    1    2    0    0  0.00000000000E+00  0.00000000000E+00  0.80547139569E+02  0.32166571304E+04  0.32156484964E+04 0.  0.
        4    1    3    3  502    0 -0.77260360607E+02  0.12650368698E+04  0.10299320394E+04  0.16331102425E+04  0.12699999809E+01 0.  1.
       -4    1    3    3    0  502  0.77260360607E+02 -0.12650368698E+04 -0.94938489983E+03  0.15835468879E+04  0.12699999809E+01 0. -1.
</event>
<event>
 5   0  0.2466076E-06  0.3182696E+04  0.7818609E-02  0.8193402E-01
        2   -1    0    0  501    0  0.00000000000E+00  0.00000000000E+00  0.14502516280E+04  0.14502516280E+04  0.25500000920E-02 0.  1.
       -2   -1    0    0    0  501  0.00000000000E+00  0.00000000000E+00 -0.17461712678E+04  0.17461712678E+04  0.25500000920E-02 0. -1.
    10030    2    1    2    0    0  0.00000000000E+00  0.00000000000E+00 -0.29591963978E+03  0.31964228959E+04  0.31826955393E+04 0.  0.
        3    1    3    3  502    0 -0.10587353115E+04  0.70886920059E+03 -0.11054720304E+04  0.16868563731E+04  0.10100000352E+00 0. -1.
       -3    1    3    3    0  502  0.10587353115E+04 -0.70886920059E+03  0.80955239063E+03  0.15095665228E+04  0.10100000352E+00 0.  1.
</event>
<event>
 5   0  0.2401139E-06  0.3224981E+04  0.7818609E-02  0.8182251E-01
        2   -1    0    0  501    0  0.00000000000E+00  0.00000000000E+00  0.17704628381E+04  0.17704628381E+04  0.25500000920E-02 0.  1.
       -2   -1    0    0    0  501  0.00000000000E+00  0.00000000000E+00 -0.14686131538E+04  0.14686131538E+04  0.25500000920E-02 0. -1.
    10030    2    1    2    0    0  0.00000000000E+00  0.00000000000E+00  0.30184968432E+03  0.32390759919E+04  0.32249806278E+04 0.  0.
        5    1    3    3  502    0 -0.15129276312E+04 -0.55441452767E+03  0.89195362634E+02  0.16137854221E+04  0.46999998093E+01 0.  1.
       -5    1    3    3    0  502  0.15129276312E+04  0.55441452767E+03  0.21265432169E+03  0.16252905698E+04  0.46999998093E+01 0. -1.
</event>
<event>
 5   0  0.8383008E-07  0.3194773E+04  0.7818609E-02  0.8190199E-01
       -1   -1    0    0    0  501  0.00000000000E+00  0.00000000000E+00  0.11300575891E+04  0.11300575891E+04  0.50400001928E-02 0. -1.
        1   -1    0    0  501    0  0.00000000000E+00  0.00000000000E+00 -0.22579772517E+04  0.22579772517E+04  0.50400001928E-02 0.  1.
    10030    2    1    2    0    0  0.00000000000E+00  0.00000000000E+00 -0.11279196626E+04  0.33880348408E+04  0.31947734375E+04 0.  0.
        4    1    3    3  502    0 -0.12179790256E+03 -0.28138922956E+03 -0.22264760236E+04  0.22474900943E+04  0.12699999809E+01 0.  1.
       -4    1    3    3    0  502  0.12179790256E+03  0.28138922956E+03  0.10985563610E+04  0.11405447465E+04  0.12699999809E+01 0. -1.
</event>
<event>
 5   0  0.8545153E-07  0.3215674E+04  0.7818609E-02  0.8184690E-01
       -1   -1    0    0    0  501  0.00000000000E+00  0.00000000000E+00  0.21492059463E+04  0.21492059463E+04  0.50400001928E-02 0. -1.
        1   -1    0    0  501    0  0.00000000000E+00  0.00000000000E+00 -0.12028346875E+04  0.12028346876E+04  0.50400001928E-02 0.  1.
    10030    2    1    2    0    0  0.00000000000E+00  0.00000000000E+00  0.94637125876E+03  0.33520406339E+04  0.32156737788E+04 0.  0.
        3    1    3    3  502    0 -0.12060921069E+04  0.91236227985E+03  0.10423019655E+04  0.18366971709E+04  0.10100000352E+00 0. -1.
       -3    1    3    3    0  502  0.12060921069E+04 -0.91236227985E+03 -0.95930706742E+02  0.15153434630E+04  0.10100000352E+00 0.  1.
</event>
<event>
 5   0  0.8512855E-07  0.3185637E+04  0.7818609E-02  0.8192621E-01
        1   -1    0    0  501    0  0.00000000000E+00  0.00000000000E+00  0.10075809928E+04  0.10075809929E+04  0.50400001928E-02 0. -1.
       -1   -1    0    0    0  501  0.00000000000E+00  0.00000000000E+00 -0.25179815639E+04  0.25179815639E+04  0.50400001928E-02 0.  1.
    10030    2    1    2    0    0  0.00000000000E+00  0.00000000000E+00 -0.15104005710E+04  0.35255625567E+04  0.31856367427E+04 0.  0.
        5    1    3    3  502    0  0.89615741636E+02 -0.13904331008E+03 -0.25084416802E+04  0.25138945436E+04  0.46999998093E+01 0.  1.
       -5    1    3    3    0  502 -0.89615741636E+02  0.13904331008E+03  0.99804110919E+03  0.10116680132E+04  0.46999998093E+01 0. -1.
</event>
<event>
 5   0  0.2404430E-06  0.3240999E+04  0.7818609E-02  0.8178072E-01
       -2   -1    0    0    0  501  0.00000000000E+00  0.00000000000E+00  0.14452930570E+04  0.14452930570E+04  0.25500000920E-02 0.  1.
        2   -1    0    0  501    0  0.00000000000E+00  0.00000000000E+00 -0.18169458676E+04  0.18169458676E+04  0.25500000920E-02 0. -1.
    10030    2    1    2    0    0  0.00000000000E+00  0.00000000000E+00 -0.37165281065E+03  0.32622389246E+04  0.32409993813E+04 0.  0.
        4    1    3    3  502    0  0.13154593472E+04 -0.91917474712E+03 -0.41247336418E+03  0.16569403728E+04  0.12699999809E+01 0. -1.
       -4    1    3    3    0  502 -0.13154593472E+04  0.91917474712E+03  0.40820553536E+02  0.16052985518E+04  0.12699999809E+01 0.  1.
</event>
<event>
 5   0  0.2337504E-06  0.3182222E+04  0.7818609E-02  0.8193528E-01
       -2   -1    0    0    0  501  0.00000000000E+00  0.00000000000E+00  0.14326419626E+04  0.14326419626E+04  0.25500000920E-02 0.  1.
        2   -1    0    0  501    0  0.00000000000E+00  0.00000000000E+00 -0.17671093286E+04  0.17671093286E+04  0.25500000920E-02 0. -1.
    10030    2    1    2    0    0  0.00000000000E+00  0.00000000000E+00 -0.33446736596E+03  0.31997512912E+04  0.31822224792E+04 0.  0.
        1    1    3    3  502    0 -0.25833939925E+03  0.15656932418E+04 -0.50402420523E+02  0.15876633700E+04  0.50400001928E-02 0.  1.
       -1    1    3    3    0  502  0.25833939925E+03 -0.15656932418E+04 -0.28406494544E+03  0.16120879212E+04  0.50400001928E-02 0. -1.
</event>
<event>
 5   0  0.2401139E-06  0.3228219E+04  0.7818609E-02  0.8181404E-01
        2   -1    0    0  501    0  0.00000000000E+00  0.00000000000E+00  0.19464550920E+04  0.19464550920E+04  0.25500000920E-02 0.  1.
       -2   -1    0    0    0  501  0.00000000000E+00  0.00000000000E+00 -0.13385102788E+04  0.13385102788E+04  0.25500000920E-02 0. -1.
    10030    2    1    2    0    0  0.00000000000E+00  0.00000000000E+00  0.60794481319E+03  0.32849653708E+04  0.32282194150E+04 0.  0.
        5    1    3    3  502    0 -0.77807475154E+03  0.26799226366E+03 -0.11089991386E+04  0.13809856451E+04  0.46999998093E+01 0. -1.
       -5    1    3    3    0  502  0.77807475154E+03 -0.26799226366E+03  0.17169439518E+04  0.19039797258E+04  0.46999998093E+01 0.  1.
</event>
<event>
 5   0  0.2404430E-06  0.3020020E+04  0.7818609E-02  0.8238037E-01
       -2   -1    0    0    0  501  0.00000000000E+00  0.00000000000E+00  0.11290733608E+04  0.11290733608E+04  0.25500000920E-02 0. -1.
        2   -1    0    0  501    0  0.00000000000E+00  0.00000000000E+00 -0.20194707331E+04  0.20194707331E+04  0.25500000920E-02 0.  1.
    10030    2    1    2    0    0  0.00000000000E+00  0.00000000000E+00 -0.89039737231E+03  0.31485440939E+04  0.30200202699E+04 0.  0.
        4    1    3    3  502    0 -0.51179972883E+02  0.11246129081E+04  0.60398664067E+03  0.12775660679E+04  0.12699999809E+01 0. -1.
       -4    1    3    3    0  502  0.51179972883E+02 -0.11246129081E+04 -0.14943840130E+04  0.18709780260E+04  0.12699999809E+01 0.  1.
</event>
<event>
 5   0  0.2621528E-06  0.3174869E+04  0.7818609E-02  0.8195486E-01
       -2   -1    0    0    0  501  0.00000000000E+00  0.00000000000E+00  0.99478899421E+03  0.99478899421E+03  0.25500000920E-02 0.  1.
        2   -1    0    0  501    0  0.00000000000E+00  0.00000000000E+00 -0.25331480462E+04  0.25331480462E+04  0.25500000920E-02 0. -1.
    10030    2    1    2    0    0  0.00000000000E+00  0.00000000000E+00 -0.15383590520E+04  0.35279370404E+04  0.31748686884E+04 0.  0.
        2    1    3    3  502    0 -0.14342011736E+04 -0.63032291956E+03 -0.10540212116E+04  0.18881739072E+04  0.25500000920E-02 0. -1.
       -2    1    3    3    0  502  0.14342011736E+04  0.63032291956E+03 -0.48433784044E+03  0.16397631332E+04  0.25500000920E-02 0.  1.
</event>
<event>
 5   0  0.2401139E-06  0.3222729E+04  0.7818609E-02  0.8182840E-01
        2   -1    0    0  501    0  0.00000000000E+00  0.00000000000E+00  0.21916499759E+04  0.21916499759E+04  0.25500000920E-02 0. -1.
       -2   -1    0    0    0  501  0.00000000000E+00  0.00000000000E+00 -0.11847215963E+04  0.11847215963E+04  0.25500000920E-02 0.  1.
    10030    2    1    2    0    0  0.00000000000E+00  0.00000000000E+00  0.10069283796E+04  0.33763715722E+04  0.32227286935E+04 0.  0.
        5    1    3    3  502    0  0.11232703876E+04 -0.11513563260E+04  0.60348950797E+03  0.17180161319E+04  0.46999998093E+01 0. -1.
       -5    1    3    3    0  502 -0.11232703876E+04  0.11513563260E+04  0.40343887163E+03  0.16583554403E+04  0.46999998093E+01 0.  1.
</event>
<event>
 5   0  0.2401139E-06  0.3227524E+04  0.7818609E-02  0.8181586E-01
       -2   -1    0    0    0  501  0.00000000000E+00  0.00000000000E+00  0.16055395549E+04  0.16055395549E+04  0.25500000920E-02 0.  1.
        2   -1    0    0  501    0  0.00000000000E+00  0.00000000000E+00 -0.16220260667E+04  0.16220260667E+04  0.25500000920E-02 0. -1.
    10030    2    1    2    0    0  0.00000000000E+00  0.00000000000E+00 -0.16486511751E+02  0.32275656216E+04  0.32275235145E+04 0.  0.
        5    1    3    3  502    0  0.13018957722E+04  0.25105916316E+03  0.91168266223E+03  0.16090837988E+04  0.46999998093E+01 0.  1.
       -5    1    3    3    0  502 -0.13018957722E+04 -0.25105916316E+03 -0.92816917398E+03  0.16184818228E+04  0.46999998093E+01 0. -1.
</event>
<event>
 5   0  0.8487944E-07  0.3234006E+04  0.7818609E-02  0.8179894E-01
       -1   -1    0    0    0  501  0.00000000000E+00  0.00000000000E+00  0.20724021054E+04  0.20724021054E+04  0.50400001928E-02 0.  1.
        1   -1    0    0  501    0  0.00000000000E+00  0.00000000000E+00 -0.12616752179E+04  0.12616752179E+04  0.50400001928E-02 0. -1.
    10030    2    1    2    0    0  0.00000000000E+00  0.00000000000E+00  0.81072688753E+03  0.33340773234E+04  0.32340057996E+04 0.  0.
        2    1    3    3  502    0  0.12002655750E+04 -0.38516431060E+03 -0.63874843596E+03  0.14131484569E+04  0.25500000920E-02 0. -1.
       -2    1    3    3    0  502 -0.12002655750E+04  0.38516431060E+03  0.14494753235E+04  0.19209288665E+04  0.25500000920E-02 0.  1.
</event>
<event>
 5   0  0.8487944E-07  0.3175629E+04  0.7818609E-02  0.8195283E-01
        1   -1    0    0  501    0  0.00000000000E+00  0.00000000000E+00  0.92592662089E+03  0.92592662090E+03  0.50400001928E-02 0. -1.
       -1   -1    0    0    0  501  0.00000000000E+00  0.00000000000E+00 -0.27228455398E+04  0.27228455398E+04  0.50400001928E-02 0.  1.
    10030    2    1    2    0    0  0.00000000000E+00  0.00000000000E+00 -0.17969189189E+04  0.36487721607E+04  0.31756291785E+04 0.  0.
        2    1    3    3  502    0  0.89562181688E+03  0.52273986833E+03  0.48308551865E+03  0.11440135607E+04  0.25500000920E-02 0. -1.
       -2    1    3    3    0  502 -0.89562181688E+03 -0.52273986833E+03 -0.22800044375E+04  0.25047586000E+04  0.25500000920E-02 0.  1.
</event>
<event>
 5   0  0.8487944E-07  0.3128645E+04  0.7818609E-02  0.8207920E-01
       -1   -1    0    0    0  501  0.00000000000E+00  0.00000000000E+00  0.11728945991E+04  0.11728945991E+04  0.50400001928E-02 0. -1.
        1   -1    0    0  501    0  0.00000000000E+00  0.00000000000E+00 -0.20863803157E+04  0.20863803157E+04  0.50400001928E-02 0.  1.
    10030    2    1    2    0    0  0.00000000000E+00  0.00000000000E+00 -0.91348571656E+03  0.32592749148E+04  0.31286445653E+04 0.  0.
        2    1    3    3  502    0  0.30873329153E+03 -0.20521525682E+03 -0.20399588626E+04  0.20733696506E+04  0.25500000920E-02 0.  1.
       -2    1    3    3    0  502 -0.30873329153E+03  0.20521525682E+03  0.11264731460E+04  0.11859052642E+04  0.25500000920E-02 0. -1.
</event>
<event>
 5   0  0.8512855E-07  0.3096394E+04  0.7818609E-02  0.8216728E-01
        1   -1    0    0  501    0  0.00000000000E+00  0.00000000000E+00  0.18405197452E+04  0.18405197452E+04  0.50400001928E-02 0. -1.
       -1   -1    0    0    0  501  0.00000000000E+00  0.00000000000E+00 -0.13023029710E+04  0.13023029710E+04  0.50400001928E-02 0.  1.
    10030    2    1    2    0    0  0.00000000000E+00  0.00000000000E+00  0.53821677424E+03  0.31428227162E+04  0.30963942465E+04 0.  0.
        5    1    3    3  502    0  0.25889577731E+03  0.11300751347E+04  0.13105516693E+04  0.17497612984E+04  0.46999998093E+01 0. -1.
       -5    1    3    3    0  502 -0.25889577731E+03 -0.11300751347E+04 -0.77233489507E+03  0.13930614178E+04  0.46999998093E+01 0.  1.
</event>
<event>
 5   0  0.2466076E-06  0.3222594E+04  0.7818609E-02  0.8182875E-01
       -2   -1    0    0    0  501  0.00000000000E+00  0.00000000000E+00  0.13753656944E+04  0.13753656944E+04  0.25500000920E-02 0.  1.
        2   -1    0    0  501    0  0.00000000000E+00  0.00000000000E+00 -0.18877003909E+04  0.18877003909E+04  0.25500000920E-02 0. -1.
    10030    2    1    2    0    0  0.00000000000E+00  0.00000000000E+00 -0.51233469649E+03  0.32630660852E+04  0.32225942089E+04 0.  0.
        3    1    3    3  502    0 -0.13943987481E+04  0.74015109390E+03 -0.58287542843E+03  0.16828295474E+04  0.10100000352E+00 0.  1.
       -3    1    3    3    0  502  0.13943987481E+04 -0.74015109390E+03  0.70540731940E+02  0.15802365378E+04  0.10100000352E+00 0. -1.
</event>
<event>
 5   0  0.8545153E-07  0.3190026E+04  0.7818609E-02  0.8191456E-01
        1   -1    0    0  501    0  0.00000000000E+00  0.00000000000E+00  0.17780323104E+04  0.17780323104E+04  0.50400001928E-02 0.  1.
       -1   -1    0    0    0  501  0.00000000000E+00  0.00000000000E+00 -0.14308324892E+04  0.14308324892E+04  0.50400001928E-02 0. -1.
    10030    2    1    2    0    0  0.00000000000E+00  0.00000000000E+00  0.34719982118E+03  0.32088647996E+04  0.31900259538E+04 0.  0.
        3    1    3    3  502    0  0.15349916710E+04  0.34989616811E+03 -0.83722501110E+02  0.15765900627E+04  0.10100000352E+00 0. -1.
       -3    1    3    3    0  502 -0.15349916710E+04 -0.34989616811E+03  0.43092232229E+03  0.16322747368E+04  0.10100000352E+00 0.  1.
</event>
<event>
 5   0  0.8487944E-07  0.3248451E+04  0.7818609E-02  0.8176137E-01
        1   -1    0    0  501    0  0.00000000000E+00  0.00000000000E+00  0.23013701113E+04  0.23013701114E+04  0.50400001928E-02 0.  1.
       -1   -1    0    0    0  501  0.00000000000E+00  0.00000000000E+00 -0.11463210733E+04  0.11463210733E+04  0.50400001928E-02 0. -1.
    10030    2    1    2    0    0  0.00000000000E+00  0.00000000000E+00  0.11550490381E+04  0.34476911846E+04  0.32484513578E+04 0.  0.
        2    1    3    3  502    0  0.12286053857E+04 -0.21912964593E+03 -0.52576248654E+03  0.13542212477E+04  0.25500000920E-02 0.  1.
       -2    1    3    3    0  502 -0.12286053857E+04  0.21912964593E+03  0.16808115246E+04  0.20934699369E+04  0.25500000920E-02 0. -1.
</event>
<event>
 5   0  0.8512855E-07  0.3223197E+04  0.7818609E-02  0.8182718E-01
        1   -1    0    0  501    0  0.00000000000E+00  0.00000000000E+00  0.14985442469E+04  0.14985442469E+04  0.50400001928E-02 0.  1.
       -1   -1    0    0    0  501  0.00000000000E+00  0.00000000000E+00 -0.17331818573E+04  0.17331818573E+04  0.50400001928E-02 0. -1.
    10030    2    1    2    0    0  0.00000000000E+00  0.00000000000E+00 -0.23463761042E+03  0.32317261042E+04  0.32231969850E+04 0.  0.
        5    1    3    3  502    0  0.56667783773E+03  0.13394576524E+04  0.57874950289E+03  0.15653254139E+04  0.46999998093E+01 0.  1.
       -5    1    3    3    0  502 -0.56667783773E+03 -0.13394576524E+04 -0.81338711330E+03  0.16664006903E+04  0.46999998093E+01 0. -1.
</event>
<event>
 5   0  0.2621528E-06  0.3183578E+04  0.7818609E-02  0.8193168E-01
        2   -1    0    0  501    0  0.00000000000E+00  0.00000000000E+00  0.10954819682E+04  0.10954819682E+04  0.25500000920E-02 0.  1.
       -2   -1    0    0    0  501  0.00000000000E+00  0.00000000000E+00 -0.23129471424E+04  0.23129471424E+04  0.25500000920E-02 0. -1.
    10030    2    1    2    0    0  0.00000000000E+00  0.00000000000E+00 -0.12174651743E+04  0.34084291106E+04  0.31835777910E+04 0.  0.
        2    1    3    3  502    0 -0.75780338112E+03 -0.12693240449E+04  0.23158114451E+02  0.14785079620E+04  0.25500000920E-02 0.  1.
       -2    1    3    3    0  502  0.75780338112E+03  0.12693240449E+04 -0.12406232887E+04  0.19299211486E+04  0.25500000920E-02 0. -1.
</event>
<event>
 5   0  0.2404430E-06  0.3187552E+04  0.7818609E-02  0.8192112E-01
        2   -1    0    0  501    0  0.00000000000E+00  0.00000000000E+00  0.28515242199E+04  0.28515242199E+04  0.25500000920E-02 0. -1.
       -2   -1    0    0    0  501  0.00000000000E+00  0.00000000000E+00 -0.89079442135E+03  0.89079442135E+03  0.25500000920E-02 0.  1.
    10030    2    1    2    0    0  0.00000000000E+00  0.00000000000E+00  0.19607297985E+04  0.37423186412E+04  0.31875519556E+04 0.  0.
        4    1    3    3  502    0  0.41358916187E+03  0.38963273031E+02 -0.82611325838E+03  0.92468311331E+03  0.12699999809E+01 0.  1.
       -4    1    3    3    0  502 -0.41358916187E+03 -0.38963273031E+02  0.27868430569E+04  0.28176355279E+04  0.12699999809E+01 0. -1.
</event>
<event>
 5   0  0.8545153E-07  0.3216679E+04  0.7818609E-02  0.8184426E-01
       -1   -1    0    0    0  501  0.00000000000E+00  0.00000000000E+00  0.14507103086E+04  0.14507103086E+04  0.50400001928E-02 0.  1.
        1   -1    0    0  501    0  0.00000000000E+00  0.00000000000E+00 -0.17830962208E+04  0.17830962208E+04  0.50400001928E-02 0. -1.
    10030    2    1    2    0    0  0.00000000000E+00  0.00000000000E+00 -0.33238591228E+03  0.32338065294E+04  0.32166790755E+04 0.  0.
        3    1    3    3  502    0 -0.34976306748E+03 -0.14515136544E+04 -0.76731481896E+03  0.16786894096E+04  0.10100000352E+00 0. -1.
       -3    1    3    3    0  502  0.34976306748E+03  0.14515136544E+04  0.43492890667E+03  0.15551171198E+04  0.10100000352E+00 0.  1.
</event>
<event>
 5   0  0.2621528E-06  0.3149236E+04  0.7818609E-02  0.8202354E-01
        2   -1    0    0  501    0  0.00000000000E+00  0.00000000000E+00  0.22577669640E+04  0.22577669640E+04  0.25500000920E-02 0.  1.
       -2   -1    0    0    0  501  0.00000000000E+00  0.00000000000E+00 -0.10981741482E+04  0.10981741482E+04  0.25500000920E-02 0. -1.
    10030    2    1    2    0    0  0.00000000000E+00  0.00000000000E+00  0.11595928158E+04  0.33559411122E+04  0.31492356612E+04 0.  0.
        2    1    3    3  502    0  0.22222794591E+03  0.19169789723E+03  0.22283635882E+04  0.22476070887E+04  0.25500000920E-02 0.  1.
       -2    1    3    3    0  502 -0.22222794591E+03 -0.19169789723E+03 -0.10687707724E+04  0.11083340235E+04  0.25500000920E-02 0. -1.
</event>
<event>
 5   0  0.8512855E-07  0.3191058E+04  0.7818609E-02  0.8191183E-01
       -1   -1    0    0    0  501  0.00000000000E+00  0.00000000000E+00  0.16975281199E+04  0.16975281199E+04  0.50400001928E-02 0.  1.
        1   -1    0    0  501    0  0.00000000000E+00  0.00000000000E+00 -0.14996588094E+04  0.14996588094E+04  0.50400001928E-02 0. -1.
    10030    2    1    2    0    0  0.00000000000E+00  0.00000000000E+00  0.19786931053E+03  0.31971869294E+04  0.31910581313E+04 0.  0.
        5    1    3    3  502    0 -0.17856315035E+03  0.10710497440E+04  0.12702216615E+04  0.16710827365E+04  0.46999998093E+01 0.  1.
       -5    1    3    3    0  502  0.17856315035E+03 -0.10710497440E+04 -0.10723523510E+04  0.15261041929E+04  0.46999998093E+01 0. -1.
</event>
<event>
 5   0  0.8383008E-07  0.3109723E+04  0.7818609E-02  0.8213075E-01
       -1   -1    0    0    0  501  0.00000000000E+00  0.00000000000E+00  0.17258905388E+04  0.17258905388E+04  0.50400001928E-02 0. -1.
        1   -1    0    0  501    0  0.00000000000E+00  0.00000000000E+00 -0.14007803379E+04  0.14007803379E+04  0.50400001928E-02 0.  1.
    10030    2    1    2    0    0  0.00000000000E+00  0.00000000000E+00  0.32511020087E+03  0.31266708767E+04  0.31097225163E+04 0.  0.
        4    1    3    3  502    0 -0.51991340845E+03 -0.94618361825E+03 -0.96247957427E+03  0.14463547060E+04  0.12699999809E+01 0.  1.
       -4    1    3    3    0  502  0.51991340845E+03  0.94618361825E+03  0.12875897751E+04  0.16803161707E+04  0.12699999809E+01 0. -1.
</event>
<event>
 5   0  0.8487944E-07  0.3172343E+04  0.7818609E-02  0.8196160E-01
        1   -1    0    0  501    0  0.00000000000E+00  0.00000000000E+00  0.15640799397E+04  0.15640799397E+04  0.50400001928E-02 0.  1.
       -1   -1    0    0    0  501  0.00000000000E+00  0.00000000000E+00 -0.16085747967E+04  0.16085747967E+04  0.50400001928E-02 0. -1.
    10030    2    1    2    0    0  0.00000000000E+00  0.00000000000E+00 -0.44494857009E+02  0.31726547364E+04  0.31723427122E+04 0.  0.
        2    1    3    3  502    0  0.14261489313E+04 -0.65763407925E+03  0.20038671879E+03  0.15832050383E+04  0.25500000920E-02 0. -1.
       -2    1    3    3    0  502 -0.14261489313E+04  0.65763407925E+03 -0.24488157580E+03  0.15894496980E+04  0.25500000920E-02 0.  1.
</event>
<event>
 5   0  0.8512855E-07  0.3213298E+04  0.7818609E-02  0.8185314E-01
       -1   -1    0    0    0  501  0.00000000000E+00  0.00000000000E+00  0.11653520057E+04  0.11653520057E+04  0.50400001928E-02 0. -1.
        1   -1    0    0  501    0  0.00000000000E+00  0.00000000000E+00 -0.22150566010E+04  0.22150566010E+04  0.50400001928E-02 0.  1.
    10030    2    1    2    0    0  0.00000000000E+00  0.00000000000E+00 -0.10497045953E+04  0.33804086067E+04  0.32132977782E+04 0.  0.
        5    1    3    3  502    0  0.29073694674E+02  0.58280373681E+02 -0.22136600364E+04  0.22146229315E+04  0.46999998093E+01 0.  1.
       -5    1    3    3    0  502 -0.29073694674E+02 -0.58280373681E+02  0.11639554412E+04  0.11657856753E+04  0.46999998093E+01 0. -1.
</event>
<event>
 5   0  0.8681172E-07  0.3066659E+04  0.7818609E-02  0.8224948E-01
       -1   -1    0    0    0  501  0.00000000000E+00  0.00000000000E+00  0.13780000475E+04  0.13780000475E+04  0.50400001928E-02 0. -1.
        1   -1    0    0  501    0  0.00000000000E+00  0.00000000000E+00 -0.17061673025E+04  0.17061673025E+04  0.50400001928E-02 0.  1.
    10030    2    1    2    0    0  0.00000000000E+00  0.00000000000E+00 -0.32816725500E+03  0.30841673500E+04  0.30666585228E+04 0.  0.
        1    1    3    3  502    0  0.12134403972E+04 -0.29716657689E+03  0.73001017233E+03  0.14469486597E+04  0.50400001928E-02 0. -1.
       -1    1    3    3    0  502 -0.12134403972E+04  0.29716657689E+03 -0.10581774273E+04  0.16372186903E+04  0.50400001928E-02 0.  1.
</event>
<event>
 5   0  0.2466076E-06  0.3225284E+04  0.7818609E-02  0.8182171E-01
       -2   -1    0    0    0  501  0.00000000000E+00  0.00000000000E+00  0.16193482567E+04  0.16193482567E+04  0.25500000920E-02 0. -1.
        2   -1    0    0  501    0  0.00000000000E+00  0.00000000000E+00 -0.16059634971E+04  0.16059634971E+04  0.25500000920E-02 0.  1.
    10030    2    1    2    0    0  0.00000000000E+00  0.00000000000E+00  0.13384759632E+02  0.32253117539E+04  0.32252839809E+04 0.  0.
        3    1    3    3  502    0 -0.11741103429E+03  0.38884236426E+03 -0.15539717066E+04  0.16061792585E+04  0.10100000352E+00 0.  1.
       -3    1    3    3    0  502  0.11741103429E+03 -0.38884236426E+03  0.15673564662E+04  0.16191324954E+04  0.10100000352E+00 0. -1.
</event>
<event>
 5   0  0.2466076E-06  0.3196651E+04  0.7818609E-02  0.8189702E-01
       -2   -1    0    0    0  501  0.00000000000E+00  0.00000000000E+00  0.10693393164E+04  0.10693393164E+04  0.25500000920E-02 0.  1.
        2   -1    0    0  501    0  0.00000000000E+00  0.00000000000E+00 -0.23889932414E+04  0.23889932414E+04  0.25500000920E-02 0. -1.
    10030    2    1    2    0    0  0.00000000000E+00  0.00000000000E+00 -0.13196539250E+04  0.34583325578E+04  0.31966509973E+04 0.  0.
        3    1    3    3  502    0  0.84048092518E+03  0.27988200872E+03 -0.20991098843E+04  0.22783775896E+04  0.10100000352E+00 0. -1.
       -3    1    3    3    0  502 -0.84048092518E+03 -0.27988200872E+03  0.77945595923E+03  0.11799549682E+04  0.10100000352E+00 0.  1.
</event>
<event>
 5   0  0.8512855E-07  0.3192354E+04  0.7818609E-02  0.8190839E-01
       -1   -1    0    0    0  501  0.00000000000E+00  0.00000000000E+00  0.13043320140E+04  0.13043320140E+04  0.50400001928E-02 0.  1.
        1   -1    0    0  501    0  0.00000000000E+00  0.00000000000E+00 -0.19533220670E+04  0.19533220670E+04  0.50400001928E-02 0. -1.
    10030    2    1    2    0    0  0.00000000000E+00  0.00000000000E+00 -0.64899005300E+03  0.32576540811E+04  0.31923536807E+04 0.  0.
        5    1    3    3  502    0  0.17059278223E+03  0.87093580469E+03 -0.16783308764E+04  0.18985383046E+04  0.46999998093E+01 0. -1.
       -5    1    3    3    0  502 -0.17059278223E+03 -0.87093580469E+03  0.10293408234E+04  0.13591157765E+04  0.46999998093E+01 0.  1.
</event>
<event>
 5   0  0.8545153E-07  0.3294957E+04  0.7818609E-02  0.8164180E-01
       -1   -1    0    0    0  501  0.00000000000E+00  0.00000000000E+00  0.12036022544E+04  0.12036022544E+04  0.50400001928E-02 0.  1.
        1   -1    0    0  501    0  0.00000000000E+00  0.00000000000E+00 -0.22550519426E+04  0.22550519426E+04  0.50400001928E-02 0. -1.
    10030    2    1    2    0    0  0.00000000000E+00  0.00000000000E+00 -0.10514496882E+04  0.34586541970E+04  0.32949571177E+04 0.  0.
        3    1    3    3  502    0 -0.76030174086E+03  0.11766878366E+04  0.38425397747E+03  0.14526885872E+04  0.10100000352E+00 0.  1.
       -3    1    3    3    0  502  0.76030174086E+03 -0.11766878366E+04 -0.14357036657E+04  0.20059656098E+04  0.10100000352E+00 0. -1.
</event>
<event>
 5   0  0.8545153E-07  0.3188519E+04  0.7818609E-02  0.8191856E-01
        1   -1    0    0  501    0  0.00000000000E+00  0.00000000000E+00  0.19195118969E+04  0.19195118969E+04  0.50400001928E-02 0.  1.
       -1   -1    0    0    0  501  0.00000000000E+00  0.00000000000E+00 -0.13241198175E+04  0.13241198175E+04  0.50400001928E-02 0. -1.
    10030    2    1    2    0    0  0.00000000000E+00  0.00000000000E+00  0.59539207940E+03  0.32436317144E+04  0.31885192441E+04 0.  0.
        3    1    3    3  502    0  0.41091758889E+03  0.36845248048E+03  0.18192265146E+04  0.19011037891E+04  0.10100000352E+00 0.  1.
       -3    1    3    3    0  502 -0.41091758889E+03 -0.36845248048E+03 -0.12238344352E+04  0.13425279253E+04  0.10100000352E+00 0. -1.
</event>
<event>
 5   0  0.2404430E-06  0.2632067E+04  0.7818609E-02  0.8357390E-01
        2   -1    0    0  501    0  0.00000000000E+00  0.00000000000E+00  0.17797996925E+04  0.17797996925E+04  0.25500000920E-02 0.  1.
       -2   -1    0    0    0  501  0.00000000000E+00  0.00000000000E+00 -0.97311190395E+03  0.97311190396E+03  0.25500000920E-02 0. -1.
    10030    2    1    2    0    0  0.00000000000E+00  0.00000000000E+00  0.80668778854E+03  0.27529115965E+04  0.26320670717E+04 0.  0.
        4    1    3    3  502    0 -0.16337767330E+03  0.12412067355E+04  0.82775271070E+03  0.15008206380E+04  0.12699999809E+01 0.  1.
       -4    1    3    3    0  502  0.16337767330E+03 -0.12412067355E+04 -0.21064922159E+02  0.12520909585E+04  0.12699999809E+01 0. -1.
</event>
<event>
 5   0  0.2621528E-06  0.3149160E+04  0.7818609E-02  0.8202374E-01
       -2   -1    0    0    0  501  0.00000000000E+00  0.00000000000E+00  0.11126804954E+04  0.11126804954E+04  0.25500000920E-02 0. -1.
        2   -1    0    0  501    0  0.00000000000E+00  0.00000000000E+00 -0.22282248658E+04  0.22282248658E+04  0.25500000920E-02 0.  1.
    10030    2    1    2    0    0  0.00000000000E+00  0.00000000000E+00 -0.11155443704E+04  0.33409053612E+04  0.31491601087E+04 0.  0.
        2    1    3    3  502    0 -0.11096918461E+04  0.53898587055E+03  0.48026220056E+03  0.13238480061E+04  0.25500000920E-02 0. -1.
       -2    1    3    3    0  502  0.11096918461E+04 -0.53898587055E+03 -0.15958065710E+04  0.20170573551E+04  0.25500000920E-02 0.  1.
</event>
<event>
 5   0  0.8383008E-07  0.3200839E+04  0.7818609E-02  0.8188596E-01
       -1   -1    0    0    0  501  0.00000000000E+00  0.00000000000E+00  0.13402979759E+04  0.13402979759E+04  0.50400001928E-02 0.  1.
        1   -1    0    0  501    0  0.00000000000E+00  0.00000000000E+00 -0.19110251623E+04  0.19110251624E+04  0.50400001928E-02 0. -1.
    10030    2    1    2    0    0  0.00000000000E+00  0.00000000000E+00 -0.57072718643E+03  0.32513231383E+04  0.32008393631E+04 0.  0.
        4    1    3    3  502    0 -0.15816945840E+04 -0.10419018142E+03 -0.50958982016E+03  0.16650215460E+04  0.12699999809E+01 0. -1.
       -4    1    3    3    0  502  0.15816945840E+04  0.10419018142E+03 -0.61137366273E+02  0.15863015922E+04  0.12699999809E+01 0.  1.
</event>
<event>
 5   0  0.2337504E-06  0.3189587E+04  0.7818609E-02  0.8191573E-01
       -2   -1    0    0    0  501  0.00000000000E+00  0.00000000000E+00  0.92293312034E+03  0.92293312035E+03  0.25500000920E-02 0.  1.
        2   -1    0    0  501    0  0.00000000000E+00  0.00000000000E+00 -0.27557425250E+04  0.27557425250E+04  0.25500000920E-02 0. -1.
    10030    2    1    2    0    0  0.00000000000E+00  0.00000000000E+00 -0.18328094046E+04  0.36786756453E+04  0.31895868368E+04 0.  0.
        1    1    3    3  502    0 -0.12066825509E+04 -0.17230087463E+03  0.26968326550E+03  0.12483987479E+04  0.50400001928E-02 0. -1.
       -1    1    3    3    0  502  0.12066825509E+04  0.17230087463E+03 -0.21024926701E+04  0.24302768974E+04  0.50400001928E-02 0.  1.
</event>
<event>
 5   0  0.2401139E-06  0.3171128E+04  0.7818609E-02  0.8196484E-01
       -2   -1    0    0    0  501  0.00000000000E+00  0.00000000000E+00  0.17331722590E+04  0.17331722590E+04  0.25500000920E-02 0. -1.
        2   -1    0    0  501    0  0.00000000000E+00  0.00000000000E+00 -0.14505274398E+04  0.14505274398E+04  0.25500000920E-02 0.  1.
    10030    2    1    2    0    0  0.00000000000E+00  0.00000000000E+00  0.28264481918E+03  0.31836996987E+04  0.31711284550E+04 0.  0.
        5    1    3    3  502    0 -0.70575570705E+03  0.99753368059E+03  0.11556877295E+04  0.16819039153E+04  0.46999998093E+01 0.  1.
       -5    1    3    3    0  502  0.70575570705E+03 -0.99753368059E+03 -0.87304291035E+03  0.15017957835E+04  0.46999998093E+01 0. -1.
</event>
<event>
 5   0  0.2401139E-06  0.3200429E+04  0.7818609E-02  0.8188704E-01
       -2   -1    0    0    0  501  0.00000000000E+00  0.00000000000E+00  0.12202569784E+04  0.12202569784E+04  0.25500000920E-02 0. -1.
        2   -1    0    0  501    0  0.00000000000E+00  0.00000000000E+00 -0.20984816507E+04  0.20984816507E+04  0.25500000920E-02 0.  1.
    10030    2    1    2    0    0  0.00000000000E+00  0.00000000000E+00 -0.87822467234E+03  0.33187386291E+04  0.32004292702E+04 0.  0.
        5    1    3    3  502    0 -0.89098338474E+02 -0.78288226679E+03  0.10051487692E+04  0.12771802127E+04  0.46999998093E+01 0. -1.
       -5    1    3    3    0  502  0.89098338474E+02  0.78288226679E+03 -0.18833734415E+04  0.20415584164E+04  0.46999998093E+01 0.  1.
</event>
<event>
 5   0  0.2621528E-06  0.3190813E+04  0.7818609E-02  0.8191248E-01
       -2   -1    0    0    0  501  0.00000000000E+00  0.00000000000E+00  0.31673644622E+04  0.31673644622E+04  0.25500000920E-02 0. -1.
        2   -1    0    0  501    0  0.00000000000E+00  0.00000000000E+00 -0.80360893960E+03  0.80360893961E+03  0.25500000920E-02 0.  1.
    10030    2    1    2    0    0  0.00000000000E+00  0.00000000000E+00  0.23637555226E+04  0.39709734018E+04  0.31908133113E+04 0.  0.
        2    1    3    3  502    0  0.44239626758E+03  0.49658554245E+03  0.29866247593E+04  0.30597776245E+04  0.25500000920E-02 0. -1.
       -2    1    3    3    0  502 -0.44239626758E+03 -0.49658554245E+03 -0.62286923670E+03  0.91119577731E+03  0.25500000920E-02 0.  1.
</event>
<event>
 5   0  0.8512855E-07  0.3246595E+04  0.7818609E-02  0.8176619E-01
       -1   -1    0    0    0  501  0.00000000000E+00  0.00000000000E+00  0.10629169095E+04  0.10629169095E+04  0.50400001928E-02 0.  1.
        1   -1    0    0  501    0  0.00000000000E+00  0.00000000000E+00 -0.24791167925E+04  0.24791167925E+04  0.50400001928E-02 0. -1.
    10030    2    1    2    0    0  0.00000000000E+00  0.00000000000E+00 -0.14161998830E+04  0.35420337020E+04  0.32465952377E+04 0.  0.
        5    1    3    3  502    0 -0.12572396687E+04  0.31426049522E+03  0.35843886244E+03  0.13445860893E+04  0.46999998093E+01 0.  1.
       -5    1    3    3    0  502  0.12572396687E+04 -0.31426049522E+03 -0.17746387455E+04  0.21974476126E+04  0.46999998093E+01 0. -1.
</event>
<event>
 5   0  0.2466076E-06  0.3379963E+04  0.7818609E-02  0.8142842E-01
       -2   -1    0    0    0  501  0.00000000000E+00  0.00000000000E+00  0.14043364921E+04  0.14043364921E+04  0.25500000920E-02 0. -1.
        2   -1    0    0  501    0  0.00000000000E+00  0.00000000000E+00 -0.20337272438E+04  0.20337272438E+04  0.25500000920E-02 0.  1.
    10030    2    1    2    0    0  0.00000000000E+00  0.00000000000E+00 -0.62939075166E+03  0.34380637359E+04  0.33799629486E+04 0.  0.
        3    1    3    3  502    0  0.10636796927E+04 -0.12334993770E+04  0.14372009651E+03  0.16351118243E+04  0.10100000352E+00 0. -1.
       -3    1    3    3    0  502 -0.10636796927E+04  0.12334993770E+04 -0.77311084816E+03  0.18029519116E+04  0.10100000352E+00 0.  1.
</event>
<event>
 5   0  0.8545153E-07  0.3244422E+04  0.7818609E-02  0.8177183E-01
        1   -1    0    0  501    0  0.00000000000E+00  0.00000000000E+00  0.23782827078E+04  0.23782827078E+04  0.50400001928E-02 0. -1.
       -1   -1    0    0    0  501  0.00000000000E+00  0.00000000000E+00 -0.11064991837E+04  0.11064991838E+04  0.50400001928E-02 0.  1.
    10030    2    1    2    0    0  0.00000000000E+00  0.00000000000E+00  0.12717835240E+04  0.34847818915E+04  0.32444215971E+04 0.  0.
        3    1    3    3  502    0  0.16130326462E+04 -0.15402796532E+03  0.55290923280E+03  0.17121061771E+04  0.10100000352E+00 0. -1.
       -3    1    3    3    0  502 -0.16130326462E+04  0.15402796532E+03  0.71887429121E+03  0.17726757144E+04  0.10100000352E+00 0.  1.
</event>
<event>
 5   0  0.2404430E-06  0.3214004E+04  0.7818609E-02  0.8185129E-01
        2   -1    0    0  501    0  0.00000000000E+00  0.00000000000E+00  0.13544339673E+04  0.13544339673E+04  0.25500000920E-02 0.  1.
       -2   -1    0    0    0  501  0.00000000000E+00  0.00000000000E+00 -0.19066676709E+04  0.19066676709E+04  0.25500000920E-02 0. -1.
    10030    2    1    2    0    0  0.00000000000E+00  0.00000000000E+00 -0.55223370362E+03  0.32611016383E+04  0.32140040186E+04 0.  0.
        4    1    3    3  502    0 -0.77115506832E+03  0.33214150339E+03  0.11141647368E+04  0.13951210669E+04  0.12699999809E+01 0.  1.
       -4    1    3    3    0  502  0.77115506832E+03 -0.33214150339E+03 -0.16663984404E+04  0.18659805714E+04  0.12699999809E+01 0. -1.
</event>
<event>
 5   0  0.8487944E-07  0.3197197E+04  0.7818609E-02  0.8189558E-01
       -1   -1    0    0    0  501  0.00000000000E+00  0.00000000000E+00  0.10872489263E+04  0.10872489263E+04  0.50400001928E-02 0. -1.
        1   -1    0    0  501    0  0.00000000000E+00  0.00000000000E+00 -0.23504431669E+04  0.23504431669E+04  0.50400001928E-02 0.  1.
    10030    2    1    2    0    0  0.00000000000E+00  0.00000000000E+00 -0.12631942406E+04  0.34376920932E+04  0.31971967781E+04 0.  0.
        2    1    3    3  502    0  0.14651470968E+04 -0.21910045866E+03 -0.12774958696E+04  0.19561842252E+04  0.25500000920E-02 0. -1.
       -2    1    3    3    0  502 -0.14651470968E+04  0.21910045866E+03  0.14301628984E+02  0.14815078680E+04  0.25500000920E-02 0.  1.
</event>
<event>
 5   0  0.8681172E-07  0.3130282E+04  0.7818609E-02  0.8207476E-01
       -1   -1    0    0    0  501  0.00000000000E+00  0.00000000000E+00  0.97663281671E+03  0.97663281673E+03  0.50400001928E-02 0. -1.
        1   -1    0    0  501    0  0.00000000000E+00  0.00000000000E+00 -0.25082774458E+04  0.25082774459E+04  0.50400001928E-02 0.  1.
    10030    2    1    2    0    0  0.00000000000E+00  0.00000000000E+00 -0.15316446291E+04  0.34849102626E+04  0.31302818193E+04 0.  0.
        1    1    3    3  502    0  0.63675200821E+03  0.57382686577E+03  0.69209226143E+03  0.11016905601E+04  0.50400001928E-02 0. -1.
       -1    1    3    3    0  502 -0.63675200821E+03 -0.57382686577E+03 -0.22237368906E+04  0.23832197025E+04  0.50400001928E-02 0.  1.
</event>
<event>
 5   0  0.2401139E-06  0.3202416E+04  0.7818609E-02  0.8188179E-01
       -2   -1    0    0    0  501  0.00000000000E+00  0.00000000000E+00  0.14214353199E+04  0.14214353199E+04  0.25500000920E-02 0. -1.
        2   -1    0    0  501    0  0.00000000000E+00  0.00000000000E+00 -0.18037170850E+04  0.18037170850E+04  0.25500000920E-02 0.  1.
    10030    2    1    2    0    0  0.00000000000E+00  0.00000000000E+00 -0.38228176514E+03  0.32251524049E+04  0.32024160703E+04 0.  0.
        5    1    3    3  502    0 -0.47549451077E+03 -0.52546232335E+03 -0.16371759938E+04  0.17839767397E+04  0.46999998093E+01 0.  1.
       -5    1    3    3    0  502  0.47549451077E+03  0.52546232335E+03  0.12548942286E+04  0.14411756653E+04  0.46999998093E+01 0. -1.
</event>
<event>
 5   0  0.8512855E-07  0.3209452E+04  0.7818609E-02  0.8186325E-01
        1   -1    0    0  501    0  0.00000000000E+00  0.00000000000E+00  0.99945511924E+03  0.99945511925E+03  0.50400001928E-02 0. -1.
       -1   -1    0    0    0  501  0.00000000000E+00  0.00000000000E+00 -0.25765496943E+04  0.25765496943E+04  0.50400001928E-02 0.  1.
    10030    2    1    2    0    0  0.00000000000E+00  0.00000000000E+00 -0.15770945751E+04  0.35760048136E+04  0.32094521539E+04 0.  0.
        5    1    3    3  502    0 -0.46186923050E+03 -0.12991668261E+04  0.12616856066E+03  0.13845931618E+04  0.46999998093E+01 0. -1.
       -5    1    3    3    0  502  0.46186923050E+03  0.12991668261E+04 -0.17032631357E+04  0.21914116518E+04  0.46999998093E+01 0.  1.
</event>
<event>
 5   0  0.2466076E-06  0.3261912E+04  0.7818609E-02  0.8172655E-01
        2   -1    0    0  501    0  0.00000000000E+00  0.00000000000E+00  0.21859942172E+04  0.21859942172E+04  0.25500000920E-02 0.  1.
       -2   -1    0    0    0  501  0.00000000000E+00  0.00000000000E+00 -0.12168455750E+04  0.12168455750E+04  0.25500000920E-02 0. -1.
    10030    2    1    2    0    0  0.00000000000E+00  0.00000000000E+00  0.96914864218E+03  0.34028397922E+04  0.32619119487E+04 0.  0.
        3    1    3    3  502    0  0.15516293106E+04  0.40759059451E+03  0.17805375292E+03  0.16141210485E+04  0.10100000352E+00 0.  1.
       -3    1    3    3    0  502 -0.15516293106E+04 -0.40759059451E+03  0.79109488926E+03  0.17887187437E+04  0.10100000352E+00 0. -1.
</event>
<event>
 5   0  0.2337504E-06  0.3204751E+04  0.7818609E-02  0.8187563E-01
        2   -1    0    0  501    0  0.00000000000E+00  0.00000000000E+00  0.18022461614E+04  0.18022461614E+04  0.25500000920E-02 0. -1.
       -2   -1    0    0    0  501  0.00000000000E+00  0.00000000000E+00 -0.14246709667E+04  0.14246709667E+04  0.25500000920E-02 0.  1.
    10030    2    1    2    0    0  0.00000000000E+00  0.00000000000E+00  0.37757519470E+03  0.32269171281E+04  0.32047513358E+04 0.  0.
        1    1    3    3  502    0 -0.15079686092E+04  0.48922786161E+03 -0.45835957471E+02  0.15860057257E+04  0.50400001928E-02 0.  1.
       -1    1    3    3    0  502  0.15079686092E+04 -0.48922786161E+03  0.42341115217E+03  0.16409114024E+04  0.50400001928E-02 0. -1.
</event>
<event>
 5   0  0.8487944E-07  0.3211737E+04  0.7818609E-02  0.8185724E-01
       -1   -1    0    0    0  501  0.00000000000E+00  0.00000000000E+00  0.10820998731E+04  0.10820998731E+04  0.50400001928E-02 0.  1.
        1   -1    0    0  501    0  0.00000000000E+00  0.00000000000E+00 -0.23831569458E+04  0.23831569458E+04  0.50400001928E-02 0. -1.
    10030    2    1    2    0    0  0.00000000000E+00  0.00000000000E+00 -0.13010570727E+04  0.34652568189E+04  0.32117371179E+04 0.  0.
        2    1    3    3  502    0 -0.94072117913E+03 -0.87912211542E+03 -0.16859702930E+04  0.21213929055E+04  0.25500000920E-02 0. -1.
       -2    1    3    3    0  502  0.94072117913E+03  0.87912211542E+03  0.38491322028E+03  0.13438639134E+04  0.25500000920E-02 0.  1.
</event>
<event>
 5   0  0.8487944E-07  0.3146686E+04  0.7818609E-02  0.8203041E-01
       -1   -1    0    0    0  501  0.00000000000E+00  0.00000000000E+00  0.12759166584E+04  0.12759166584E+04  0.50400001928E-02 0. -1.
        1   -1    0    0  501    0  0.00000000000E+00  0.00000000000E+00 -0.19401021595E+04  0.19401021595E+04  0.50400001928E-02 0.  1.
    10030    2    1    2    0    0  0.00000000000E+00  0.00000000000E+00 -0.66418550110E+03  0.32160188178E+04  0.31466862978E+04 0.  0.
        2    1    3    3  502    0 -0.81484403918E+03  0.14386473174E+03 -0.16997633024E+04  0.18904663852E+04  0.25500000920E-02 0.  1.
       -2    1    3    3    0  502  0.81484403918E+03 -0.14386473174E+03  0.10355778013E+04  0.13255524327E+04  0.25500000920E-02 0. -1.
</event>
<event>
 5   0  0.2466076E-06  0.3183009E+04  0.7818609E-02  0.8193319E-01
       -2   -1    0    0    0  501  0.00000000000E+00  0.00000000000E+00  0.98403355896E+03  0.98403355897E+03  0.25500000920E-02 0. -1.
        2   -1    0    0  501    0  0.00000000000E+00  0.00000000000E+00 -0.25739836456E+04  0.25739836456E+04  0.25500000920E-02 0.  1.
    10030    2    1    2    0    0  0.00000000000E+00  0.00000000000E+00 -0.15899500866E+04  0.35580172046E+04  0.31830088203E+04 0.  0.
        3    1    3    3  502    0  0.24667910920E+03  0.11475952590E+04  0.40638346153E+03  0.12421646386E+04  0.10100000352E+00 0. -1.
       -3    1    3    3    0  502 -0.24667910920E+03 -0.11475952590E+04 -0.19963335482E+04  0.23158525660E+04  0.10100000352E+00 0.  1.
</event>
<event>
 5   0  0.2466076E-06  0.3248978E+04  0.7818609E-02  0.8176001E-01
        2   -1    0    0  501    0  0.00000000000E+00  0.00000000000E+00  0.88361705552E+03  0.88361705553E+03  0.25500000920E-02 0.  1.
       -2   -1    0    0    0  501  0.00000000000E+00  0.00000000000E+00 -0.29865483509E+04  0.29865483509E+04  0.25500000920E-02 0. -1.
    10030    2    1    2    0    0  0.00000000000E+00  0.00000000000E+00 -0.21029312954E+04  0.38701654064E+04  0.32489783379E+04 0.  0.
        3    1    3    3  502    0 -0.98760951273E+02  0.83131823060E+03  0.60687288048E+03  0.10339915035E+04  0.10100000352E+00 0.  1.
       -3    1    3    3    0  502  0.98760951273E+02 -0.83131823060E+03 -0.27098041759E+04  0.28361739029E+04  0.10100000352E+00 0. -1.
</event>
<event>
 5   0  0.8383008E-07  0.3199024E+04  0.7818609E-02  0.8189075E-01
       -1   -1    0    0    0  501  0.00000000000E+00  0.00000000000E+00  0.17067196262E+04  0.17067196262E+04  0.50400001928E-02 0. -1.
        1   -1    0    0  501    0  0.00000000000E+00  0.00000000000E+00 -0.14990383389E+04  0.14990383389E+04  0.50400001928E-02 0.  1.
    10030    2    1    2    0    0  0.00000000000E+00  0.00000000000E+00  0.20768128731E+03  0.32057579652E+04  0.31990236970E+04 0.  0.
        4    1    3    3  502    0 -0.13315665078E+04  0.37699303722E+03  0.90755356580E+03  0.16549465860E+04  0.12699999809E+01 0. -1.
       -4    1    3    3    0  502  0.13315665078E+04 -0.37699303722E+03 -0.69987227849E+03  0.15508113792E+04  0.12699999809E+01 0.  1.
</event>
<event>
 5   0  0.8383008E-07  0.3199042E+04  0.7818609E-02  0.8189070E-01
       -1   -1    0    0    0  501  0.00000000000E+00  0.00000000000E+00  0.23070916803E+04  0.23070916803E+04  0.50400001928E-02 0. -1.
        1   -1    0    0  501    0  0.00000000000E+00  0.00000000000E+00 -0.11089580123E+04  0.11089580123E+04  0.50400001928E-02 0.  1.
    10030    2    1    2    0    0  0.00000000000E+00  0.00000000000E+00  0.11981336680E+04  0.34160496927E+04  0.31990422342E+04 0.  0.
        4    1    3    3  502    0 -0.51618560074E+03 -0.34351841393E+03 -0.97540663119E+03  0.11557993702E+04  0.12699999809E+01 0.  1.
       -4    1    3    3    0  502  0.51618560074E+03  0.34351841393E+03  0.21735402992E+04  0.22602503224E+04  0.12699999809E+01 0. -1.
</event>
<event>
 5   0  0.8681172E-07  0.3267598E+04  0.7818609E-02  0.8171189E-01
       -1   -1    0    0    0  501  0.00000000000E+00  0.00000000000E+00  0.12577059360E+04  0.12577059360E+04  0.50400001928E-02 0.  1.
        1   -1    0    0  501    0  0.00000000000E+00  0.00000000000E+00 -0.21223559626E+04  0.21223559626E+04  0.50400001928E-02 0. -1.
    10030    2    1    2    0    0  0.00000000000E+00  0.00000000000E+00 -0.86465002660E+03  0.33800618986E+04  0.32675983183E+04 0.  0.
        1    1    3    3  502    0 -0.15556064539E+04 -0.24273524244E+02  0.83640111390E+02  0.15580424614E+04  0.50400001928E-02 0.  1.
       -1    1    3    3    0  502  0.15556064539E+04  0.24273524244E+02 -0.94829013799E+03  0.18220194371E+04  0.50400001928E-02 0. -1.
</event>
<event>
 5   0  0.8681172E-07  0.3215180E+04  0.7818609E-02  0.8184820E-01
       -1   -1    0    0    0  501  0.00000000000E+00  0.00000000000E+00  0.11508804660E+04  0.11508804660E+04  0.50400001928E-02 0. -1.
        1   -1    0    0  501    0  0.00000000000E+00  0.00000000000E+00 -0.22455375346E+04  0.22455375346E+04  0.50400001928E-02 0.  1.
    10030    2    1    2    0    0  0.00000000000E+00  0.00000000000E+00 -0.10946570686E+04  0.33964180005E+04  0.32151797985E+04 0.  0.
        1    1    3    3  502    0  0.10463470818E+03  0.13895977898E+04  0.29935995061E+03  0.14253234088E+04  0.50400001928E-02 0. -1.
       -1    1    3    3    0  502 -0.10463470818E+03 -0.13895977898E+04 -0.13940170192E+04  0.19710945917E+04  0.50400001928E-02 0.  1.
</event>
<event>
 5   0  0.8487944E-07  0.3321925E+04  0.7818609E-02  0.8157339E-01
        1   -1    0    0  501    0  0.00000000000E+00  0.00000000000E+00  0.18820146114E+04  0.18820146114E+04  0.50400001928E-02 0. -1.
       -1   -1    0    0    0  501  0.00000000000E+00  0.00000000000E+00 -0.14658743779E+04  0.14658743780E+04  0.50400001928E-02 0.  1.
    10030    2    1    2    0    0  0.00000000000E+00  0.00000000000E+00  0.41614023342E+03  0.33478889893E+04  0.33219253440E+04 0.  0.
        2    1    3    3  502    0 -0.13958844807E+04  0.44915813658E+03 -0.57812991107E+03  0.15762203873E+04  0.25500000920E-02 0.  1.
       -2    1    3    3    0  502  0.13958844807E+04 -0.44915813658E+03  0.99427014449E+03  0.17716686020E+04  0.25500000920E-02 0. -1.
</event>
<event>
 5   0  0.8512855E-07  0.3184488E+04  0.7818609E-02  0.8192926E-01
       -1   -1    0    0    0  501  0.00000000000E+00  0.00000000000E+00  0.11094736821E+04  0.11094736821E+04  0.50400001928E-02 0. -1.
        1   -1    0    0  501    0  0.00000000000E+00  0.00000000000E+00 -0.22850837438E+04  0.22850837438E+04  0.50400001928E-02 0.  1.
    10030    2    1    2    0    0  0.00000000000E+00  0.00000000000E+00 -0.11756100617E+04  0.33945574260E+04  0.31844875728E+04 0.  0.
        5    1    3    3  502    0 -0.10053191592E+04  0.12049227322E+04 -0.30036385269E+03  0.15977314970E+04  0.46999998093E+01 0. -1.
       -5    1    3    3    0  502  0.10053191592E+04 -0.12049227322E+04 -0.87524620902E+03  0.17968259290E+04  0.46999998093E+01 0.  1.
</event>
<event>
 5   0  0.8487944E-07  0.3172887E+04  0.7818609E-02  0.8196015E-01
        1   -1    0    0  501    0  0.00000000000E+00  0.00000000000E+00  0.21188706306E+04  0.21188706306E+04  0.50400001928E-02 0. -1.
       -1   -1    0    0    0  501  0.00000000000E+00  0.00000000000E+00 -0.11878041281E+04  0.11878041281E+04  0.50400001928E-02 0.  1.
    10030    2    1    2    0    0  0.00000000000E+00  0.00000000000E+00  0.93106650247E+03  0.33066747587E+04  0.31728871911E+04 0.  0.
        2    1    3    3  502    0 -0.14100823529E+04 -0.58232641782E+03  0.91904545587E+03  0.17810336461E+04  0.25500000920E-02 0. -1.
       -2    1    3    3    0  502  0.14100823529E+04  0.58232641782E+03  0.12021046605E+02  0.15256411126E+04  0.25500000920E-02 0.  1.
</event>
<event>
 5   0  0.2337504E-06  0.3039945E+04  0.7818609E-02  0.8232416E-01
        2   -1    0    0  501    0  0.00000000000E+00  0.00000000000E+00  0.16875376986E+04  0.16875376986E+04  0.25500000920E-02 0.  1.
       -2   -1    0    0    0  501  0.00000000000E+00  0.00000000000E+00 -0.13690455283E+04  0.13690455283E+04  0.25500000920E-02 0. -1.
    10030    2    1    2    0    0  0.00000000000E+00  0.00000000000E+00  0.31849217033E+03  0.30565832269E+04  0.30399446969E+04 0.  0.
        1    1    3    3  502    0  0.73617122740E+03 -0.38125843758E+03  0.14401929728E+04  0.16617646858E+04  0.50400001928E-02 0.  1.
       -1    1    3    3    0  502 -0.73617122740E+03  0.38125843758E+03 -0.11217008024E+04  0.13948185411E+04  0.50400001928E-02 0. -1.
</event>
<event>
 5   0  0.2337504E-06  0.3195930E+04  0.7818609E-02  0.8189893E-01
        2   -1    0    0  501    0  0.00000000000E+00  0.00000000000E+00  0.14112401008E+04  0.14112401008E+04  0.25500000920E-02 0. -1.
       -2   -1    0    0    0  501  0.00000000000E+00  0.00000000000E+00 -0.18093963031E+04  0.18093963031E+04  0.25500000920E-02 0.  1.
    10030    2    1    2    0    0  0.00000000000E+00  0.00000000000E+00 -0.39815620227E+03  0.32206364038E+04  0.31959303003E+04 0.  0.
        1    1    3    3  502    0 -0.52618779122E+03 -0.90657213036E+03  0.10163743799E+04  0.14600559918E+04  0.50400001928E-02 0. -1.
       -1    1    3    3    0  502  0.52618779122E+03  0.90657213036E+03 -0.14145305822E+04  0.17605804120E+04  0.50400001928E-02 0.  1.
</event>
<event>
 5   0  0.2621528E-06  0.3153572E+04  0.7818609E-02  0.8201187E-01
       -2   -1    0    0    0  501  0.00000000000E+00  0.00000000000E+00  0.13038514717E+04  0.13038514717E+04  0.25500000920E-02 0. -1.
        2   -1    0    0  501    0  0.00000000000E+00  0.00000000000E+00 -0.19068538938E+04  0.19068538938E+04  0.25500000920E-02 0.  1.
    10030    2    1    2    0    0  0.00000000000E+00  0.00000000000E+00 -0.60300242210E+03  0.32107053654E+04  0.31535721052E+04 0.  0.
        2    1    3    3  502    0 -0.78309550545E+03  0.12235230601E+04 -0.92580454928E+03  0.17226030630E+04  0.25500000920E-02 0.  1.
       -2    1    3    3    0  502  0.78309550545E+03 -0.12235230601E+04  0.32280212718E+03  0.14881023024E+04  0.25500000920E-02 0. -1.
</event>
<event>
 5   0  0.8383008E-07  0.3144092E+04  0.7818609E-02  0.8203740E-01
        1   -1    0    0  501    0  0.00000000000E+00  0.00000000000E+00  0.17802706149E+04  0.17802706149E+04  0.50400001928E-02 0.  1.
       -1   -1    0    0    0  501  0.00000000000E+00  0.00000000000E+00 -0.13881756697E+04  0.13881756697E+04  0.50400001928E-02 0. -1.
    10030    2    1    2    0    0  0.00000000000E+00  0.00000000000E+00  0.39209494521E+03  0.31684462846E+04  0.31440918263E+04 0.  0.
        4    1    3    3  502    0 -0.33362538615E+02  0.23405397478E+03 -0.13701574069E+04  0.13904054281E+04  0.12699999809E+01 0. -1.
       -4    1    3    3    0  502  0.33362538615E+02 -0.23405397478E+03  0.17622523521E+04  0.17780408565E+04  0.12699999809E+01 0.  1.
</event>
<event>
 5   0  0.8383008E-07  0.3196631E+04  0.7818609E-02  0.8189707E-01
       -1   -1    0    0    0  501  0.00000000000E+00  0.00000000000E+00  0.10673335124E+04  0.10673335124E+04  0.50400001928E-02 0.  1.
        1   -1    0    0  501    0  0.00000000000E+00  0.00000000000E+00 -0.23934531366E+04  0.23934531366E+04  0.50400001928E-02 0. -1.
    10030    2    1    2    0    0  0.00000000000E+00  0.00000000000E+00 -0.13261196243E+04  0.34607866490E+04  0.31966311911E+04 0.  0.
        4    1    3    3  502    0 -0.59341930640E+03  0.10456010320E+04  0.47714776683E+03  0.12934835119E+04  0.12699999809E+01 0.  1.
       -4    1    3    3    0  502  0.59341930640E+03 -0.10456010320E+04 -0.18032673911E+04  0.21673031371E+04  0.12699999809E+01 0. -1.
</event>
<event>
 5   0  0.8681172E-07  0.3148126E+04  0.7818609E-02  0.8202653E-01
        1   -1    0    0  501    0  0.00000000000E+00  0.00000000000E+00  0.18006812484E+04  0.18006812484E+04  0.50400001928E-02 0. -1.
       -1   -1    0    0    0  501  0.00000000000E+00  0.00000000000E+00 -0.13759653757E+04  0.13759653757E+04  0.50400001928E-02 0.  1.
    10030    2    1    2    0    0  0.00000000000E+00  0.00000000000E+00  0.42471587269E+03  0.31766466241E+04  0.31481264590E+04 0.  0.
        1    1    3    3  502    0  0.61444275317E+02 -0.15575429358E+04 -0.86229748881E+01  0.15587782881E+04  0.50400001928E-02 0.  1.
       -1    1    3    3    0  502 -0.61444275317E+02  0.15575429358E+04  0.43333884758E+03  0.16178683360E+04  0.50400001928E-02 0. -1.
</event>
<event>
 5   0  0.8487944E-07  0.3227409E+04  0.7818609E-02  0.8181616E-01
       -1   -1    0    0    0  501  0.00000000000E+00  0.00000000000E+00  0.98903515137E+03  0.98903515138E+03  0.50400001928E-02 0. -1.
        1   -1    0    0  501    0  0.00000000000E+00  0.00000000000E+00 -0.26329124370E+04  0.26329124370E+04  0.50400001928E-02 0.  1.
    10030    2    1    2    0    0  0.00000000000E+00  0.00000000000E+00 -0.16438772856E+04  0.36219475884E+04  0.32274094570E+04 0.  0.
        2    1    3    3  502    0 -0.10139039441E+04 -0.12530946027E+04 -0.73650291483E+03  0.17721974593E+04  0.25500000920E-02 0.  1.
       -2    1    3    3    0  502  0.10139039441E+04  0.12530946027E+04 -0.90737437081E+03  0.18497501291E+04  0.25500000920E-02 0. -1.
</event>
<event>
 5   0  0.8487944E-07  0.3185996E+04  0.7818609E-02  0.8192525E-01
       -1   -1    0    0    0  501  0.00000000000E+00  0.00000000000E+00  0.18576724454E+04  0.18576724454E+04  0.50400001928E-02 0.  1.
        1   -1    0    0  501    0  0.00000000000E+00  0.00000000000E+00 -0.13660338157E+04  0.13660338157E+04  0.50400001928E-02 0. -1.
    10030    2    1    2    0    0  0.00000000000E+00  0.00000000000E+00  0.49163862964E+03  0.32237062611E+04  0.31859964714E+04 0.  0.
        2    1    3    3  502    0 -0.64539430668E+03  0.14104025515E+04 -0.12162379535E+03  0.15558153862E+04  0.25500000920E-02 0. -1.
       -2    1    3    3    0  502  0.64539430668E+03 -0.14104025515E+04  0.61326242499E+03  0.16678908748E+04  0.25500000920E-02 0.  1.
</event>
<event>
 5   0  0.2466076E-06  0.3183301E+04  0.7818609E-02  0.8193241E-01
        2   -1    0    0  501    0  0.00000000000E+00  0.00000000000E+00  0.18748393719E+04  0.18748393719E+04  0.25500000920E-02 0.  1.
       -2   -1    0    0    0  501  0.00000000000E+00  0.00000000000E+00 -0.13512363748E+04  0.13512363748E+04  0.25500000920E-02 0. -1.
    10030    2    1    2    0    0  0.00000000000E+00  0.00000000000E+00  0.52360299715E+03  0.32260757467E+04  0.31833009007E+04 0.  0.
        3    1    3    3  502    0 -0.74822337942E+03  0.82596788483E+03 -0.88981733183E+03  0.14261262449E+04  0.10100000352E+00 0. -1.
       -3    1    3    3    0  502  0.74822337942E+03 -0.82596788483E+03  0.14134203290E+04  0.17999495017E+04  0.10100000352E+00 0.  1.
</event>
<event>
 5   0  0.2337504E-06  0.3200203E+04  0.7818609E-02  0.8188764E-01
       -2   -1    0    0    0  501  0.00000000000E+00  0.00000000000E+00  0.13161256697E+04  0.13161256697E+04  0.25500000920E-02 0.  1.
        2   -1    0    0  501    0  0.00000000000E+00  0.00000000000E+00 -0.19453498585E+04  0.19453498585E+04  0.25500000920E-02 0. -1.
    10030    2    1    2    0    0  0.00000000000E+00  0.00000000000E+00 -0.62922418872E+03  0.32614755282E+04  0.32002030469E+04 0.  0.
        1    1    3    3  502    0  0.52530431465E+03 -0.14766751899E+04 -0.64297760583E+03  0.16940880854E+04  0.50400001928E-02 0. -1.
       -1    1    3    3    0  502 -0.52530431465E+03  0.14766751899E+04  0.13753417112E+02  0.15673874428E+04  0.50400001928E-02 0.  1.
</event>
<event>
 5   0  0.2466076E-06  0.3337496E+04  0.7818609E-02  0.8153419E-01
       -2   -1    0    0    0  501  0.00000000000E+00  0.00000000000E+00  0.16029723197E+04  0.16029723197E+04  0.25500000920E-02 0.  1.
        2   -1    0    0  501    0  0.00000000000E+00  0.00000000000E+00 -0.17372230814E+04  0.17372230814E+04  0.25500000920E-02 0. -1.
    10030    2    1    2    0    0  0.00000000000E+00  0.00000000000E+00 -0.13425076171E+03  0.33401954010E+04  0.33374963745E+04 0.  0.
        3    1    3    3  502    0  0.46398994386E+03  0.36332788933E+03  0.14953631974E+04  0.16072973980E+04  0.10100000352E+00 0.  1.
       -3    1    3    3    0  502 -0.46398994386E+03 -0.36332788933E+03 -0.16296139591E+04  0.17328980031E+04  0.10100000352E+00 0. -1.
</event>
<event>
 5   0  0.8681172E-07  0.3202228E+04  0.7818609E-02  0.8188229E-01
        1   -1    0    0  501    0  0.00000000000E+00  0.00000000000E+00  0.92724769943E+03  0.92724769944E+03  0.50400001928E-02 0. -1.
       -1   -1    0    0    0  501  0.00000000000E+00  0.00000000000E+00 -0.27647038256E+04  0.27647038256E+04  0.50400001928E-02 0.  1.
    10030    2    1    2    0    0  0.00000000000E+00  0.00000000000E+00 -0.18374561262E+04  0.36919515251E+04  0.32022275134E+04 0.  0.
        1    1    3    3  502    0 -0.10928608937E+04  0.80957861638E+03  0.55348125070E+02  0.13611854701E+04  0.50400001928E-02 0. -1.
       -1    1    3    3    0  502  0.10928608937E+04 -0.80957861638E+03 -0.18928042513E+04  0.23307660549E+04  0.50400001928E-02 0.  1.
</event>
<event>
 5   0  0.2621528E-06  0.3302696E+04  0.7818609E-02  0.8162210E-01
        2   -1    0    0  501    0  0.00000000000E+00  0.00000000000E+00  0.20400443553E+04  0.20400443553E+04  0.25500000920E-02 0. -1.
       -2   -1    0    0    0  501  0.00000000000E+00  0.00000000000E+00 -0.13367111596E+04  0.13367111596E+04  0.25500000920E-02 0.  1.
    10030    2    1    2    0    0  0.00000000000E+00  0.00000000000E+00  0.70333319574E+03  0.33767555149E+04  0.33026959023E+04 0.  0.
        2    1    3    3  502    0 -0.88971834892E+03 -0.13785742141E+04  0.54262860912E+03  0.17281526008E+04  0.25500000920E-02 0.  1.
       -2    1    3    3    0  502  0.88971834892E+03  0.13785742141E+04  0.16070458662E+03  0.16486029141E+04  0.25500000920E-02 0. -1.
</event>
<event>
 5   0  0.2621528E-06  0.3187579E+04  0.7818609E-02  0.8192105E-01
        2   -1    0    0  501    0  0.00000000000E+00  0.00000000000E+00  0.13351731942E+04  0.13351731943E+04  0.25500000920E-02 0.  1.
       -2   -1    0    0    0  501  0.00000000000E+00  0.00000000000E+00 -0.19024984653E+04  0.19024984653E+04  0.25500000920E-02 0. -1.
    10030    2    1    2    0    0  0.00000000000E+00  0.00000000000E+00 -0.56732527110E+03  0.32376716596E+04  0.31875789892E+04 0.  0.
        2    1    3    3  502    0  0.73927770575E+03 -0.41573804362E+03  0.10869111178E+04  0.13786752428E+04  0.25500000920E-02 0.  1.
       -2    1    3    3    0  502 -0.73927770575E+03  0.41573804362E+03 -0.16542363889E+04  0.18589964168E+04  0.25500000920E-02 0. -1.
</event>
<event>
 5   0  0.8681172E-07  0.3174287E+04  0.7818609E-02  0.8195641E-01
       -1   -1    0    0    0  501  0.00000000000E+00  0.00000000000E+00  0.23592402323E+04  0.23592402323E+04  0.50400001928E-02 0. -1.
        1   -1    0    0  501    0  0.00000000000E+00  0.00000000000E+00 -0.10677272498E+04  0.10677272498E+04  0.50400001928E-02 0.  1.
    10030    2    1    2    0    0  0.00000000000E+00  0.00000000000E+00  0.12915129825E+04  0.34269674821E+04  0.31742873750E+04 0.  0.
        1    1    3    3  502    0 -0.12042825271E+04 -0.16465377652E+03  0.17475949854E+04  0.21287309610E+04  0.50400001928E-02 0. -1.
       -1    1    3    3    0  502  0.12042825271E+04  0.16465377652E+03 -0.45608200294E+03  0.12982365211E+04  0.50400001928E-02 0.  1.
</event>
<event>
 5   0  0.8383008E-07  0.3209144E+04  0.7818609E-02  0.8186406E-01
        1   -1    0    0  501    0  0.00000000000E+00  0.00000000000E+00  0.25728654390E+04  0.25728654390E+04  0.50400001928E-02 0. -1.
       -1   -1    0    0    0  501  0.00000000000E+00  0.00000000000E+00 -0.10006942756E+04  0.10006942756E+04  0.50400001928E-02 0.  1.
    10030    2    1    2    0    0  0.00000000000E+00  0.00000000000E+00  0.15721711634E+04  0.35735597146E+04  0.32091442577E+04 0.  0.
        4    1    3    3  502    0 -0.56895560303E+03 -0.11304217736E+04  0.18845537319E+04  0.22700458686E+04  0.12699999809E+01 0. -1.
       -4    1    3    3    0  502  0.56895560303E+03  0.11304217736E+04 -0.31238256847E+03  0.13035138459E+04  0.12699999809E+01 0.  1.
</event>
<event>
 5   0  0.8512855E-07  0.3161065E+04  0.7818609E-02  0.8199176E-01
       -1   -1    0    0    0  501  0.00000000000E+00  0.00000000000E+00  0.31291567211E+04  0.31291567211E+04  0.50400001928E-02 0. -1.
        1   -1    0    0  501    0  0.00000000000E+00  0.00000000000E+00 -0.79832472574E+03  0.79832472575E+03  0.50400001928E-02 0.  1.
    10030    2    1    2    0    0  0.00000000000E+00  0.00000000000E+00  0.23308319953E+04  0.39274814468E+04  0.31610651250E+04 0.  0.
        5    1    3    3  502    0  0.14789769150E+04  0.54084364280E+03  0.13329242433E+04  0.20631513976E+04  0.46999998093E+01 0. -1.
       -5    1    3    3    0  502 -0.14789769150E+04 -0.54084364280E+03  0.99790775202E+03  0.18643300492E+04  0.46999998093E+01 0.  1.
</event>
<event>
 5   0  0.2404430E-06  0.3186335E+04  0.7818609E-02  0.8192435E-01
       -2   -1    0    0    0  501  0.00000000000E+00  0.00000000000E+00  0.13951522021E+04  0.13951522021E+04  0.25500000920E-02 0. -1.
        2   -1    0    0  501    0  0.00000000000E+00  0.00000000000E+00 -0.18192870628E+04  0.18192870628E+04  0.25500000920E-02 0.  1.
    10030    2    1    2    0    0  0.00000000000E+00  0.00000000000E+00 -0.42413486073E+03  0.32144392650E+04  0.31863347922E+04 0.  0.
        4    1    3    3  502    0  0.53490609921E+03  0.15002901089E+04 -0.24680650777E+03  0.16118033413E+04  0.12699999809E+01 0.  1.
       -4    1    3    3    0  502 -0.53490609921E+03 -0.15002901089E+04 -0.17732835296E+03  0.16026359236E+04  0.12699999809E+01 0. -1.
</event>
<event>
 5   0  0.8512855E-07  0.3188362E+04  0.7818609E-02  0.8191898E-01
       -1   -1    0    0    0  501  0.00000000000E+00  0.00000000000E+00  0.12995606288E+04  0.12995606288E+04  0.50400001928E-02 0. -1.
        1   -1    0    0  501    0  0.00000000000E+00  0.00000000000E+00 -0.19555938754E+04  0.19555938754E+04  0.50400001928E-02 0.  1.
    10030    2    1    2    0    0  0.00000000000E+00  0.00000000000E+00 -0.65603324655E+03  0.32551545042E+04  0.31883618405E+04 0.  0.
        5    1    3    3  502    0 -0.16603265947E+03 -0.15100666275E+04 -0.82138182259E+03  0.17270084690E+04  0.46999998093E+01 0.  1.
       -5    1    3    3    0  502  0.16603265947E+03  0.15100666275E+04  0.16534857604E+03  0.15281460352E+04  0.46999998093E+01 0. -1.
</event>
<event>
 5   0  0.2337504E-06  0.3210376E+04  0.7818609E-02  0.8186082E-01
       -2   -1    0    0    0  501  0.00000000000E+00  0.00000000000E+00  0.12023299470E+04  0.12023299470E+04  0.25500000920E-02 0. -1.
        2   -1    0    0  501    0  0.00000000000E+00  0.00000000000E+00 -0.21430295427E+04  0.21430295427E+04  0.25500000920E-02 0.  1.
    10030    2    1    2    0    0  0.00000000000E+00  0.00000000000E+00 -0.94069959569E+03  0.33453594898E+04  0.32103760506E+04 0.  0.
        1    1    3    3  502    0  0.58998135378E+03 -0.95927284344E+03 -0.16622728716E+04  0.20078429933E+04  0.50400001928E-02 0.  1.
       -1    1    3    3    0  502 -0.58998135378E+03  0.95927284344E+03  0.72157327589E+03  0.13375164965E+04  0.50400001928E-02 0. -1.
</event>
<event>
 5   0  0.8512855E-07  0.3237184E+04  0.7818609E-02  0.8179066E-01
        1   -1    0    0  501    0  0.00000000000E+00  0.00000000000E+00  0.10982003054E+04  0.10982003054E+04  0.50400001928E-02 0.  1.
       -1   -1    0    0    0  501  0.00000000000E+00  0.00000000000E+00 -0.23855752633E+04  0.23855752633E+04  0.50400001928E-02 0. -1.
    10030    2    1    2    0    0  0.00000000000E+00  0.00000000000E+00 -0.12873749579E+04  0.34837755687E+04  0.32371836419E+04 0.  0.
        5    1    3    3  502    0 -0.32423683222E+03 -0.70136809203E+03  0.88689294989E+03  0.11762856449E+04  0.46999998093E+01 0.  1.
       -5    1    3    3    0  502  0.32423683222E+03  0.70136809203E+03 -0.21742679078E+04  0.23074899238E+04  0.46999998093E+01 0. -1.
</event>
<event>
 5   0  0.8545153E-07  0.3210665E+04  0.7818609E-02  0.8186006E-01
       -1   -1    0    0    0  501  0.00000000000E+00  0.00000000000E+00  0.30764680316E+04  0.30764680316E+04  0.50400001928E-02 0.  1.
        1   -1    0    0  501    0  0.00000000000E+00  0.00000000000E+00 -0.83767885529E+03  0.83767885531E+03  0.50400001928E-02 0. -1.
    10030    2    1    2    0    0  0.00000000000E+00  0.00000000000E+00  0.22387891763E+04  0.39141468869E+04  0.32106648651E+04 0.  0.
        3    1    3    3  502    0  0.10077301062E+04 -0.12442508510E+04  0.12605800295E+04  0.20378278063E+04  0.10100000352E+00 0.  1.
       -3    1    3    3    0  502 -0.10077301062E+04  0.12442508510E+04  0.97820914678E+03  0.18763190806E+04  0.10100000352E+00 0. -1.
</event>
<event>
 5   0  0.8545153E-07  0.2816213E+04  0.7818609E-02  0.8298252E-01
       -1   -1    0    0    0  501  0.00000000000E+00  0.00000000000E+00  0.19222821026E+04  0.19222821026E+04  0.50400001928E-02 0.  1.
        1   -1    0    0  501    0  0.00000000000E+00  0.00000000000E+00 -0.10314638376E+04  0.10314638376E+04  0.50400001928E-02 0. -1.
    10030    2    1    2    0    0  0.00000000000E+00  0.00000000000E+00  0.89081826504E+03  0.29537459402E+04  0.28162133971E+04 0.  0.
        3    1    3    3  502    0 -0.47282975431E+02  0.11057353035E+04 -0.46766763296E+03  0.12014987583E+04  0.10100000352E+00 0. -1.
       -3    1    3    3    0  502  0.47282975431E+02 -0.11057353035E+04  0.13584858980E+04  0.17522471819E+04  0.10100000352E+00 0.  1.
</event>
<event>
 5   0  0.8512855E-07  0.3190390E+04  0.7818609E-02  0.8191360E-01
       -1   -1    0    0    0  501  0.00000000000E+00  0.00000000000E+00  0.10934604094E+04  0.10934604094E+04  0.50400001928E-02 0. -1.
        1   -1    0    0  501    0  0.00000000000E+00  0.00000000000E+00 -0.23271513478E+04  0.23271513478E+04  0.50400001928E-02 0.  1.
    10030    2    1    2    0    0  0.00000000000E+00  0.00000000000E+00 -0.12336909384E+04  0.34206117572E+04  0.31903904874E+04 0.  0.
        5    1    3    3  502    0 -0.46150668918E+02 -0.35697095186E+03 -0.22830357275E+04  0.23112404392E+04  0.46999998093E+01 0.  1.
       -5    1    3    3    0  502  0.46150668918E+02  0.35697095186E+03  0.10493447891E+04  0.11093713180E+04  0.46999998093E+01 0. -1.
</event>
<event>
 5   0  0.2404430E-06  0.3233017E+04  0.7818609E-02  0.8180151E-01
        2   -1    0    0  501    0  0.00000000000E+00  0.00000000000E+00  0.26230630363E+04  0.26230630363E+04  0.25500000920E-02 0. -1.
       -2   -1    0    0    0  501  0.00000000000E+00  0.00000000000E+00 -0.99620173667E+03  0.99620173667E+03  0.25500000920E-02 0.  1.
    10030    2    1    2    0    0  0.00000000000E+00  0.00000000000E+00  0.16268612997E+04  0.36192647730E+04  0.32330171371E+04 0.  0.
        4    1    3    3  502    0 -0.62256055471E+03 -0.14605748622E+04  0.47344018346E+03  0.16568065043E+04  0.12699999809E+01 0. -1.
       -4    1    3    3    0  502  0.62256055471E+03  0.14605748622E+04  0.11534211162E+04  0.19624582688E+04  0.12699999809E+01 0.  1.
</event>
<event>
 5   0  0.2466076E-06  0.3283047E+04  0.7818609E-02  0.8167222E-01
        2   -1    0    0  501    0  0.00000000000E+00  0.00000000000E+00  0.14338163957E+04  0.14338163957E+04  0.25500000920E-02 0.  1.
       -2   -1    0    0    0  501  0.00000000000E+00  0.00000000000E+00 -0.18793201946E+04  0.18793201946E+04  0.25500000920E-02 0. -1.
    10030    2    1    2    0    0  0.00000000000E+00  0.00000000000E+00 -0.44550379889E+03  0.33131365904E+04  0.32830474306E+04 0.  0.
        3    1    3    3  502    0 -0.10199979970E+04  0.12337715126E+04  0.14391267517E+03  0.16072644236E+04  0.10100000352E+00 0.  1.
       -3    1    3    3    0  502  0.10199979970E+04 -0.12337715126E+04 -0.58941647406E+03  0.17058721668E+04  0.10100000352E+00 0. -1.
</event>
<event>
 5   0  0.2621528E-06  0.3140063E+04  0.7818609E-02  0.8204828E-01
        2   -1    0    0  501    0  0.00000000000E+00  0.00000000000E+00  0.17260450735E+04  0.17260450735E+04  0.25500000920E-02 0. -1.
       -2   -1    0    0    0  501  0.00000000000E+00  0.00000000000E+00 -0.14281194822E+04  0.14281194822E+04  0.25500000920E-02 0.  1.
    10030    2    1    2    0    0  0.00000000000E+00  0.00000000000E+00  0.29792559135E+03  0.31541645557E+04  0.31400627997E+04 0.  0.
        2    1    3    3  502    0  0.12636397096E+04  0.77835845002E+03 -0.36555957638E+03  0.15284832339E+04  0.25500000920E-02 0.  1.
       -2    1    3    3    0  502 -0.12636397096E+04 -0.77835845002E+03  0.66348516773E+03  0.16256813218E+04  0.25500000920E-02 0. -1.
</event>
<event>
 5   0  0.2337504E-06  0.3158112E+04  0.7818609E-02  0.8199968E-01
        2   -1    0    0  501    0  0.00000000000E+00  0.00000000000E+00  0.16410792449E+04  0.16410792449E+04  0.25500000920E-02 0.  1.
       -2   -1    0    0    0  501  0.00000000000E+00  0.00000000000E+00 -0.15193770121E+04  0.15193770121E+04  0.25500000920E-02 0. -1.
    10030    2    1    2    0    0  0.00000000000E+00  0.00000000000E+00  0.12170223282E+03  0.31604562570E+04  0.31581121448E+04 0.  0.
        1    1    3    3  502    0  0.22579145654E+03  0.29397485198E+03 -0.14752198103E+04  0.15210774090E+04  0.50400001928E-02 0. -1.
       -1    1    3    3    0  502 -0.22579145654E+03 -0.29397485198E+03  0.15969220431E+04  0.16393788480E+04  0.50400001928E-02 0.  1.
</event>
<event>
 5   0  0.2401139E-06  0.3171341E+04  0.7818609E-02  0.8196427E-01
        2   -1    0    0  501    0  0.00000000000E+00  0.00000000000E+00  0.26948396820E+04  0.26948396820E+04  0.25500000920E-02 0.  1.
       -2   -1    0    0    0  501  0.00000000000E+00  0.00000000000E+00 -0.93302430436E+03  0.93302430436E+03  0.25500000920E-02 0. -1.
    10030    2    1    2    0    0  0.00000000000E+00  0.00000000000E+00  0.17618153776E+04  0.36278639863E+04  0.31713409906E+04 0.  0.
        5    1    3    3  502    0 -0.92729149131E+03 -0.15248771029E+03 -0.58013386985E+03  0.11044000220E+04  0.46999998093E+01 0. -1.
       -5    1    3    3    0  502  0.92729149131E+03  0.15248771029E+03  0.23419492475E+04  0.25234639643E+04  0.46999998093E+01 0.  1.
</event>
<event>
 5   0  0.2466076E-06  0.3158230E+04  0.7818609E-02  0.8199936E-01
       -2   -1    0    0    0  501  0.00000000000E+00  0.00000000000E+00  0.98510922265E+03  0.98510922265E+03  0.25500000920E-02 0.  1.
        2   -1    0    0  501    0  0.00000000000E+00  0.00000000000E+00 -0.25312979327E+04  0.25312979327E+04  0.25500000920E-02 0. -1.
    10030    2    1    2    0    0  0.00000000000E+00  0.00000000000E+00 -0.15461887100E+04  0.35164071553E+04  0.31582304785E+04 0.  0.
        3    1    3    3  502    0 -0.12031874893E+04  0.54631481622E+03 -0.17357180580E+04  0.21814759224E+04  0.10100000352E+00 0. -1.
       -3    1    3    3    0  502  0.12031874893E+04 -0.54631481622E+03  0.18952934799E+03  0.13349312330E+04  0.10100000352E+00 0.  1.
</event>
<event>
 5   0  0.8681172E-07  0.3186034E+04  0.7818609E-02  0.8192515E-01
       -1   -1    0    0    0  501  0.00000000000E+00  0.00000000000E+00  0.16479920503E+04  0.16479920503E+04  0.50400001928E-02 0.  1.
        1   -1    0    0  501    0  0.00000000000E+00  0.00000000000E+00 -0.15398757400E+04  0.15398757400E+04  0.50400001928E-02 0. -1.
    10030    2    1    2    0    0  0.00000000000E+00  0.00000000000E+00  0.10811631022E+03  0.31878677903E+04  0.31860338843E+04 0.  0.
        1    1    3    3  502    0  0.47052131995E+03  0.82548249184E+03 -0.12253065213E+04  0.15505443328E+04  0.50400001928E-02 0. -1.
       -1    1    3    3    0  502 -0.47052131995E+03 -0.82548249184E+03  0.13334228315E+04  0.16373234575E+04  0.50400001928E-02 0.  1.
</event>
<event>
 5   0  0.8545153E-07  0.2945535E+04  0.7818609E-02  0.8259457E-01
        1   -1    0    0  501    0  0.00000000000E+00  0.00000000000E+00  0.20674628019E+04  0.20674628019E+04  0.50400001928E-02 0.  1.
       -1   -1    0    0    0  501  0.00000000000E+00  0.00000000000E+00 -0.10491334622E+04  0.10491334622E+04  0.50400001928E-02 0. -1.
    10030    2    1    2    0    0  0.00000000000E+00  0.00000000000E+00  0.10183293397E+04  0.31165962642E+04  0.29455352026E+04 0.  0.
        3    1    3    3  502    0 -0.11332428027E+04  0.43553911478E+03  0.13913165312E+04  0.18465360193E+04  0.10100000352E+00 0.  1.
       -3    1    3    3    0  502  0.11332428027E+04 -0.43553911478E+03 -0.37298719153E+03  0.12700602449E+04  0.10100000352E+00 0. -1.
</event>
<event>
 5   0  0.8512855E-07  0.3155843E+04  0.7818609E-02  0.8200577E-01
       -1   -1    0    0    0  501  0.00000000000E+00  0.00000000000E+00  0.87753228382E+03  0.87753228383E+03  0.50400001928E-02 0.  1.
        1   -1    0    0  501    0  0.00000000000E+00  0.00000000000E+00 -0.28373162147E+04  0.28373162147E+04  0.50400001928E-02 0. -1.
    10030    2    1    2    0    0  0.00000000000E+00  0.00000000000E+00 -0.19597839309E+04  0.37148484985E+04  0.31558432013E+04 0.  0.
        5    1    3    3  502    0  0.54797349475E+03 -0.26731787418E+03 -0.26930480783E+04  0.27612069533E+04  0.46999998093E+01 0. -1.
       -5    1    3    3    0  502 -0.54797349475E+03  0.26731787418E+03  0.73326414746E+03  0.95364154521E+03  0.46999998093E+01 0.  1.
</event>
<event>
 5   0  0.8545153E-07  0.3201582E+04  0.7818609E-02  0.8188399E-01
        1   -1    0    0  501    0  0.00000000000E+00  0.00000000000E+00  0.15992559416E+04  0.15992559417E+04  0.50400001928E-02 0. -1.
       -1   -1    0    0    0  501  0.00000000000E+00  0.00000000000E+00 -0.16023276918E+04  0.16023276918E+04  0.50400001928E-02 0.  1.
    10030    2    1    2    0    0  0.00000000000E+00  0.00000000000E+00 -0.30717501874E+01  0.32015836335E+04  0.32015821599E+04 0.  0.
        3    1    3    3  502    0 -0.99748153931E+03  0.41017533235E+03  0.11813927513E+04  0.15996568593E+04  0.10100000352E+00 0. -1.
       -3    1    3    3    0  502  0.99748153931E+03 -0.41017533235E+03 -0.11844645014E+04  0.16019267742E+04  0.10100000352E+00 0.  1.
</event>
<event>
 5   0  0.2621528E-06  0.3204246E+04  0.7818609E-02  0.8187697E-01
        2   -1    0    0  501    0  0.00000000000E+00  0.00000000000E+00  0.19044638816E+04  0.19044638816E+04  0.25500000920E-02 0.  1.
       -2   -1    0    0    0  501  0.00000000000E+00  0.00000000000E+00 -0.13477797011E+04  0.13477797011E+04  0.25500000920E-02 0. -1.
    10030    2    1    2    0    0  0.00000000000E+00  0.00000000000E+00  0.55668418057E+03  0.32522435827E+04  0.32042457840E+04 0.  0.
        2    1    3    3  502    0  0.12984883736E+04 -0.23428223939E+03  0.12007107825E+04  0.17840029729E+04  0.25500000920E-02 0.  1.
       -2    1    3    3    0  502 -0.12984883736E+04  0.23428223939E+03 -0.64402660194E+03  0.14682406098E+04  0.25500000920E-02 0. -1.
</event>
<event>
 5   0  0.2466076E-06  0.3136843E+04  0.7818609E-02  0.8205699E-01
       -2   -1    0    0    0  501  0.00000000000E+00  0.00000000000E+00  0.21348364908E+04  0.21348364908E+04  0.25500000920E-02 0. -1.
        2   -1    0    0  501    0  0.00000000000E+00  0.00000000000E+00 -0.11522875347E+04  0.11522875347E+04  0.25500000920E-02 0.  1.
    10030    2    1    2    0    0  0.00000000000E+00  0.00000000000E+00  0.98254895611E+03  0.32871240254E+04  0.31368426654E+04 0.  0.
        3    1    3    3  502    0 -0.91586349086E+03 -0.50179848524E+03  0.17175234457E+04  0.20100981196E+04  0.10100000352E+00 0. -1.
       -3    1    3    3    0  502  0.91586349086E+03  0.50179848524E+03 -0.73497448958E+03  0.12770259058E+04  0.10100000352E+00 0.  1.
</event>
<event>
 5   0  0.8545153E-07  0.3225102E+04  0.7818609E-02  0.8182219E-01
       -1   -1    0    0    0  501  0.00000000000E+00  0.00000000000E+00  0.10600728776E+04  0.10600728776E+04  0.50400001928E-02 0.  1.
        1   -1    0    0  501    0  0.00000000000E+00  0.00000000000E+00 -0.24529646591E+04  0.24529646591E+04  0.50400001928E-02 0. -1.
    10030    2    1    2    0    0  0.00000000000E+00  0.00000000000E+00 -0.13928917815E+04  0.35130375367E+04  0.32251023579E+04 0.  0.
        3    1    3    3  502    0  0.74211621014E+03 -0.58070459766E+03 -0.21218490326E+04  0.23216799147E+04  0.10100000352E+00 0. -1.
       -3    1    3    3    0  502 -0.74211621014E+03  0.58070459766E+03  0.72895725115E+03  0.11913576219E+04  0.10100000352E+00 0.  1.
</event>
<event>
 5   0  0.8487944E-07  0.3260329E+04  0.7818609E-02  0.8173064E-01
        1   -1    0    0  501    0  0.00000000000E+00  0.00000000000E+00  0.15413103291E+04  0.15413103291E+04  0.50400001928E-02 0. -1.
       -1   -1    0    0    0  501  0.00000000000E+00  0.00000000000E+00 -0.17241406852E+04  0.17241406852E+04  0.50400001928E-02 0.  1.
    10030    2    1    2    0    0  0.00000000000E+00  0.00000000000E+00 -0.18283035605E+03  0.32654510143E+04  0.32603287239E+04 0.  0.
        2    1    3    3  502    0  0.14648477964E+04  0.33506679107E+03  0.54154845650E+03  0.15972863087E+04  0.25500000920E-02 0. -1.
       -2    1    3    3    0  502 -0.14648477964E+04 -0.33506679107E+03 -0.72437881255E+03  0.16681647057E+04  0.25500000920E-02 0.  1.
</event>
<event>
 5   0  0.2621528E-06  0.3219486E+04  0.7818609E-02  0.8183690E-01
        2   -1    0    0  501    0  0.00000000000E+00  0.00000000000E+00  0.13546091062E+04  0.13546091062E+04  0.25500000920E-02 0.  1.
       -2   -1    0    0    0  501  0.00000000000E+00  0.00000000000E+00 -0.19129301996E+04  0.19129301996E+04  0.25500000920E-02 0. -1.
    10030    2    1    2    0    0  0.00000000000E+00  0.00000000000E+00 -0.55832109339E+03  0.32675393059E+04  0.32194860882E+04 0.  0.
        2    1    3    3  502    0  0.34151955622E+03 -0.12840100257E+04 -0.12015462093E+04  0.17913767461E+04  0.25500000920E-02 0. -1.
       -2    1    3    3    0  502 -0.34151955622E+03  0.12840100257E+04  0.64322511586E+03  0.14761625598E+04  0.25500000920E-02 0.  1.
</event>
<event>
 5   0  0.8383008E-07  0.3178541E+04  0.7818609E-02  0.8194508E-01
       -1   -1    0    0    0  501  0.00000000000E+00  0.00000000000E+00  0.15709288299E+04  0.15709288299E+04  0.50400001928E-02 0.  1.
        1   -1    0    0  501    0  0.00000000000E+00  0.00000000000E+00 -0.16078259909E+04  0.16078259909E+04  0.50400001928E-02 0. -1.
    10030    2    1    2    0    0  0.00000000000E+00  0.00000000000E+00 -0.36897160946E+02  0.31787548208E+04  0.31785406730E+04 0.  0.
        4    1    3    3  502    0  0.20593303926E+03  0.74593391728E+03 -0.14066893456E+04  0.16054913122E+04  0.12699999809E+01 0. -1.
       -4    1    3    3    0  502 -0.20593303926E+03 -0.74593391728E+03  0.13697921846E+04  0.15732635086E+04  0.12699999809E+01 0.  1.
</event>
<event>
 5   0  0.2337504E-06  0.3146682E+04  0.7818609E-02  0.8203042E-01
        2   -1    0    0  501    0  0.00000000000E+00  0.00000000000E+00  0.17565274734E+04  0.17565274734E+04  0.25500000920E-02 0. -1.
       -2   -1    0    0    0  501  0.00000000000E+00  0.00000000000E+00 -0.14092585565E+04  0.14092585565E+04  0.25500000920E-02 0.  1.
    10030    2    1    2    0    0  0.00000000000E+00  0.00000000000E+00  0.34726891691E+03  0.31657860299E+04  0.31466816627E+04 0.  0.
        1    1    3    3  502    0 -0.12003030278E+04 -0.10057452250E+04  0.32671128728E+03  0.15996846819E+04  0.50400001928E-02 0. -1.
       -1    1    3    3    0  502  0.12003030278E+04  0.10057452250E+04  0.20557629633E+02  0.15661013480E+04  0.50400001928E-02 0.  1.
</event>
<event>
 5   0  0.8383008E-07  0.3225983E+04  0.7818609E-02  0.8181989E-01
        1   -1    0    0  501    0  0.00000000000E+00  0.00000000000E+00  0.13979355225E+04  0.13979355225E+04  0.50400001928E-02 0. -1.
       -1   -1    0    0    0  501  0.00000000000E+00  0.00000000000E+00 -0.18611316592E+04  0.18611316592E+04  0.50400001928E-02 0.  1.
    10030    2    1    2    0    0  0.00000000000E+00  0.00000000000E+00 -0.46319613663E+03  0.32590671817E+04  0.32259832972E+04 0.  0.
        4    1    3    3  502    0 -0.10491870686E+04  0.12245375170E+04 -0.27013120406E+03  0.16350101271E+04  0.12699999809E+01 0.  1.
       -4    1    3    3    0  502  0.10491870686E+04 -0.12245375170E+04 -0.19306493257E+03  0.16240570546E+04  0.12699999809E+01 0. -1.
</event>
<event>
 5   0  0.8545153E-07  0.3216012E+04  0.7818609E-02  0.8184601E-01
       -1   -1    0    0    0  501  0.00000000000E+00  0.00000000000E+00  0.21245854084E+04  0.21245854084E+04  0.50400001928E-02 0.  1.
        1   -1    0    0  501    0  0.00000000000E+00  0.00000000000E+00 -0.12170298894E+04  0.12170298895E+04  0.50400001928E-02 0. -1.
    10030    2    1    2    0    0  0.00000000000E+00  0.00000000000E+00  0.90755551894E+03  0.33416152978E+04  0.32160124034E+04 0.  0.
        3    1    3    3  502    0 -0.21720638649E+03  0.15932667867E+04  0.45117669431E+03  0.16701012208E+04  0.10100000352E+00 0.  1.
       -3    1    3    3    0  502  0.21720638649E+03 -0.15932667867E+04  0.45637882463E+03  0.16715140770E+04  0.10100000352E+00 0. -1.
</event>
<event>
 5   0  0.8487944E-07  0.3221781E+04  0.7818609E-02  0.8183088E-01
        1   -1    0    0  501    0  0.00000000000E+00  0.00000000000E+00  0.11579351121E+04  0.11579351121E+04  0.50400001928E-02 0.  1.
       -1   -1    0    0    0  501  0.00000000000E+00  0.00000000000E+00 -0.22410306223E+04  0.22410306223E+04  0.50400001928E-02 0. -1.
    10030    2    1    2    0    0  0.00000000000E+00  0.00000000000E+00 -0.10830955102E+04  0.33989657344E+04  0.32217809018E+04 0.  0.
        2    1    3    3  502    0 -0.50625318936E+03 -0.92876008020E+03  0.74020954674E+03  0.12910452166E+04  0.25500000920E-02 0.  1.
       -2    1    3    3    0  502  0.50625318936E+03  0.92876008020E+03 -0.18233050570E+04  0.21079205177E+04  0.25500000920E-02 0. -1.
</event>
<event>
 5   0  0.2337504E-06  0.3165261E+04  0.7818609E-02  0.8198052E-01
        2   -1    0    0  501    0  0.00000000000E+00  0.00000000000E+00  0.16376794037E+04  0.16376794037E+04  0.25500000920E-02 0. -1.
       -2   -1    0    0    0  501  0.00000000000E+00  0.00000000000E+00 -0.15294321682E+04  0.15294321682E+04  0.25500000920E-02 0.  1.
    10030    2    1    2    0    0  0.00000000000E+00  0.00000000000E+00  0.10824723543E+03  0.31671115719E+04  0.31652611653E+04 0.  0.
        1    1    3    3  502    0 -0.57529686358E+03  0.61618808692E+03 -0.12860866456E+04  0.15377493618E+04  0.50400001928E-02 0.  1.
       -1    1    3    3    0  502  0.57529686358E+03 -0.61618808692E+03  0.13943338811E+04  0.16293622101E+04  0.50400001928E-02 0. -1.
</event>
<event>
 5   0  0.2401139E-06  0.3202442E+04  0.7818609E-02  0.8188172E-01
        2   -1    0    0  501    0  0.00000000000E+00  0.00000000000E+00  0.14025041756E+04  0.14025041756E+04  0.25500000920E-02 0.  1.
       -2   -1    0    0    0  501  0.00000000000E+00  0.00000000000E+00 -0.18280939618E+04  0.18280939618E+04  0.25500000920E-02 0. -1.
    10030    2    1    2    0    0  0.00000000000E+00  0.00000000000E+00 -0.42558978619E+03  0.32305981373E+04  0.32024424521E+04 0.  0.
        5    1    3    3  502    0  0.67902865923E+03 -0.12016684174E+04 -0.10315962196E+04  0.17231656205E+04  0.46999998093E+01 0. -1.
       -5    1    3    3    0  502 -0.67902865923E+03  0.12016684174E+04  0.60600643338E+03  0.15074325168E+04  0.46999998093E+01 0.  1.
</event>
<event>
 5   0  0.8512855E-07  0.3191206E+04  0.7818609E-02  0.8191144E-01
       -1   -1    0    0    0  501  0.00000000000E+00  0.00000000000E+00  0.16475579658E+04  0.16475579659E+04  0.50400001928E-02 0.  1.
        1   -1    0    0  501    0  0.00000000000E+00  0.00000000000E+00 -0.15452860354E+04  0.15452860354E+04  0.50400001928E-02 0. -1.
    10030    2    1    2    0    0  0.00000000000E+00  0.00000000000E+00  0.10227193047E+03  0.31928440012E+04  0.31912056136E+04 0.  0.
        5    1    3    3  502    0 -0.10181370431E+04  0.10009359350E+04  0.76385725276E+03  0.16192516102E+04  0.46999998093E+01 0.  1.
       -5    1    3    3    0  502  0.10181370431E+04 -0.10009359350E+04 -0.66158532229E+03  0.15735923910E+04  0.46999998093E+01 0. -1.
</event>
<event>
 5   0  0.2404430E-06  0.3177790E+04  0.7818609E-02  0.8194707E-01
       -2   -1    0    0    0  501  0.00000000000E+00  0.00000000000E+00  0.11291001723E+04  0.11291001723E+04  0.25500000920E-02 0.  1.
        2   -1    0    0  501    0  0.00000000000E+00  0.00000000000E+00 -0.22359289104E+04  0.22359289104E+04  0.25500000920E-02 0. -1.
    10030    2    1    2    0    0  0.00000000000E+00  0.00000000000E+00 -0.11068287382E+04  0.33650290827E+04  0.31777902498E+04 0.  0.
        4    1    3    3  502    0 -0.11531277524E+04 -0.10271032302E+04 -0.15728524613E+03  0.15522193532E+04  0.12699999809E+01 0.  1.
       -4    1    3    3    0  502  0.11531277524E+04  0.10271032302E+04 -0.94954349203E+03  0.18128097294E+04  0.12699999809E+01 0. -1.
</event>
<event>
 5   0  0.8681172E-07  0.3210209E+04  0.7818609E-02  0.8186126E-01
       -1   -1    0    0    0  501  0.00000000000E+00  0.00000000000E+00  0.11935930059E+04  0.11935930060E+04  0.50400001928E-02 0.  1.
        1   -1    0    0  501    0  0.00000000000E+00  0.00000000000E+00 -0.21584912401E+04  0.21584912401E+04  0.50400001928E-02 0. -1.
    10030    2    1    2    0    0  0.00000000000E+00  0.00000000000E+00 -0.96489823413E+03  0.33520842460E+04  0.32102087456E+04 0.  0.
        1    1    3    3  502    0  0.35137291892E+03 -0.15003555665E+04 -0.13338969717E+02  0.15410086574E+04  0.50400001928E-02 0.  1.
       -1    1    3    3    0  502 -0.35137291892E+03  0.15003555665E+04 -0.95155926442E+03  0.18110755886E+04  0.50400001928E-02 0. -1.
</event>
<event>
 5   0  0.8512855E-07  0.3177430E+04  0.7818609E-02  0.8194803E-01
        1   -1    0    0  501    0  0.00000000000E+00  0.00000000000E+00  0.14740987646E+04  0.14740987646E+04  0.50400001928E-02 0.  1.
       -1   -1    0    0    0  501  0.00000000000E+00  0.00000000000E+00 -0.17122432933E+04  0.17122432933E+04  0.50400001928E-02 0. -1.
    10030    2    1    2    0    0  0.00000000000E+00  0.00000000000E+00 -0.23814452869E+03  0.31863420579E+04  0.31774302343E+04 0.  0.
        5    1    3    3  502    0  0.25222229773E+03  0.21804136967E+03 -0.16767593884E+04  0.17095912561E+04  0.46999998093E+01 0. -1.
       -5    1    3    3    0  502 -0.25222229773E+03 -0.21804136967E+03  0.14386148597E+04  0.14767508019E+04  0.46999998093E+01 0.  1.
</event>
<event>
 5   0  0.8487944E-07  0.3031773E+04  0.7818609E-02  0.8234716E-01
       -1   -1    0    0    0  501  0.00000000000E+00  0.00000000000E+00  0.11839770426E+04  0.11839770426E+04  0.50400001928E-02 0.  1.
        1   -1    0    0  501    0  0.00000000000E+00  0.00000000000E+00 -0.19408415483E+04  0.19408415483E+04  0.50400001928E-02 0. -1.
    10030    2    1    2    0    0  0.00000000000E+00  0.00000000000E+00 -0.75686450574E+03  0.31248185909E+04  0.30317729707E+04 0.  0.
        2    1    3    3  502    0  0.21842048691E+03 -0.65683617404E+03  0.10115750815E+04  0.12257346427E+04  0.25500000920E-02 0.  1.
       -2    1    3    3    0  502 -0.21842048691E+03  0.65683617404E+03 -0.17684395873E+04  0.18990839482E+04  0.25500000920E-02 0. -1.
</event>
<event>
 5   0  0.8487944E-07  0.3122538E+04  0.7818609E-02  0.8209580E-01
        1   -1    0    0  501    0  0.00000000000E+00  0.00000000000E+00  0.21865886519E+04  0.21865886519E+04  0.50400001928E-02 0. -1.
       -1   -1    0    0    0  501  0.00000000000E+00  0.00000000000E+00 -0.11147776779E+04  0.11147776779E+04  0.50400001928E-02 0.  1.
    10030    2    1    2    0    0  0.00000000000E+00  0.00000000000E+00  0.10718109740E+04  0.33013663298E+04  0.31225375706E+04 0.  0.
        2    1    3    3  502    0 -0.97286870456E+03  0.56044814688E+03  0.16829266512E+04  0.20230713668E+04  0.25500000920E-02 0. -1.
       -2    1    3    3    0  502  0.97286870456E+03 -0.56044814688E+03 -0.61111567723E+03  0.12782949631E+04  0.25500000920E-02 0.  1.
</event>
<event>
 5   0  0.8512855E-07  0.3187828E+04  0.7818609E-02  0.8192039E-01
        1   -1    0    0  501    0  0.00000000000E+00  0.00000000000E+00  0.12732344536E+04  0.12732344536E+04  0.50400001928E-02 0.  1.
       -1   -1    0    0    0  501  0.00000000000E+00  0.00000000000E+00 -0.19953610799E+04  0.19953610799E+04  0.50400001928E-02 0. -1.
    10030    2    1    2    0    0  0.00000000000E+00  0.00000000000E+00 -0.72212662629E+03  0.32685955334E+04  0.31878283983E+04 0.  0.
        5    1    3    3  502    0 -0.68515838404E+03  0.25026190817E+03  0.10920471698E+04  0.13132639282E+04  0.46999998093E+01 0.  1.
       -5    1    3    3    0  502  0.68515838404E+03 -0.25026190817E+03 -0.18141737961E+04  0.19553316052E+04  0.46999998093E+01 0. -1.
</event>
<event>
 5   0  0.8512855E-07  0.3178004E+04  0.7818609E-02  0.8194650E-01
       -1   -1    0    0    0  501  0.00000000000E+00  0.00000000000E+00  0.26296014883E+04  0.26296014883E+04  0.50400001928E-02 0.  1.
        1   -1    0    0  501    0  0.00000000000E+00  0.00000000000E+00 -0.96019407853E+03  0.96019407855E+03  0.50400001928E-02 0. -1.
    10030    2    1    2    0    0  0.00000000000E+00  0.00000000000E+00  0.16694074098E+04  0.35897955668E+04  0.31780042656E+04 0.  0.
        5    1    3    3  502    0 -0.14699882259E+04  0.37150521114E+03  0.29768094262E+03  0.15451593897E+04  0.46999998093E+01 0. -1.
       -5    1    3    3    0  502  0.14699882259E+04 -0.37150521114E+03  0.13717264671E+04  0.20446361771E+04  0.46999998093E+01 0.  1.
</event>
<event>
 5   0  0.8487944E-07  0.3280237E+04  0.7818609E-02  0.8167942E-01
        1   -1    0    0  501    0  0.00000000000E+00  0.00000000000E+00  0.17834135845E+04  0.17834135845E+04  0.50400001928E-02 0.  1.
       -1   -1    0    0    0  501  0.00000000000E+00  0.00000000000E+00 -0.15083370621E+04  0.15083370621E+04  0.50400001928E-02 0. -1.
    10030    2    1    2    0    0  0.00000000000E+00  0.00000000000E+00  0.27507652239E+03  0.32917506467E+04  0.32802370687E+04 0.  0.
        2    1    3    3  502    0  0.20849790026E+03  0.32058127267E+03  0.17380486252E+04  0.17796226427E+04  0.25500000920E-02 0.  1.
       -2    1    3    3    0  502 -0.20849790026E+03 -0.32058127267E+03 -0.14629721028E+04  0.15121280040E+04  0.25500000920E-02 0. -1.
</event>
<event>
 5   0  0.8487944E-07  0.3153557E+04  0.7818609E-02  0.8201191E-01
       -1   -1    0    0    0  501  0.00000000000E+00  0.00000000000E+00  0.22895759751E+04  0.22895759751E+04  0.50400001928E-02 0.  1.
        1   -1    0    0  501    0  0.00000000000E+00  0.00000000000E+00 -0.10858912607E+04  0.10858912607E+04  0.50400001928E-02 0. -1.
    10030    2    1    2    0    0  0.00000000000E+00  0.00000000000E+00  0.12036847144E+04  0.33754672359E+04  0.31535570661E+04 0.  0.
        2    1    3    3  502    0  0.85197174559E+02  0.21875140151E+03  0.22707656785E+04  0.22828682618E+04  0.25500000920E-02 0.  1.
       -2    1    3    3    0  502 -0.85197174559E+02 -0.21875140151E+03 -0.10670809641E+04  0.10925989741E+04  0.25500000920E-02 0. -1.
</event>
<event>
 5   0  0.8487944E-07  0.3246254E+04  0.7818609E-02  0.8176707E-01
        1   -1    0    0  501    0  0.00000000000E+00  0.00000000000E+00  0.20883506482E+04  0.20883506482E+04  0.50400001928E-02 0. -1.
       -1   -1    0    0    0  501  0.00000000000E+00  0.00000000000E+00 -0.12615413329E+04  0.12615413329E+04  0.50400001928E-02 0.  1.
    10030    2    1    2    0    0  0.00000000000E+00  0.00000000000E+00  0.82680931527E+03  0.33498919811E+04  0.32462536317E+04 0.  0.
        2    1    3    3  502    0  0.10964643616E+04  0.88852274683E+03 -0.41396147178E+03  0.14707382051E+04  0.25500000920E-02 0.  1.
       -2    1    3    3    0  502 -0.10964643616E+04 -0.88852274683E+03  0.12407707870E+04  0.18791537760E+04  0.25500000920E-02 0. -1.
</event>
<event>
 5   0  0.2337504E-06  0.3192744E+04  0.7818609E-02  0.8190736E-01
       -2   -1    0    0    0  501  0.00000000000E+00  0.00000000000E+00  0.14558021185E+04  0.14558021185E+04  0.25500000920E-02 0.  1.
        2   -1    0    0  501    0  0.00000000000E+00  0.00000000000E+00 -0.17505154360E+04  0.17505154360E+04  0.25500000920E-02 0. -1.
    10030    2    1    2    0    0  0.00000000000E+00  0.00000000000E+00 -0.29471331752E+03  0.32063175546E+04  0.31927443244E+04 0.  0.
        1    1    3    3  502    0 -0.10207136434E+04  0.45113281812E+03 -0.12937115415E+04  0.17085276451E+04  0.50400001928E-02 0.  1.
       -1    1    3    3    0  502  0.10207136434E+04 -0.45113281812E+03  0.99899822395E+03  0.14977899095E+04  0.50400001928E-02 0. -1.
</event>
<event>
 5   0  0.8512855E-07  0.3198976E+04  0.7818609E-02  0.8189088E-01
        1   -1    0    0  501    0  0.00000000000E+00  0.00000000000E+00  0.91065745261E+03  0.91065745262E+03  0.50400001928E-02 0. -1.
       -1   -1    0    0    0  501  0.00000000000E+00  0.00000000000E+00 -0.28093573656E+04  0.28093573656E+04  0.50400001928E-02 0.  1.
    10030    2    1    2    0    0  0.00000000000E+00  0.00000000000E+00 -0.18986999130E+04  0.37200148182E+04  0.31989762250E+04 0.  0.
        5    1    3    3  502    0  0.85819860776E+03  0.88375214555E+02 -0.25155791107E+04  0.26594126008E+04  0.46999998093E+01 0.  1.
       -5    1    3    3    0  502 -0.85819860776E+03 -0.88375214555E+02  0.61687919778E+03  0.10606022174E+04  0.46999998093E+01 0. -1.
</event>
<event>
 5   0  0.8487944E-07  0.3208084E+04  0.7818609E-02  0.8186685E-01
       -1   -1    0    0    0  501  0.00000000000E+00  0.00000000000E+00  0.96791525866E+03  0.96791525867E+03  0.50400001928E-02 0. -1.
        1   -1    0    0  501    0  0.00000000000E+00  0.00000000000E+00 -0.26582403105E+04  0.26582403105E+04  0.50400001928E-02 0.  1.
    10030    2    1    2    0    0  0.00000000000E+00  0.00000000000E+00 -0.16903250518E+04  0.36261555691E+04  0.32080843865E+04 0.  0.
        2    1    3    3  502    0  0.59491596602E+03 -0.13530916544E+04 -0.15493872290E+04  0.21413506992E+04  0.25500000920E-02 0.  1.
       -2    1    3    3    0  502 -0.59491596602E+03  0.13530916544E+04 -0.14093782283E+03  0.14848048699E+04  0.25500000920E-02 0. -1.
</event>
<event>
 5   0  0.8681172E-07  0.3372869E+04  0.7818609E-02  0.8144597E-01
        1   -1    0    0  501    0  0.00000000000E+00  0.00000000000E+00  0.22009597599E+04  0.22009597599E+04  0.50400001928E-02 0. -1.
       -1   -1    0    0    0  501  0.00000000000E+00  0.00000000000E+00 -0.12921914197E+04  0.12921914197E+04  0.50400001928E-02 0.  1.
    10030    2    1    2    0    0  0.00000000000E+00  0.00000000000E+00  0.90876834028E+03  0.34931511796E+04  0.33728689965E+04 0.  0.
        1    1    3    3  502    0 -0.72326375106E+03 -0.27801039922E+03 -0.10969184850E+04  0.13429930746E+04  0.50400001928E-02 0.  1.
       -1    1    3    3    0  502  0.72326375106E+03  0.27801039922E+03  0.20056868253E+04  0.21501581050E+04  0.50400001928E-02 0. -1.
</event>
<event>
 5   0  0.2401139E-06  0.3243543E+04  0.7818609E-02  0.8177411E-01
        2   -1    0    0  501    0  0.00000000000E+00  0.00000000000E+00  0.27365891457E+04  0.27365891457E+04  0.25500000920E-02 0.  1.
       -2   -1    0    0    0  501  0.00000000000E+00  0.00000000000E+00 -0.96110264047E+03  0.96110264047E+03  0.25500000920E-02 0. -1.
    10030    2    1    2    0    0  0.00000000000E+00  0.00000000000E+00  0.17754865052E+04  0.36976917861E+04  0.32435431576E+04 0.  0.
        5    1    3    3  502    0  0.74400534083E+03  0.84575359673E+03 -0.44235713458E+03  0.12101838778E+04  0.46999998093E+01 0. -1.
       -5    1    3    3    0  502 -0.74400534083E+03 -0.84575359673E+03  0.22178436398E+04  0.24875079083E+04  0.46999998093E+01 0.  1.
</event>
<event>
 5   0  0.2401139E-06  0.3137191E+04  0.7818609E-02  0.8205605E-01
       -2   -1    0    0    0  501  0.00000000000E+00  0.00000000000E+00  0.18291248591E+04  0.18291248591E+04  0.25500000920E-02 0. -1.
        2   -1    0    0  501    0  0.00000000000E+00  0.00000000000E+00 -0.13451741727E+04  0.13451741728E+04  0.25500000920E-02 0.  1.
    10030    2    1    2    0    0  0.00000000000E+00  0.00000000000E+00  0.48395068633E+03  0.31742990318E+04  0.31371907938E+04 0.  0.
        5    1    3    3  502    0  0.12034979274E+04  0.12536065464E+03  0.12519539764E+04  0.17411299216E+04  0.46999998093E+01 0. -1.
       -5    1    3    3    0  502 -0.12034979274E+04 -0.12536065464E+03 -0.76800329007E+03  0.14331691102E+04  0.46999998093E+01 0.  1.
</event>
<event>
 5   0  0.2404430E-06  0.3230625E+04  0.7818609E-02  0.8180776E-01
        2   -1    0    0  501    0  0.00000000000E+00  0.00000000000E+00  0.14868500709E+04  0.14868500709E+04  0.25500000920E-02 0.  1.
       -2   -1    0    0    0  501  0.00000000000E+00  0.00000000000E+00 -0.17548742259E+04  0.17548742259E+04  0.25500000920E-02 0. -1.
    10030    2    1    2    0    0  0.00000000000E+00  0.00000000000E+00 -0.26802415500E+03  0.32417242968E+04  0.32306252443E+04 0.  0.
        4    1    3    3  502    0  0.32075046463E+02 -0.15683708135E+04 -0.52058546935E+03  0.16528238445E+04  0.12699999809E+01 0. -1.
       -4    1    3    3    0  502 -0.32075046463E+02  0.15683708135E+04  0.25256131436E+03  0.15889004524E+04  0.12699999809E+01 0.  1.
</event>
<event>
 5   0  0.8512855E-07  0.3231825E+04  0.7818609E-02  0.8180462E-01
       -1   -1    0    0    0  501  0.00000000000E+00  0.00000000000E+00  0.12854758246E+04  0.12854758246E+04  0.50400001928E-02 0. -1.
        1   -1    0    0  501    0  0.00000000000E+00  0.00000000000E+00 -0.20312894269E+04  0.20312894269E+04  0.50400001928E-02 0.  1.
    10030    2    1    2    0    0  0.00000000000E+00  0.00000000000E+00 -0.74581360227E+03  0.33167652515E+04  0.32318251507E+04 0.  0.
        5    1    3    3  502    0  0.54484116773E+02 -0.14566840052E+04  0.34273997315E+03  0.14974610476E+04  0.46999998093E+01 0. -1.
       -5    1    3    3    0  502 -0.54484116773E+02  0.14566840052E+04 -0.10885535754E+04  0.18193042039E+04  0.46999998093E+01 0.  1.
</event>
<event>
 5   0  0.2621528E-06  0.3329691E+04  0.7818609E-02  0.8155381E-01
        2   -1    0    0  501    0  0.00000000000E+00  0.00000000000E+00  0.23249720239E+04  0.23249720239E+04  0.25500000920E-02 0. -1.
       -2   -1    0    0    0  501  0.00000000000E+00  0.00000000000E+00 -0.11921477887E+04  0.11921477887E+04  0.25500000920E-02 0.  1.
    10030    2    1    2    0    0  0.00000000000E+00  0.00000000000E+00  0.11328242352E+04  0.35171198127E+04  0.33296908308E+04 0.  0.
        2    1    3    3  502    0 -0.93405976552E+03 -0.87270325719E+03 -0.56022507307E+03  0.13956828985E+04  0.25500000920E-02 0.  1.
       -2    1    3    3    0  502  0.93405976552E+03  0.87270325719E+03  0.16930493083E+04  0.21214369142E+04  0.25500000920E-02 0. -1.
</event>
<event>
 5   0  0.8487944E-07  0.3200628E+04  0.7818609E-02  0.8188651E-01
        1   -1    0    0  501    0  0.00000000000E+00  0.00000000000E+00  0.22592911132E+04  0.22592911132E+04  0.50400001928E-02 0.  1.
       -1   -1    0    0    0  501  0.00000000000E+00  0.00000000000E+00 -0.11335435525E+04  0.11335435525E+04  0.50400001928E-02 0. -1.
    10030    2    1    2    0    0  0.00000000000E+00  0.00000000000E+00  0.11257475608E+04  0.33928346657E+04  0.32006279850E+04 0.  0.
        2    1    3    3  502    0 -0.12278193728E+04  0.86820905563E+03 -0.17428885617E+02  0.15038720499E+04  0.25500000920E-02 0. -1.
       -2    1    3    3    0  502  0.12278193728E+04 -0.86820905563E+03  0.11431764464E+04  0.18889626158E+04  0.25500000920E-02 0.  1.
</event>
<event>
 5   0  0.2621528E-06  0.3151446E+04  0.7818609E-02  0.8201759E-01
        2   -1    0    0  501    0  0.00000000000E+00  0.00000000000E+00  0.14935258580E+04  0.14935258580E+04  0.25500000920E-02 0. -1.
       -2   -1    0    0    0  501  0.00000000000E+00  0.00000000000E+00 -0.16624440196E+04  0.16624440196E+04  0.25500000920E-02 0.  1.
    10030    2    1    2    0    0  0.00000000000E+00  0.00000000000E+00 -0.16891816159E+03  0.31559698776E+04  0.31514461003E+04 0.  0.
        2    1    3    3  502    0  0.10544948950E+04 -0.79705577470E+03  0.77447004103E+03  0.15320121527E+04  0.25500000920E-02 0. -1.
       -2    1    3    3    0  502 -0.10544948950E+04  0.79705577470E+03 -0.94338820262E+03  0.16239577249E+04  0.25500000920E-02 0.  1.
</event>
<event>
 5   0  0.8512855E-07  0.3179552E+04  0.7818609E-02  0.8194238E-01
       -1   -1    0    0    0  501  0.00000000000E+00  0.00000000000E+00  0.14014696583E+04  0.14014696583E+04  0.50400001928E-02 0. -1.
        1   -1    0    0  501    0  0.00000000000E+00  0.00000000000E+00 -0.18033834617E+04  0.18033834617E+04  0.50400001928E-02 0.  1.
    10030    2    1    2    0    0  0.00000000000E+00  0.00000000000E+00 -0.40191380343E+03  0.32048531200E+04  0.31795516690E+04 0.  0.
        5    1    3    3  502    0 -0.49167120209E+03 -0.25390475855E+03  0.13012573021E+04  0.14140370764E+04  0.46999998093E+01 0. -1.
       -5    1    3    3    0  502  0.49167120209E+03  0.25390475855E+03 -0.17031711055E+04  0.17908160436E+04  0.46999998093E+01 0.  1.
</event>
<event>
 5   0  0.2404430E-06  0.3207308E+04  0.7818609E-02  0.8186890E-01
       -2   -1    0    0    0  501  0.00000000000E+00  0.00000000000E+00  0.13928359639E+04  0.13928359639E+04  0.25500000920E-02 0. -1.
        2   -1    0    0  501    0  0.00000000000E+00  0.00000000000E+00 -0.18463809525E+04  0.18463809525E+04  0.25500000920E-02 0.  1.
    10030    2    1    2    0    0  0.00000000000E+00  0.00000000000E+00 -0.45354498858E+03  0.32392169165E+04  0.32073077768E+04 0.  0.
        4    1    3    3  502    0 -0.31579262437E+03 -0.50429315579E+03  0.12772267619E+04  0.14090232017E+04  0.12699999809E+01 0. -1.
       -4    1    3    3    0  502  0.31579262437E+03  0.50429315579E+03 -0.17307717505E+04  0.18301937148E+04  0.12699999809E+01 0.  1.
</event>
<event>
 5   0  0.8681172E-07  0.3220017E+04  0.7818609E-02  0.8183551E-01
       -1   -1    0    0    0  501  0.00000000000E+00  0.00000000000E+00  0.19255366296E+04  0.19255366296E+04  0.50400001928E-02 0. -1.
        1   -1    0    0  501    0  0.00000000000E+00  0.00000000000E+00 -0.13461840259E+04  0.13461840260E+04  0.50400001928E-02 0.  1.
    10030    2    1    2    0    0  0.00000000000E+00  0.00000000000E+00  0.57935260365E+03  0.32717206556E+04  0.32200165541E+04 0.  0.
        1    1    3    3  502    0 -0.31431420308E+03 -0.14775957439E+04  0.85543314171E+03  0.17360439109E+04  0.50400001928E-02 0.  1.
       -1    1    3    3    0  502  0.31431420308E+03  0.14775957439E+04 -0.27608053805E+03  0.15356767447E+04  0.50400001928E-02 0. -1.
</event>
<event>
 5   0  0.8512855E-07  0.3202611E+04  0.7818609E-02  0.8188128E-01
       -1   -1    0    0    0  501  0.00000000000E+00  0.00000000000E+00  0.88296866084E+03  0.88296866085E+03  0.50400001928E-02 0.  1.
        1   -1    0    0  501    0  0.00000000000E+00  0.00000000000E+00 -0.29040441491E+04  0.29040441491E+04  0.50400001928E-02 0. -1.
    10030    2    1    2    0    0  0.00000000000E+00  0.00000000000E+00 -0.20210754882E+04  0.37870128099E+04  0.32026114178E+04 0.  0.
        5    1    3    3  502    0 -0.31140376435E+02 -0.12387899097E+04 -0.22097973176E+04  0.25335343768E+04  0.46999998093E+01 0.  1.
       -5    1    3    3    0  502  0.31140376435E+02  0.12387899097E+04  0.18872182934E+03  0.12534784332E+04  0.46999998093E+01 0. -1.
</event>
<event>
 5   0  0.8681172E-07  0.3203704E+04  0.7818609E-02  0.8187840E-01
       -1   -1    0    0    0  501  0.00000000000E+00  0.00000000000E+00  0.10305061381E+04  0.10305061381E+04  0.50400001928E-02 0.  1.
        1   -1    0    0  501    0  0.00000000000E+00  0.00000000000E+00 -0.24899702911E+04  0.24899702911E+04  0.50400001928E-02 0. -1.
    10030    2    1    2    0    0  0.00000000000E+00  0.00000000000E+00 -0.14594641530E+04  0.35204764292E+04  0.32037038993E+04 0.  0.
        1    1    3    3  502    0  0.11094847736E+04  0.11220417978E+04 -0.42680175093E+03  0.16346540898E+04  0.50400001928E-02 0.  1.
       -1    1    3    3    0  502 -0.11094847736E+04 -0.11220417978E+04 -0.10326624021E+04  0.18858223393E+04  0.50400001928E-02 0. -1.
</event>
<event>
 5   0  0.2621528E-06  0.3168067E+04  0.7818609E-02  0.8197302E-01
       -2   -1    0    0    0  501  0.00000000000E+00  0.00000000000E+00  0.27534944808E+04  0.27534944808E+04  0.25500000920E-02 0. -1.
        2   -1    0    0  501    0  0.00000000000E+00  0.00000000000E+00 -0.91126434769E+03  0.91126434769E+03  0.25500000920E-02 0.  1.
    10030    2    1    2    0    0  0.00000000000E+00  0.00000000000E+00  0.18422301332E+04  0.36647588285E+04  0.31680665094E+04 0.  0.
        2    1    3    3  502    0 -0.14363036521E+04 -0.64891403968E+03  0.73783285210E+03  0.17402456521E+04  0.25500000920E-02 0. -1.
       -2    1    3    3    0  502  0.14363036521E+04  0.64891403968E+03  0.11043972810E+04  0.19245131765E+04  0.25500000920E-02 0.  1.
</event>
<event>
 5   0  0.2466076E-06  0.3183361E+04  0.7818609E-02  0.8193225E-01
       -2   -1    0    0    0  501  0.00000000000E+00  0.00000000000E+00  0.10285379765E+04  0.10285379765E+04  0.25500000920E-02 0. -1.
        2   -1    0    0  501    0  0.00000000000E+00  0.00000000000E+00 -0.24631540392E+04  0.24631540392E+04  0.25500000920E-02 0.  1.
    10030    2    1    2    0    0  0.00000000000E+00  0.00000000000E+00 -0.14346160626E+04  0.34916920157E+04  0.31833614129E+04 0.  0.
        3    1    3    3  502    0  0.69753576160E+03 -0.13674324498E+04 -0.11787965776E+04  0.19354557667E+04  0.10100000352E+00 0. -1.
       -3    1    3    3    0  502 -0.69753576160E+03  0.13674324498E+04 -0.25581948506E+03  0.15562362490E+04  0.10100000352E+00 0.  1.
</event>
<event>
 5   0  0.8512855E-07  0.3234812E+04  0.7818609E-02  0.8179684E-01
       -1   -1    0    0    0  501  0.00000000000E+00  0.00000000000E+00  0.11264566783E+04  0.11264566783E+04  0.50400001928E-02 0.  1.
        1   -1    0    0  501    0  0.00000000000E+00  0.00000000000E+00 -0.23223277442E+04  0.23223277442E+04  0.50400001928E-02 0. -1.
    10030    2    1    2    0    0  0.00000000000E+00  0.00000000000E+00 -0.11958710659E+04  0.34487844225E+04  0.32348116462E+04 0.  0.
        5    1    3    3  502    0  0.15466152445E+04 -0.36884302733E+02 -0.94921660842E+02  0.15499714120E+04  0.46999998093E+01 0.  1.
       -5    1    3    3    0  502 -0.15466152445E+04  0.36884302733E+02 -0.11009494050E+04  0.18988130105E+04  0.46999998093E+01 0. -1.
</event>
<event>
 5   0  0.2401139E-06  0.3175483E+04  0.7818609E-02  0.8195322E-01
        2   -1    0    0  501    0  0.00000000000E+00  0.00000000000E+00  0.23774894403E+04  0.23774894403E+04  0.25500000920E-02 0.  1.
       -2   -1    0    0    0  501  0.00000000000E+00  0.00000000000E+00 -0.10603297985E+04  0.10603297985E+04  0.25500000920E-02 0. -1.
    10030    2    1    2    0    0  0.00000000000E+00  0.00000000000E+00  0.13171596418E+04  0.34378192388E+04  0.31754828919E+04 0.  0.
        5    1    3    3  502    0  0.67439138990E+03 -0.58418339114E+03 -0.76324473212E+03  0.11741544159E+04  0.46999998093E+01 0. -1.
       -5    1    3    3    0  502 -0.67439138990E+03  0.58418339114E+03  0.20804043739E+04  0.22636648229E+04  0.46999998093E+01 0.  1.
</event>
<event>
 5   0  0.2401139E-06  0.3135805E+04  0.7818609E-02  0.8205980E-01
        2   -1    0    0  501    0  0.00000000000E+00  0.00000000000E+00  0.21080847878E+04  0.21080847878E+04  0.25500000920E-02 0.  1.
       -2   -1    0    0    0  501  0.00000000000E+00  0.00000000000E+00 -0.11661380243E+04  0.11661380243E+04  0.25500000920E-02 0. -1.
    10030    2    1    2    0    0  0.00000000000E+00  0.00000000000E+00  0.94194676350E+03  0.32742228121E+04  0.31358047321E+04 0.  0.
        5    1    3    3  502    0 -0.11186947525E+04 -0.55122954761E+03  0.14631623247E+04  0.19225498802E+04  0.46999998093E+01 0.  1.
       -5    1    3    3    0  502  0.11186947525E+04  0.55122954761E+03 -0.52121556121E+03  0.13516729319E+04  0.46999998093E+01 0. -1.
</event>
<event>
 5   0  0.2401139E-06  0.3061773E+04  0.7818609E-02  0.8226308E-01
        2   -1    0    0  501    0  0.00000000000E+00  0.00000000000E+00  0.11330106870E+04  0.11330106870E+04  0.25500000920E-02 0.  1.
       -2   -1    0    0    0  501  0.00000000000E+00  0.00000000000E+00 -0.20684831842E+04  0.20684831842E+04  0.25500000920E-02 0. -1.
    10030    2    1    2    0    0  0.00000000000E+00  0.00000000000E+00 -0.93547249722E+03  0.32014938712E+04  0.30617730508E+04 0.  0.
        5    1    3    3  502    0  0.84160006722E+03  0.67053890634E+03 -0.16063151359E+04  0.19334382597E+04  0.46999998093E+01 0. -1.
       -5    1    3    3    0  502 -0.84160006722E+03 -0.67053890634E+03  0.67084263872E+03  0.12680556115E+04  0.46999998093E+01 0.  1.
</event>
<event>
 5   0  0.8681172E-07  0.3251026E+04  0.7818609E-02  0.8175470E-01
       -1   -1    0    0    0  501  0.00000000000E+00  0.00000000000E+00  0.10136937032E+04  0.10136937032E+04  0.50400001928E-02 0.  1.
        1   -1    0    0  501    0  0.00000000000E+00  0.00000000000E+00 -0.26065984577E+04  0.26065984577E+04  0.50400001928E-02 0. -1.
    10030    2    1    2    0    0  0.00000000000E+00  0.00000000000E+00 -0.15929047545E+04  0.36202921609E+04  0.32510259571E+04 0.  0.
        1    1    3    3  502    0  0.40007258867E+02  0.37583974796E+03  0.96408083895E+03  0.10355230374E+04  0.50400001928E-02 0.  1.
       -1    1    3    3    0  502 -0.40007258867E+02 -0.37583974796E+03 -0.25569855934E+04  0.25847691235E+04  0.50400001928E-02 0. -1.
</event>
<event>
 5   0  0.2404430E-06  0.3193710E+04  0.7818609E-02  0.8190480E-01
       -2   -1    0    0    0  501  0.00000000000E+00  0.00000000000E+00  0.12889112426E+04  0.12889112426E+04  0.25500000920E-02 0. -1.
        2   -1    0    0  501    0  0.00000000000E+00  0.00000000000E+00 -0.19783719775E+04  0.19783719775E+04  0.25500000920E-02 0.  1.
    10030    2    1    2    0    0  0.00000000000E+00  0.00000000000E+00 -0.68946073494E+03  0.32672832201E+04  0.31937099954E+04 0.  0.
        4    1    3    3  502    0 -0.40089800173E+03 -0.15432253417E+04 -0.43438837858E+03  0.16525612059E+04  0.12699999809E+01 0. -1.
       -4    1    3    3    0  502  0.40089800173E+03  0.15432253417E+04 -0.25507235636E+03  0.16147220141E+04  0.12699999809E+01 0.  1.
</event>
<event>
 5   0  0.8681172E-07  0.3177128E+04  0.7818609E-02  0.8194884E-01
        1   -1    0    0  501    0  0.00000000000E+00  0.00000000000E+00  0.14799283409E+04  0.14799283409E+04  0.50400001928E-02 0. -1.
       -1   -1    0    0    0  501  0.00000000000E+00  0.00000000000E+00 -0.17051736858E+04  0.17051736858E+04  0.50400001928E-02 0.  1.
    10030    2    1    2    0    0  0.00000000000E+00  0.00000000000E+00 -0.22524534494E+03  0.31851020268E+04  0.31771275479E+04 0.  0.
        1    1    3    3  502    0  0.13215429245E+04  0.30904213256E+03 -0.94025650492E+03  0.16510799605E+04  0.50400001928E-02 0.  1.
       -1    1    3    3    0  502 -0.13215429245E+04 -0.30904213256E+03  0.71501115998E+03  0.15340220663E+04  0.50400001928E-02 0. -1.
</event>
<event>
 5   0  0.8545153E-07  0.3211774E+04  0.7818609E-02  0.8185715E-01
        1   -1    0    0  501    0  0.00000000000E+00  0.00000000000E+00  0.24094675785E+04  0.24094675786E+04  0.50400001928E-02 0. -1.
       -1   -1    0    0    0  501  0.00000000000E+00  0.00000000000E+00 -0.10703081002E+04  0.10703081002E+04  0.50400001928E-02 0.  1.
    10030    2    1    2    0    0  0.00000000000E+00  0.00000000000E+00  0.13391594784E+04  0.34797756787E+04  0.32117737569E+04 0.  0.
        3    1    3    3  502    0 -0.24875442810E+03  0.93060198850E+03 -0.72253937894E+03  0.12041436753E+04  0.10100000352E+00 0.  1.
       -3    1    3    3    0  502  0.24875442810E+03 -0.93060198850E+03  0.20616988573E+04  0.22756320034E+04  0.10100000352E+00 0. -1.
</event>
<event>
 5   0  0.8487944E-07  0.3208047E+04  0.7818609E-02  0.8186695E-01
        1   -1    0    0  501    0  0.00000000000E+00  0.00000000000E+00  0.26440432966E+04  0.26440432966E+04  0.50400001928E-02 0. -1.
       -1   -1    0    0    0  501  0.00000000000E+00  0.00000000000E+00 -0.97308974199E+03  0.97308974200E+03  0.50400001928E-02 0.  1.
    10030    2    1    2    0    0  0.00000000000E+00  0.00000000000E+00  0.16709535546E+04  0.36171330386E+04  0.32080470130E+04 0.  0.
        2    1    3    3  502    0  0.12934155947E+04  0.77703835766E+03  0.14490986276E+04  0.20920323474E+04  0.25500000920E-02 0. -1.
       -2    1    3    3    0  502 -0.12934155947E+04 -0.77703835766E+03  0.22185492703E+03  0.15251006913E+04  0.25500000920E-02 0.  1.
</event>
<event>
 5   0  0.2404430E-06  0.3222620E+04  0.7818609E-02  0.8182869E-01
       -2   -1    0    0    0  501  0.00000000000E+00  0.00000000000E+00  0.11074474669E+04  0.11074474669E+04  0.25500000920E-02 0. -1.
        2   -1    0    0  501    0  0.00000000000E+00  0.00000000000E+00 -0.23444181838E+04  0.23444181838E+04  0.25500000920E-02 0.  1.
    10030    2    1    2    0    0  0.00000000000E+00  0.00000000000E+00 -0.12369707170E+04  0.34518656507E+04  0.32226200390E+04 0.  0.
        4    1    3    3  502    0 -0.23171767912E+03  0.82416183705E+03  0.84367765196E+03  0.12019689721E+04  0.12699999809E+01 0. -1.
       -4    1    3    3    0  502  0.23171767912E+03 -0.82416183705E+03 -0.20806483689E+04  0.22498966786E+04  0.12699999809E+01 0.  1.
</event>
<event>
 5   0  0.8383008E-07  0.3169395E+04  0.7818609E-02  0.8196947E-01
        1   -1    0    0  501    0  0.00000000000E+00  0.00000000000E+00  0.83153246034E+03  0.83153246036E+03  0.50400001928E-02 0. -1.
       -1   -1    0    0    0  501  0.00000000000E+00  0.00000000000E+00 -0.30200455663E+04  0.30200455663E+04  0.50400001928E-02 0.  1.
    10030    2    1    2    0    0  0.00000000000E+00  0.00000000000E+00 -0.21885131059E+04  0.38515780266E+04  0.31693948445E+04 0.  0.
        4    1    3    3  502    0 -0.10028979919E+04 -0.11254911184E+04 -0.50049024645E+03  0.15884038339E+04  0.12699999809E+01 0. -1.
       -4    1    3    3    0  502  0.10028979919E+04  0.11254911184E+04 -0.16880228595E+04  0.22631741928E+04  0.12699999809E+01 0.  1.
</event>
<event>
 5   0  0.8545153E-07  0.3182641E+04  0.7818609E-02  0.8193417E-01
       -1   -1    0    0    0  501  0.00000000000E+00  0.00000000000E+00  0.13082577454E+04  0.13082577454E+04  0.50400001928E-02 0.  1.
        1   -1    0    0  501    0  0.00000000000E+00  0.00000000000E+00 -0.19356290025E+04  0.19356290025E+04  0.50400001928E-02 0. -1.
    10030    2    1    2    0    0  0.00000000000E+00  0.00000000000E+00 -0.62737125716E+03  0.32438867479E+04  0.31826414405E+04 0.  0.
        3    1    3    3  502    0  0.14874606656E+04  0.53133252604E+03 -0.51092476553E+03  0.16600896395E+04  0.10100000352E+00 0.  1.
       -3    1    3    3    0  502 -0.14874606656E+04 -0.53133252604E+03 -0.11644649162E+03  0.15837971084E+04  0.10100000352E+00 0. -1.
</event>
<event>
 5   0  0.2337504E-06  0.3326729E+04  0.7818609E-02  0.8156127E-01
       -2   -1    0    0    0  501  0.00000000000E+00  0.00000000000E+00  0.20867743386E+04  0.20867743386E+04  0.25500000920E-02 0.  1.
        2   -1    0    0  501    0  0.00000000000E+00  0.00000000000E+00 -0.13258653668E+04  0.13258653668E+04  0.25500000920E-02 0. -1.
    10030    2    1    2    0    0  0.00000000000E+00  0.00000000000E+00  0.76090897186E+03  0.34126397054E+04  0.33267292189E+04 0.  0.
        1    1    3    3  502    0  0.12942092395E+04  0.72735292873E+03 -0.38909289305E+03  0.15347355205E+04  0.50400001928E-02 0.  1.
       -1    1    3    3    0  502 -0.12942092395E+04 -0.72735292873E+03  0.11500018649E+04  0.18779041849E+04  0.50400001928E-02 0. -1.
</event>
<event>
 5   0  0.2401139E-06  0.3198269E+04  0.7818609E-02  0.8189275E-01
       -2   -1    0    0    0  501  0.00000000000E+00  0.00000000000E+00  0.12262221931E+04  0.12262221931E+04  0.25500000920E-02 0. -1.
        2   -1    0    0  501    0  0.00000000000E+00  0.00000000000E+00 -0.20854548285E+04  0.20854548285E+04  0.25500000920E-02 0.  1.
    10030    2    1    2    0    0  0.00000000000E+00  0.00000000000E+00 -0.85923263541E+03  0.33116770216E+04  0.31982689026E+04 0.  0.
        5    1    3    3  502    0 -0.40721977336E+03 -0.61190904521E+02  0.11703731214E+04  0.12407125388E+04  0.46999998093E+01 0. -1.
       -5    1    3    3    0  502  0.40721977336E+03  0.61190904521E+02 -0.20296057568E+04  0.20709644827E+04  0.46999998093E+01 0.  1.
</event>
<event>
 5   0  0.8383008E-07  0.3194074E+04  0.7818609E-02  0.8190384E-01
       -1   -1    0    0    0  501  0.00000000000E+00  0.00000000000E+00  0.11744461300E+04  0.11744461300E+04  0.50400001928E-02 0.  1.
        1   -1    0    0  501    0  0.00000000000E+00  0.00000000000E+00 -0.21716850773E+04  0.21716850774E+04  0.50400001928E-02 0. -1.
    10030    2    1    2    0    0  0.00000000000E+00  0.00000000000E+00 -0.99723894737E+03  0.33461312073E+04  0.31940739720E+04 0.  0.
        4    1    3    3  502    0  0.91362390519E+03 -0.10429082909E+04 -0.13289152936E+04  0.19205165487E+04  0.12699999809E+01 0. -1.
       -4    1    3    3    0  502 -0.91362390519E+03  0.10429082909E+04  0.33167634628E+03  0.14256146586E+04  0.12699999809E+01 0.  1.
</event>
<event>
 5   0  0.2404430E-06  0.3204559E+04  0.7818609E-02  0.8187614E-01
        2   -1    0    0  501    0  0.00000000000E+00  0.00000000000E+00  0.21104616947E+04  0.21104616947E+04  0.25500000920E-02 0.  1.
       -2   -1    0    0    0  501  0.00000000000E+00  0.00000000000E+00 -0.12164632141E+04  0.12164632141E+04  0.25500000920E-02 0. -1.
    10030    2    1    2    0    0  0.00000000000E+00  0.00000000000E+00  0.89399848064E+03  0.33269249089E+04  0.32045586382E+04 0.  0.
        4    1    3    3  502    0 -0.54288515074E+03 -0.23101972705E+03  0.19935824514E+04  0.20790543535E+04  0.12699999809E+01 0.  1.
       -4    1    3    3    0  502  0.54288515074E+03  0.23101972705E+03 -0.10995839708E+04  0.12478705554E+04  0.12699999809E+01 0. -1.
</event>
<event>
 5   0  0.2621528E-06  0.3189149E+04  0.7818609E-02  0.8191689E-01
       -2   -1    0    0    0  501  0.00000000000E+00  0.00000000000E+00  0.14547584404E+04  0.14547584404E+04  0.25500000920E-02 0.  1.
        2   -1    0    0  501    0  0.00000000000E+00  0.00000000000E+00 -0.17478278357E+04  0.17478278357E+04  0.25500000920E-02 0. -1.
    10030    2    1    2    0    0  0.00000000000E+00  0.00000000000E+00 -0.29306939537E+03  0.32025862761E+04  0.31891486615E+04 0.  0.
        2    1    3    3  502    0  0.95477096159E+03  0.20612980297E+03  0.11191689016E+04  0.14854683151E+04  0.25500000920E-02 0.  1.
       -2    1    3    3    0  502 -0.95477096159E+03 -0.20612980297E+03 -0.14122382969E+04  0.17171179610E+04  0.25500000920E-02 0. -1.
</event>
<event>
 5   0  0.8681172E-07  0.3191335E+04  0.7818609E-02  0.8191109E-01
       -1   -1    0    0    0  501  0.00000000000E+00  0.00000000000E+00  0.13425410424E+04  0.13425410424E+04  0.50400001928E-02 0. -1.
        1   -1    0    0  501    0  0.00000000000E+00  0.00000000000E+00 -0.18965190290E+04  0.18965190290E+04  0.50400001928E-02 0.  1.
    10030    2    1    2    0    0  0.00000000000E+00  0.00000000000E+00 -0.55397798657E+03  0.32390600714E+04  0.31913349145E+04 0.  0.
        1    1    3    3  502    0 -0.88015759578E+03 -0.41139223556E+03 -0.15617121309E+04  0.18392568457E+04  0.50400001928E-02 0.  1.
       -1    1    3    3    0  502  0.88015759578E+03  0.41139223556E+03  0.10077341443E+04  0.13998032256E+04  0.50400001928E-02 0. -1.
</event>
<event>
 5   0  0.2621528E-06  0.3185074E+04  0.7818609E-02  0.8192770E-01
        2   -1    0    0  501    0  0.00000000000E+00  0.00000000000E+00  0.17475317978E+04  0.17475317978E+04  0.25500000920E-02 0.  1.
       -2   -1    0    0    0  501  0.00000000000E+00  0.00000000000E+00 -0.14512894264E+04  0.14512894264E+04  0.25500000920E-02 0. -1.
    10030    2    1    2    0    0  0.00000000000E+00  0.00000000000E+00  0.29624237137E+03  0.31988212243E+04  0.31850742036E+04 0.  0.
        2    1    3    3  502    0  0.85659832461E+03 -0.35702543911E+03 -0.11516619347E+04  0.14790378852E+04  0.25500000920E-02 0. -1.
       -2    1    3    3    0  502 -0.85659832461E+03  0.35702543911E+03  0.14479043061E+04  0.17197833391E+04  0.25500000920E-02 0.  1.
</event>
<event>
 5   0  0.8487944E-07  0.3189110E+04  0.7818609E-02  0.8191699E-01
        1   -1    0    0  501    0  0.00000000000E+00  0.00000000000E+00  0.21382223285E+04  0.21382223285E+04  0.50400001928E-02 0.  1.
       -1   -1    0    0    0  501  0.00000000000E+00  0.00000000000E+00 -0.11891213152E+04  0.11891213152E+04  0.50400001928E-02 0. -1.
    10030    2    1    2    0    0  0.00000000000E+00  0.00000000000E+00  0.94910101331E+03  0.33273436437E+04  0.31891100624E+04 0.  0.
        2    1    3    3  502    0  0.14563002850E+04 -0.20198321599E+03  0.11185558949E+04  0.18473697599E+04  0.25500000920E-02 0.  1.
       -2    1    3    3    0  502 -0.14563002850E+04  0.20198321599E+03 -0.16945488164E+03  0.14799738838E+04  0.25500000920E-02 0. -1.
</event>
<event>
 5   0  0.8383008E-07  0.3197325E+04  0.7818609E-02  0.8189524E-01
        1   -1    0    0  501    0  0.00000000000E+00  0.00000000000E+00  0.16896964150E+04  0.16896964150E+04  0.50400001928E-02 0.  1.
       -1   -1    0    0    0  501  0.00000000000E+00  0.00000000000E+00 -0.15125333999E+04  0.15125333999E+04  0.50400001928E-02 0. -1.
    10030    2    1    2    0    0  0.00000000000E+00  0.00000000000E+00  0.17716301514E+03  0.32022298149E+04  0.31973252968E+04 0.  0.
        4    1    3    3  502    0  0.14128927682E+04 -0.13839440809E+03 -0.64759817162E+03  0.15603858470E+04  0.12699999809E+01 0. -1.
       -4    1    3    3    0  502 -0.14128927682E+04  0.13839440809E+03  0.82476118676E+03  0.16418439679E+04  0.12699999809E+01 0.  1.
</event>
<event>
 5   0  0.2337504E-06  0.3227676E+04  0.7818609E-02  0.8181546E-01
        2   -1    0    0  501    0  0.00000000000E+00  0.00000000000E+00  0.14382689747E+04  0.14382689747E+04  0.25500000920E-02 0.  1.
       -2   -1    0    0    0  501  0.00000000000E+00  0.00000000000E+00 -0.18108387607E+04  0.18108387607E+04  0.25500000920E-02 0. -1.
    10030    2    1    2    0    0  0.00000000000E+00  0.00000000000E+00 -0.37256978599E+03  0.32491077355E+04  0.32276760728E+04 0.  0.
        1    1    3    3  502    0  0.65024340059E+03 -0.66384194706E+03 -0.15145045020E+04  0.17768586036E+04  0.50400001928E-02 0. -1.
       -1    1    3    3    0  502 -0.65024340059E+03  0.66384194706E+03  0.11419347160E+04  0.14722491319E+04  0.50400001928E-02 0.  1.
</event>
<event>
 5   0  0.2621528E-06  0.3270092E+04  0.7818609E-02  0.8170548E-01
        2   -1    0    0  501    0  0.00000000000E+00  0.00000000000E+00  0.27593175352E+04  0.27593175352E+04  0.25500000920E-02 0. -1.
       -2   -1    0    0    0  501  0.00000000000E+00  0.00000000000E+00 -0.96885362082E+03  0.96885362083E+03  0.25500000920E-02 0.  1.
    10030    2    1    2    0    0  0.00000000000E+00  0.00000000000E+00  0.17904639144E+04  0.37281711561E+04  0.32700916103E+04 0.  0.
        2    1    3    3  502    0 -0.72695327601E+03  0.13015560941E+04  0.12970691425E+03  0.14964401810E+04  0.25500000920E-02 0. -1.
       -2    1    3    3    0  502  0.72695327601E+03 -0.13015560941E+04  0.16607570001E+04  0.22317309751E+04  0.25500000920E-02 0.  1.
</event>
<event>
 5   0  0.8681172E-07  0.3095841E+04  0.7818609E-02  0.8216880E-01
        1   -1    0    0  501    0  0.00000000000E+00  0.00000000000E+00  0.14748075284E+04  0.14748075284E+04  0.50400001928E-02 0. -1.
       -1   -1    0    0    0  501  0.00000000000E+00  0.00000000000E+00 -0.16246578862E+04  0.16246578862E+04  0.50400001928E-02 0.  1.
    10030    2    1    2    0    0  0.00000000000E+00  0.00000000000E+00 -0.14985035782E+03  0.30994654145E+04  0.30958408755E+04 0.  0.
        1    1    3    3  502    0  0.13523809665E+04  0.99625107305E+02 -0.82225623966E+03  0.15858640434E+04  0.50400001928E-02 0.  1.
       -1    1    3    3    0  502 -0.13523809665E+04 -0.99625107305E+02  0.67240588184E+03  0.15136013711E+04  0.50400001928E-02 0. -1.
</event>
<event>
 5   0  0.8487944E-07  0.3224815E+04  0.7818609E-02  0.8182294E-01
       -1   -1    0    0    0  501  0.00000000000E+00  0.00000000000E+00  0.98709988023E+03  0.98709988024E+03  0.50400001928E-02 0. -1.
        1   -1    0    0  501    0  0.00000000000E+00  0.00000000000E+00 -0.26338348601E+04  0.26338348601E+04  0.50400001928E-02 0.  1.
    10030    2    1    2    0    0  0.00000000000E+00  0.00000000000E+00 -0.16467349798E+04  0.36209347403E+04  0.32248150799E+04 0.  0.
        2    1    3    3  502    0  0.37936414788E+02  0.40178737049E+03 -0.25762079207E+04  0.26076271807E+04  0.25500000920E-02 0.  1.
       -2    1    3    3    0  502 -0.37936414788E+02 -0.40178737049E+03  0.92947294086E+03  0.10133075596E+04  0.25500000920E-02 0. -1.
</event>
<event>
 5   0  0.2337504E-06  0.3219389E+04  0.7818609E-02  0.8183715E-01
        2   -1    0    0  501    0  0.00000000000E+00  0.00000000000E+00  0.12751881102E+04  0.12751881102E+04  0.25500000920E-02 0. -1.
       -2   -1    0    0    0  501  0.00000000000E+00  0.00000000000E+00 -0.20319487172E+04  0.20319487172E+04  0.25500000920E-02 0.  1.
    10030    2    1    2    0    0  0.00000000000E+00  0.00000000000E+00 -0.75676060697E+03  0.33071368274E+04  0.32193892867E+04 0.  0.
        1    1    3    3  502    0 -0.30357938232E+03  0.59199020452E+03 -0.18841090869E+04  0.19981190893E+04  0.50400001928E-02 0.  1.
       -1    1    3    3    0  502  0.30357938232E+03 -0.59199020452E+03  0.11273484799E+04  0.13090177382E+04  0.50400001928E-02 0. -1.
</event>
<event>
 5   0  0.8487944E-07  0.3191104E+04  0.7818609E-02  0.8191170E-01
       -1   -1    0    0    0  501  0.00000000000E+00  0.00000000000E+00  0.14397781657E+04  0.14397781657E+04  0.50400001928E-02 0. -1.
        1   -1    0    0  501    0  0.00000000000E+00  0.00000000000E+00 -0.17681797652E+04  0.17681797652E+04  0.50400001928E-02 0.  1.
    10030    2    1    2    0    0  0.00000000000E+00  0.00000000000E+00 -0.32840159950E+03  0.32079579310E+04  0.31911042722E+04 0.  0.
        2    1    3    3  502    0 -0.55340993179E+02  0.99755926389E+03 -0.14147965845E+04  0.17320036045E+04  0.25500000920E-02 0.  1.
       -2    1    3    3    0  502  0.55340993179E+02 -0.99755926389E+03  0.10863949850E+04  0.14759543265E+04  0.25500000920E-02 0. -1.
</event>
<event>
 5   0  0.8545153E-07  0.3199718E+04  0.7818609E-02  0.8188892E-01
       -1   -1    0    0    0  501  0.00000000000E+00  0.00000000000E+00  0.15100885838E+04  0.15100885838E+04  0.50400001928E-02 0.  1.
        1   -1    0    0  501    0  0.00000000000E+00  0.00000000000E+00 -0.16949658266E+04  0.16949658266E+04  0.50400001928E-02 0. -1.
    10030    2    1    2    0    0  0.00000000000E+00  0.00000000000E+00 -0.18487724278E+03  0.32050544104E+04  0.31997178280E+04 0.  0.
        3    1    3    3  502    0 -0.31890525452E+03 -0.59734909330E+02 -0.16616655581E+04  0.16930449663E+04  0.10100000352E+00 0. -1.
       -3    1    3    3    0  502  0.31890525452E+03  0.59734909330E+02  0.14767883153E+04  0.15120094441E+04  0.10100000352E+00 0.  1.
</event>
<event>
 5   0  0.2337504E-06  0.2807120E+04  0.7818609E-02  0.8301061E-01
        2   -1    0    0  501    0  0.00000000000E+00  0.00000000000E+00  0.13055802226E+04  0.13055802226E+04  0.25500000920E-02 0.  1.
       -2   -1    0    0    0  501  0.00000000000E+00  0.00000000000E+00 -0.15088929737E+04  0.15088929737E+04  0.25500000920E-02 0. -1.
    10030    2    1    2    0    0  0.00000000000E+00  0.00000000000E+00 -0.20331275109E+03  0.28144731962E+04  0.28071201074E+04 0.  0.
        1    1    3    3  502    0 -0.10495267105E+04  0.19347989872E+03  0.81234551831E+03  0.13412106577E+04  0.50400001928E-02 0.  1.
       -1    1    3    3    0  502  0.10495267105E+04 -0.19347989872E+03 -0.10156582694E+04  0.14732625385E+04  0.50400001928E-02 0. -1.
</event>
<event>
 5   0  0.2404430E-06  0.2992248E+04  0.7818609E-02  0.8245948E-01
       -2   -1    0    0    0  501  0.00000000000E+00  0.00000000000E+00  0.21724406716E+04  0.21724406716E+04  0.25500000920E-02 0.  1.
        2   -1    0    0  501    0  0.00000000000E+00  0.00000000000E+00 -0.10303560969E+04  0.10303560969E+04  0.25500000920E-02 0. -1.
    10030    2    1    2    0    0  0.00000000000E+00  0.00000000000E+00  0.11420845747E+04  0.32027967685E+04  0.29922483126E+04 0.  0.
        4    1    3    3  502    0 -0.24322643806E+03  0.14078046609E+04  0.10464972633E+04  0.17709407665E+04  0.12699999809E+01 0.  1.
       -4    1    3    3    0  502  0.24322643806E+03 -0.14078046609E+04  0.95587311413E+02  0.14318560020E+04  0.12699999809E+01 0. -1.
</event>
<event>
 5   0  0.2404430E-06  0.3240143E+04  0.7818609E-02  0.8178295E-01
       -2   -1    0    0    0  501  0.00000000000E+00  0.00000000000E+00  0.18215227783E+04  0.18215227783E+04  0.25500000920E-02 0.  1.
        2   -1    0    0  501    0  0.00000000000E+00  0.00000000000E+00 -0.14408993768E+04  0.14408993768E+04  0.25500000920E-02 0. -1.
    10030    2    1    2    0    0  0.00000000000E+00  0.00000000000E+00  0.38062340155E+03  0.32624221551E+04  0.32401426117E+04 0.  0.
        4    1    3    3  502    0  0.15777720409E+04  0.14866617190E+03  0.52902215607E+03  0.16707280743E+04  0.12699999809E+01 0.  1.
       -4    1    3    3    0  502 -0.15777720409E+04 -0.14866617190E+03 -0.14839875451E+03  0.15916940808E+04  0.12699999809E+01 0. -1.
</event>
<event>
 5   0  0.2466076E-06  0.3087933E+04  0.7818609E-02  0.8219057E-01
        2   -1    0    0  501    0  0.00000000000E+00  0.00000000000E+00  0.18971903947E+04  0.18971903947E+04  0.25500000920E-02 0. -1.
       -2   -1    0    0    0  501  0.00000000000E+00  0.00000000000E+00 -0.12565064965E+04  0.12565064965E+04  0.25500000920E-02 0.  1.
    10030    2    1    2    0    0  0.00000000000E+00  0.00000000000E+00  0.64068389823E+03  0.31536968911E+04  0.30879326780E+04 0.  0.
        3    1    3    3  502    0  0.40623100035E+03  0.16375399128E+03 -0.11917274106E+04  0.12696665809E+04  0.10100000352E+00 0.  1.
       -3    1    3    3    0  502 -0.40623100035E+03 -0.16375399128E+03  0.18324113088E+04  0.18840303103E+04  0.10100000352E+00 0. -1.
</event>
<event>
 5   0  0.8681172E-07  0.3298154E+04  0.7818609E-02  0.8163365E-01
       -1   -1    0    0    0  501  0.00000000000E+00  0.00000000000E+00  0.10634885676E+04  0.10634885676E+04  0.50400001928E-02 0. -1.
        1   -1    0    0  501    0  0.00000000000E+00  0.00000000000E+00 -0.25571079941E+04  0.25571079941E+04  0.50400001928E-02 0.  1.
    10030    2    1    2    0    0  0.00000000000E+00  0.00000000000E+00 -0.14936194265E+04  0.36205965617E+04  0.32981541006E+04 0.  0.
        1    1    3    3  502    0 -0.13112101210E+04  0.98525677891E+03 -0.93520419605E+03  0.18880174231E+04  0.50400001928E-02 0. -1.
       -1    1    3    3    0  502  0.13112101210E+04 -0.98525677891E+03 -0.55841523050E+03  0.17325791386E+04  0.50400001928E-02 0.  1.
</event>
<event>
 5   0  0.2621528E-06  0.3249154E+04  0.7818609E-02  0.8175955E-01
        2   -1    0    0  501    0  0.00000000000E+00  0.00000000000E+00  0.30604395626E+04  0.30604395626E+04  0.25500000920E-02 0. -1.
       -2   -1    0    0    0  501  0.00000000000E+00  0.00000000000E+00 -0.86237621013E+03  0.86237621013E+03  0.25500000920E-02 0.  1.
    10030    2    1    2    0    0  0.00000000000E+00  0.00000000000E+00  0.21980633524E+04  0.39228157727E+04  0.32491539030E+04 0.  0.
        2    1    3    3  502    0  0.78881469655E+03  0.11428160576E+04  0.21170610849E+04  0.25318382263E+04  0.25500000920E-02 0. -1.
       -2    1    3    3    0  502 -0.78881469655E+03 -0.11428160576E+04  0.81002267507E+02  0.13909775463E+04  0.25500000920E-02 0.  1.
</event>
<event>
 5   0  0.2337504E-06  0.3160262E+04  0.7818609E-02  0.8199391E-01
       -2   -1    0    0    0  501  0.00000000000E+00  0.00000000000E+00  0.14677452372E+04  0.14677452372E+04  0.25500000920E-02 0. -1.
        2   -1    0    0  501    0  0.00000000000E+00  0.00000000000E+00 -0.17011221810E+04  0.17011221810E+04  0.25500000920E-02 0.  1.
    10030    2    1    2    0    0  0.00000000000E+00  0.00000000000E+00 -0.23337694384E+03  0.31688674182E+04  0.31602620012E+04 0.  0.
        1    1    3    3  502    0 -0.23020249732E+03  0.24769267720E+03 -0.16644164050E+04  0.16984189181E+04  0.50400001928E-02 0.  1.
       -1    1    3    3    0  502  0.23020249732E+03 -0.24769267720E+03  0.14310394612E+04  0.14704485001E+04  0.50400001928E-02 0. -1.
</event>
<event>
 5   0  0.8487944E-07  0.2634196E+04  0.7818609E-02  0.8356678E-01
       -1   -1    0    0    0  501  0.00000000000E+00  0.00000000000E+00  0.88511055329E+03  0.88511055331E+03  0.50400001928E-02 0.  1.
        1   -1    0    0  501    0  0.00000000000E+00  0.00000000000E+00 -0.19599212416E+04  0.19599212416E+04  0.50400001928E-02 0. -1.
    10030    2    1    2    0    0  0.00000000000E+00  0.00000000000E+00 -0.10748106883E+04  0.28450317949E+04  0.26341958732E+04 0.  0.
        2    1    3    3  502    0  0.81902945022E+03  0.83969285129E+02  0.57292782899E+03  0.10030485424E+04  0.25500000920E-02 0.  1.
       -2    1    3    3    0  502 -0.81902945022E+03 -0.83969285129E+02 -0.16477385173E+04  0.18419832525E+04  0.25500000920E-02 0. -1.
</event>
<event>
 5   0  0.8487944E-07  0.3328805E+04  0.7818609E-02  0.8155604E-01
       -1   -1    0    0    0  501  0.00000000000E+00  0.00000000000E+00  0.16656843524E+04  0.16656843524E+04  0.50400001928E-02 0.  1.
        1   -1    0    0  501    0  0.00000000000E+00  0.00000000000E+00 -0.16631219016E+04  0.16631219016E+04  0.50400001928E-02 0. -1.
    10030    2    1    2    0    0  0.00000000000E+00  0.00000000000E+00  0.25624508265E+01  0.33288062540E+04  0.33288052677E+04 0.  0.
        2    1    3    3  502    0 -0.16039564017E+03 -0.33158809121E+03  0.16244140804E+04  0.16656525833E+04  0.25500000920E-02 0.  1.
       -2    1    3    3    0  502  0.16039564017E+03  0.33158809121E+03 -0.16218516296E+04  0.16631536706E+04  0.25500000920E-02 0. -1.
</event>
<event>
 5   0  0.2337504E-06  0.3192437E+04  0.7818609E-02  0.8190817E-01
       -2   -1    0    0    0  501  0.00000000000E+00  0.00000000000E+00  0.14450830157E+04  0.14450830157E+04  0.25500000920E-02 0. -1.
        2   -1    0    0  501    0  0.00000000000E+00  0.00000000000E+00 -0.17631610874E+04  0.17631610874E+04  0.25500000920E-02 0.  1.
    10030    2    1    2    0    0  0.00000000000E+00  0.00000000000E+00 -0.31807807174E+03  0.32082441031E+04  0.31924374020E+04 0.  0.
        1    1    3    3  502    0  0.19328813413E+03  0.15147507706E+04 -0.62618893674E+03  0.16504371495E+04  0.50400001928E-02 0.  1.
       -1    1    3    3    0  502 -0.19328813413E+03 -0.15147507706E+04  0.30811086500E+03  0.15578069537E+04  0.50400001928E-02 0. -1.
</event>
<event>
 5   0  0.2404430E-06  0.3209707E+04  0.7818609E-02  0.8186258E-01
       -2   -1    0    0    0  501  0.00000000000E+00  0.00000000000E+00  0.20569632735E+04  0.20569632735E+04  0.25500000920E-02 0. -1.
        2   -1    0    0  501    0  0.00000000000E+00  0.00000000000E+00 -0.12521154725E+04  0.12521154725E+04  0.25500000920E-02 0.  1.
    10030    2    1    2    0    0  0.00000000000E+00  0.00000000000E+00  0.80484780100E+03  0.33090787461E+04  0.32097074890E+04 0.  0.
        4    1    3    3  502    0  0.13129573700E+04 -0.36225798320E+03  0.12775051936E+04  0.18673802597E+04  0.12699999809E+01 0.  1.
       -4    1    3    3    0  502 -0.13129573700E+04  0.36225798320E+03 -0.47265739262E+03  0.14416984863E+04  0.12699999809E+01 0. -1.
</event>
<event>
 5   0  0.2404430E-06  0.3185691E+04  0.7818609E-02  0.8192606E-01
        2   -1    0    0  501    0  0.00000000000E+00  0.00000000000E+00  0.16687432007E+04  0.16687432007E+04  0.25500000920E-02 0.  1.
       -2   -1    0    0    0  501  0.00000000000E+00  0.00000000000E+00 -0.15203995968E+04  0.15203995968E+04  0.25500000920E-02 0. -1.
    10030    2    1    2    0    0  0.00000000000E+00  0.00000000000E+00  0.14834360395E+03  0.31891427975E+04  0.31856908133E+04 0.  0.
        4    1    3    3  502    0 -0.24139644311E+03  0.81028119241E+03 -0.12772269087E+04  0.15317108221E+04  0.12699999809E+01 0. -1.
       -4    1    3    3    0  502  0.24139644311E+03 -0.81028119241E+03  0.14255705126E+04  0.16574319753E+04  0.12699999809E+01 0.  1.
</event>
<event>
 5   0  0.8545153E-07  0.3023999E+04  0.7818609E-02  0.8236911E-01
       -1   -1    0    0    0  501  0.00000000000E+00  0.00000000000E+00  0.26141119739E+04  0.26141119739E+04  0.50400001928E-02 0. -1.
        1   -1    0    0  501    0  0.00000000000E+00  0.00000000000E+00 -0.87453912637E+03  0.87453912639E+03  0.50400001928E-02 0.  1.
    10030    2    1    2    0    0  0.00000000000E+00  0.00000000000E+00  0.17395728475E+04  0.34886511003E+04  0.30239994722E+04 0.  0.
        3    1    3    3  502    0  0.59453660128E+03 -0.81939465749E+03 -0.42583598520E+03  0.10982794141E+04  0.10100000352E+00 0.  1.
       -3    1    3    3    0  502 -0.59453660128E+03  0.81939465749E+03  0.21654088327E+04  0.23903716862E+04  0.10100000352E+00 0. -1.
</event>
<event>
 5   0  0.8512855E-07  0.3179758E+04  0.7818609E-02  0.8194184E-01
       -1   -1    0    0    0  501  0.00000000000E+00  0.00000000000E+00  0.21584012691E+04  0.21584012691E+04  0.50400001928E-02 0.  1.
        1   -1    0    0  501    0  0.00000000000E+00  0.00000000000E+00 -0.11711051837E+04  0.11711051837E+04  0.50400001928E-02 0. -1.
    10030    2    1    2    0    0  0.00000000000E+00  0.00000000000E+00  0.98729608541E+03  0.33295064529E+04  0.31797577989E+04 0.  0.
        5    1    3    3  502    0 -0.35706473481E+03  0.15018874237E+03 -0.11209296764E+04  0.11859836898E+04  0.46999998093E+01 0. -1.
       -5    1    3    3    0  502  0.35706473481E+03 -0.15018874237E+03  0.21082257618E+04  0.21435227631E+04  0.46999998093E+01 0.  1.
</event>
<event>
 5   0  0.2621528E-06  0.3225503E+04  0.7818609E-02  0.8182114E-01
        2   -1    0    0  501    0  0.00000000000E+00  0.00000000000E+00  0.21682844193E+04  0.21682844193E+04  0.25500000920E-02 0.  1.
       -2   -1    0    0    0  501  0.00000000000E+00  0.00000000000E+00 -0.11995507999E+04  0.11995507999E+04  0.25500000920E-02 0. -1.
    10030    2    1    2    0    0  0.00000000000E+00  0.00000000000E+00  0.96873361941E+03  0.33678352192E+04  0.32255029435E+04 0.  0.
        2    1    3    3  502    0  0.14841628786E+04 -0.54582975727E+03  0.81503997728E+03  0.17790333720E+04  0.25500000920E-02 0.  1.
       -2    1    3    3    0  502 -0.14841628786E+04  0.54582975727E+03  0.15369364213E+03  0.15888018472E+04  0.25500000920E-02 0. -1.
</event>
<event>
 5   0  0.8487944E-07  0.3195088E+04  0.7818609E-02  0.8190116E-01
       -1   -1    0    0    0  501  0.00000000000E+00  0.00000000000E+00  0.13285800741E+04  0.13285800741E+04  0.50400001928E-02 0.  1.
        1   -1    0    0  501    0  0.00000000000E+00  0.00000000000E+00 -0.19209587865E+04  0.19209587865E+04  0.50400001928E-02 0. -1.
    10030    2    1    2    0    0  0.00000000000E+00  0.00000000000E+00 -0.59237871241E+03  0.32495388606E+04  0.31950884601E+04 0.  0.
        2    1    3    3  502    0 -0.13181949959E+04 -0.73650845320E+03  0.23429800410E+03  0.15280635797E+04  0.25500000920E-02 0. -1.
       -2    1    3    3    0  502  0.13181949959E+04  0.73650845320E+03 -0.82667671651E+03  0.17214752809E+04  0.25500000920E-02 0.  1.
</event>
<event>
 5   0  0.8487944E-07  0.3159702E+04  0.7818609E-02  0.8199542E-01
       -1   -1    0    0    0  501  0.00000000000E+00  0.00000000000E+00  0.12928834975E+04  0.12928834975E+04  0.50400001928E-02 0. -1.
        1   -1    0    0  501    0  0.00000000000E+00  0.00000000000E+00 -0.19305139271E+04  0.19305139271E+04  0.50400001928E-02 0.  1.
    10030    2    1    2    0    0  0.00000000000E+00  0.00000000000E+00 -0.63763042958E+03  0.32233974247E+04  0.31597022633E+04 0.  0.
        2    1    3    3  502    0 -0.96323967160E+02 -0.25799582605E+02 -0.19273001734E+04  0.19298782043E+04  0.25500000920E-02 0.  1.
       -2    1    3    3    0  502  0.96323967160E+02  0.25799582605E+02  0.12896697438E+04  0.12935192203E+04  0.25500000920E-02 0. -1.
</event>
<event>
 5   0  0.8681172E-07  0.3128149E+04  0.7818609E-02  0.8208055E-01
       -1   -1    0    0    0  501  0.00000000000E+00  0.00000000000E+00  0.11363994689E+04  0.11363994689E+04  0.50400001928E-02 0.  1.
        1   -1    0    0  501    0  0.00000000000E+00  0.00000000000E+00 -0.21527022311E+04  0.21527022311E+04  0.50400001928E-02 0. -1.
    10030    2    1    2    0    0  0.00000000000E+00  0.00000000000E+00 -0.10163027622E+04  0.32891017001E+04  0.31281494032E+04 0.  0.
        1    1    3    3  502    0  0.10978264891E+04  0.11130105041E+04 -0.55873369301E+03  0.16601803282E+04  0.50400001928E-02 0.  1.
       -1    1    3    3    0  502 -0.10978264891E+04 -0.11130105041E+04 -0.45756906919E+03  0.16289213718E+04  0.50400001928E-02 0. -1.
</event>
<event>
 5   0  0.2621528E-06  0.3178342E+04  0.7818609E-02  0.8194561E-01
        2   -1    0    0  501    0  0.00000000000E+00  0.00000000000E+00  0.18441686921E+04  0.18441686921E+04  0.25500000920E-02 0. -1.
       -2   -1    0    0    0  501  0.00000000000E+00  0.00000000000E+00 -0.13694321090E+04  0.13694321090E+04  0.25500000920E-02 0.  1.
    10030    2    1    2    0    0  0.00000000000E+00  0.00000000000E+00  0.47473658317E+03  0.32136008011E+04  0.31783415936E+04 0.  0.
        2    1    3    3  502    0 -0.23401522368E+03 -0.15066101765E+04 -0.21573981841E+03  0.15398639610E+04  0.25500000920E-02 0.  1.
       -2    1    3    3    0  502  0.23401522368E+03  0.15066101765E+04  0.69047640158E+03  0.16737368402E+04  0.25500000920E-02 0. -1.
</event>
<event>
 5   0  0.2404430E-06  0.2685423E+04  0.7818609E-02  0.8339750E-01
        2   -1    0    0  501    0  0.00000000000E+00  0.00000000000E+00  0.13037114990E+04  0.13037114990E+04  0.25500000920E-02 0.  1.
       -2   -1    0    0    0  501  0.00000000000E+00  0.00000000000E+00 -0.13828781950E+04  0.13828781950E+04  0.25500000920E-02 0. -1.
    10030    2    1    2    0    0  0.00000000000E+00  0.00000000000E+00 -0.79166695997E+02  0.26865896941E+04  0.26854230242E+04 0.  0.
        4    1    3    3  502    0  0.97617342529E+03 -0.53958248520E+03 -0.78744324569E+03  0.13653323012E+04  0.12699999809E+01 0. -1.
       -4    1    3    3    0  502 -0.97617342529E+03  0.53958248520E+03  0.70827654969E+03  0.13212573929E+04  0.12699999809E+01 0.  1.
</event>
<event>
 5   0  0.8681172E-07  0.3239512E+04  0.7818609E-02  0.8178460E-01
        1   -1    0    0  501    0  0.00000000000E+00  0.00000000000E+00  0.20955885670E+04  0.20955885670E+04  0.50400001928E-02 0.  1.
       -1   -1    0    0    0  501  0.00000000000E+00  0.00000000000E+00 -0.12519675357E+04  0.12519675357E+04  0.50400001928E-02 0. -1.
    10030    2    1    2    0    0  0.00000000000E+00  0.00000000000E+00  0.84362103136E+03  0.33475561027E+04  0.32395116015E+04 0.  0.
        1    1    3    3  502    0 -0.10909926744E+03 -0.54889612005E+03  0.19925122458E+04  0.20696121981E+04  0.50400001928E-02 0.  1.
       -1    1    3    3    0  502  0.10909926744E+03  0.54889612005E+03 -0.11488912144E+04  0.12779439046E+04  0.50400001928E-02 0. -1.
</event>
<event>
 5   0  0.2337504E-06  0.3145284E+04  0.7818609E-02  0.8203419E-01
       -2   -1    0    0    0  501  0.00000000000E+00  0.00000000000E+00  0.10957925120E+04  0.10957925120E+04  0.25500000920E-02 0.  1.
        2   -1    0    0  501    0  0.00000000000E+00  0.00000000000E+00 -0.22569994848E+04  0.22569994848E+04  0.25500000920E-02 0. -1.
    10030    2    1    2    0    0  0.00000000000E+00  0.00000000000E+00 -0.11612069728E+04  0.33527919967E+04  0.31452841747E+04 0.  0.
        1    1    3    3  502    0 -0.59387302283E+03 -0.13861816140E+04 -0.10561504864E+04  0.18410970872E+04  0.50400001928E-02 0. -1.
       -1    1    3    3    0  502  0.59387302283E+03  0.13861816140E+04 -0.10505648639E+03  0.15116949096E+04  0.50400001928E-02 0.  1.
</event>
<event>
 5   0  0.8487944E-07  0.3255197E+04  0.7818609E-02  0.8174390E-01
       -1   -1    0    0    0  501  0.00000000000E+00  0.00000000000E+00  0.14655930583E+04  0.14655930583E+04  0.50400001928E-02 0. -1.
        1   -1    0    0  501    0  0.00000000000E+00  0.00000000000E+00 -0.18075122026E+04  0.18075122026E+04  0.50400001928E-02 0.  1.
    10030    2    1    2    0    0  0.00000000000E+00  0.00000000000E+00 -0.34191914436E+03  0.32731052609E+04  0.32551972824E+04 0.  0.
        2    1    3    3  502    0 -0.19434584561E+03  0.19603801165E+03 -0.17838025829E+04  0.18050354192E+04  0.25500000920E-02 0.  1.
       -2    1    3    3    0  502  0.19434584561E+03 -0.19603801165E+03  0.14418834386E+04  0.14680698417E+04  0.25500000920E-02 0. -1.
</event>
<event>
 5   0  0.8681172E-07  0.3177436E+04  0.7818609E-02  0.8194802E-01
       -1   -1    0    0    0  501  0.00000000000E+00  0.00000000000E+00  0.11429043368E+04  0.11429043368E+04  0.50400001928E-02 0. -1.
        1   -1    0    0  501    0  0.00000000000E+00  0.00000000000E+00 -0.22084309702E+04  0.22084309702E+04  0.50400001928E-02 0.  1.
    10030    2    1    2    0    0  0.00000000000E+00  0.00000000000E+00 -0.10655266334E+04  0.33513353070E+04  0.31774362832E+04 0.  0.
        1    1    3    3  502    0 -0.11300152006E+04  0.41218059532E+03 -0.16274474623E+04  0.20237125387E+04  0.50400001928E-02 0.  1.
       -1    1    3    3    0  502  0.11300152006E+04 -0.41218059532E+03  0.56192082895E+03  0.13276227683E+04  0.50400001928E-02 0. -1.
</event>
<event>
 5   0  0.8545153E-07  0.3219115E+04  0.7818609E-02  0.8183787E-01
        1   -1    0    0  501    0  0.00000000000E+00  0.00000000000E+00  0.23198618776E+04  0.23198618776E+04  0.50400001928E-02 0.  1.
       -1   -1    0    0    0  501  0.00000000000E+00  0.00000000000E+00 -0.11167369386E+04  0.11167369386E+04  0.50400001928E-02 0. -1.
    10030    2    1    2    0    0  0.00000000000E+00  0.00000000000E+00  0.12031249390E+04  0.34365988162E+04  0.32191150655E+04 0.  0.
        3    1    3    3  502    0  0.13823601255E+04 -0.35047598400E+03  0.13982531209E+04  0.19972142430E+04  0.10100000352E+00 0.  1.
       -3    1    3    3    0  502 -0.13823601255E+04  0.35047598400E+03 -0.19512818195E+03  0.14393845732E+04  0.10100000352E+00 0. -1.
</event>
<event>
 5   0  0.8681172E-07  0.3210780E+04  0.7818609E-02  0.8185976E-01
        1   -1    0    0  501    0  0.00000000000E+00  0.00000000000E+00  0.12853832489E+04  0.12853832489E+04  0.50400001928E-02 0. -1.
       -1   -1    0    0    0  501  0.00000000000E+00  0.00000000000E+00 -0.20050644666E+04  0.20050644666E+04  0.50400001928E-02 0.  1.
    10030    2    1    2    0    0  0.00000000000E+00  0.00000000000E+00 -0.71968121773E+03  0.32904477155E+04  0.32107795180E+04 0.  0.
        1    1    3    3  502    0  0.13879784933E+03 -0.14423995246E+04 -0.10679966199E+04  0.18001105554E+04  0.50400001928E-02 0.  1.
       -1    1    3    3    0  502 -0.13879784933E+03  0.14423995246E+04  0.34831540214E+03  0.14903371601E+04  0.50400001928E-02 0. -1.
</event>
<event>
 5   0  0.8681172E-07  0.3232282E+04  0.7818609E-02  0.8180343E-01
       -1   -1    0    0    0  501  0.00000000000E+00  0.00000000000E+00  0.17389625808E+04  0.17389625808E+04  0.50400001928E-02 0. -1.
        1   -1    0    0  501    0  0.00000000000E+00  0.00000000000E+00 -0.15019940659E+04  0.15019940659E+04  0.50400001928E-02 0.  1.
    10030    2    1    2    0    0  0.00000000000E+00  0.00000000000E+00  0.23696851490E+03  0.32409566466E+04  0.32322818423E+04 0.  0.
        1    1    3    3  502    0  0.10124876026E+04  0.12144213662E+04 -0.21701961165E+03  0.15959473399E+04  0.50400001928E-02 0.  1.
       -1    1    3    3    0  502 -0.10124876026E+04 -0.12144213662E+04  0.45398812655E+03  0.16450093067E+04  0.50400001928E-02 0. -1.
</event>
<event>
 5   0  0.8487944E-07  0.3207773E+04  0.7818609E-02  0.8186767E-01
       -1   -1    0    0    0  501  0.00000000000E+00  0.00000000000E+00  0.11140513345E+04  0.11140513345E+04  0.50400001928E-02 0. -1.
        1   -1    0    0  501    0  0.00000000000E+00  0.00000000000E+00 -0.23090964434E+04  0.23090964434E+04  0.50400001928E-02 0.  1.
    10030    2    1    2    0    0  0.00000000000E+00  0.00000000000E+00 -0.11950451089E+04  0.34231477779E+04  0.32077730432E+04 0.  0.
        2    1    3    3  502    0  0.14900203990E+04  0.59353750354E+03 -0.59527987149E+03  0.17107909525E+04  0.25500000920E-02 0.  1.
       -2    1    3    3    0  502 -0.14900203990E+04 -0.59353750354E+03 -0.59976523745E+03  0.17123568254E+04  0.25500000920E-02 0. -1.
</event>
<event>
 5   0  0.8681172E-07  0.3171948E+04  0.7818609E-02  0.8196265E-01
       -1   -1    0    0    0  501  0.00000000000E+00  0.00000000000E+00  0.12073739631E+04  0.12073739631E+04  0.50400001928E-02 0.  1.
        1   -1    0    0  501    0  0.00000000000E+00  0.00000000000E+00 -0.20832923408E+04  0.20832923409E+04  0.50400001928E-02 0. -1.
    10030    2    1    2    0    0  0.00000000000E+00  0.00000000000E+00 -0.87591837776E+03  0.32906663039E+04  0.31719476224E+04 0.  0.
        1    1    3    3  502    0 -0.92960205083E+03  0.29027984738E+03  0.86064610751E+03  0.12996669131E+04  0.50400001928E-02 0.  1.
       -1    1    3    3    0  502  0.92960205083E+03 -0.29027984738E+03 -0.17365644853E+04  0.19909993908E+04  0.50400001928E-02 0. -1.
</event>
<event>
 5   0  0.2621528E-06  0.3215781E+04  0.7818609E-02  0.8184662E-01
       -2   -1    0    0    0  501  0.00000000000E+00  0.00000000000E+00  0.10149186545E+04  0.10149186545E+04  0.25500000920E-02 0. -1.
        2   -1    0    0  501    0  0.00000000000E+00  0.00000000000E+00 -0.25473101617E+04  0.25473101617E+04  0.25500000920E-02 0.  1.
    10030    2    1    2    0    0  0.00000000000E+00  0.00000000000E+00 -0.15323915072E+04  0.35622288162E+04  0.32157814614E+04 0.  0.
        2    1    3    3  502    0 -0.14648936179E+04  0.17783880244E+03 -0.58829507729E+02  0.14768212019E+04  0.25500000920E-02 0. -1.
       -2    1    3    3    0  502  0.14648936179E+04 -0.17783880244E+03 -0.14735619995E+04  0.20854076143E+04  0.25500000920E-02 0.  1.
</event>
<event>
 5   0  0.8487944E-07  0.3183124E+04  0.7818609E-02  0.8193288E-01
        1   -1    0    0  501    0  0.00000000000E+00  0.00000000000E+00  0.25547988245E+04  0.25547988245E+04  0.50400001928E-02 0.  1.
       -1   -1    0    0    0  501  0.00000000000E+00  0.00000000000E+00 -0.99149487546E+03  0.99149487547E+03  0.50400001928E-02 0. -1.
    10030    2    1    2    0    0  0.00000000000E+00  0.00000000000E+00  0.15633039491E+04  0.35462937000E+04  0.31831242152E+04 0.  0.
        2    1    3    3  502    0 -0.14583685516E+04  0.24638277295E+02  0.14912019197E+04  0.20859360111E+04  0.25500000920E-02 0.  1.
       -2    1    3    3    0  502  0.14583685516E+04 -0.24638277295E+02  0.72102029386E+02  0.14603576889E+04  0.25500000920E-02 0. -1.
</event>
<event>
 5   0  0.8512855E-07  0.2764658E+04  0.7818609E-02  0.8314325E-01
        1   -1    0    0  501    0  0.00000000000E+00  0.00000000000E+00  0.17901549865E+04  0.17901549866E+04  0.50400001928E-02 0.  1.
       -1   -1    0    0    0  501  0.00000000000E+00  0.00000000000E+00 -0.10674126002E+04  0.10674126002E+04  0.50400001928E-02 0. -1.
    10030    2    1    2    0    0  0.00000000000E+00  0.00000000000E+00  0.72274238634E+03  0.28575675868E+04  0.27646583796E+04 0.  0.
        5    1    3    3  502    0  0.80133213065E+03 -0.22277142581E+03 -0.77984015664E+03  0.11401460659E+04  0.46999998093E+01 0. -1.
       -5    1    3    3    0  502 -0.80133213065E+03  0.22277142581E+03  0.15025825430E+04  0.17174215208E+04  0.46999998093E+01 0.  1.
</event>
<event>
 5   0  0.2337504E-06  0.3230332E+04  0.7818609E-02  0.8180852E-01
       -2   -1    0    0    0  501  0.00000000000E+00  0.00000000000E+00  0.17164555515E+04  0.17164555515E+04  0.25500000920E-02 0. -1.
        2   -1    0    0  501    0  0.00000000000E+00  0.00000000000E+00 -0.15198534015E+04  0.15198534015E+04  0.25500000920E-02 0.  1.
    10030    2    1    2    0    0  0.00000000000E+00  0.00000000000E+00  0.19660215004E+03  0.32363089530E+04  0.32303317529E+04 0.  0.
        1    1    3    3  502    0  0.11700110727E+04 -0.55678121170E+03 -0.86775987484E+03  0.15594673541E+04  0.50400001928E-02 0.  1.
       -1    1    3    3    0  502 -0.11700110727E+04  0.55678121170E+03  0.10643620249E+04  0.16768415990E+04  0.50400001928E-02 0. -1.
</event>
<event>
 5   0  0.2337504E-06  0.3191819E+04  0.7818609E-02  0.8190981E-01
       -2   -1    0    0    0  501  0.00000000000E+00  0.00000000000E+00  0.18629936548E+04  0.18629936548E+04  0.25500000920E-02 0. -1.
        2   -1    0    0  501    0  0.00000000000E+00  0.00000000000E+00 -0.13671154957E+04  0.13671154957E+04  0.25500000920E-02 0.  1.
    10030    2    1    2    0    0  0.00000000000E+00  0.00000000000E+00  0.49587815904E+03  0.32301091505E+04  0.31918192266E+04 0.  0.
        1    1    3    3  502    0  0.51127929870E+03  0.98372256890E+03 -0.91379159320E+03  0.14367086308E+04  0.50400001928E-02 0.  1.
       -1    1    3    3    0  502 -0.51127929870E+03 -0.98372256890E+03  0.14096697522E+04  0.17934005198E+04  0.50400001928E-02 0. -1.
</event>
<event>
 5   0  0.2621528E-06  0.2872932E+04  0.7818609E-02  0.8280977E-01
       -2   -1    0    0    0  501  0.00000000000E+00  0.00000000000E+00  0.11509667724E+04  0.11509667724E+04  0.25500000920E-02 0.  1.
        2   -1    0    0  501    0  0.00000000000E+00  0.00000000000E+00 -0.17927834098E+04  0.17927834098E+04  0.25500000920E-02 0. -1.
    10030    2    1    2    0    0  0.00000000000E+00  0.00000000000E+00 -0.64181663743E+03  0.29437501822E+04  0.28729316976E+04 0.  0.
        2    1    3    3  502    0  0.13305898960E+04 -0.43332833289E+03 -0.65323514099E+03  0.15443312679E+04  0.25500000920E-02 0. -1.
       -2    1    3    3    0  502 -0.13305898960E+04  0.43332833289E+03  0.11418503561E+02  0.13994189143E+04  0.25500000920E-02 0.  1.
</event>
<event>
 5   0  0.2401139E-06  0.3196029E+04  0.7818609E-02  0.8189867E-01
       -2   -1    0    0    0  501  0.00000000000E+00  0.00000000000E+00  0.23484311069E+04  0.23484311069E+04  0.25500000920E-02 0. -1.
        2   -1    0    0  501    0  0.00000000000E+00  0.00000000000E+00 -0.10873858161E+04  0.10873858161E+04  0.25500000920E-02 0.  1.
    10030    2    1    2    0    0  0.00000000000E+00  0.00000000000E+00  0.12610452908E+04  0.34358169230E+04  0.31960292087E+04 0.  0.
        5    1    3    3  502    0 -0.90370873343E+03  0.93472072134E+03  0.16293354884E+04  0.20845019850E+04  0.46999998093E+01 0. -1.
       -5    1    3    3    0  502  0.90370873343E+03 -0.93472072134E+03 -0.36829019767E+03  0.13513149379E+04  0.46999998093E+01 0.  1.
</event>
<event>
 5   0  0.8383008E-07  0.3186951E+04  0.7818609E-02  0.8192272E-01
        1   -1    0    0  501    0  0.00000000000E+00  0.00000000000E+00  0.14748697141E+04  0.14748697141E+04  0.50400001928E-02 0.  1.
       -1   -1    0    0    0  501  0.00000000000E+00  0.00000000000E+00 -0.17216188410E+04  0.17216188410E+04  0.50400001928E-02 0. -1.
    10030    2    1    2    0    0  0.00000000000E+00  0.00000000000E+00 -0.24674912692E+03  0.31964885552E+04  0.31869505725E+04 0.  0.
        4    1    3    3  502    0 -0.59132239425E+03  0.74969836402E+03  0.11561597256E+04  0.14994721521E+04  0.12699999809E+01 0.  1.
       -4    1    3    3    0  502  0.59132239425E+03 -0.74969836402E+03 -0.14029088525E+04  0.16970164031E+04  0.12699999809E+01 0. -1.
</event>
<event>
 5   0  0.2337504E-06  0.3193339E+04  0.7818609E-02  0.8190578E-01
        2   -1    0    0  501    0  0.00000000000E+00  0.00000000000E+00  0.19893982411E+04  0.19893982411E+04  0.25500000920E-02 0.  1.
       -2   -1    0    0    0  501  0.00000000000E+00  0.00000000000E+00 -0.12814699712E+04  0.12814699712E+04  0.25500000920E-02 0. -1.
    10030    2    1    2    0    0  0.00000000000E+00  0.00000000000E+00  0.70792826987E+03  0.32708682123E+04  0.31933393849E+04 0.  0.
        1    1    3    3  502    0 -0.13324898295E+04  0.10381184143E+03 -0.54076981334E+03  0.14417829362E+04  0.50400001928E-02 0.  1.
       -1    1    3    3    0  502  0.13324898295E+04 -0.10381184143E+03  0.12486980832E+04  0.18290852761E+04  0.50400001928E-02 0. -1.
</event>
<event>
 5   0  0.8681172E-07  0.3212923E+04  0.7818609E-02  0.8185412E-01
       -1   -1    0    0    0  501  0.00000000000E+00  0.00000000000E+00  0.12025641078E+04  0.12025641078E+04  0.50400001928E-02 0. -1.
        1   -1    0    0  501    0  0.00000000000E+00  0.00000000000E+00 -0.21460137007E+04  0.21460137007E+04  0.50400001928E-02 0.  1.
    10030    2    1    2    0    0  0.00000000000E+00  0.00000000000E+00 -0.94344959291E+03  0.33485778084E+04  0.32129233114E+04 0.  0.
        1    1    3    3  502    0  0.44346794235E+03  0.10410989338E+04  0.71666745808E+03  0.13394637179E+04  0.50400001928E-02 0. -1.
       -1    1    3    3    0  502 -0.44346794235E+03 -0.10410989338E+04 -0.16601170510E+04  0.20091140906E+04  0.50400001928E-02 0.  1.
</event>
<event>
 5   0  0.8487944E-07  0.3212735E+04  0.7818609E-02  0.8185462E-01
       -1   -1    0    0    0  501  0.00000000000E+00  0.00000000000E+00  0.12959653503E+04  0.12959653503E+04  0.50400001928E-02 0.  1.
        1   -1    0    0  501    0  0.00000000000E+00  0.00000000000E+00 -0.19911153750E+04  0.19911153750E+04  0.50400001928E-02 0. -1.
    10030    2    1    2    0    0  0.00000000000E+00  0.00000000000E+00 -0.69515002463E+03  0.32870807253E+04  0.32127349934E+04 0.  0.
        2    1    3    3  502    0 -0.57442008071E+03 -0.85344681607E+03  0.91470339364E+03  0.13765944193E+04  0.25500000920E-02 0.  1.
       -2    1    3    3    0  502  0.57442008071E+03  0.85344681607E+03 -0.16098534183E+04  0.19104863060E+04  0.25500000920E-02 0. -1.
</event>
<event>
 5   0  0.8681172E-07  0.3209988E+04  0.7818609E-02  0.8186184E-01
        1   -1    0    0  501    0  0.00000000000E+00  0.00000000000E+00  0.17998149826E+04  0.17998149826E+04  0.50400001928E-02 0.  1.
       -1   -1    0    0    0  501  0.00000000000E+00  0.00000000000E+00 -0.14312616120E+04  0.14312616120E+04  0.50400001928E-02 0. -1.
    10030    2    1    2    0    0  0.00000000000E+00  0.00000000000E+00  0.36855337055E+03  0.32310765946E+04  0.32099882201E+04 0.  0.
        1    1    3    3  502    0 -0.11584374771E+04  0.65945911999E+03  0.10840972086E+04  0.17181764976E+04  0.50400001928E-02 0.  1.
       -1    1    3    3    0  502  0.11584374771E+04 -0.65945911999E+03 -0.71554383807E+03  0.15129000970E+04  0.50400001928E-02 0. -1.
</event>
<event>
 5   0  0.8512855E-07  0.3202941E+04  0.7818609E-02  0.8188041E-01
        1   -1    0    0  501    0  0.00000000000E+00  0.00000000000E+00  0.17888668403E+04  0.17888668403E+04  0.50400001928E-02 0.  1.
       -1   -1    0    0    0  501  0.00000000000E+00  0.00000000000E+00 -0.14337050325E+04  0.14337050325E+04  0.50400001928E-02 0. -1.
    10030    2    1    2    0    0  0.00000000000E+00  0.00000000000E+00  0.35516180775E+03  0.32225718728E+04  0.32029407684E+04 0.  0.
        5    1    3    3  502    0  0.81152334435E+03 -0.13380160009E+04  0.52000248586E+03  0.16490244487E+04  0.46999998093E+01 0.  1.
       -5    1    3    3    0  502 -0.81152334435E+03  0.13380160009E+04 -0.16484067811E+03  0.15735474242E+04  0.46999998093E+01 0. -1.
</event>
<event>
 5   0  0.8487944E-07  0.3184860E+04  0.7818609E-02  0.8192827E-01
       -1   -1    0    0    0  501  0.00000000000E+00  0.00000000000E+00  0.10905925398E+04  0.10905925398E+04  0.50400001928E-02 0.  1.
        1   -1    0    0  501    0  0.00000000000E+00  0.00000000000E+00 -0.23251890919E+04  0.23251890919E+04  0.50400001928E-02 0. -1.
    10030    2    1    2    0    0  0.00000000000E+00  0.00000000000E+00 -0.12345965521E+04  0.34157816317E+04  0.31848603594E+04 0.  0.
        2    1    3    3  502    0  0.50147246136E+03 -0.14237553583E+04 -0.11613029808E+04  0.19045153092E+04  0.25500000920E-02 0. -1.
       -2    1    3    3    0  502 -0.50147246136E+03  0.14237553583E+04 -0.73293571278E+02  0.15112663225E+04  0.25500000920E-02 0.  1.
</event>
<event>
 5   0  0.2337504E-06  0.3275523E+04  0.7818609E-02  0.8169152E-01
       -2   -1    0    0    0  501  0.00000000000E+00  0.00000000000E+00  0.82786832059E+03  0.82786832059E+03  0.25500000920E-02 0. -1.
        2   -1    0    0  501    0  0.00000000000E+00  0.00000000000E+00 -0.32399638997E+04  0.32399638997E+04  0.25500000920E-02 0.  1.
    10030    2    1    2    0    0  0.00000000000E+00  0.00000000000E+00 -0.24120955791E+04  0.40678322203E+04  0.32755234528E+04 0.  0.
        1    1    3    3  502    0  0.35656168854E+03  0.40271098397E+03  0.71504892984E+03  0.89476664357E+03  0.50400001928E-02 0. -1.
       -1    1    3    3    0  502 -0.35656168854E+03 -0.40271098397E+03 -0.31271445090E+04  0.31730655768E+04  0.50400001928E-02 0.  1.
</event>
<event>
 5   0  0.2466076E-06  0.2801860E+04  0.7818609E-02  0.8302691E-01
        2   -1    0    0  501    0  0.00000000000E+00  0.00000000000E+00  0.90024825829E+03  0.90024825829E+03  0.25500000920E-02 0. -1.
       -2   -1    0    0    0  501  0.00000000000E+00  0.00000000000E+00 -0.21800701569E+04  0.21800701569E+04  0.25500000920E-02 0.  1.
    10030    2    1    2    0    0  0.00000000000E+00  0.00000000000E+00 -0.12798218986E+04  0.30803184152E+04  0.28018596408E+04 0.  0.
        3    1    3    3  502    0 -0.40491332803E+03  0.77159790933E+03  0.56605128391E+03  0.10391016327E+04  0.10100000352E+00 0. -1.
       -3    1    3    3    0  502  0.40491332803E+03 -0.77159790933E+03 -0.18458731825E+04  0.20412167824E+04  0.10100000352E+00 0.  1.
</event>
<event>
 5   0  0.8681172E-07  0.3263959E+04  0.7818609E-02  0.8172127E-01
        1   -1    0    0  501    0  0.00000000000E+00  0.00000000000E+00  0.14220018043E+04  0.14220018044E+04  0.50400001928E-02 0.  1.
       -1   -1    0    0    0  501  0.00000000000E+00  0.00000000000E+00 -0.18729636960E+04  0.18729636960E+04  0.50400001928E-02 0. -1.
    10030    2    1    2    0    0  0.00000000000E+00  0.00000000000E+00 -0.45096189161E+03  0.32949655003E+04  0.32639594085E+04 0.  0.
        1    1    3    3  502    0  0.14533972242E+04 -0.64868269124E+03  0.13878620027E+03  0.15976277210E+04  0.50400001928E-02 0.  1.
       -1    1    3    3    0  502 -0.14533972242E+04  0.64868269124E+03 -0.58974809188E+03  0.16973377794E+04  0.50400001928E-02 0. -1.
</event>
<event>
 5   0  0.8487944E-07  0.3180333E+04  0.7818609E-02  0.8194031E-01
        1   -1    0    0  501    0  0.00000000000E+00  0.00000000000E+00  0.12371537709E+04  0.12371537709E+04  0.50400001928E-02 0. -1.
       -1   -1    0    0    0  501  0.00000000000E+00  0.00000000000E+00 -0.20439090385E+04  0.20439090385E+04  0.50400001928E-02 0.  1.
    10030    2    1    2    0    0  0.00000000000E+00  0.00000000000E+00 -0.80675526768E+03  0.32810628094E+04  0.31803331740E+04 0.  0.
        2    1    3    3  502    0 -0.32843003935E+03  0.13107461013E+03  0.11960753569E+04  0.12472542257E+04  0.25500000920E-02 0. -1.
       -2    1    3    3    0  502  0.32843003935E+03 -0.13107461013E+03 -0.20028306246E+04  0.20338085837E+04  0.25500000920E-02 0.  1.
</event>
<event>
 5   0  0.8681172E-07  0.3041972E+04  0.7818609E-02  0.8231846E-01
        1   -1    0    0  501    0  0.00000000000E+00  0.00000000000E+00  0.22899421087E+04  0.22899421087E+04  0.50400001928E-02 0. -1.
       -1   -1    0    0    0  501  0.00000000000E+00  0.00000000000E+00 -0.10102428781E+04  0.10102428781E+04  0.50400001928E-02 0.  1.
    10030    2    1    2    0    0  0.00000000000E+00  0.00000000000E+00  0.12796992306E+04  0.33001849868E+04  0.30419715361E+04 0.  0.
        1    1    3    3  502    0 -0.55602551513E+03  0.41049285202E+02 -0.89538458638E+03  0.10547810080E+04  0.50400001928E-02 0.  1.
       -1    1    3    3    0  502  0.55602551513E+03 -0.41049285202E+02  0.21750838169E+04  0.22454039788E+04  0.50400001928E-02 0. -1.
</event>
<event>
 5   0  0.8383008E-07  0.3163623E+04  0.7818609E-02  0.8198491E-01
        1   -1    0    0  501    0  0.00000000000E+00  0.00000000000E+00  0.21549711232E+04  0.21549711232E+04  0.50400001928E-02 0.  1.
       -1   -1    0    0    0  501  0.00000000000E+00  0.00000000000E+00 -0.11610958981E+04  0.11610958981E+04  0.50400001928E-02 0. -1.
    10030    2    1    2    0    0  0.00000000000E+00  0.00000000000E+00  0.99387522514E+03  0.33160670213E+04  0.31636233225E+04 0.  0.
        4    1    3    3  502    0  0.41279348022E+03  0.15118349543E+03 -0.10957786813E+04  0.11806724516E+04  0.12699999809E+01 0. -1.
       -4    1    3    3    0  502 -0.41279348022E+03 -0.15118349543E+03  0.20896539065E+04  0.21353945697E+04  0.12699999809E+01 0.  1.
</event>
<event>
 5   0  0.8545153E-07  0.3222024E+04  0.7818609E-02  0.8183025E-01
        1   -1    0    0  501    0  0.00000000000E+00  0.00000000000E+00  0.21029989271E+04  0.21029989271E+04  0.50400001928E-02 0. -1.
       -1   -1    0    0    0  501  0.00000000000E+00  0.00000000000E+00 -0.12341231719E+04  0.12341231719E+04  0.50400001928E-02 0.  1.
    10030    2    1    2    0    0  0.00000000000E+00  0.00000000000E+00  0.86887575517E+03  0.33371220991E+04  0.32220240263E+04 0.  0.
        3    1    3    3  502    0  0.79256741655E+03  0.13955951211E+03 -0.10110237069E+04  0.12922108626E+04  0.10100000352E+00 0.  1.
       -3    1    3    3    0  502 -0.79256741655E+03 -0.13955951211E+03  0.18798994621E+04  0.20449112365E+04  0.10100000352E+00 0. -1.
</event>
<event>
 5   0  0.2337504E-06  0.3277058E+04  0.7818609E-02  0.8168758E-01
       -2   -1    0    0    0  501  0.00000000000E+00  0.00000000000E+00  0.10480371679E+04  0.10480371679E+04  0.25500000920E-02 0.  1.
        2   -1    0    0  501    0  0.00000000000E+00  0.00000000000E+00 -0.25617189657E+04  0.25617189657E+04  0.25500000920E-02 0. -1.
    10030    2    1    2    0    0  0.00000000000E+00  0.00000000000E+00 -0.15136817978E+04  0.36097561336E+04  0.32770576374E+04 0.  0.
        1    1    3    3  502    0  0.12462874124E+04  0.60202271003E+03  0.20918521866E+03  0.13997935967E+04  0.50400001928E-02 0.  1.
       -1    1    3    3    0  502 -0.12462874124E+04 -0.60202271003E+03 -0.17228670164E+04  0.22099625368E+04  0.50400001928E-02 0. -1.
</event>
<event>
 5   0  0.8512855E-07  0.3261482E+04  0.7818609E-02  0.8172766E-01
       -1   -1    0    0    0  501  0.00000000000E+00  0.00000000000E+00  0.11979300786E+04  0.11979300787E+04  0.50400001928E-02 0. -1.
        1   -1    0    0  501    0  0.00000000000E+00  0.00000000000E+00 -0.22199260703E+04  0.22199260703E+04  0.50400001928E-02 0.  1.
    10030    2    1    2    0    0  0.00000000000E+00  0.00000000000E+00 -0.10219959916E+04  0.34178561489E+04  0.32614820018E+04 0.  0.
        5    1    3    3  502    0  0.33628629220E+03  0.12073509723E+01  0.11611911822E+04  0.12089156214E+04  0.46999998093E+01 0. -1.
       -5    1    3    3    0  502 -0.33628629220E+03 -0.12073509723E+01 -0.21831871739E+04  0.22089405275E+04  0.46999998093E+01 0.  1.
</event>
<event>
 5   0  0.2621528E-06  0.3195118E+04  0.7818609E-02  0.8190108E-01
       -2   -1    0    0    0  501  0.00000000000E+00  0.00000000000E+00  0.79118799183E+03  0.79118799184E+03  0.25500000920E-02 0.  1.
        2   -1    0    0  501    0  0.00000000000E+00  0.00000000000E+00 -0.32257758355E+04  0.32257758355E+04  0.25500000920E-02 0. -1.
    10030    2    1    2    0    0  0.00000000000E+00  0.00000000000E+00 -0.24345878436E+04  0.40169638273E+04  0.31951182171E+04 0.  0.
        2    1    3    3  502    0  0.12170827523E+04 -0.55837711462E+03 -0.12191062541E+03  0.13445957120E+04  0.25500000920E-02 0.  1.
       -2    1    3    3    0  502 -0.12170827523E+04  0.55837711462E+03 -0.23126772182E+04  0.26723681153E+04  0.25500000920E-02 0. -1.
</event>
<event>
 5   0  0.8383008E-07  0.3163090E+04  0.7818609E-02  0.8198633E-01
       -1   -1    0    0    0  501  0.00000000000E+00  0.00000000000E+00  0.15184440033E+04  0.15184440033E+04  0.50400001928E-02 0. -1.
        1   -1    0    0  501    0  0.00000000000E+00  0.00000000000E+00 -0.16472687376E+04  0.16472687376E+04  0.50400001928E-02 0.  1.
    10030    2    1    2    0    0  0.00000000000E+00  0.00000000000E+00 -0.12882473431E+03  0.31657127409E+04  0.31630904739E+04 0.  0.
        4    1    3    3  502    0 -0.34322638663E+03 -0.80070801864E+03  0.12566614835E+04  0.15290969167E+04  0.12699999809E+01 0. -1.
       -4    1    3    3    0  502  0.34322638663E+03  0.80070801864E+03 -0.13854862178E+04  0.16366158242E+04  0.12699999809E+01 0.  1.
</event>
<event>
 5   0  0.2466076E-06  0.3177753E+04  0.7818609E-02  0.8194717E-01
       -2   -1    0    0    0  501  0.00000000000E+00  0.00000000000E+00  0.11217896270E+04  0.11217896270E+04  0.25500000920E-02 0.  1.
        2   -1    0    0  501    0  0.00000000000E+00  0.00000000000E+00 -0.22504477568E+04  0.22504477569E+04  0.25500000920E-02 0. -1.
    10030    2    1    2    0    0  0.00000000000E+00  0.00000000000E+00 -0.11286581298E+04  0.33722373839E+04  0.31777532628E+04 0.  0.
        3    1    3    3  502    0  0.59664568880E+03  0.11660954091E+04 -0.15186818984E+04  0.20055321737E+04  0.10100000352E+00 0. -1.
       -3    1    3    3    0  502 -0.59664568880E+03 -0.11660954091E+04  0.39002376856E+03  0.13667052101E+04  0.10100000352E+00 0.  1.
</event>
<event>
 5   0  0.8681172E-07  0.3221377E+04  0.7818609E-02  0.8183194E-01
        1   -1    0    0  501    0  0.00000000000E+00  0.00000000000E+00  0.19189121849E+04  0.19189121849E+04  0.50400001928E-02 0.  1.
       -1   -1    0    0    0  501  0.00000000000E+00  0.00000000000E+00 -0.13519727226E+04  0.13519727227E+04  0.50400001928E-02 0. -1.
    10030    2    1    2    0    0  0.00000000000E+00  0.00000000000E+00  0.56693946223E+03  0.32708849075E+04  0.32213766816E+04 0.  0.
        1    1    3    3  502    0  0.58119618551E+03 -0.51520947182E+03  0.17162146743E+04  0.18837788125E+04  0.50400001928E-02 0.  1.
       -1    1    3    3    0  502 -0.58119618551E+03  0.51520947182E+03 -0.11492752121E+04  0.13871060951E+04  0.50400001928E-02 0. -1.
</event>
<event>
 5   0  0.2466076E-06  0.3201388E+04  0.7818609E-02  0.8188451E-01
       -2   -1    0    0    0  501  0.00000000000E+00  0.00000000000E+00  0.11652153130E+04  0.11652153130E+04  0.25500000920E-02 0. -1.
        2   -1    0    0  501    0  0.00000000000E+00  0.00000000000E+00 -0.21989252320E+04  0.21989252320E+04  0.25500000920E-02 0.  1.
    10030    2    1    2    0    0  0.00000000000E+00  0.00000000000E+00 -0.10337099190E+04  0.33641405450E+04  0.32013880442E+04 0.  0.
        3    1    3    3  502    0  0.37451865508E+03 -0.86233825005E+03  0.84450970344E+03  0.12637595222E+04  0.10100000352E+00 0. -1.
       -3    1    3    3    0  502 -0.37451865508E+03  0.86233825005E+03 -0.18782196224E+04  0.21003810228E+04  0.10100000352E+00 0.  1.
</event>
<event>
 5   0  0.8545153E-07  0.3189758E+04  0.7818609E-02  0.8191527E-01
        1   -1    0    0  501    0  0.00000000000E+00  0.00000000000E+00  0.19435819694E+04  0.19435819694E+04  0.50400001928E-02 0.  1.
       -1   -1    0    0    0  501  0.00000000000E+00  0.00000000000E+00 -0.13087379100E+04  0.13087379100E+04  0.50400001928E-02 0. -1.
    10030    2    1    2    0    0  0.00000000000E+00  0.00000000000E+00  0.63484405937E+03  0.32523198794E+04  0.31897582382E+04 0.  0.
        3    1    3    3  502    0  0.21398075478E+03  0.10436785541E+04 -0.89269473805E+03  0.13899484139E+04  0.10100000352E+00 0. -1.
       -3    1    3    3    0  502 -0.21398075478E+03 -0.10436785541E+04  0.15275387974E+04  0.18623714655E+04  0.10100000352E+00 0.  1.
</event>
<event>
 5   0  0.8512855E-07  0.3226385E+04  0.7818609E-02  0.8181884E-01
       -1   -1    0    0    0  501  0.00000000000E+00  0.00000000000E+00  0.13638655066E+04  0.13638655067E+04  0.50400001928E-02 0. -1.
        1   -1    0    0  501    0  0.00000000000E+00  0.00000000000E+00 -0.19080986461E+04  0.19080986461E+04  0.50400001928E-02 0.  1.
    10030    2    1    2    0    0  0.00000000000E+00  0.00000000000E+00 -0.54423313949E+03  0.32719641528E+04  0.32263849285E+04 0.  0.
        5    1    3    3  502    0  0.76856149593E+03  0.63624638694E+03  0.10134155851E+04  0.14221566285E+04  0.46999998093E+01 0. -1.
       -5    1    3    3    0  502 -0.76856149593E+03 -0.63624638694E+03 -0.15576487245E+04  0.18498075243E+04  0.46999998093E+01 0.  1.
</event>
<event>
 5   0  0.8545153E-07  0.3200240E+04  0.7818609E-02  0.8188754E-01
       -1   -1    0    0    0  501  0.00000000000E+00  0.00000000000E+00  0.22196210495E+04  0.22196210495E+04  0.50400001928E-02 0. -1.
        1   -1    0    0  501    0  0.00000000000E+00  0.00000000000E+00 -0.11535233623E+04  0.11535233623E+04  0.50400001928E-02 0.  1.
    10030    2    1    2    0    0  0.00000000000E+00  0.00000000000E+00  0.10660976871E+04  0.33731444118E+04  0.32002404510E+04 0.  0.
        3    1    3    3  502    0 -0.97644236155E+03  0.81649940314E+03 -0.48901843302E+03  0.13635431782E+04  0.10100000352E+00 0.  1.
       -3    1    3    3    0  502  0.97644236155E+03 -0.81649940314E+03  0.15551161202E+04  0.20096012336E+04  0.10100000352E+00 0. -1.
</event>
<event>
 5   0  0.2401139E-06  0.3202683E+04  0.7818609E-02  0.8188109E-01
        2   -1    0    0  501    0  0.00000000000E+00  0.00000000000E+00  0.21136212422E+04  0.21136212422E+04  0.25500000920E-02 0. -1.
       -2   -1    0    0    0  501  0.00000000000E+00  0.00000000000E+00 -0.12132233550E+04  0.12132233550E+04  0.25500000920E-02 0.  1.
    10030    2    1    2    0    0  0.00000000000E+00  0.00000000000E+00  0.90039788716E+03  0.33268445972E+04  0.32026830344E+04 0.  0.
        5    1    3    3  502    0  0.72505331459E+02 -0.92251262886E+03  0.18077641778E+04  0.20308421864E+04  0.46999998093E+01 0. -1.
       -5    1    3    3    0  502 -0.72505331459E+02  0.92251262886E+03 -0.90736629063E+03  0.12960024108E+04  0.46999998093E+01 0.  1.
</event>
<event>
 5   0  0.2337504E-06  0.3186465E+04  0.7818609E-02  0.8192401E-01
       -2   -1    0    0    0  501  0.00000000000E+00  0.00000000000E+00  0.12347788363E+04  0.12347788363E+04  0.25500000920E-02 0.  1.
        2   -1    0    0  501    0  0.00000000000E+00  0.00000000000E+00 -0.20557442062E+04  0.20557442062E+04  0.25500000920E-02 0. -1.
    10030    2    1    2    0    0  0.00000000000E+00  0.00000000000E+00 -0.82096536990E+03  0.32905230426E+04  0.31864647739E+04 0.  0.
        1    1    3    3  502    0  0.51435724762E+03 -0.10066523008E+04  0.74889066407E+03  0.13560049630E+04  0.50400001928E-02 0. -1.
       -1    1    3    3    0  502 -0.51435724762E+03  0.10066523008E+04 -0.15698560340E+04  0.19345180796E+04  0.50400001928E-02 0.  1.
</event>
<event>
 5   0  0.2337504E-06  0.3211102E+04  0.7818609E-02  0.8185891E-01
        2   -1    0    0  501    0  0.00000000000E+00  0.00000000000E+00  0.15452919784E+04  0.15452919784E+04  0.25500000920E-02 0.  1.
       -2   -1    0    0    0  501  0.00000000000E+00  0.00000000000E+00 -0.16681602926E+04  0.16681602926E+04  0.25500000920E-02 0. -1.
    10030    2    1    2    0    0  0.00000000000E+00  0.00000000000E+00 -0.12286831420E+03  0.32134522711E+04  0.32111024393E+04 0.  0.
        1    1    3    3  502    0 -0.39051049069E+02 -0.68123857416E+03 -0.15158330684E+04  0.16623359680E+04  0.50400001928E-02 0. -1.
       -1    1    3    3    0  502  0.39051049069E+02  0.68123857416E+03  0.13929647542E+04  0.15511163031E+04  0.50400001928E-02 0.  1.
</event>
<event>
 5   0  0.8487944E-07  0.3069585E+04  0.7818609E-02  0.8224135E-01
        1   -1    0    0  501    0  0.00000000000E+00  0.00000000000E+00  0.11704268204E+04  0.11704268204E+04  0.50400001928E-02 0. -1.
       -1   -1    0    0    0  501  0.00000000000E+00  0.00000000000E+00 -0.20125892321E+04  0.20125892321E+04  0.50400001928E-02 0.  1.
    10030    2    1    2    0    0  0.00000000000E+00  0.00000000000E+00 -0.84216241169E+03  0.31830160525E+04  0.30695852590E+04 0.  0.
        2    1    3    3  502    0  0.14800127182E+04  0.23698145396E+02 -0.39356581600E+00  0.14802024872E+04  0.25500000920E-02 0.  1.
       -2    1    3    3    0  502 -0.14800127182E+04 -0.23698145396E+02 -0.84176884588E+03  0.17028135653E+04  0.25500000920E-02 0. -1.
</event>
<event>
 5   0  0.8487944E-07  0.3198178E+04  0.7818609E-02  0.8189299E-01
       -1   -1    0    0    0  501  0.00000000000E+00  0.00000000000E+00  0.15225764043E+04  0.15225764043E+04  0.50400001928E-02 0. -1.
        1   -1    0    0  501    0  0.00000000000E+00  0.00000000000E+00 -0.16794464321E+04  0.16794464322E+04  0.50400001928E-02 0.  1.
    10030    2    1    2    0    0  0.00000000000E+00  0.00000000000E+00 -0.15687002787E+03  0.32020228364E+04  0.31981779249E+04 0.  0.
        2    1    3    3  502    0  0.69397423341E+03 -0.59381685102E+03  0.12357232104E+04  0.15366296047E+04  0.25500000920E-02 0. -1.
       -2    1    3    3    0  502 -0.69397423341E+03  0.59381685102E+03 -0.13925932383E+04  0.16653932318E+04  0.25500000920E-02 0.  1.
</event>
<event>
 5   0  0.2621528E-06  0.3195134E+04  0.7818609E-02  0.8190104E-01
        2   -1    0    0  501    0  0.00000000000E+00  0.00000000000E+00  0.23594926769E+04  0.23594926769E+04  0.25500000920E-02 0.  1.
       -2   -1    0    0    0  501  0.00000000000E+00  0.00000000000E+00 -0.10816816632E+04  0.10816816632E+04  0.25500000920E-02 0. -1.
    10030    2    1    2    0    0  0.00000000000E+00  0.00000000000E+00  0.12778110136E+04  0.34411743401E+04  0.31951337769E+04 0.  0.
        2    1    3    3  502    0 -0.19370327929E+03 -0.15585612685E+04  0.95398375616E+03  0.18375851531E+04  0.25500000920E-02 0.  1.
       -2    1    3    3    0  502  0.19370327929E+03  0.15585612685E+04  0.32382725747E+03  0.16035891870E+04  0.25500000920E-02 0. -1.
</event>
<event>
 5   0  0.8512855E-07  0.3186039E+04  0.7818609E-02  0.8192514E-01
       -1   -1    0    0    0  501  0.00000000000E+00  0.00000000000E+00  0.14888413028E+04  0.14888413028E+04  0.50400001928E-02 0.  1.
        1   -1    0    0  501    0  0.00000000000E+00  0.00000000000E+00 -0.17044875160E+04  0.17044875160E+04  0.50400001928E-02 0. -1.
    10030    2    1    2    0    0  0.00000000000E+00  0.00000000000E+00 -0.21564621320E+03  0.31933288188E+04  0.31860391799E+04 0.  0.
        5    1    3    3  502    0 -0.12996223825E+04  0.39552828632E+03 -0.94172934486E+03  0.16529782852E+04  0.46999998093E+01 0.  1.
       -5    1    3    3    0  502  0.12996223825E+04 -0.39552828632E+03  0.72608313166E+03  0.15403505336E+04  0.46999998093E+01 0. -1.
</event>
<event>
 5   0  0.8383008E-07  0.3182642E+04  0.7818609E-02  0.8193417E-01
       -1   -1    0    0    0  501  0.00000000000E+00  0.00000000000E+00  0.28938169405E+04  0.28938169405E+04  0.50400001928E-02 0. -1.
        1   -1    0    0  501    0  0.00000000000E+00  0.00000000000E+00 -0.87507324959E+03  0.87507324961E+03  0.50400001928E-02 0.  1.
    10030    2    1    2    0    0  0.00000000000E+00  0.00000000000E+00  0.20187436909E+04  0.37688901901E+04  0.31826415406E+04 0.  0.
        4    1    3    3  502    0  0.14472171487E+04  0.34352250063E+03  0.16791058148E+04  0.22431770180E+04  0.12699999809E+01 0. -1.
       -4    1    3    3    0  502 -0.14472171487E+04 -0.34352250063E+03  0.33963787618E+03  0.15257131722E+04  0.12699999809E+01 0.  1.
</event>
<event>
 5   0  0.8545153E-07  0.3188810E+04  0.7818609E-02  0.8191779E-01
       -1   -1    0    0    0  501  0.00000000000E+00  0.00000000000E+00  0.20661499713E+04  0.20661499713E+04  0.50400001928E-02 0. -1.
        1   -1    0    0  501    0  0.00000000000E+00  0.00000000000E+00 -0.12303693076E+04  0.12303693076E+04  0.50400001928E-02 0.  1.
    10030    2    1    2    0    0  0.00000000000E+00  0.00000000000E+00  0.83578066367E+03  0.32965192789E+04  0.31888101289E+04 0.  0.
        3    1    3    3  502    0  0.49598817278E+03 -0.54498036054E+02 -0.11475751416E+04  0.12513604674E+04  0.10100000352E+00 0.  1.
       -3    1    3    3    0  502 -0.49598817278E+03  0.54498036054E+02  0.19833558053E+04  0.20451588115E+04  0.10100000352E+00 0. -1.
</event>
<event>
 5   0  0.8512855E-07  0.3211298E+04  0.7818609E-02  0.8185840E-01
        1   -1    0    0  501    0  0.00000000000E+00  0.00000000000E+00  0.30862581133E+04  0.30862581133E+04  0.50400001928E-02 0. -1.
       -1   -1    0    0    0  501  0.00000000000E+00  0.00000000000E+00 -0.83535074854E+03  0.83535074856E+03  0.50400001928E-02 0.  1.
    10030    2    1    2    0    0  0.00000000000E+00  0.00000000000E+00  0.22509073647E+04  0.39216088619E+04  0.32112975727E+04 0.  0.
        5    1    3    3  502    0 -0.77708060273E+03  0.12937541175E+04  0.45609825898E+03  0.15766108244E+04  0.46999998093E+01 0. -1.
       -5    1    3    3    0  502  0.77708060273E+03 -0.12937541175E+04  0.17948091058E+04  0.23449980375E+04  0.46999998093E+01 0.  1.
</event>
<event>
 5   0  0.2621528E-06  0.3233660E+04  0.7818609E-02  0.8179984E-01
        2   -1    0    0  501    0  0.00000000000E+00  0.00000000000E+00  0.21491750205E+04  0.21491750205E+04  0.25500000920E-02 0.  1.
       -2   -1    0    0    0  501  0.00000000000E+00  0.00000000000E+00 -0.12163453196E+04  0.12163453196E+04  0.25500000920E-02 0. -1.
    10030    2    1    2    0    0  0.00000000000E+00  0.00000000000E+00  0.93282970095E+03  0.33655203401E+04  0.32336598320E+04 0.  0.
        2    1    3    3  502    0 -0.15943276062E+04  0.20034461477E+03  0.27988471163E+03  0.16310591443E+04  0.25500000920E-02 0. -1.
       -2    1    3    3    0  502  0.15943276062E+04 -0.20034461477E+03  0.65294498931E+03  0.17344611958E+04  0.25500000920E-02 0.  1.
</event>
<event>
 5   0  0.2621528E-06  0.3207992E+04  0.7818609E-02  0.8186710E-01
        2   -1    0    0  501    0  0.00000000000E+00  0.00000000000E+00  0.20516752451E+04  0.20516752451E+04  0.25500000920E-02 0. -1.
       -2   -1    0    0    0  501  0.00000000000E+00  0.00000000000E+00 -0.12540012409E+04  0.12540012409E+04  0.25500000920E-02 0.  1.
    10030    2    1    2    0    0  0.00000000000E+00  0.00000000000E+00  0.79767400414E+03  0.33056764860E+04  0.32079920844E+04 0.  0.
        2    1    3    3  502    0 -0.11272660706E+04  0.78594730096E+03  0.12512887343E+04  0.18585385254E+04  0.25500000920E-02 0. -1.
       -2    1    3    3    0  502  0.11272660706E+04 -0.78594730096E+03 -0.45361473011E+03  0.14471379607E+04  0.25500000920E-02 0.  1.
</event>
<event>
 5   0  0.8383008E-07  0.3201062E+04  0.7818609E-02  0.8188537E-01
        1   -1    0    0  501    0  0.00000000000E+00  0.00000000000E+00  0.17984534907E+04  0.17984534907E+04  0.50400001928E-02 0. -1.
       -1   -1    0    0    0  501  0.00000000000E+00  0.00000000000E+00 -0.14243904488E+04  0.14243904489E+04  0.50400001928E-02 0.  1.
    10030    2    1    2    0    0  0.00000000000E+00  0.00000000000E+00  0.37406304182E+03  0.32228439395E+04  0.32010623079E+04 0.  0.
        4    1    3    3  502    0 -0.12255335926E+02 -0.98308051220E+03  0.14585984524E+04  0.17590078297E+04  0.12699999809E+01 0.  1.
       -4    1    3    3    0  502  0.12255335926E+02  0.98308051220E+03 -0.10845354106E+04  0.14638361098E+04  0.12699999809E+01 0. -1.
</event>
<event>
 5   0  0.8681172E-07  0.3187288E+04  0.7818609E-02  0.8192182E-01
        1   -1    0    0  501    0  0.00000000000E+00  0.00000000000E+00  0.22162801745E+04  0.22162801746E+04  0.50400001928E-02 0.  1.
       -1   -1    0    0    0  501  0.00000000000E+00  0.00000000000E+00 -0.11459299003E+04  0.11459299003E+04  0.50400001928E-02 0. -1.
    10030    2    1    2    0    0  0.00000000000E+00  0.00000000000E+00  0.10703502743E+04  0.33622100748E+04  0.31872883267E+04 0.  0.
        1    1    3    3  502    0  0.94161180023E+03  0.86105538915E+03  0.15423808246E+04  0.20017461811E+04  0.50400001928E-02 0.  1.
       -1    1    3    3    0  502 -0.94161180023E+03 -0.86105538915E+03 -0.47203055035E+03  0.13604638937E+04  0.50400001928E-02 0. -1.
</event>
<event>
 5   0  0.8681172E-07  0.3204912E+04  0.7818609E-02  0.8187521E-01
        1   -1    0    0  501    0  0.00000000000E+00  0.00000000000E+00  0.26981708333E+04  0.26981708333E+04  0.50400001928E-02 0. -1.
       -1   -1    0    0    0  501  0.00000000000E+00  0.00000000000E+00 -0.95170567421E+03  0.95170567423E+03  0.50400001928E-02 0.  1.
    10030    2    1    2    0    0  0.00000000000E+00  0.00000000000E+00  0.17464651591E+04  0.36498765075E+04  0.32049115383E+04 0.  0.
        1    1    3    3  502    0  0.11633417020E+04 -0.31615430677E+03 -0.32906320228E+03  0.12496399691E+04  0.50400001928E-02 0.  1.
       -1    1    3    3    0  502 -0.11633417020E+04  0.31615430677E+03  0.20755283614E+04  0.24002365384E+04  0.50400001928E-02 0. -1.
</event>
<event>
 5   0  0.8512855E-07  0.3177926E+04  0.7818609E-02  0.8194671E-01
        1   -1    0    0  501    0  0.00000000000E+00  0.00000000000E+00  0.22813617065E+04  0.22813617065E+04  0.50400001928E-02 0. -1.
       -1   -1    0    0    0  501  0.00000000000E+00  0.00000000000E+00 -0.11067090121E+04  0.11067090122E+04  0.50400001928E-02 0.  1.
    10030    2    1    2    0    0  0.00000000000E+00  0.00000000000E+00  0.11746526944E+04  0.33880707187E+04  0.31779260914E+04 0.  0.
        5    1    3    3  502    0 -0.11256665020E+04  0.11089796831E+04  0.40950216390E+03  0.16323832649E+04  0.46999998093E+01 0.  1.
       -5    1    3    3    0  502  0.11256665020E+04 -0.11089796831E+04  0.76515053047E+03  0.17556874538E+04  0.46999998093E+01 0. -1.
</event>
<event>
 5   0  0.2337504E-06  0.3282036E+04  0.7818609E-02  0.8167481E-01
       -2   -1    0    0    0  501  0.00000000000E+00  0.00000000000E+00  0.20208957765E+04  0.20208957765E+04  0.25500000920E-02 0.  1.
        2   -1    0    0  501    0  0.00000000000E+00  0.00000000000E+00 -0.13325480658E+04  0.13325480658E+04  0.25500000920E-02 0. -1.
    10030    2    1    2    0    0  0.00000000000E+00  0.00000000000E+00  0.68834771072E+03  0.33534438423E+04  0.32820364155E+04 0.  0.
        1    1    3    3  502    0 -0.15252838563E+03  0.14615278303E+04  0.10905547918E+04  0.18299284852E+04  0.50400001928E-02 0.  1.
       -1    1    3    3    0  502  0.15252838563E+03 -0.14615278303E+04 -0.40220708110E+03  0.15235153571E+04  0.50400001928E-02 0. -1.
</event>
<event>
 5   0  0.2466076E-06  0.3215468E+04  0.7818609E-02  0.8184744E-01
        2   -1    0    0  501    0  0.00000000000E+00  0.00000000000E+00  0.22113637710E+04  0.22113637710E+04  0.25500000920E-02 0.  1.
       -2   -1    0    0    0  501  0.00000000000E+00  0.00000000000E+00 -0.11688753694E+04  0.11688753694E+04  0.25500000920E-02 0. -1.
    10030    2    1    2    0    0  0.00000000000E+00  0.00000000000E+00  0.10424884016E+04  0.33802391404E+04  0.32154680187E+04 0.  0.
        3    1    3    3  502    0 -0.40760806092E+03 -0.11884628849E+04  0.15757519212E+04  0.20153368174E+04  0.10100000352E+00 0.  1.
       -3    1    3    3    0  502  0.40760806092E+03  0.11884628849E+04 -0.53326351960E+03  0.13649023231E+04  0.10100000352E+00 0. -1.
</event>
<event>
 5   0  0.2337504E-06  0.3177138E+04  0.7818609E-02  0.8194881E-01
       -2   -1    0    0    0  501  0.00000000000E+00  0.00000000000E+00  0.10783860540E+04  0.10783860540E+04  0.25500000920E-02 0.  1.
        2   -1    0    0  501    0  0.00000000000E+00  0.00000000000E+00 -0.23401190925E+04  0.23401190925E+04  0.25500000920E-02 0. -1.
    10030    2    1    2    0    0  0.00000000000E+00  0.00000000000E+00 -0.12617330385E+04  0.34185051465E+04  0.31771382054E+04 0.  0.
        1    1    3    3  502    0  0.62756653618E+03  0.14483965972E+04 -0.43881467742E+03  0.16383683289E+04  0.50400001928E-02 0.  1.
       -1    1    3    3    0  502 -0.62756653618E+03 -0.14483965972E+04 -0.82291836105E+03  0.17801368175E+04  0.50400001928E-02 0. -1.
</event>
<event>
 5   0  0.2466076E-06  0.3414859E+04  0.7818609E-02  0.8134269E-01
       -2   -1    0    0    0  501  0.00000000000E+00  0.00000000000E+00  0.29537718304E+04  0.29537718304E+04  0.25500000920E-02 0.  1.
        2   -1    0    0  501    0  0.00000000000E+00  0.00000000000E+00 -0.98698057679E+03  0.98698057680E+03  0.25500000920E-02 0. -1.
    10030    2    1    2    0    0  0.00000000000E+00  0.00000000000E+00  0.19667912537E+04  0.39407524072E+04  0.34148589575E+04 0.  0.
        3    1    3    3  502    0 -0.10664751576E+04 -0.94251524155E+02 -0.55149701496E+03  0.12043261931E+04  0.10100000352E+00 0. -1.
       -3    1    3    3    0  502  0.10664751576E+04  0.94251524155E+02  0.25182882686E+04  0.27364262142E+04  0.10100000352E+00 0.  1.
</event>
<event>
 5   0  0.2401139E-06  0.3200475E+04  0.7818609E-02  0.8188692E-01
       -2   -1    0    0    0  501  0.00000000000E+00  0.00000000000E+00  0.12011755611E+04  0.12011755611E+04  0.25500000920E-02 0.  1.
        2   -1    0    0  501    0  0.00000000000E+00  0.00000000000E+00 -0.21318789105E+04  0.21318789105E+04  0.25500000920E-02 0. -1.
    10030    2    1    2    0    0  0.00000000000E+00  0.00000000000E+00 -0.93070334933E+03  0.33330544716E+04  0.32004754938E+04 0.  0.
        5    1    3    3  502    0  0.13901086636E+03  0.99995995918E+03  0.82764955954E+03  0.13054768571E+04  0.46999998093E+01 0.  1.
       -5    1    3    3    0  502 -0.13901086636E+03 -0.99995995918E+03 -0.17583529089E+04  0.20275776146E+04  0.46999998093E+01 0. -1.
</event>
<event>
 5   0  0.7934375E-07  0.3188204E+04  0.7818609E-02  0.8191940E-01
       -4   -1    0    0    0  501  0.00000000000E+00  0.00000000000E+00  0.14304216082E+04  0.14304221720E+04  0.12699999809E+01 0. -1.
        4   -1    0    0  501    0  0.00000000000E+00  0.00000000000E+00 -0.17765103902E+04  0.17765108442E+04  0.12699999809E+01 0.  1.
    10030    2    1    2    0    0  0.00000000000E+00  0.00000000000E+00 -0.34608878199E+03  0.32069330162E+04  0.31882035577E+04 0.  0.
        5    1    3    3  502    0  0.11982869489E+04  0.21278793692E+03 -0.12086400920E+04  0.17152268888E+04  0.46999998093E+01 0.  1.
       -5    1    3    3    0  502 -0.11982869489E+04 -0.21278793692E+03  0.86255131004E+03  0.14917061274E+04  0.46999998093E+01 0. -1.
</event>
<event>
 5   0  0.8545153E-07  0.3169970E+04  0.7818609E-02  0.8196793E-01
       -1   -1    0    0    0  501  0.00000000000E+00  0.00000000000E+00  0.14872863111E+04  0.14872863111E+04  0.50400001928E-02 0.  1.
        1   -1    0    0  501    0  0.00000000000E+00  0.00000000000E+00 -0.16891009292E+04  0.16891009292E+04  0.50400001928E-02 0. -1.
    10030    2    1    2    0    0  0.00000000000E+00  0.00000000000E+00 -0.20181461808E+03  0.31763872403E+04  0.31699695204E+04 0.  0.
        3    1    3    3  502    0  0.16984176334E+03 -0.10053450263E+04 -0.13168762983E+04  0.16654513027E+04  0.10100000352E+00 0. -1.
       -3    1    3    3    0  502 -0.16984176334E+03  0.10053450263E+04  0.11150616803E+04  0.15109359375E+04  0.10100000352E+00 0.  1.
</event>
<event>
 5   0  0.2337504E-06  0.3177499E+04  0.7818609E-02  0.8194785E-01
       -2   -1    0    0    0  501  0.00000000000E+00  0.00000000000E+00  0.17950031928E+04  0.17950031928E+04  0.25500000920E-02 0.  1.
        2   -1    0    0  501    0  0.00000000000E+00  0.00000000000E+00 -0.14061949289E+04  0.14061949289E+04  0.25500000920E-02 0. -1.
    10030    2    1    2    0    0  0.00000000000E+00  0.00000000000E+00  0.38880826398E+03  0.32011981217E+04  0.31774986307E+04 0.  0.
        1    1    3    3  502    0 -0.11123671116E+04  0.73492462505E+03  0.10649378502E+04  0.17063315681E+04  0.50400001928E-02 0.  1.
       -1    1    3    3    0  502  0.11123671116E+04 -0.73492462505E+03 -0.67612958624E+03  0.14948665536E+04  0.50400001928E-02 0. -1.
</event>
<event>
 5   0  0.8545153E-07  0.3227926E+04  0.7818609E-02  0.8181481E-01
       -1   -1    0    0    0  501  0.00000000000E+00  0.00000000000E+00  0.14447695248E+04  0.14447695248E+04  0.50400001928E-02 0. -1.
        1   -1    0    0  501    0  0.00000000000E+00  0.00000000000E+00 -0.18029701909E+04  0.18029701909E+04  0.50400001928E-02 0.  1.
    10030    2    1    2    0    0  0.00000000000E+00  0.00000000000E+00 -0.35820066613E+03  0.32477397158E+04  0.32279258889E+04 0.  0.
        3    1    3    3  502    0  0.18548926033E+03 -0.14331382938E+04 -0.90225042885E+03  0.17036277414E+04  0.10100000352E+00 0.  1.
       -3    1    3    3    0  502 -0.18548926033E+03  0.14331382938E+04  0.54404976272E+03  0.15441119743E+04  0.10100000352E+00 0. -1.
</event>
<event>
 5   0  0.8487944E-07  0.3197987E+04  0.7818609E-02  0.8189349E-01
        1   -1    0    0  501    0  0.00000000000E+00  0.00000000000E+00  0.13307452427E+04  0.13307452427E+04  0.50400001928E-02 0.  1.
       -1   -1    0    0    0  501  0.00000000000E+00  0.00000000000E+00 -0.19213145589E+04  0.19213145589E+04  0.50400001928E-02 0. -1.
    10030    2    1    2    0    0  0.00000000000E+00  0.00000000000E+00 -0.59056931614E+03  0.32520598016E+04  0.31979869975E+04 0.  0.
        2    1    3    3  502    0  0.51682149410E+03 -0.11813662975E+04 -0.12568141142E+04  0.18006422474E+04  0.25500000920E-02 0. -1.
       -2    1    3    3    0  502 -0.51682149410E+03  0.11813662975E+04  0.66624479804E+03  0.14514175542E+04  0.25500000920E-02 0.  1.
</event>
<event>
 5   0  0.8383008E-07  0.3211527E+04  0.7818609E-02  0.8185780E-01
       -1   -1    0    0    0  501  0.00000000000E+00  0.00000000000E+00  0.18870740760E+04  0.18870740760E+04  0.50400001928E-02 0.  1.
        1   -1    0    0  501    0  0.00000000000E+00  0.00000000000E+00 -0.13663885901E+04  0.13663885901E+04  0.50400001928E-02 0. -1.
    10030    2    1    2    0    0  0.00000000000E+00  0.00000000000E+00  0.52068548593E+03  0.32534626662E+04  0.32115270425E+04 0.  0.
        4    1    3    3  502    0  0.31019028164E+03 -0.51473173689E+03 -0.12481640358E+04  0.13853092958E+04  0.12699999809E+01 0. -1.
       -4    1    3    3    0  502 -0.31019028164E+03  0.51473173689E+03  0.17688495217E+04  0.18681533704E+04  0.12699999809E+01 0.  1.
</event>
<event>
 5   0  0.2404430E-06  0.2982621E+04  0.7818609E-02  0.8248711E-01
       -2   -1    0    0    0  501  0.00000000000E+00  0.00000000000E+00  0.73034734570E+03  0.73034734570E+03  0.25500000920E-02 0. -1.
        2   -1    0    0  501    0  0.00000000000E+00  0.00000000000E+00 -0.30451365740E+04  0.30451365740E+04  0.25500000920E-02 0.  1.
    10030    2    1    2    0    0  0.00000000000E+00  0.00000000000E+00 -0.23147892283E+04  0.37754839197E+04  0.29826212727E+04 0.  0.
        4    1    3    3  502    0  0.13031936529E+03  0.33309519797E+03  0.67524652424E+03  0.76413024366E+03  0.12699999809E+01 0. -1.
       -4    1    3    3    0  502 -0.13031936529E+03 -0.33309519797E+03 -0.29900357526E+04  0.30113536761E+04  0.12699999809E+01 0.  1.
</event>
<event>
 5   0  0.8512855E-07  0.3195895E+04  0.7818609E-02  0.8189902E-01
       -1   -1    0    0    0  501  0.00000000000E+00  0.00000000000E+00  0.13409979281E+04  0.13409979281E+04  0.50400001928E-02 0. -1.
        1   -1    0    0  501    0  0.00000000000E+00  0.00000000000E+00 -0.19041315521E+04  0.19041315521E+04  0.50400001928E-02 0.  1.
    10030    2    1    2    0    0  0.00000000000E+00  0.00000000000E+00 -0.56313362406E+03  0.32451294802E+04  0.31958951586E+04 0.  0.
        5    1    3    3  502    0  0.45967660580E+03  0.14433095060E+04 -0.79829694146E+03  0.17122339235E+04  0.46999998093E+01 0.  1.
       -5    1    3    3    0  502 -0.45967660580E+03 -0.14433095060E+04  0.23516331740E+03  0.15328955567E+04  0.46999998093E+01 0. -1.
</event>
<event>
 5   0  0.8512855E-07  0.3124549E+04  0.7818609E-02  0.8209033E-01
        1   -1    0    0  501    0  0.00000000000E+00  0.00000000000E+00  0.11881502421E+04  0.11881502421E+04  0.50400001928E-02 0. -1.
       -1   -1    0    0    0  501  0.00000000000E+00  0.00000000000E+00 -0.20542034377E+04  0.20542034377E+04  0.50400001928E-02 0.  1.
    10030    2    1    2    0    0  0.00000000000E+00  0.00000000000E+00 -0.86605319559E+03  0.32423536798E+04  0.31245494471E+04 0.  0.
        5    1    3    3  502    0 -0.10195465757E+04  0.10305109303E+04  0.17138715331E+03  0.14597341004E+04  0.46999998093E+01 0.  1.
       -5    1    3    3    0  502  0.10195465757E+04 -0.10305109303E+04 -0.10374403489E+04  0.17826195794E+04  0.46999998093E+01 0. -1.
</event>
<event>
 5   0  0.8512855E-07  0.3205651E+04  0.7818609E-02  0.8187326E-01
        1   -1    0    0  501    0  0.00000000000E+00  0.00000000000E+00  0.27639066530E+04  0.27639066530E+04  0.50400001928E-02 0.  1.
       -1   -1    0    0    0  501  0.00000000000E+00  0.00000000000E+00 -0.92949926482E+03  0.92949926483E+03  0.50400001928E-02 0. -1.
    10030    2    1    2    0    0  0.00000000000E+00  0.00000000000E+00  0.18344073882E+04  0.36934059178E+04  0.32056507620E+04 0.  0.
        5    1    3    3  502    0  0.10658842598E+04  0.78613278055E+03 -0.12287568467E+03  0.13301257564E+04  0.46999998093E+01 0. -1.
       -5    1    3    3    0  502 -0.10658842598E+04 -0.78613278055E+03  0.19572830729E+04  0.23632801614E+04  0.46999998093E+01 0.  1.
</event>
<event>
 5   0  0.2401139E-06  0.3105739E+04  0.7818609E-02  0.8214165E-01
        2   -1    0    0  501    0  0.00000000000E+00  0.00000000000E+00  0.27106166026E+04  0.27106166026E+04  0.25500000920E-02 0.  1.
       -2   -1    0    0    0  501  0.00000000000E+00  0.00000000000E+00 -0.88961448223E+03  0.88961448223E+03  0.25500000920E-02 0. -1.
    10030    2    1    2    0    0  0.00000000000E+00  0.00000000000E+00  0.18210021204E+04  0.36002310848E+04  0.31057390653E+04 0.  0.
        5    1    3    3  502    0 -0.15138067580E+02  0.13275319010E+04 -0.23236246079E+02  0.13278298545E+04  0.46999998093E+01 0. -1.
       -5    1    3    3    0  502  0.15138067580E+02 -0.13275319010E+04  0.18442383665E+04  0.22724012303E+04  0.46999998093E+01 0.  1.
</event>
<event>
 5   0  0.2337504E-06  0.2678484E+04  0.7818609E-02  0.8342020E-01
       -2   -1    0    0    0  501  0.00000000000E+00  0.00000000000E+00  0.98384493881E+03  0.98384493881E+03  0.25500000920E-02 0.  1.
        2   -1    0    0  501    0  0.00000000000E+00  0.00000000000E+00 -0.18230205632E+04  0.18230205632E+04  0.25500000920E-02 0. -1.
    10030    2    1    2    0    0  0.00000000000E+00  0.00000000000E+00 -0.83917562443E+03  0.28068655020E+04  0.26784843135E+04 0.  0.
        1    1    3    3  502    0 -0.58330225592E+03 -0.75914587628E+03 -0.14009710223E+04  0.16968393526E+04  0.50400001928E-02 0. -1.
       -1    1    3    3    0  502  0.58330225592E+03  0.75914587628E+03  0.56179539790E+03  0.11100261494E+04  0.50400001928E-02 0.  1.
</event>
<event>
 5   0  0.8487944E-07  0.3197158E+04  0.7818609E-02  0.8189568E-01
       -1   -1    0    0    0  501  0.00000000000E+00  0.00000000000E+00  0.10213332067E+04  0.10213332067E+04  0.50400001928E-02 0.  1.
        1   -1    0    0  501    0  0.00000000000E+00  0.00000000000E+00 -0.25020769155E+04  0.25020769156E+04  0.50400001928E-02 0. -1.
    10030    2    1    2    0    0  0.00000000000E+00  0.00000000000E+00 -0.14807437088E+04  0.35234101223E+04  0.31971576374E+04 0.  0.
        2    1    3    3  502    0  0.38805677056E+03  0.11314098043E+04  0.42840758084E+03  0.12705153513E+04  0.25500000920E-02 0.  1.
       -2    1    3    3    0  502 -0.38805677056E+03 -0.11314098043E+04 -0.19091512897E+04  0.22528947710E+04  0.25500000920E-02 0. -1.
</event>
<event>
 5   0  0.7934375E-07  0.3220113E+04  0.7818609E-02  0.8183526E-01
       -4   -1    0    0    0  501  0.00000000000E+00  0.00000000000E+00  0.13937795834E+04  0.13937801620E+04  0.12699999809E+01 0.  1.
        4   -1    0    0  501    0  0.00000000000E+00  0.00000000000E+00 -0.18598923805E+04  0.18598928141E+04  0.12699999809E+01 0. -1.
    10030    2    1    2    0    0  0.00000000000E+00  0.00000000000E+00 -0.46611279716E+03  0.32536729761E+04  0.32201128390E+04 0.  0.
        4    1    3    3  502    0  0.58171347724E+03 -0.28757670031E+03  0.12557959764E+04  0.14135473375E+04  0.12699999809E+01 0.  1.
       -4    1    3    3    0  502 -0.58171347724E+03  0.28757670031E+03 -0.17219087736E+04  0.18401256386E+04  0.12699999809E+01 0. -1.
</event>
<event>
 5   0  0.2337504E-06  0.3103613E+04  0.7818609E-02  0.8214747E-01
       -2   -1    0    0    0  501  0.00000000000E+00  0.00000000000E+00  0.15359507536E+04  0.15359507536E+04  0.25500000920E-02 0.  1.
        2   -1    0    0  501    0  0.00000000000E+00  0.00000000000E+00 -0.15678256408E+04  0.15678256408E+04  0.25500000920E-02 0. -1.
    10030    2    1    2    0    0  0.00000000000E+00  0.00000000000E+00 -0.31874887215E+02  0.31037763945E+04  0.31036127172E+04 0.  0.
        1    1    3    3  502    0 -0.39268711271E+03  0.79075240023E+02 -0.15152319410E+04  0.15672855187E+04  0.50400001928E-02 0. -1.
       -1    1    3    3    0  502  0.39268711271E+03 -0.79075240023E+02  0.14833570538E+04  0.15364908757E+04  0.50400001928E-02 0.  1.
</event>
<event>
 5   0  0.2337504E-06  0.3303266E+04  0.7818609E-02  0.8162065E-01
        2   -1    0    0  501    0  0.00000000000E+00  0.00000000000E+00  0.27011187130E+04  0.27011187130E+04  0.25500000920E-02 0. -1.
       -2   -1    0    0    0  501  0.00000000000E+00  0.00000000000E+00 -0.10099115134E+04  0.10099115134E+04  0.25500000920E-02 0.  1.
    10030    2    1    2    0    0  0.00000000000E+00  0.00000000000E+00  0.16912071996E+04  0.37110302265E+04  0.33032655887E+04 0.  0.
        1    1    3    3  502    0  0.14946918298E+04 -0.23259564976E+02  0.16346142741E+04  0.22150865669E+04  0.50400001928E-02 0. -1.
       -1    1    3    3    0  502 -0.14946918298E+04  0.23259564976E+02  0.56592925513E+02  0.14959436596E+04  0.50400001928E-02 0.  1.
</event>
<event>
 5   0  0.2466076E-06  0.3177670E+04  0.7818609E-02  0.8194739E-01
       -2   -1    0    0    0  501  0.00000000000E+00  0.00000000000E+00  0.10873525113E+04  0.10873525113E+04  0.25500000920E-02 0.  1.
        2   -1    0    0  501    0  0.00000000000E+00  0.00000000000E+00 -0.23215991110E+04  0.23215991110E+04  0.25500000920E-02 0. -1.
    10030    2    1    2    0    0  0.00000000000E+00  0.00000000000E+00 -0.12342465997E+04  0.34089516223E+04  0.31776699789E+04 0.  0.
        3    1    3    3  502    0  0.98159340881E+03 -0.97235515229E+03 -0.14586919342E+04  0.20091745398E+04  0.10100000352E+00 0. -1.
       -3    1    3    3    0  502 -0.98159340881E+03  0.97235515229E+03  0.22444533445E+03  0.13997770825E+04  0.10100000352E+00 0.  1.
</event>
<event>
 5   0  0.8383008E-07  0.3186063E+04  0.7818609E-02  0.8192508E-01
        1   -1    0    0  501    0  0.00000000000E+00  0.00000000000E+00  0.17731660279E+04  0.17731660279E+04  0.50400001928E-02 0.  1.
       -1   -1    0    0    0  501  0.00000000000E+00  0.00000000000E+00 -0.14311962982E+04  0.14311962982E+04  0.50400001928E-02 0. -1.
    10030    2    1    2    0    0  0.00000000000E+00  0.00000000000E+00  0.34196972964E+03  0.32043623261E+04  0.31860625576E+04 0.  0.
        4    1    3    3  502    0  0.77707993386E+03 -0.84530975756E+03 -0.93959721256E+03  0.14836597806E+04  0.12699999809E+01 0. -1.
       -4    1    3    3    0  502 -0.77707993386E+03  0.84530975756E+03  0.12815669422E+04  0.17207025455E+04  0.12699999809E+01 0.  1.
</event>
<event>
 5   0  0.8383008E-07  0.3194710E+04  0.7818609E-02  0.8190216E-01
        1   -1    0    0  501    0  0.00000000000E+00  0.00000000000E+00  0.20637679718E+04  0.20637679718E+04  0.50400001928E-02 0.  1.
       -1   -1    0    0    0  501  0.00000000000E+00  0.00000000000E+00 -0.12363515638E+04  0.12363515638E+04  0.50400001928E-02 0. -1.
    10030    2    1    2    0    0  0.00000000000E+00  0.00000000000E+00  0.82741640796E+03  0.33001195356E+04  0.31947098518E+04 0.  0.
        4    1    3    3  502    0  0.14554786893E+04 -0.11647297006E+03 -0.25539594765E+03  0.14822998586E+04  0.12699999809E+01 0. -1.
       -4    1    3    3    0  502 -0.14554786893E+04  0.11647297006E+03  0.10828123556E+04  0.18178196770E+04  0.12699999809E+01 0.  1.
</event>
<event>
 5   0  0.8681172E-07  0.3177070E+04  0.7818609E-02  0.8194899E-01
       -1   -1    0    0    0  501  0.00000000000E+00  0.00000000000E+00  0.10457137243E+04  0.10457137243E+04  0.50400001928E-02 0. -1.
        1   -1    0    0  501    0  0.00000000000E+00  0.00000000000E+00 -0.24131308096E+04  0.24131308096E+04  0.50400001928E-02 0.  1.
    10030    2    1    2    0    0  0.00000000000E+00  0.00000000000E+00 -0.13674170854E+04  0.34588445339E+04  0.31770703524E+04 0.  0.
        1    1    3    3  502    0 -0.42623730606E+03 -0.15005469581E+04 -0.10105415160E+04  0.18586321772E+04  0.50400001928E-02 0.  1.
       -1    1    3    3    0  502  0.42623730606E+03  0.15005469581E+04 -0.35687556934E+03  0.16002123567E+04  0.50400001928E-02 0. -1.
</event>
<event>
 5   0  0.2401139E-06  0.3193047E+04  0.7818609E-02  0.8190656E-01
        2   -1    0    0  501    0  0.00000000000E+00  0.00000000000E+00  0.20013889344E+04  0.20013889344E+04  0.25500000920E-02 0. -1.
       -2   -1    0    0    0  501  0.00000000000E+00  0.00000000000E+00 -0.12735593994E+04  0.12735593994E+04  0.25500000920E-02 0.  1.
    10030    2    1    2    0    0  0.00000000000E+00  0.00000000000E+00  0.72782953498E+03  0.32749483337E+04  0.31930472525E+04 0.  0.
        5    1    3    3  502    0  0.91038875255E+03  0.13293728501E+01 -0.98123431481E+03  0.13385261740E+04  0.46999998093E+01 0.  1.
       -5    1    3    3    0  502 -0.91038875255E+03 -0.13293728501E+01  0.17090638498E+04  0.19364221597E+04  0.46999998093E+01 0. -1.
</event>
<event>
 5   0  0.8545153E-07  0.3110673E+04  0.7818609E-02  0.8212815E-01
       -1   -1    0    0    0  501  0.00000000000E+00  0.00000000000E+00  0.10121157358E+04  0.10121157358E+04  0.50400001928E-02 0. -1.
        1   -1    0    0  501    0  0.00000000000E+00  0.00000000000E+00 -0.23901129223E+04  0.23901129223E+04  0.50400001928E-02 0.  1.
    10030    2    1    2    0    0  0.00000000000E+00  0.00000000000E+00 -0.13779971865E+04  0.34022286580E+04  0.31106725311E+04 0.  0.
        3    1    3    3  502    0 -0.74180599584E+03  0.10638180713E+04 -0.16280043300E+04  0.20814377562E+04  0.10100000352E+00 0.  1.
       -3    1    3    3    0  502  0.74180599584E+03 -0.10638180713E+04  0.25000714353E+03  0.13207909018E+04  0.10100000352E+00 0. -1.
</event>
<event>
 5   0  0.2401139E-06  0.3157000E+04  0.7818609E-02  0.8200267E-01
        2   -1    0    0  501    0  0.00000000000E+00  0.00000000000E+00  0.14321660133E+04  0.14321660133E+04  0.25500000920E-02 0.  1.
       -2   -1    0    0    0  501  0.00000000000E+00  0.00000000000E+00 -0.17397858647E+04  0.17397858647E+04  0.25500000920E-02 0. -1.
    10030    2    1    2    0    0  0.00000000000E+00  0.00000000000E+00 -0.30761985145E+03  0.31719518780E+04  0.31569999594E+04 0.  0.
        5    1    3    3  502    0  0.44815837017E+03 -0.56732874075E+03  0.12560221990E+04  0.14492486602E+04  0.46999998093E+01 0.  1.
       -5    1    3    3    0  502 -0.44815837017E+03  0.56732874075E+03 -0.15636420504E+04  0.17227032178E+04  0.46999998093E+01 0. -1.
</event>
<event>
 5   0  0.2337504E-06  0.3124594E+04  0.7818609E-02  0.8209020E-01
       -2   -1    0    0    0  501  0.00000000000E+00  0.00000000000E+00  0.15400577679E+04  0.15400577679E+04  0.25500000920E-02 0.  1.
        2   -1    0    0  501    0  0.00000000000E+00  0.00000000000E+00 -0.15848576653E+04  0.15848576653E+04  0.25500000920E-02 0. -1.
    10030    2    1    2    0    0  0.00000000000E+00  0.00000000000E+00 -0.44799897440E+02  0.31249154333E+04  0.31245942831E+04 0.  0.
        1    1    3    3  502    0 -0.18598692890E+03  0.91990414841E+03  0.12267110408E+04  0.15445500179E+04  0.50400001928E-02 0.  1.
       -1    1    3    3    0  502  0.18598692890E+03 -0.91990414841E+03 -0.12715109383E+04  0.15803654154E+04  0.50400001928E-02 0. -1.
</event>
<event>
 5   0  0.2404430E-06  0.3189751E+04  0.7818609E-02  0.8191529E-01
        2   -1    0    0  501    0  0.00000000000E+00  0.00000000000E+00  0.24834673651E+04  0.24834673651E+04  0.25500000920E-02 0. -1.
       -2   -1    0    0    0  501  0.00000000000E+00  0.00000000000E+00 -0.10242242720E+04  0.10242242720E+04  0.25500000920E-02 0.  1.
    10030    2    1    2    0    0  0.00000000000E+00  0.00000000000E+00  0.14592430931E+04  0.35076916371E+04  0.31897508079E+04 0.  0.
        4    1    3    3  502    0  0.22659107794E+03  0.94495444696E+02 -0.10033198770E+04  0.10329207589E+04  0.12699999809E+01 0.  1.
       -4    1    3    3    0  502 -0.22659107794E+03 -0.94495444696E+02  0.24625629700E+04  0.24747708783E+04  0.12699999809E+01 0. -1.
</event>
<event>
 5   0  0.2401139E-06  0.3164807E+04  0.7818609E-02  0.8198174E-01
       -2   -1    0    0    0  501  0.00000000000E+00  0.00000000000E+00  0.10454549135E+04  0.10454549135E+04  0.25500000920E-02 0. -1.
        2   -1    0    0  501    0  0.00000000000E+00  0.00000000000E+00 -0.23951308686E+04  0.23951308686E+04  0.25500000920E-02 0.  1.
    10030    2    1    2    0    0  0.00000000000E+00  0.00000000000E+00 -0.13496759551E+04  0.34405857822E+04  0.31648073150E+04 0.  0.
        5    1    3    3  502    0  0.75461702623E+03 -0.12972152392E+04 -0.12203229673E+04  0.19342762129E+04  0.46999998093E+01 0.  1.
       -5    1    3    3    0  502 -0.75461702623E+03  0.12972152392E+04 -0.12935298779E+03  0.15063095693E+04  0.46999998093E+01 0. -1.
</event>
<event>
 5   0  0.8383008E-07  0.3180296E+04  0.7818609E-02  0.8194040E-01
       -1   -1    0    0    0  501  0.00000000000E+00  0.00000000000E+00  0.18166675550E+04  0.18166675550E+04  0.50400001928E-02 0. -1.
        1   -1    0    0  501    0  0.00000000000E+00  0.00000000000E+00 -0.13918734953E+04  0.13918734953E+04  0.50400001928E-02 0.  1.
    10030    2    1    2    0    0  0.00000000000E+00  0.00000000000E+00  0.42479405975E+03  0.32085410503E+04  0.31802964765E+04 0.  0.
        4    1    3    3  502    0 -0.34541316543E+03  0.28245333175E+02  0.17781017794E+04  0.18115616480E+04  0.12699999809E+01 0. -1.
       -4    1    3    3    0  502  0.34541316543E+03 -0.28245333175E+02 -0.13533077196E+04  0.13969794023E+04  0.12699999809E+01 0.  1.
</event>
<event>
 5   0  0.2337504E-06  0.3191629E+04  0.7818609E-02  0.8191031E-01
       -2   -1    0    0    0  501  0.00000000000E+00  0.00000000000E+00  0.15245119426E+04  0.15245119426E+04  0.25500000920E-02 0.  1.
        2   -1    0    0  501    0  0.00000000000E+00  0.00000000000E+00 -0.16704524488E+04  0.16704524488E+04  0.25500000920E-02 0. -1.
    10030    2    1    2    0    0  0.00000000000E+00  0.00000000000E+00 -0.14594050618E+03  0.31949643914E+04  0.31916294947E+04 0.  0.
        1    1    3    3  502    0  0.13066934419E+03 -0.65414552192E+03  0.13782492781E+04  0.15311929709E+04  0.50400001928E-02 0.  1.
       -1    1    3    3    0  502 -0.13066934419E+03  0.65414552192E+03 -0.15241897843E+04  0.16637714206E+04  0.50400001928E-02 0. -1.
</event>
<event>
 5   0  0.8383008E-07  0.3174828E+04  0.7818609E-02  0.8195497E-01
       -1   -1    0    0    0  501  0.00000000000E+00  0.00000000000E+00  0.17205184986E+04  0.17205184986E+04  0.50400001928E-02 0.  1.
        1   -1    0    0  501    0  0.00000000000E+00  0.00000000000E+00 -0.14646070096E+04  0.14646070096E+04  0.50400001928E-02 0. -1.
    10030    2    1    2    0    0  0.00000000000E+00  0.00000000000E+00  0.25591148900E+03  0.31851255083E+04  0.31748281549E+04 0.  0.
        4    1    3    3  502    0  0.10260393663E+03 -0.62091906020E+03  0.15900135565E+04  0.17100329733E+04  0.12699999809E+01 0.  1.
       -4    1    3    3    0  502 -0.10260393663E+03  0.62091906020E+03 -0.13341020675E+04  0.14750925349E+04  0.12699999809E+01 0. -1.
</event>
<event>
 5   0  0.8487944E-07  0.3197631E+04  0.7818609E-02  0.8189443E-01
        1   -1    0    0  501    0  0.00000000000E+00  0.00000000000E+00  0.17184634278E+04  0.17184634278E+04  0.50400001928E-02 0.  1.
       -1   -1    0    0    0  501  0.00000000000E+00  0.00000000000E+00 -0.14874976352E+04  0.14874976352E+04  0.50400001928E-02 0. -1.
    10030    2    1    2    0    0  0.00000000000E+00  0.00000000000E+00  0.23096579263E+03  0.32059610631E+04  0.31976305510E+04 0.  0.
        2    1    3    3  502    0  0.91915738483E+03  0.52516703078E+03 -0.10857869319E+04  0.15164379215E+04  0.25500000920E-02 0. -1.
       -2    1    3    3    0  502 -0.91915738483E+03 -0.52516703078E+03  0.13167527245E+04  0.16895231416E+04  0.25500000920E-02 0.  1.
</event>
<event>
 5   0  0.8487944E-07  0.3207152E+04  0.7818609E-02  0.8186931E-01
        1   -1    0    0  501    0  0.00000000000E+00  0.00000000000E+00  0.14905795865E+04  0.14905795865E+04  0.50400001928E-02 0.  1.
       -1   -1    0    0    0  501  0.00000000000E+00  0.00000000000E+00 -0.17251382082E+04  0.17251382082E+04  0.50400001928E-02 0. -1.
    10030    2    1    2    0    0  0.00000000000E+00  0.00000000000E+00 -0.23455862172E+03  0.32157177947E+04  0.32071518811E+04 0.  0.
        2    1    3    3  502    0 -0.16126027465E+03  0.87947278515E+02  0.14799965465E+04  0.14913515271E+04  0.25500000920E-02 0.  1.
       -2    1    3    3    0  502  0.16126027465E+03 -0.87947278515E+02 -0.17145551682E+04  0.17243662676E+04  0.25500000920E-02 0. -1.
</event>
<event>
 5   0  0.8681172E-07  0.3088641E+04  0.7818609E-02  0.8218862E-01
        1   -1    0    0  501    0  0.00000000000E+00  0.00000000000E+00  0.16119049246E+04  0.16119049247E+04  0.50400001928E-02 0.  1.
       -1   -1    0    0    0  501  0.00000000000E+00  0.00000000000E+00 -0.14795697524E+04  0.14795697524E+04  0.50400001928E-02 0. -1.
    10030    2    1    2    0    0  0.00000000000E+00  0.00000000000E+00  0.13233517225E+03  0.30914746771E+04  0.30886409764E+04 0.  0.
        1    1    3    3  502    0 -0.24139869108E+03  0.16928686073E+03  0.15834720926E+04  0.16106878150E+04  0.50400001928E-02 0.  1.
       -1    1    3    3    0  502  0.24139869108E+03 -0.16928686073E+03 -0.14511369203E+04  0.14807868621E+04  0.50400001928E-02 0. -1.
</event>
<event>
 5   0  0.8383008E-07  0.3216826E+04  0.7818609E-02  0.8184387E-01
       -1   -1    0    0    0  501  0.00000000000E+00  0.00000000000E+00  0.15258583012E+04  0.15258583012E+04  0.50400001928E-02 0. -1.
        1   -1    0    0  501    0  0.00000000000E+00  0.00000000000E+00 -0.16954345620E+04  0.16954345620E+04  0.50400001928E-02 0.  1.
    10030    2    1    2    0    0  0.00000000000E+00  0.00000000000E+00 -0.16957626082E+03  0.32212928632E+04  0.32168263245E+04 0.  0.
        4    1    3    3  502    0 -0.14801936170E+04  0.56723951100E+03 -0.35766875628E+03  0.16250114950E+04  0.12699999809E+01 0.  1.
       -4    1    3    3    0  502  0.14801936170E+04 -0.56723951100E+03  0.18809249547E+03  0.15962813682E+04  0.12699999809E+01 0. -1.
</event>
<event>
 5   0  0.2404430E-06  0.2808460E+04  0.7818609E-02  0.8300647E-01
       -2   -1    0    0    0  501  0.00000000000E+00  0.00000000000E+00  0.10423003354E+04  0.10423003354E+04  0.25500000920E-02 0. -1.
        2   -1    0    0  501    0  0.00000000000E+00  0.00000000000E+00 -0.18918365340E+04  0.18918365340E+04  0.25500000920E-02 0.  1.
    10030    2    1    2    0    0  0.00000000000E+00  0.00000000000E+00 -0.84953619854E+03  0.29341368694E+04  0.28084599723E+04 0.  0.
        4    1    3    3  502    0 -0.21552815788E+03  0.12675515041E+04  0.16504918649E+03  0.12962955100E+04  0.12699999809E+01 0. -1.
       -4    1    3    3    0  502  0.21552815788E+03 -0.12675515041E+04 -0.10145853850E+04  0.16378413594E+04  0.12699999809E+01 0.  1.
</event>
<event>
 5   0  0.2404430E-06  0.3167881E+04  0.7818609E-02  0.8197352E-01
       -2   -1    0    0    0  501  0.00000000000E+00  0.00000000000E+00  0.14540206789E+04  0.14540206789E+04  0.25500000920E-02 0.  1.
        2   -1    0    0  501    0  0.00000000000E+00  0.00000000000E+00 -0.17254684793E+04  0.17254684793E+04  0.25500000920E-02 0. -1.
    10030    2    1    2    0    0  0.00000000000E+00  0.00000000000E+00 -0.27144780037E+03  0.31794891582E+04  0.31678805847E+04 0.  0.
        4    1    3    3  502    0 -0.10187809417E+04  0.11660547025E+04  0.19906561883E+03  0.15611620383E+04  0.12699999809E+01 0.  1.
       -4    1    3    3    0  502  0.10187809417E+04 -0.11660547025E+04 -0.47051341920E+03  0.16183271199E+04  0.12699999809E+01 0. -1.
</event>
<event>
 5   0  0.8512855E-07  0.3193635E+04  0.7818609E-02  0.8190500E-01
       -1   -1    0    0    0  501  0.00000000000E+00  0.00000000000E+00  0.96412058779E+03  0.96412058781E+03  0.50400001928E-02 0. -1.
        1   -1    0    0  501    0  0.00000000000E+00  0.00000000000E+00 -0.26447165090E+04  0.26447165090E+04  0.50400001928E-02 0.  1.
    10030    2    1    2    0    0  0.00000000000E+00  0.00000000000E+00 -0.16805959212E+04  0.36088370968E+04  0.31936346912E+04 0.  0.
        5    1    3    3  502    0  0.14988444620E+04  0.54933043470E+03 -0.79646149784E+03  0.17840043877E+04  0.46999998093E+01 0. -1.
       -5    1    3    3    0  502 -0.14988444620E+04 -0.54933043470E+03 -0.88413442332E+03  0.18248327091E+04  0.46999998093E+01 0.  1.
</event>
<event>
 5   0  0.2621528E-06  0.3147480E+04  0.7818609E-02  0.8202827E-01
       -2   -1    0    0    0  501  0.00000000000E+00  0.00000000000E+00  0.11278987815E+04  0.11278987815E+04  0.25500000920E-02 0. -1.
        2   -1    0    0  501    0  0.00000000000E+00  0.00000000000E+00 -0.21958157397E+04  0.21958157397E+04  0.25500000920E-02 0.  1.
    10030    2    1    2    0    0  0.00000000000E+00  0.00000000000E+00 -0.10679169582E+04  0.33237145213E+04  0.31474801968E+04 0.  0.
        2    1    3    3  502    0  0.97009766247E+03  0.99691767368E+03 -0.13111885158E+04  0.19115830212E+04  0.25500000920E-02 0.  1.
       -2    1    3    3    0  502 -0.97009766247E+03 -0.99691767368E+03  0.24327155763E+03  0.14121315001E+04  0.25500000920E-02 0. -1.
</event>
<event>
 5   0  0.8512855E-07  0.2628881E+04  0.7818609E-02  0.8358457E-01
       -1   -1    0    0    0  501  0.00000000000E+00  0.00000000000E+00  0.13617915938E+04  0.13617915938E+04  0.50400001928E-02 0. -1.
        1   -1    0    0  501    0  0.00000000000E+00  0.00000000000E+00 -0.12687355947E+04  0.12687355947E+04  0.50400001928E-02 0.  1.
    10030    2    1    2    0    0  0.00000000000E+00  0.00000000000E+00  0.93055999061E+02  0.26305271885E+04  0.26288807258E+04 0.  0.
        5    1    3    3  502    0 -0.12810546988E+04 -0.24979504868E+03 -0.10923795673E+03  0.13097533084E+04  0.46999998093E+01 0.  1.
       -5    1    3    3    0  502  0.12810546988E+04  0.24979504868E+03  0.20229395579E+03  0.13207738801E+04  0.46999998093E+01 0. -1.
</event>
<event>
 5   0  0.2337504E-06  0.3206115E+04  0.7818609E-02  0.8187204E-01
        2   -1    0    0  501    0  0.00000000000E+00  0.00000000000E+00  0.15749999107E+04  0.15749999107E+04  0.25500000920E-02 0. -1.
       -2   -1    0    0    0  501  0.00000000000E+00  0.00000000000E+00 -0.16316150841E+04  0.16316150841E+04  0.25500000920E-02 0.  1.
    10030    2    1    2    0    0  0.00000000000E+00  0.00000000000E+00 -0.56615173328E+02  0.32066149948E+04  0.32061151643E+04 0.  0.
        1    1    3    3  502    0  0.63943360105E+03  0.19968655646E+03  0.14282997557E+04  0.15775900111E+04  0.50400001928E-02 0. -1.
       -1    1    3    3    0  502 -0.63943360105E+03 -0.19968655646E+03 -0.14849149290E+04  0.16290249837E+04  0.50400001928E-02 0.  1.
</event>
<event>
 5   0  0.2404430E-06  0.3152416E+04  0.7818609E-02  0.8201498E-01
        2   -1    0    0  501    0  0.00000000000E+00  0.00000000000E+00  0.19404126711E+04  0.19404126711E+04  0.25500000920E-02 0. -1.
       -2   -1    0    0    0  501  0.00000000000E+00  0.00000000000E+00 -0.12803625845E+04  0.12803625845E+04  0.25500000920E-02 0.  1.
    10030    2    1    2    0    0  0.00000000000E+00  0.00000000000E+00  0.66005008667E+03  0.32207752556E+04  0.31524160782E+04 0.  0.
        4    1    3    3  502    0  0.10025096085E+04 -0.10018917526E+04  0.10346302242E+04  0.17547860021E+04  0.12699999809E+01 0. -1.
       -4    1    3    3    0  502 -0.10025096085E+04  0.10018917526E+04 -0.37458013757E+03  0.14659892536E+04  0.12699999809E+01 0.  1.
</event>
<event>
 5   0  0.8512855E-07  0.3235706E+04  0.7818609E-02  0.8179450E-01
        1   -1    0    0  501    0  0.00000000000E+00  0.00000000000E+00  0.18992081389E+04  0.18992081389E+04  0.50400001928E-02 0.  1.
       -1   -1    0    0    0  501  0.00000000000E+00  0.00000000000E+00 -0.13781790923E+04  0.13781790923E+04  0.50400001928E-02 0. -1.
    10030    2    1    2    0    0  0.00000000000E+00  0.00000000000E+00  0.52102904664E+03  0.32773872312E+04  0.32357063828E+04 0.  0.
        5    1    3    3  502    0 -0.12226498531E+04  0.43974156772E+03  0.12368721891E+04  0.17939119856E+04  0.46999998093E+01 0.  1.
       -5    1    3    3    0  502  0.12226498531E+04 -0.43974156772E+03 -0.71584314249E+03  0.14834752456E+04  0.46999998093E+01 0. -1.
</event>
<event>
 5   0  0.2404430E-06  0.3206478E+04  0.7818609E-02  0.8187108E-01
       -2   -1    0    0    0  501  0.00000000000E+00  0.00000000000E+00  0.12168632671E+04  0.12168632671E+04  0.25500000920E-02 0. -1.
        2   -1    0    0  501    0  0.00000000000E+00  0.00000000000E+00 -0.21122963258E+04  0.21122963258E+04  0.25500000920E-02 0.  1.
    10030    2    1    2    0    0  0.00000000000E+00  0.00000000000E+00 -0.89543305873E+03  0.33291595929E+04  0.32064783225E+04 0.  0.
        4    1    3    3  502    0 -0.12473465222E+04  0.45109047050E+03  0.48730501210E+03  0.14130901410E+04  0.12699999809E+01 0.  1.
       -4    1    3    3    0  502  0.12473465222E+04 -0.45109047050E+03 -0.13827380708E+04  0.19160694519E+04  0.12699999809E+01 0. -1.
</event>
<event>
 5   0  0.2401139E-06  0.3239338E+04  0.7818609E-02  0.8178505E-01
       -2   -1    0    0    0  501  0.00000000000E+00  0.00000000000E+00  0.82637319375E+03  0.82637319375E+03  0.25500000920E-02 0.  1.
        2   -1    0    0  501    0  0.00000000000E+00  0.00000000000E+00 -0.31745063061E+04  0.31745063061E+04  0.25500000920E-02 0. -1.
    10030    2    1    2    0    0  0.00000000000E+00  0.00000000000E+00 -0.23481331124E+04  0.40008794999E+04  0.32393375340E+04 0.  0.
        5    1    3    3  502    0 -0.38952793659E+03  0.57472715357E+02  0.76635269179E+03  0.86159948039E+03  0.46999998093E+01 0.  1.
       -5    1    3    3    0  502  0.38952793659E+03 -0.57472715357E+02 -0.31144858042E+04  0.31392800195E+04  0.46999998093E+01 0. -1.
</event>
<event>
 5   0  0.2337504E-06  0.3208438E+04  0.7818609E-02  0.8186592E-01
        2   -1    0    0  501    0  0.00000000000E+00  0.00000000000E+00  0.23707416642E+04  0.23707416642E+04  0.25500000920E-02 0.  1.
       -2   -1    0    0    0  501  0.00000000000E+00  0.00000000000E+00 -0.10855331629E+04  0.10855331629E+04  0.25500000920E-02 0. -1.
    10030    2    1    2    0    0  0.00000000000E+00  0.00000000000E+00  0.12852085013E+04  0.34562748270E+04  0.32084380605E+04 0.  0.
        1    1    3    3  502    0 -0.37133047166E+03 -0.98142545613E+02 -0.10352724540E+04  0.11042225014E+04  0.50400001928E-02 0. -1.
       -1    1    3    3    0  502  0.37133047166E+03  0.98142545613E+02  0.23204809554E+04  0.23520523257E+04  0.50400001928E-02 0.  1.
</event>
<event>
 5   0  0.8383008E-07  0.3203529E+04  0.7818609E-02  0.8187886E-01
        1   -1    0    0  501    0  0.00000000000E+00  0.00000000000E+00  0.21120251119E+04  0.21120251119E+04  0.50400001928E-02 0.  1.
       -1   -1    0    0    0  501  0.00000000000E+00  0.00000000000E+00 -0.12147820184E+04  0.12147820184E+04  0.50400001928E-02 0. -1.
    10030    2    1    2    0    0  0.00000000000E+00  0.00000000000E+00  0.89724309353E+03  0.33268071303E+04  0.32035293839E+04 0.  0.
        4    1    3    3  502    0  0.59745905262E+02 -0.14336643507E+04 -0.29058897137E+03  0.14640377750E+04  0.12699999809E+01 0. -1.
       -4    1    3    3    0  502 -0.59745905262E+02  0.14336643507E+04  0.11878320649E+04  0.18627693553E+04  0.12699999809E+01 0.  1.
</event>
<event>
 5   0  0.2337504E-06  0.3192743E+04  0.7818609E-02  0.8190736E-01
        2   -1    0    0  501    0  0.00000000000E+00  0.00000000000E+00  0.20634875813E+04  0.20634875813E+04  0.25500000920E-02 0.  1.
       -2   -1    0    0    0  501  0.00000000000E+00  0.00000000000E+00 -0.12349976686E+04  0.12349976686E+04  0.25500000920E-02 0. -1.
    10030    2    1    2    0    0  0.00000000000E+00  0.00000000000E+00  0.82848991268E+03  0.32984852499E+04  0.31927432419E+04 0.  0.
        1    1    3    3  502    0  0.45520641822E+02 -0.24443558569E+03 -0.12148706285E+04  0.12400530345E+04  0.50400001928E-02 0. -1.
       -1    1    3    3    0  502 -0.45520641822E+02  0.24443558569E+03  0.20433605412E+04  0.20584322154E+04  0.50400001928E-02 0.  1.
</event>
<event>
 5   0  0.8487944E-07  0.3193163E+04  0.7818609E-02  0.8190625E-01
        1   -1    0    0  501    0  0.00000000000E+00  0.00000000000E+00  0.15273812547E+04  0.15273812547E+04  0.50400001928E-02 0. -1.
       -1   -1    0    0    0  501  0.00000000000E+00  0.00000000000E+00 -0.16689166037E+04  0.16689166037E+04  0.50400001928E-02 0.  1.
    10030    2    1    2    0    0  0.00000000000E+00  0.00000000000E+00 -0.14153534900E+03  0.31962978584E+04  0.31931626555E+04 0.  0.
        2    1    3    3  502    0 -0.52453832944E+03  0.87527562119E+03  0.11583728496E+04  0.15437213255E+04  0.25500000920E-02 0. -1.
       -2    1    3    3    0  502  0.52453832944E+03 -0.87527562119E+03 -0.12999081986E+04  0.16525765328E+04  0.25500000920E-02 0.  1.
</event>
<event>
 5   0  0.2466076E-06  0.3203284E+04  0.7818609E-02  0.8187951E-01
       -2   -1    0    0    0  501  0.00000000000E+00  0.00000000000E+00  0.14161406934E+04  0.14161406934E+04  0.25500000920E-02 0.  1.
        2   -1    0    0  501    0  0.00000000000E+00  0.00000000000E+00 -0.18114418400E+04  0.18114418400E+04  0.25500000920E-02 0. -1.
    10030    2    1    2    0    0  0.00000000000E+00  0.00000000000E+00 -0.39530114663E+03  0.32275825334E+04  0.32032836299E+04 0.  0.
        3    1    3    3  502    0  0.17971795267E+03  0.10733162176E+04 -0.13817031259E+04  0.17588091948E+04  0.10100000352E+00 0. -1.
       -3    1    3    3    0  502 -0.17971795267E+03 -0.10733162176E+04  0.98640197923E+03  0.14687733386E+04  0.10100000352E+00 0.  1.
</event>
<event>
 5   0  0.8383008E-07  0.2889932E+04  0.7818609E-02  0.8275879E-01
       -1   -1    0    0    0  501  0.00000000000E+00  0.00000000000E+00  0.10317959396E+04  0.10317959396E+04  0.50400001928E-02 0. -1.
        1   -1    0    0  501    0  0.00000000000E+00  0.00000000000E+00 -0.20235854190E+04  0.20235854190E+04  0.50400001928E-02 0.  1.
    10030    2    1    2    0    0  0.00000000000E+00  0.00000000000E+00 -0.99178947940E+03  0.30553813585E+04  0.28899323304E+04 0.  0.
        4    1    3    3  502    0 -0.66562836480E+03  0.12437039750E+04 -0.16481350653E+03  0.14202203358E+04  0.12699999809E+01 0. -1.
       -4    1    3    3    0  502  0.66562836480E+03 -0.12437039750E+04 -0.82697597287E+03  0.16351610227E+04  0.12699999809E+01 0.  1.
</event>
<event>
 5   0  0.8681172E-07  0.3210536E+04  0.7818609E-02  0.8186040E-01
       -1   -1    0    0    0  501  0.00000000000E+00  0.00000000000E+00  0.21482962024E+04  0.21482962024E+04  0.50400001928E-02 0. -1.
        1   -1    0    0  501    0  0.00000000000E+00  0.00000000000E+00 -0.11995017930E+04  0.11995017930E+04  0.50400001928E-02 0.  1.
    10030    2    1    2    0    0  0.00000000000E+00  0.00000000000E+00  0.94879440935E+03  0.33477979954E+04  0.32105358722E+04 0.  0.
        1    1    3    3  502    0  0.10723890853E+04  0.52878428750E+02  0.17187613495E+04  0.20265623739E+04  0.50400001928E-02 0. -1.
       -1    1    3    3    0  502 -0.10723890853E+04 -0.52878428750E+02 -0.76996694017E+03  0.13212356215E+04  0.50400001928E-02 0.  1.
</event>
<event>
 5   0  0.2337504E-06  0.3225528E+04  0.7818609E-02  0.8182108E-01
        2   -1    0    0  501    0  0.00000000000E+00  0.00000000000E+00  0.20925078547E+04  0.20925078547E+04  0.25500000920E-02 0. -1.
       -2   -1    0    0    0  501  0.00000000000E+00  0.00000000000E+00 -0.12430097323E+04  0.12430097323E+04  0.25500000920E-02 0.  1.
    10030    2    1    2    0    0  0.00000000000E+00  0.00000000000E+00  0.84949812242E+03  0.33355175870E+04  0.32255279433E+04 0.  0.
        1    1    3    3  502    0 -0.61023689024E+03  0.80239061155E+02  0.19662793730E+04  0.20603596632E+04  0.50400001928E-02 0. -1.
       -1    1    3    3    0  502  0.61023689024E+03 -0.80239061155E+02 -0.11167812505E+04  0.12751579238E+04  0.50400001928E-02 0.  1.
</event>
<event>
 5   0  0.2404430E-06  0.3219531E+04  0.7818609E-02  0.8183678E-01
       -2   -1    0    0    0  501  0.00000000000E+00  0.00000000000E+00  0.15717161888E+04  0.15717161888E+04  0.25500000920E-02 0.  1.
        2   -1    0    0  501    0  0.00000000000E+00  0.00000000000E+00 -0.16487360970E+04  0.16487360970E+04  0.25500000920E-02 0. -1.
    10030    2    1    2    0    0  0.00000000000E+00  0.00000000000E+00 -0.77019908213E+02  0.32204522859E+04  0.32195311552E+04 0.  0.
        4    1    3    3  502    0 -0.61301571326E+03 -0.29579765196E+03  0.14206942695E+04  0.15753280089E+04  0.12699999809E+01 0.  1.
       -4    1    3    3    0  502  0.61301571326E+03  0.29579765196E+03 -0.14977141777E+04  0.16451242769E+04  0.12699999809E+01 0. -1.
</event>
<event>
 5   0  0.8512855E-07  0.3484282E+04  0.7818609E-02  0.8117525E-01
       -1   -1    0    0    0  501  0.00000000000E+00  0.00000000000E+00  0.17983321719E+04  0.17983321719E+04  0.50400001928E-02 0. -1.
        1   -1    0    0  501    0  0.00000000000E+00  0.00000000000E+00 -0.16877058729E+04  0.16877058729E+04  0.50400001928E-02 0.  1.
    10030    2    1    2    0    0  0.00000000000E+00  0.00000000000E+00  0.11062629907E+03  0.34860380448E+04  0.34842822893E+04 0.  0.
        5    1    3    3  502    0  0.65167275377E+03  0.84357835857E+03 -0.13233260001E+04  0.16992691422E+04  0.46999998093E+01 0.  1.
       -5    1    3    3    0  502 -0.65167275377E+03 -0.84357835857E+03  0.14339522992E+04  0.17867689026E+04  0.46999998093E+01 0. -1.
</event>
<event>
 5   0  0.2337504E-06  0.3198391E+04  0.7818609E-02  0.8189242E-01
        2   -1    0    0  501    0  0.00000000000E+00  0.00000000000E+00  0.13898202990E+04  0.13898202990E+04  0.25500000920E-02 0. -1.
       -2   -1    0    0    0  501  0.00000000000E+00  0.00000000000E+00 -0.18401125709E+04  0.18401125709E+04  0.25500000920E-02 0.  1.
    10030    2    1    2    0    0  0.00000000000E+00  0.00000000000E+00 -0.45029227194E+03  0.32299328699E+04  0.31983907226E+04 0.  0.
        1    1    3    3  502    0 -0.52567627048E+03  0.90769307846E+03 -0.14441893667E+04  0.17849160185E+04  0.50400001928E-02 0.  1.
       -1    1    3    3    0  502  0.52567627048E+03 -0.90769307846E+03  0.99389709477E+03  0.14450168515E+04  0.50400001928E-02 0. -1.
</event>
<event>
 5   0  0.2466076E-06  0.3116658E+04  0.7818609E-02  0.8211181E-01
        2   -1    0    0  501    0  0.00000000000E+00  0.00000000000E+00  0.19720387127E+04  0.19720387127E+04  0.25500000920E-02 0. -1.
       -2   -1    0    0    0  501  0.00000000000E+00  0.00000000000E+00 -0.12314101973E+04  0.12314101973E+04  0.25500000920E-02 0.  1.
    10030    2    1    2    0    0  0.00000000000E+00  0.00000000000E+00  0.74062851539E+03  0.32034489100E+04  0.31166575559E+04 0.  0.
        3    1    3    3  502    0 -0.89357068731E+02  0.97632121958E+03  0.16153261137E+04  0.18895677478E+04  0.10100000352E+00 0. -1.
       -3    1    3    3    0  502  0.89357068731E+02 -0.97632121958E+03 -0.87469759836E+03  0.13138811622E+04  0.10100000352E+00 0.  1.
</event>
<event>
 5   0  0.8681172E-07  0.3219995E+04  0.7818609E-02  0.8183557E-01
        1   -1    0    0  501    0  0.00000000000E+00  0.00000000000E+00  0.12024500641E+04  0.12024500641E+04  0.50400001928E-02 0.  1.
       -1   -1    0    0    0  501  0.00000000000E+00  0.00000000000E+00 -0.21556749530E+04  0.21556749530E+04  0.50400001928E-02 0. -1.
    10030    2    1    2    0    0  0.00000000000E+00  0.00000000000E+00 -0.95322488887E+03  0.33581250171E+04  0.32199947115E+04 0.  0.
        1    1    3    3  502    0  0.11979526286E+04  0.59344102214E+03 -0.14122193949E+04  0.19446404209E+04  0.50400001928E-02 0. -1.
       -1    1    3    3    0  502 -0.11979526286E+04 -0.59344102214E+03  0.45899450602E+03  0.14134845962E+04  0.50400001928E-02 0.  1.
</event>
<event>
 5   0  0.8681172E-07  0.3186507E+04  0.7818609E-02  0.8192390E-01
        1   -1    0    0  501    0  0.00000000000E+00  0.00000000000E+00  0.19820280168E+04  0.19820280168E+04  0.50400001928E-02 0.  1.
       -1   -1    0    0    0  501  0.00000000000E+00  0.00000000000E+00 -0.12807369614E+04  0.12807369614E+04  0.50400001928E-02 0. -1.
    10030    2    1    2    0    0  0.00000000000E+00  0.00000000000E+00  0.70129105538E+03  0.32627649781E+04  0.31865068897E+04 0.  0.
        1    1    3    3  502    0  0.13492618646E+04 -0.17837528653E+02 -0.51675855110E+03  0.14449446899E+04  0.50400001928E-02 0. -1.
       -1    1    3    3    0  502 -0.13492618646E+04  0.17837528653E+02  0.12180496065E+04  0.18178202883E+04  0.50400001928E-02 0.  1.
</event>
<event>
 5   0  0.8545153E-07  0.3102378E+04  0.7818609E-02  0.8215086E-01
        1   -1    0    0  501    0  0.00000000000E+00  0.00000000000E+00  0.22092277300E+04  0.22092277300E+04  0.50400001928E-02 0.  1.
       -1   -1    0    0    0  501  0.00000000000E+00  0.00000000000E+00 -0.10891530593E+04  0.10891530593E+04  0.50400001928E-02 0. -1.
    10030    2    1    2    0    0  0.00000000000E+00  0.00000000000E+00  0.11200746708E+04  0.32983807893E+04  0.31023778885E+04 0.  0.
        3    1    3    3  502    0 -0.29546642761E+03  0.77669273914E+03  0.19526122208E+04  0.21220854168E+04  0.10100000352E+00 0.  1.
       -3    1    3    3    0  502  0.29546642761E+03 -0.77669273914E+03 -0.83253755009E+03  0.11762953725E+04  0.10100000352E+00 0. -1.
</event>
<event>
 5   0  0.8512855E-07  0.3210106E+04  0.7818609E-02  0.8186153E-01
        1   -1    0    0  501    0  0.00000000000E+00  0.00000000000E+00  0.93221431607E+03  0.93221431608E+03  0.50400001928E-02 0.  1.
       -1   -1    0    0    0  501  0.00000000000E+00  0.00000000000E+00 -0.27635219164E+04  0.27635219164E+04  0.50400001928E-02 0. -1.
    10030    2    1    2    0    0  0.00000000000E+00  0.00000000000E+00 -0.18313076003E+04  0.36957362324E+04  0.32101057261E+04 0.  0.
        5    1    3    3  502    0  0.54808319859E+03 -0.15080322115E+04 -0.86936912528E+03  0.18249331794E+04  0.46999998093E+01 0.  1.
       -5    1    3    3    0  502 -0.54808319859E+03  0.15080322115E+04 -0.96193847500E+03  0.18708030530E+04  0.46999998093E+01 0. -1.
</event>
<event>
 5   0  0.8512855E-07  0.3200195E+04  0.7818609E-02  0.8188766E-01
       -1   -1    0    0    0  501  0.00000000000E+00  0.00000000000E+00  0.10846255016E+04  0.10846255016E+04  0.50400001928E-02 0. -1.
        1   -1    0    0  501    0  0.00000000000E+00  0.00000000000E+00 -0.23605498098E+04  0.23605498099E+04  0.50400001928E-02 0.  1.
    10030    2    1    2    0    0  0.00000000000E+00  0.00000000000E+00 -0.12759243082E+04  0.34451753115E+04  0.32001953201E+04 0.  0.
        5    1    3    3  502    0 -0.12662870805E+03  0.16746097039E+03  0.10697257093E+04  0.10901436554E+04  0.46999998093E+01 0. -1.
       -5    1    3    3    0  502  0.12662870805E+03 -0.16746097039E+03 -0.23456500175E+04  0.23550316561E+04  0.46999998093E+01 0.  1.
</event>
<event>
 5   0  0.2404430E-06  0.3060324E+04  0.7818609E-02  0.8226712E-01
       -2   -1    0    0    0  501  0.00000000000E+00  0.00000000000E+00  0.16410165942E+04  0.16410165942E+04  0.25500000920E-02 0.  1.
        2   -1    0    0  501    0  0.00000000000E+00  0.00000000000E+00 -0.14267962470E+04  0.14267962470E+04  0.25500000920E-02 0. -1.
    10030    2    1    2    0    0  0.00000000000E+00  0.00000000000E+00  0.21422034719E+03  0.30678128413E+04  0.30603243736E+04 0.  0.
        4    1    3    3  502    0 -0.10200598023E+04 -0.41005032592E+03 -0.95979267901E+03  0.14594063415E+04  0.12699999809E+01 0. -1.
       -4    1    3    3    0  502  0.10200598023E+04  0.41005032592E+03  0.11740130262E+04  0.16084064998E+04  0.12699999809E+01 0.  1.
</event>
<event>
 5   0  0.2337504E-06  0.3152008E+04  0.7818609E-02  0.8201608E-01
       -2   -1    0    0    0  501  0.00000000000E+00  0.00000000000E+00  0.12113103908E+04  0.12113103908E+04  0.25500000920E-02 0.  1.
        2   -1    0    0  501    0  0.00000000000E+00  0.00000000000E+00 -0.20504968451E+04  0.20504968451E+04  0.25500000920E-02 0. -1.
    10030    2    1    2    0    0  0.00000000000E+00  0.00000000000E+00 -0.83918645427E+03  0.32618072359E+04  0.31520076997E+04 0.  0.
        1    1    3    3  502    0 -0.36554678425E+03 -0.61588275696E+03  0.10331807126E+04  0.12571389767E+04  0.50400001928E-02 0.  1.
       -1    1    3    3    0  502  0.36554678425E+03  0.61588275696E+03 -0.18723671669E+04  0.20046682592E+04  0.50400001928E-02 0. -1.
</event>
<event>
 5   0  0.8487944E-07  0.3260850E+04  0.7818609E-02  0.8172929E-01
       -1   -1    0    0    0  501  0.00000000000E+00  0.00000000000E+00  0.24990468612E+04  0.24990468612E+04  0.50400001928E-02 0. -1.
        1   -1    0    0  501    0  0.00000000000E+00  0.00000000000E+00 -0.10637198323E+04  0.10637198324E+04  0.50400001928E-02 0.  1.
    10030    2    1    2    0    0  0.00000000000E+00  0.00000000000E+00  0.14353270288E+04  0.35627666935E+04  0.32608500169E+04 0.  0.
        2    1    3    3  502    0 -0.11431495692E+04  0.57178466823E+03 -0.38825883768E+03  0.13358418953E+04  0.25500000920E-02 0.  1.
       -2    1    3    3    0  502  0.11431495692E+04 -0.57178466823E+03  0.18235858665E+04  0.22269247982E+04  0.25500000920E-02 0. -1.
</event>
<event>
 5   0  0.2401139E-06  0.3183097E+04  0.7818609E-02  0.8193296E-01
       -2   -1    0    0    0  501  0.00000000000E+00  0.00000000000E+00  0.13037164319E+04  0.13037164320E+04  0.25500000920E-02 0. -1.
        2   -1    0    0  501    0  0.00000000000E+00  0.00000000000E+00 -0.19429275376E+04  0.19429275376E+04  0.25500000920E-02 0.  1.
    10030    2    1    2    0    0  0.00000000000E+00  0.00000000000E+00 -0.63921110564E+03  0.32466439695E+04  0.31830969554E+04 0.  0.
        5    1    3    3  502    0  0.44697456142E+03  0.37293382918E+03 -0.18304398130E+04  0.19207805441E+04  0.46999998093E+01 0.  1.
       -5    1    3    3    0  502 -0.44697456142E+03 -0.37293382918E+03  0.11912287074E+04  0.13258634254E+04  0.46999998093E+01 0. -1.
</event>
<event>
 5   0  0.8487944E-07  0.3196922E+04  0.7818609E-02  0.8189630E-01
       -1   -1    0    0    0  501  0.00000000000E+00  0.00000000000E+00  0.14242340518E+04  0.14242340518E+04  0.50400001928E-02 0. -1.
        1   -1    0    0  501    0  0.00000000000E+00  0.00000000000E+00 -0.17940014251E+04  0.17940014251E+04  0.50400001928E-02 0.  1.
    10030    2    1    2    0    0  0.00000000000E+00  0.00000000000E+00 -0.36976737324E+03  0.32182354769E+04  0.31969222191E+04 0.  0.
        2    1    3    3  502    0  0.63546004766E+03 -0.80821691592E+03 -0.14169936302E+04  0.17506841529E+04  0.25500000920E-02 0.  1.
       -2    1    3    3    0  502 -0.63546004766E+03  0.80821691592E+03  0.10472262569E+04  0.14675513240E+04  0.25500000920E-02 0. -1.
</event>
<event>
 5   0  0.2621528E-06  0.3200904E+04  0.7818609E-02  0.8188579E-01
        2   -1    0    0  501    0  0.00000000000E+00  0.00000000000E+00  0.18528385804E+04  0.18528385804E+04  0.25500000920E-02 0.  1.
       -2   -1    0    0    0  501  0.00000000000E+00  0.00000000000E+00 -0.13824444010E+04  0.13824444010E+04  0.25500000920E-02 0. -1.
    10030    2    1    2    0    0  0.00000000000E+00  0.00000000000E+00  0.47039417938E+03  0.32352829815E+04  0.32009038233E+04 0.  0.
        2    1    3    3  502    0  0.21424108002E+02 -0.11639971844E+04  0.13452174013E+04  0.17790329661E+04  0.25500000920E-02 0.  1.
       -2    1    3    3    0  502 -0.21424108002E+02  0.11639971844E+04 -0.87482322193E+03  0.14562500154E+04  0.25500000920E-02 0. -1.
</event>
<event>
 5   0  0.2466076E-06  0.3213322E+04  0.7818609E-02  0.8185308E-01
       -2   -1    0    0    0  501  0.00000000000E+00  0.00000000000E+00  0.11378509787E+04  0.11378509787E+04  0.25500000920E-02 0. -1.
        2   -1    0    0  501    0  0.00000000000E+00  0.00000000000E+00 -0.22686275295E+04  0.22686275295E+04  0.25500000920E-02 0.  1.
    10030    2    1    2    0    0  0.00000000000E+00  0.00000000000E+00 -0.11307765508E+04  0.34064785082E+04  0.32133223024E+04 0.  0.
        3    1    3    3  502    0  0.13005328409E+04 -0.71943033537E+02  0.43179175346E+03  0.13722265115E+04  0.10100000352E+00 0. -1.
       -3    1    3    3    0  502 -0.13005328409E+04  0.71943033537E+02 -0.15625683042E+04  0.20342519967E+04  0.10100000352E+00 0.  1.
</event>
<event>
 5   0  0.2337504E-06  0.3243462E+04  0.7818609E-02  0.8177432E-01
       -2   -1    0    0    0  501  0.00000000000E+00  0.00000000000E+00  0.18430261729E+04  0.18430261729E+04  0.25500000920E-02 0.  1.
        2   -1    0    0  501    0  0.00000000000E+00  0.00000000000E+00 -0.14270071644E+04  0.14270071644E+04  0.25500000920E-02 0. -1.
    10030    2    1    2    0    0  0.00000000000E+00  0.00000000000E+00  0.41601900849E+03  0.32700333373E+04  0.32434620719E+04 0.  0.
        1    1    3    3  502    0  0.86870281507E+03 -0.13126775142E+04  0.60139149195E+03  0.16850633708E+04  0.50400001928E-02 0.  1.
       -1    1    3    3    0  502 -0.86870281507E+03  0.13126775142E+04 -0.18537248346E+03  0.15849699665E+04  0.50400001928E-02 0. -1.
</event>
<event>
 5   0  0.2404430E-06  0.3193175E+04  0.7818609E-02  0.8190622E-01
       -2   -1    0    0    0  501  0.00000000000E+00  0.00000000000E+00  0.12274238074E+04  0.12274238074E+04  0.25500000920E-02 0. -1.
        2   -1    0    0  501    0  0.00000000000E+00  0.00000000000E+00 -0.20767825124E+04  0.20767825124E+04  0.25500000920E-02 0.  1.
    10030    2    1    2    0    0  0.00000000000E+00  0.00000000000E+00 -0.84935870495E+03  0.33042063198E+04  0.31931754093E+04 0.  0.
        4    1    3    3  502    0  0.57987555441E+03  0.10996676236E+04 -0.14612940983E+04  0.19185688926E+04  0.12699999809E+01 0.  1.
       -4    1    3    3    0  502 -0.57987555441E+03 -0.10996676236E+04  0.61193539336E+03  0.13856374272E+04  0.12699999809E+01 0. -1.
</event>
<event>
 5   0  0.8512855E-07  0.3136849E+04  0.7818609E-02  0.8205697E-01
       -1   -1    0    0    0  501  0.00000000000E+00  0.00000000000E+00  0.15044401157E+04  0.15044401157E+04  0.50400001928E-02 0.  1.
        1   -1    0    0  501    0  0.00000000000E+00  0.00000000000E+00 -0.16351297181E+04  0.16351297182E+04  0.50400001928E-02 0. -1.
    10030    2    1    2    0    0  0.00000000000E+00  0.00000000000E+00 -0.13068960250E+03  0.31395698338E+04  0.31368485729E+04 0.  0.
        5    1    3    3  502    0 -0.53950006315E+03  0.61030339227E+03 -0.14068067889E+04  0.16256254120E+04  0.46999998093E+01 0. -1.
       -5    1    3    3    0  502  0.53950006315E+03 -0.61030339227E+03  0.12761171864E+04  0.15139444218E+04  0.46999998093E+01 0.  1.
</event>
<event>
 5   0  0.8383008E-07  0.3192630E+04  0.7818609E-02  0.8190766E-01
       -1   -1    0    0    0  501  0.00000000000E+00  0.00000000000E+00  0.15311943079E+04  0.15311943079E+04  0.50400001928E-02 0.  1.
        1   -1    0    0  501    0  0.00000000000E+00  0.00000000000E+00 -0.16642053511E+04  0.16642053511E+04  0.50400001928E-02 0. -1.
    10030    2    1    2    0    0  0.00000000000E+00  0.00000000000E+00 -0.13301104318E+03  0.31953996590E+04  0.31926301137E+04 0.  0.
        4    1    3    3  502    0  0.23191792130E+03  0.12365812536E+04  0.91684411889E+03  0.15567671214E+04  0.12699999809E+01 0.  1.
       -4    1    3    3    0  502 -0.23191792130E+03 -0.12365812536E+04 -0.10498551621E+04  0.16386325376E+04  0.12699999809E+01 0. -1.
</event>
<event>
 5   0  0.7934375E-07  0.2919847E+04  0.7818609E-02  0.8266997E-01
        3   -1    0    0  501    0  0.00000000000E+00  0.00000000000E+00  0.17618507720E+04  0.17618507749E+04  0.10100000352E+00 0.  1.
       -3   -1    0    0    0  501  0.00000000000E+00  0.00000000000E+00 -0.12097373564E+04  0.12097373607E+04  0.10100000352E+00 0. -1.
    10030    2    1    2    0    0  0.00000000000E+00  0.00000000000E+00  0.55211341554E+03  0.29715881355E+04  0.29198470548E+04 0.  0.
        2    1    3    3  502    0 -0.66092125600E+03  0.10908511092E+04  0.99899912904E+03  0.16201149061E+04  0.25500000920E-02 0.  1.
       -2    1    3    3    0  502  0.66092125600E+03 -0.10908511092E+04 -0.44688571350E+03  0.13514732295E+04  0.25500000920E-02 0. -1.
</event>
<event>
 5   0  0.2466076E-06  0.3215749E+04  0.7818609E-02  0.8184670E-01
       -2   -1    0    0    0  501  0.00000000000E+00  0.00000000000E+00  0.11124744578E+04  0.11124744578E+04  0.25500000920E-02 0.  1.
        2   -1    0    0  501    0  0.00000000000E+00  0.00000000000E+00 -0.23238823327E+04  0.23238823327E+04  0.25500000920E-02 0. -1.
    10030    2    1    2    0    0  0.00000000000E+00  0.00000000000E+00 -0.12114078749E+04  0.34363567904E+04  0.32157485834E+04 0.  0.
        3    1    3    3  502    0 -0.59913571774E+03 -0.11907822262E+04  0.35504858725E+03  0.13794873788E+04  0.10100000352E+00 0.  1.
       -3    1    3    3    0  502  0.59913571774E+03  0.11907822262E+04 -0.15664564622E+04  0.20568694117E+04  0.10100000352E+00 0. -1.
</event>
<event>
 5   0  0.2621528E-06  0.3205295E+04  0.7818609E-02  0.8187420E-01
       -2   -1    0    0    0  501  0.00000000000E+00  0.00000000000E+00  0.74933580560E+03  0.74933580560E+03  0.25500000920E-02 0.  1.
        2   -1    0    0  501    0  0.00000000000E+00  0.00000000000E+00 -0.34276735280E+04  0.34276735280E+04  0.25500000920E-02 0. -1.
    10030    2    1    2    0    0  0.00000000000E+00  0.00000000000E+00 -0.26783377224E+04  0.41770093336E+04  0.32052946850E+04 0.  0.
        2    1    3    3  502    0  0.45194731437E+03  0.14686766795E+04 -0.19323725233E+04  0.24688724415E+04  0.25500000920E-02 0. -1.
       -2    1    3    3    0  502 -0.45194731437E+03 -0.14686766795E+04 -0.74596519910E+03  0.17081368921E+04  0.25500000920E-02 0.  1.
</event>
<event>
 5   0  0.2401139E-06  0.3200535E+04  0.7818609E-02  0.8188676E-01
       -2   -1    0    0    0  501  0.00000000000E+00  0.00000000000E+00  0.20258947794E+04  0.20258947794E+04  0.25500000920E-02 0.  1.
        2   -1    0    0  501    0  0.00000000000E+00  0.00000000000E+00 -0.12640619388E+04  0.12640619388E+04  0.25500000920E-02 0. -1.
    10030    2    1    2    0    0  0.00000000000E+00  0.00000000000E+00  0.76183284067E+03  0.32899567182E+04  0.32005352569E+04 0.  0.
        5    1    3    3  502    0  0.52670796675E+01  0.14890898621E+04 -0.22147547060E+03  0.15054865771E+04  0.46999998093E+01 0. -1.
       -5    1    3    3    0  502 -0.52670796675E+01 -0.14890898621E+04  0.98330831126E+03  0.17844701411E+04  0.46999998093E+01 0.  1.
</event>
<event>
 5   0  0.8383008E-07  0.3205251E+04  0.7818609E-02  0.8187432E-01
        1   -1    0    0  501    0  0.00000000000E+00  0.00000000000E+00  0.26902773645E+04  0.26902773645E+04  0.50400001928E-02 0. -1.
       -1   -1    0    0    0  501  0.00000000000E+00  0.00000000000E+00 -0.95470052615E+03  0.95470052617E+03  0.50400001928E-02 0.  1.
    10030    2    1    2    0    0  0.00000000000E+00  0.00000000000E+00  0.17355768384E+04  0.36449778907E+04  0.32052514506E+04 0.  0.
        4    1    3    3  502    0  0.49738704023E+03 -0.11902457745E+04 -0.21363546565E+03  0.13075628461E+04  0.12699999809E+01 0.  1.
       -4    1    3    3    0  502 -0.49738704023E+03  0.11902457745E+04  0.19492123040E+04  0.23374150446E+04  0.12699999809E+01 0. -1.
</event>
<event>
 5   0  0.8681172E-07  0.3237528E+04  0.7818609E-02  0.8178976E-01
        1   -1    0    0  501    0  0.00000000000E+00  0.00000000000E+00  0.24735792819E+04  0.24735792819E+04  0.50400001928E-02 0. -1.
       -1   -1    0    0    0  501  0.00000000000E+00  0.00000000000E+00 -0.10593540618E+04  0.10593540618E+04  0.50400001928E-02 0.  1.
    10030    2    1    2    0    0  0.00000000000E+00  0.00000000000E+00  0.14142252201E+04  0.35329333437E+04  0.32375276119E+04 0.  0.
        1    1    3    3  502    0  0.49432479411E+03 -0.57491200574E+03 -0.85360145371E+03  0.11417163650E+04  0.50400001928E-02 0.  1.
       -1    1    3    3    0  502 -0.49432479411E+03  0.57491200574E+03  0.22678266738E+04  0.23912169786E+04  0.50400001928E-02 0. -1.
</event>
<event>
 5   0  0.2621528E-06  0.3086179E+04  0.7818609E-02  0.8219541E-01
        2   -1    0    0  501    0  0.00000000000E+00  0.00000000000E+00  0.23137394773E+04  0.23137394773E+04  0.25500000920E-02 0.  1.
       -2   -1    0    0    0  501  0.00000000000E+00  0.00000000000E+00 -0.10291240682E+04  0.10291240682E+04  0.25500000920E-02 0. -1.
    10030    2    1    2    0    0  0.00000000000E+00  0.00000000000E+00  0.12846154091E+04  0.33428635455E+04  0.30861788566E+04 0.  0.
        2    1    3    3  502    0  0.31840496675E+03  0.14654136595E+04  0.10362997360E+04  0.18228373650E+04  0.25500000920E-02 0.  1.
       -2    1    3    3    0  502 -0.31840496675E+03 -0.14654136595E+04  0.24831567303E+03  0.15200261806E+04  0.25500000920E-02 0. -1.
</event>
<event>
 5   0  0.8383008E-07  0.2931832E+04  0.7818609E-02  0.8263469E-01
       -1   -1    0    0    0  501  0.00000000000E+00  0.00000000000E+00  0.11839540704E+04  0.11839540704E+04  0.50400001928E-02 0.  1.
        1   -1    0    0  501    0  0.00000000000E+00  0.00000000000E+00 -0.18150278094E+04  0.18150278094E+04  0.50400001928E-02 0. -1.
    10030    2    1    2    0    0  0.00000000000E+00  0.00000000000E+00 -0.63107373896E+03  0.29989818798E+04  0.29318318935E+04 0.  0.
        4    1    3    3  502    0  0.84920435626E+03  0.30812848074E+03 -0.14964555644E+04  0.17479908662E+04  0.12699999809E+01 0. -1.
       -4    1    3    3    0  502 -0.84920435626E+03 -0.30812848074E+03  0.86538182545E+03  0.12509910136E+04  0.12699999809E+01 0.  1.
</event>
<event>
 5   0  0.2404430E-06  0.3182292E+04  0.7818609E-02  0.8193510E-01
        2   -1    0    0  501    0  0.00000000000E+00  0.00000000000E+00  0.13700721767E+04  0.13700721767E+04  0.25500000920E-02 0. -1.
       -2   -1    0    0    0  501  0.00000000000E+00  0.00000000000E+00 -0.18478921818E+04  0.18478921818E+04  0.25500000920E-02 0.  1.
    10030    2    1    2    0    0  0.00000000000E+00  0.00000000000E+00 -0.47782000516E+03  0.32179643585E+04  0.31822920443E+04 0.  0.
        4    1    3    3  502    0 -0.68965362557E+03  0.46793127647E+03 -0.16095233375E+04  0.18124979420E+04  0.12699999809E+01 0.  1.
       -4    1    3    3    0  502  0.68965362557E+03 -0.46793127647E+03  0.11317033324E+04  0.14054664166E+04  0.12699999809E+01 0. -1.
</event>
<event>
 5   0  0.8512855E-07  0.3196099E+04  0.7818609E-02  0.8189848E-01
        1   -1    0    0  501    0  0.00000000000E+00  0.00000000000E+00  0.26511033803E+04  0.26511033803E+04  0.50400001928E-02 0. -1.
       -1   -1    0    0    0  501  0.00000000000E+00  0.00000000000E+00 -0.96328299844E+03  0.96328299846E+03  0.50400001928E-02 0.  1.
    10030    2    1    2    0    0  0.00000000000E+00  0.00000000000E+00  0.16878203819E+04  0.36143863788E+04  0.31960993811E+04 0.  0.
        5    1    3    3  502    0  0.23722570725E+03  0.74730997954E+03  0.24186266415E+04  0.25425430503E+04  0.46999998093E+01 0. -1.
       -5    1    3    3    0  502 -0.23722570725E+03 -0.74730997954E+03 -0.73080625962E+03  0.10718433285E+04  0.46999998093E+01 0.  1.
</event>
<event>
 5   0  0.2401139E-06  0.3069686E+04  0.7818609E-02  0.8224107E-01
       -2   -1    0    0    0  501  0.00000000000E+00  0.00000000000E+00  0.10957367717E+04  0.10957367717E+04  0.25500000920E-02 0.  1.
        2   -1    0    0  501    0  0.00000000000E+00  0.00000000000E+00 -0.21499173176E+04  0.21499173176E+04  0.25500000920E-02 0. -1.
    10030    2    1    2    0    0  0.00000000000E+00  0.00000000000E+00 -0.10541805459E+04  0.32456540893E+04  0.30696862778E+04 0.  0.
        5    1    3    3  502    0  0.93099804732E+03 -0.64156578740E+03 -0.16245488283E+04  0.19792789114E+04  0.46999998093E+01 0. -1.
       -5    1    3    3    0  502 -0.93099804732E+03  0.64156578740E+03  0.57036828238E+03  0.12663751779E+04  0.46999998093E+01 0.  1.
</event>
<event>
 5   0  0.2337504E-06  0.3180195E+04  0.7818609E-02  0.8194067E-01
        2   -1    0    0  501    0  0.00000000000E+00  0.00000000000E+00  0.16880551268E+04  0.16880551268E+04  0.25500000920E-02 0.  1.
       -2   -1    0    0    0  501  0.00000000000E+00  0.00000000000E+00 -0.14978241813E+04  0.14978241813E+04  0.25500000920E-02 0. -1.
    10030    2    1    2    0    0  0.00000000000E+00  0.00000000000E+00  0.19023094552E+03  0.31858793082E+04  0.31801948295E+04 0.  0.
        1    1    3    3  502    0 -0.63522470152E+03  0.12125210190E+04  0.90569225038E+03  0.16413397257E+04  0.50400001928E-02 0.  1.
       -1    1    3    3    0  502  0.63522470152E+03 -0.12125210190E+04 -0.71546130485E+03  0.15445395824E+04  0.50400001928E-02 0. -1.
</event>
<event>
 5   0  0.8545153E-07  0.3210091E+04  0.7818609E-02  0.8186157E-01
        1   -1    0    0  501    0  0.00000000000E+00  0.00000000000E+00  0.19990135992E+04  0.19990135992E+04  0.50400001928E-02 0. -1.
       -1   -1    0    0    0  501  0.00000000000E+00  0.00000000000E+00 -0.12887214309E+04  0.12887214309E+04  0.50400001928E-02 0.  1.
    10030    2    1    2    0    0  0.00000000000E+00  0.00000000000E+00  0.71029216835E+03  0.32877350301E+04  0.32100913794E+04 0.  0.
        3    1    3    3  502    0  0.87725847086E+03  0.98672950585E+03 -0.57959203163E+03  0.14419238800E+04  0.10100000352E+00 0.  1.
       -3    1    3    3    0  502 -0.87725847086E+03 -0.98672950585E+03  0.12898842000E+04  0.18458111501E+04  0.10100000352E+00 0. -1.
</event>
<event>
 5   0  0.8383008E-07  0.2981876E+04  0.7818609E-02  0.8248925E-01
        1   -1    0    0  501    0  0.00000000000E+00  0.00000000000E+00  0.12632194765E+04  0.12632194765E+04  0.50400001928E-02 0.  1.
       -1   -1    0    0    0  501  0.00000000000E+00  0.00000000000E+00 -0.17597064238E+04  0.17597064238E+04  0.50400001928E-02 0. -1.
    10030    2    1    2    0    0  0.00000000000E+00  0.00000000000E+00 -0.49648694731E+03  0.30229259002E+04  0.29818755356E+04 0.  0.
        4    1    3    3  502    0 -0.35855177602E+03 -0.46142936574E+03 -0.16387741217E+04  0.17398444386E+04  0.12699999809E+01 0. -1.
       -4    1    3    3    0  502  0.35855177602E+03  0.46142936574E+03  0.11422871744E+04  0.12830814617E+04  0.12699999809E+01 0.  1.
</event>
<event>
 5   0  0.8383008E-07  0.3295521E+04  0.7818609E-02  0.8164036E-01
        1   -1    0    0  501    0  0.00000000000E+00  0.00000000000E+00  0.17753816073E+04  0.17753816073E+04  0.50400001928E-02 0.  1.
       -1   -1    0    0    0  501  0.00000000000E+00  0.00000000000E+00 -0.15293134203E+04  0.15293134203E+04  0.50400001928E-02 0. -1.
    10030    2    1    2    0    0  0.00000000000E+00  0.00000000000E+00  0.24606818698E+03  0.33046950277E+04  0.32955211535E+04 0.  0.
        4    1    3    3  502    0  0.49200192840E+03 -0.13008601481E+03 -0.14485315261E+04  0.15353284547E+04  0.12699999809E+01 0. -1.
       -4    1    3    3    0  502 -0.49200192840E+03  0.13008601481E+03  0.16945997131E+04  0.17693665729E+04  0.12699999809E+01 0.  1.
</event>
<event>
 5   0  0.8383008E-07  0.3189906E+04  0.7818609E-02  0.8191488E-01
       -1   -1    0    0    0  501  0.00000000000E+00  0.00000000000E+00  0.16876281291E+04  0.16876281291E+04  0.50400001928E-02 0.  1.
        1   -1    0    0  501    0  0.00000000000E+00  0.00000000000E+00 -0.15073667788E+04  0.15073667788E+04  0.50400001928E-02 0. -1.
    10030    2    1    2    0    0  0.00000000000E+00  0.00000000000E+00  0.18026135031E+03  0.31949949080E+04  0.31899056895E+04 0.  0.
        4    1    3    3  502    0  0.96185841720E+03  0.39243638330E+03 -0.11220460244E+04  0.15291065442E+04  0.12699999809E+01 0. -1.
       -4    1    3    3    0  502 -0.96185841720E+03 -0.39243638330E+03  0.13023073747E+04  0.16658883638E+04  0.12699999809E+01 0.  1.
</event>
<event>
 5   0  0.8545153E-07  0.3169922E+04  0.7818609E-02  0.8196806E-01
       -1   -1    0    0    0  501  0.00000000000E+00  0.00000000000E+00  0.12148988106E+04  0.12148988106E+04  0.50400001928E-02 0.  1.
        1   -1    0    0  501    0  0.00000000000E+00  0.00000000000E+00 -0.20677451402E+04  0.20677451402E+04  0.50400001928E-02 0. -1.
    10030    2    1    2    0    0  0.00000000000E+00  0.00000000000E+00 -0.85284632962E+03  0.32826439508E+04  0.31699218359E+04 0.  0.
        3    1    3    3  502    0 -0.14585782668E+04 -0.15643679188E+03  0.19506642765E+03  0.14798560578E+04  0.10100000352E+00 0.  1.
       -3    1    3    3    0  502  0.14585782668E+04  0.15643679188E+03 -0.10479127573E+04  0.18027878931E+04  0.10100000352E+00 0. -1.
</event>
<event>
 5   0  0.2401139E-06  0.3175846E+04  0.7818609E-02  0.8195225E-01
       -2   -1    0    0    0  501  0.00000000000E+00  0.00000000000E+00  0.13012189339E+04  0.13012189339E+04  0.25500000920E-02 0.  1.
        2   -1    0    0  501    0  0.00000000000E+00  0.00000000000E+00 -0.19377982231E+04  0.19377982231E+04  0.25500000920E-02 0. -1.
    10030    2    1    2    0    0  0.00000000000E+00  0.00000000000E+00 -0.63657928922E+03  0.32390171570E+04  0.31758461789E+04 0.  0.
        5    1    3    3  502    0  0.90088279579E+03 -0.10936409736E+04 -0.10493724748E+04  0.17631917286E+04  0.46999998093E+01 0. -1.
       -5    1    3    3    0  502 -0.90088279579E+03  0.10936409736E+04  0.41279318562E+03  0.14758254284E+04  0.46999998093E+01 0.  1.
</event>
<event>
 5   0  0.2621528E-06  0.3221283E+04  0.7818609E-02  0.8183219E-01
        2   -1    0    0  501    0  0.00000000000E+00  0.00000000000E+00  0.19921130298E+04  0.19921130298E+04  0.25500000920E-02 0. -1.
       -2   -1    0    0    0  501  0.00000000000E+00  0.00000000000E+00 -0.13022185422E+04  0.13022185422E+04  0.25500000920E-02 0.  1.
    10030    2    1    2    0    0  0.00000000000E+00  0.00000000000E+00  0.68989448758E+03  0.32943315720E+04  0.32212833005E+04 0.  0.
        2    1    3    3  502    0  0.13457520633E+04 -0.88201515102E+03  0.27143404736E+03  0.16317707513E+04  0.25500000920E-02 0.  1.
       -2    1    3    3    0  502 -0.13457520633E+04  0.88201515102E+03  0.41846044023E+03  0.16625608207E+04  0.25500000920E-02 0. -1.
</event>
<event>
 5   0  0.8487944E-07  0.3203007E+04  0.7818609E-02  0.8188023E-01
       -1   -1    0    0    0  501  0.00000000000E+00  0.00000000000E+00  0.19890592897E+04  0.19890592897E+04  0.50400001928E-02 0. -1.
        1   -1    0    0  501    0  0.00000000000E+00  0.00000000000E+00 -0.12894606363E+04  0.12894606363E+04  0.50400001928E-02 0.  1.
    10030    2    1    2    0    0  0.00000000000E+00  0.00000000000E+00  0.69959865334E+03  0.32785199260E+04  0.32030071229E+04 0.  0.
        2    1    3    3  502    0 -0.72452208175E+03 -0.42138282540E+03 -0.10470412258E+04  0.13411901658E+04  0.25500000920E-02 0.  1.
       -2    1    3    3    0  502  0.72452208175E+03  0.42138282540E+03  0.17466398791E+04  0.19373297602E+04  0.25500000920E-02 0. -1.
</event>
<event>
 5   0  0.8681172E-07  0.3203317E+04  0.7818609E-02  0.8187942E-01
       -1   -1    0    0    0  501  0.00000000000E+00  0.00000000000E+00  0.98561778465E+03  0.98561778466E+03  0.50400001928E-02 0. -1.
        1   -1    0    0  501    0  0.00000000000E+00  0.00000000000E+00 -0.26027437627E+04  0.26027437627E+04  0.50400001928E-02 0.  1.
    10030    2    1    2    0    0  0.00000000000E+00  0.00000000000E+00 -0.16171259781E+04  0.35883615474E+04  0.32033173689E+04 0.  0.
        1    1    3    3  502    0  0.84732031221E+03  0.44753445160E+03 -0.22462107228E+04  0.24420690834E+04  0.50400001928E-02 0.  1.
       -1    1    3    3    0  502 -0.84732031221E+03 -0.44753445160E+03  0.62908474474E+03  0.11462924640E+04  0.50400001928E-02 0. -1.
</event>
<event>
 5   0  0.8545153E-07  0.3068073E+04  0.7818609E-02  0.8224555E-01
       -1   -1    0    0    0  501  0.00000000000E+00  0.00000000000E+00  0.14167433366E+04  0.14167433366E+04  0.50400001928E-02 0.  1.
        1   -1    0    0  501    0  0.00000000000E+00  0.00000000000E+00 -0.16610400909E+04  0.16610400909E+04  0.50400001928E-02 0. -1.
    10030    2    1    2    0    0  0.00000000000E+00  0.00000000000E+00 -0.24429675427E+03  0.30777834275E+04  0.30680726723E+04 0.  0.
        3    1    3    3  502    0  0.14654340248E+04  0.40228586073E+03 -0.33242258756E+03  0.15555820717E+04  0.10100000352E+00 0.  1.
       -3    1    3    3    0  502 -0.14654340248E+04 -0.40228586073E+03  0.88125833291E+02  0.15222013558E+04  0.10100000352E+00 0. -1.
</event>
<event>
 5   0  0.8681172E-07  0.3116379E+04  0.7818609E-02  0.8211257E-01
        1   -1    0    0  501    0  0.00000000000E+00  0.00000000000E+00  0.10901498082E+04  0.10901498082E+04  0.50400001928E-02 0. -1.
       -1   -1    0    0    0  501  0.00000000000E+00  0.00000000000E+00 -0.22271756798E+04  0.22271756798E+04  0.50400001928E-02 0.  1.
    10030    2    1    2    0    0  0.00000000000E+00  0.00000000000E+00 -0.11370258716E+04  0.33173254880E+04  0.31163793993E+04 0.  0.
        1    1    3    3  502    0 -0.50616766141E+03  0.59574846637E+03  0.86630002103E+03  0.11668751703E+04  0.50400001928E-02 0. -1.
       -1    1    3    3    0  502  0.50616766141E+03 -0.59574846637E+03 -0.20033258926E+04  0.21504503177E+04  0.50400001928E-02 0.  1.
</event>
<event>
 5   0  0.8383008E-07  0.3161758E+04  0.7818609E-02  0.8198991E-01
       -1   -1    0    0    0  501  0.00000000000E+00  0.00000000000E+00  0.10375865933E+04  0.10375865933E+04  0.50400001928E-02 0.  1.
        1   -1    0    0  501    0  0.00000000000E+00  0.00000000000E+00 -0.24086450827E+04  0.24086450828E+04  0.50400001928E-02 0. -1.
    10030    2    1    2    0    0  0.00000000000E+00  0.00000000000E+00 -0.13710584895E+04  0.34462316760E+04  0.31617576415E+04 0.  0.
        4    1    3    3  502    0 -0.79050885849E+03 -0.34829173518E+03 -0.21286494135E+04  0.22972508193E+04  0.12699999809E+01 0. -1.
       -4    1    3    3    0  502  0.79050885849E+03  0.34829173518E+03  0.75759092403E+03  0.11489808568E+04  0.12699999809E+01 0.  1.
</event>
<event>
 5   0  0.8383008E-07  0.3193326E+04  0.7818609E-02  0.8190582E-01
        1   -1    0    0  501    0  0.00000000000E+00  0.00000000000E+00  0.18983526347E+04  0.18983526347E+04  0.50400001928E-02 0.  1.
       -1   -1    0    0    0  501  0.00000000000E+00  0.00000000000E+00 -0.13429185044E+04  0.13429185044E+04  0.50400001928E-02 0. -1.
    10030    2    1    2    0    0  0.00000000000E+00  0.00000000000E+00  0.55543413025E+03  0.32412711391E+04  0.31933260911E+04 0.  0.
        4    1    3    3  502    0 -0.77987325050E+03 -0.23238179411E+03 -0.11166359353E+04  0.13816949772E+04  0.12699999809E+01 0. -1.
       -4    1    3    3    0  502  0.77987325050E+03  0.23238179411E+03  0.16720700655E+04  0.18595761619E+04  0.12699999809E+01 0.  1.
</event>
<event>
 5   0  0.8545153E-07  0.3185016E+04  0.7818609E-02  0.8192786E-01
        1   -1    0    0  501    0  0.00000000000E+00  0.00000000000E+00  0.16343608450E+04  0.16343608450E+04  0.50400001928E-02 0. -1.
       -1   -1    0    0    0  501  0.00000000000E+00  0.00000000000E+00 -0.15517272378E+04  0.15517272378E+04  0.50400001928E-02 0.  1.
    10030    2    1    2    0    0  0.00000000000E+00  0.00000000000E+00  0.82633607157E+02  0.31860880828E+04  0.31850163200E+04 0.  0.
        3    1    3    3  502    0 -0.11113091341E+04  0.89953732254E+02  0.11787933491E+04  0.16225453570E+04  0.10100000352E+00 0. -1.
       -3    1    3    3    0  502  0.11113091341E+04 -0.89953732254E+02 -0.10961597419E+04  0.15635427258E+04  0.10100000352E+00 0.  1.
</event>
<event>
 5   0  0.2621528E-06  0.3226084E+04  0.7818609E-02  0.8181962E-01
        2   -1    0    0  501    0  0.00000000000E+00  0.00000000000E+00  0.23223353983E+04  0.23223353983E+04  0.25500000920E-02 0.  1.
       -2   -1    0    0    0  501  0.00000000000E+00  0.00000000000E+00 -0.11203824409E+04  0.11203824409E+04  0.25500000920E-02 0. -1.
    10030    2    1    2    0    0  0.00000000000E+00  0.00000000000E+00  0.12019529574E+04  0.34427178392E+04  0.32260835713E+04 0.  0.
        2    1    3    3  502    0  0.46593277849E+02  0.72381582395E+03 -0.93654443115E+03  0.11845656386E+04  0.25500000920E-02 0. -1.
       -2    1    3    3    0  502 -0.46593277849E+02 -0.72381582395E+03  0.21384973885E+04  0.22581522007E+04  0.25500000920E-02 0.  1.
</event>
<event>
 5   0  0.7934375E-07  0.3193130E+04  0.7818609E-02  0.8190634E-01
        3   -1    0    0  501    0  0.00000000000E+00  0.00000000000E+00  0.18624083748E+04  0.18624083776E+04  0.10100000352E+00 0. -1.
       -3   -1    0    0    0  501  0.00000000000E+00  0.00000000000E+00 -0.13686687715E+04  0.13686687752E+04  0.10100000352E+00 0.  1.
    10030    2    1    2    0    0  0.00000000000E+00  0.00000000000E+00  0.49373960336E+03  0.32310771528E+04  0.31931302465E+04 0.  0.
        2    1    3    3  502    0 -0.12333279919E+04 -0.11881714647E+03  0.12657141814E+04  0.17712277773E+04  0.25500000920E-02 0. -1.
       -2    1    3    3    0  502  0.12333279919E+04  0.11881714647E+03 -0.77197457806E+03  0.14598493755E+04  0.25500000920E-02 0.  1.
</event>
<event>
 5   0  0.2337504E-06  0.3098338E+04  0.7818609E-02  0.8216194E-01
       -2   -1    0    0    0  501  0.00000000000E+00  0.00000000000E+00  0.17086411156E+04  0.17086411156E+04  0.25500000920E-02 0.  1.
        2   -1    0    0  501    0  0.00000000000E+00  0.00000000000E+00 -0.14045808613E+04  0.14045808613E+04  0.25500000920E-02 0. -1.
    10030    2    1    2    0    0  0.00000000000E+00  0.00000000000E+00  0.30406025430E+03  0.31132219770E+04  0.30983380125E+04 0.  0.
        1    1    3    3  502    0  0.15213298865E+04 -0.95500967599E+02 -0.12562965363E+03  0.15294926833E+04  0.50400001928E-02 0. -1.
       -1    1    3    3    0  502 -0.15213298865E+04  0.95500967599E+02  0.42968990793E+03  0.15837292936E+04  0.50400001928E-02 0.  1.
</event>
<event>
 5   0  0.8545153E-07  0.3122608E+04  0.7818609E-02  0.8209561E-01
        1   -1    0    0  501    0  0.00000000000E+00  0.00000000000E+00  0.97443610983E+03  0.97443610985E+03  0.50400001928E-02 0.  1.
       -1   -1    0    0    0  501  0.00000000000E+00  0.00000000000E+00 -0.25016214478E+04  0.25016214478E+04  0.50400001928E-02 0. -1.
    10030    2    1    2    0    0  0.00000000000E+00  0.00000000000E+00 -0.15271853380E+04  0.34760575577E+04  0.31226080586E+04 0.  0.
        3    1    3    3  502    0 -0.33122724942E+02  0.66414829024E+03 -0.23361018647E+04  0.24289013975E+04  0.10100000352E+00 0. -1.
       -3    1    3    3    0  502  0.33122724942E+02 -0.66414829024E+03  0.80891652672E+03  0.10471561602E+04  0.10100000352E+00 0.  1.
</event>
<event>
 5   0  0.2337504E-06  0.3196784E+04  0.7818609E-02  0.8189667E-01
        2   -1    0    0  501    0  0.00000000000E+00  0.00000000000E+00  0.23142951778E+04  0.23142951778E+04  0.25500000920E-02 0.  1.
       -2   -1    0    0    0  501  0.00000000000E+00  0.00000000000E+00 -0.11039462674E+04  0.11039462674E+04  0.25500000920E-02 0. -1.
    10030    2    1    2    0    0  0.00000000000E+00  0.00000000000E+00  0.12103489104E+04  0.34182414452E+04  0.31967843363E+04 0.  0.
        1    1    3    3  502    0  0.13402866059E+04  0.84240888741E+03  0.36887532507E+03  0.16254506837E+04  0.50400001928E-02 0.  1.
       -1    1    3    3    0  502 -0.13402866059E+04 -0.84240888741E+03  0.84147358534E+03  0.17927907615E+04  0.50400001928E-02 0. -1.
</event>
<event>
 5   0  0.8681172E-07  0.3235325E+04  0.7818609E-02  0.8179550E-01
       -1   -1    0    0    0  501  0.00000000000E+00  0.00000000000E+00  0.14381867950E+04  0.14381867950E+04  0.50400001928E-02 0. -1.
        1   -1    0    0  501    0  0.00000000000E+00  0.00000000000E+00 -0.18195360275E+04  0.18195360275E+04  0.50400001928E-02 0.  1.
    10030    2    1    2    0    0  0.00000000000E+00  0.00000000000E+00 -0.38134923251E+03  0.32577228225E+04  0.32353254475E+04 0.  0.
        1    1    3    3  502    0  0.11005988770E+04  0.79150239701E+03  0.69806735066E+03  0.15248252223E+04  0.50400001928E-02 0. -1.
       -1    1    3    3    0  502 -0.11005988770E+04 -0.79150239701E+03 -0.10794165832E+04  0.17328976002E+04  0.50400001928E-02 0.  1.
</event>
<event>
 5   0  0.2401139E-06  0.2986937E+04  0.7818609E-02  0.8247471E-01
       -2   -1    0    0    0  501  0.00000000000E+00  0.00000000000E+00  0.11785531819E+04  0.11785531819E+04  0.25500000920E-02 0. -1.
        2   -1    0    0  501    0  0.00000000000E+00  0.00000000000E+00 -0.18925307657E+04  0.18925307657E+04  0.25500000920E-02 0.  1.
    10030    2    1    2    0    0  0.00000000000E+00  0.00000000000E+00 -0.71397758382E+03  0.30710839476E+04  0.29869369969E+04 0.  0.
        5    1    3    3  502    0 -0.65105578769E+03  0.15315181719E+03  0.10159560953E+04  0.12163543873E+04  0.46999998093E+01 0. -1.
       -5    1    3    3    0  502  0.65105578769E+03 -0.15315181719E+03 -0.17299336792E+04  0.18547295604E+04  0.46999998093E+01 0.  1.
</event>
<event>
 5   0  0.8487944E-07  0.3192486E+04  0.7818609E-02  0.8190804E-01
       -1   -1    0    0    0  501  0.00000000000E+00  0.00000000000E+00  0.13983254746E+04  0.13983254746E+04  0.50400001928E-02 0. -1.
        1   -1    0    0  501    0  0.00000000000E+00  0.00000000000E+00 -0.18221741215E+04  0.18221741215E+04  0.50400001928E-02 0.  1.
    10030    2    1    2    0    0  0.00000000000E+00  0.00000000000E+00 -0.42384864694E+03  0.32204995961E+04  0.31924864875E+04 0.  0.
        2    1    3    3  502    0  0.13088343473E+04  0.91200410065E+03 -0.15491592116E+03  0.16027469453E+04  0.25500000920E-02 0.  1.
       -2    1    3    3    0  502 -0.13088343473E+04 -0.91200410065E+03 -0.26893272578E+03  0.16177526508E+04  0.25500000920E-02 0. -1.
</event>
<event>
 5   0  0.2466076E-06  0.3181737E+04  0.7818609E-02  0.8193657E-01
       -2   -1    0    0    0  501  0.00000000000E+00  0.00000000000E+00  0.15410673518E+04  0.15410673518E+04  0.25500000920E-02 0. -1.
        2   -1    0    0  501    0  0.00000000000E+00  0.00000000000E+00 -0.16422787550E+04  0.16422787550E+04  0.25500000920E-02 0.  1.
    10030    2    1    2    0    0  0.00000000000E+00  0.00000000000E+00 -0.10121140321E+03  0.31833461068E+04  0.31817367408E+04 0.  0.
        3    1    3    3  502    0 -0.29788831554E+02  0.15831082022E+04  0.10356054810E+03  0.15867714870E+04  0.10100000352E+00 0. -1.
       -3    1    3    3    0  502  0.29788831554E+02 -0.15831082022E+04 -0.20477195131E+03  0.15965746198E+04  0.10100000352E+00 0.  1.
</event>
<event>
 5   0  0.2621528E-06  0.3184050E+04  0.7818609E-02  0.8193042E-01
        2   -1    0    0  501    0  0.00000000000E+00  0.00000000000E+00  0.26967003448E+04  0.26967003448E+04  0.25500000920E-02 0.  1.
       -2   -1    0    0    0  501  0.00000000000E+00  0.00000000000E+00 -0.93986828362E+03  0.93986828363E+03  0.25500000920E-02 0. -1.
    10030    2    1    2    0    0  0.00000000000E+00  0.00000000000E+00  0.17568320611E+04  0.36365686284E+04  0.31840497009E+04 0.  0.
        2    1    3    3  502    0 -0.27688724987E+03  0.43183432475E+02 -0.91147738854E+03  0.95358396999E+03  0.25500000920E-02 0. -1.
       -2    1    3    3    0  502  0.27688724987E+03 -0.43183432475E+02  0.26683094497E+04  0.26829846584E+04  0.25500000920E-02 0.  1.
</event>
<event>
 5   0  0.8487944E-07  0.3221159E+04  0.7818609E-02  0.8183251E-01
       -1   -1    0    0    0  501  0.00000000000E+00  0.00000000000E+00  0.29323108911E+04  0.29323108911E+04  0.50400001928E-02 0.  1.
        1   -1    0    0  501    0  0.00000000000E+00  0.00000000000E+00 -0.88461503128E+03  0.88461503130E+03  0.50400001928E-02 0. -1.
    10030    2    1    2    0    0  0.00000000000E+00  0.00000000000E+00  0.20476958598E+04  0.38169259224E+04  0.32211589782E+04 0.  0.
        2    1    3    3  502    0  0.12952629608E+04  0.24452258961E+03  0.21204709528E+04  0.24967768214E+04  0.25500000920E-02 0.  1.
       -2    1    3    3    0  502 -0.12952629608E+04 -0.24452258961E+03 -0.72775093010E+02  0.13201491009E+04  0.25500000920E-02 0. -1.
</event>
<event>
 5   0  0.2401139E-06  0.3229623E+04  0.7818609E-02  0.8181037E-01
        2   -1    0    0  501    0  0.00000000000E+00  0.00000000000E+00  0.18604194108E+04  0.18604194108E+04  0.25500000920E-02 0.  1.
       -2   -1    0    0    0  501  0.00000000000E+00  0.00000000000E+00 -0.14016283348E+04  0.14016283348E+04  0.25500000920E-02 0. -1.
    10030    2    1    2    0    0  0.00000000000E+00  0.00000000000E+00  0.45879107602E+03  0.32620477457E+04  0.32296232356E+04 0.  0.
        5    1    3    3  502    0 -0.77382163654E+02  0.11622302189E+04  0.13590279471E+04  0.17899011514E+04  0.46999998093E+01 0.  1.
       -5    1    3    3    0  502  0.77382163654E+02 -0.11622302189E+04 -0.90023687110E+03  0.14721465942E+04  0.46999998093E+01 0. -1.
</event>
<event>
 5   0  0.2401139E-06  0.3229536E+04  0.7818609E-02  0.8181060E-01
       -2   -1    0    0    0  501  0.00000000000E+00  0.00000000000E+00  0.88336665094E+03  0.88336665094E+03  0.25500000920E-02 0.  1.
        2   -1    0    0  501    0  0.00000000000E+00  0.00000000000E+00 -0.29517486047E+04  0.29517486047E+04  0.25500000920E-02 0. -1.
    10030    2    1    2    0    0  0.00000000000E+00  0.00000000000E+00 -0.20683819538E+04  0.38351152557E+04  0.32295363626E+04 0.  0.
        5    1    3    3  502    0 -0.12464439831E+02 -0.41258059122E+03  0.81965131361E+03  0.91773006511E+03  0.46999998093E+01 0.  1.
       -5    1    3    3    0  502  0.12464439831E+02  0.41258059122E+03 -0.28880332674E+04  0.29173851905E+04  0.46999998093E+01 0. -1.
</event>
<event>
 5   0  0.2466076E-06  0.3197922E+04  0.7818609E-02  0.8189366E-01
        2   -1    0    0  501    0  0.00000000000E+00  0.00000000000E+00  0.18730140811E+04  0.18730140811E+04  0.25500000920E-02 0. -1.
       -2   -1    0    0    0  501  0.00000000000E+00  0.00000000000E+00 -0.13650061486E+04  0.13650061486E+04  0.25500000920E-02 0.  1.
    10030    2    1    2    0    0  0.00000000000E+00  0.00000000000E+00  0.50800793248E+03  0.32380202298E+04  0.31979216609E+04 0.  0.
        3    1    3    3  502    0 -0.12430462210E+04 -0.58174359765E+03 -0.57670152678E+03  0.14886820286E+04  0.10100000352E+00 0.  1.
       -3    1    3    3    0  502  0.12430462210E+04  0.58174359765E+03  0.10847094593E+04  0.17493382012E+04  0.10100000352E+00 0. -1.
</event>
<event>
 5   0  0.2337504E-06  0.3160572E+04  0.7818609E-02  0.8199308E-01
        2   -1    0    0  501    0  0.00000000000E+00  0.00000000000E+00  0.20841792711E+04  0.20841792711E+04  0.25500000920E-02 0.  1.
       -2   -1    0    0    0  501  0.00000000000E+00  0.00000000000E+00 -0.11982193116E+04  0.11982193116E+04  0.25500000920E-02 0. -1.
    10030    2    1    2    0    0  0.00000000000E+00  0.00000000000E+00  0.88595995946E+03  0.32823985827E+04  0.31605720062E+04 0.  0.
        1    1    3    3  502    0  0.94786651686E+03 -0.95805394448E+03 -0.41404716556E+03  0.14098770690E+04  0.50400001928E-02 0. -1.
       -1    1    3    3    0  502 -0.94786651686E+03  0.95805394448E+03  0.13000071250E+04  0.18725215137E+04  0.50400001928E-02 0.  1.
</event>
<event>
 5   0  0.8512855E-07  0.3204627E+04  0.7818609E-02  0.8187596E-01
       -1   -1    0    0    0  501  0.00000000000E+00  0.00000000000E+00  0.12439491360E+04  0.12439491360E+04  0.50400001928E-02 0.  1.
        1   -1    0    0  501    0  0.00000000000E+00  0.00000000000E+00 -0.20639171947E+04  0.20639171947E+04  0.50400001928E-02 0. -1.
    10030    2    1    2    0    0  0.00000000000E+00  0.00000000000E+00 -0.81996805869E+03  0.33078663308E+04  0.32046266623E+04 0.  0.
        5    1    3    3  502    0  0.40800130196E+03 -0.72229717128E+03  0.10050207163E+04  0.13031757350E+04  0.46999998093E+01 0.  1.
       -5    1    3    3    0  502 -0.40800130196E+03  0.72229717128E+03 -0.18249887750E+04  0.20046905958E+04  0.46999998093E+01 0. -1.
</event>
<event>
 5   0  0.8681172E-07  0.3194935E+04  0.7818609E-02  0.8190156E-01
        1   -1    0    0  501    0  0.00000000000E+00  0.00000000000E+00  0.19913814154E+04  0.19913814154E+04  0.50400001928E-02 0.  1.
       -1   -1    0    0    0  501  0.00000000000E+00  0.00000000000E+00 -0.12814734261E+04  0.12814734261E+04  0.50400001928E-02 0. -1.
    10030    2    1    2    0    0  0.00000000000E+00  0.00000000000E+00  0.70990798934E+03  0.32728548415E+04  0.31949349697E+04 0.  0.
        1    1    3    3  502    0 -0.15490432410E+03 -0.40888474162E+03  0.19288896967E+04  0.19778264695E+04  0.50400001928E-02 0.  1.
       -1    1    3    3    0  502  0.15490432410E+03  0.40888474162E+03 -0.12189817073E+04  0.12950283720E+04  0.50400001928E-02 0. -1.
</event>
<event>
 5   0  0.2621528E-06  0.3213679E+04  0.7818609E-02  0.8185214E-01
        2   -1    0    0  501    0  0.00000000000E+00  0.00000000000E+00  0.18847378943E+04  0.18847378943E+04  0.25500000920E-02 0.  1.
       -2   -1    0    0    0  501  0.00000000000E+00  0.00000000000E+00 -0.13699165330E+04  0.13699165330E+04  0.25500000920E-02 0. -1.
    10030    2    1    2    0    0  0.00000000000E+00  0.00000000000E+00  0.51482136132E+03  0.32546544273E+04  0.32136792632E+04 0.  0.
        2    1    3    3  502    0  0.93469044961E+03 -0.89650190536E+03 -0.70580567930E+03  0.14749656131E+04  0.25500000920E-02 0. -1.
       -2    1    3    3    0  502 -0.93469044961E+03  0.89650190536E+03  0.12206270406E+04  0.17796888141E+04  0.25500000920E-02 0.  1.
</event>
<event>
 5   0  0.8487944E-07  0.3199557E+04  0.7818609E-02  0.8188934E-01
       -1   -1    0    0    0  501  0.00000000000E+00  0.00000000000E+00  0.14319576314E+04  0.14319576314E+04  0.50400001928E-02 0.  1.
        1   -1    0    0  501    0  0.00000000000E+00  0.00000000000E+00 -0.17872672119E+04  0.17872672119E+04  0.50400001928E-02 0. -1.
    10030    2    1    2    0    0  0.00000000000E+00  0.00000000000E+00 -0.35530958050E+03  0.32192248432E+04  0.31995567964E+04 0.  0.
        2    1    3    3  502    0  0.37412589943E+03 -0.15422972289E+04 -0.38048764128E+03  0.16319993187E+04  0.25500000920E-02 0.  1.
       -2    1    3    3    0  502 -0.37412589943E+03  0.15422972289E+04  0.25178060778E+02  0.15872255246E+04  0.25500000920E-02 0. -1.
</event>
<event>
 5   0  0.2337504E-06  0.3139703E+04  0.7818609E-02  0.8204925E-01
        2   -1    0    0  501    0  0.00000000000E+00  0.00000000000E+00  0.11977211482E+04  0.11977211482E+04  0.25500000920E-02 0. -1.
       -2   -1    0    0    0  501  0.00000000000E+00  0.00000000000E+00 -0.20576027983E+04  0.20576027983E+04  0.25500000920E-02 0.  1.
    10030    2    1    2    0    0  0.00000000000E+00  0.00000000000E+00 -0.85988165009E+03  0.32553239465E+04  0.31397034167E+04 0.  0.
        1    1    3    3  502    0  0.79368877477E+02 -0.11915234467E+04 -0.14864891313E+04  0.19067452583E+04  0.50400001928E-02 0.  1.
       -1    1    3    3    0  502 -0.79368877477E+02  0.11915234467E+04  0.62660748117E+03  0.13485786882E+04  0.50400001928E-02 0. -1.
</event>
<event>
 5   0  0.2401139E-06  0.3222407E+04  0.7818609E-02  0.8182924E-01
        2   -1    0    0  501    0  0.00000000000E+00  0.00000000000E+00  0.14307369568E+04  0.14307369568E+04  0.25500000920E-02 0. -1.
       -2   -1    0    0    0  501  0.00000000000E+00  0.00000000000E+00 -0.18144332453E+04  0.18144332453E+04  0.25500000920E-02 0.  1.
    10030    2    1    2    0    0  0.00000000000E+00  0.00000000000E+00 -0.38369628846E+03  0.32451702021E+04  0.32224069883E+04 0.  0.
        5    1    3    3  502    0 -0.12512282498E+04 -0.16209086777E+03  0.81728280199E+03  0.15032693874E+04  0.46999998093E+01 0. -1.
       -5    1    3    3    0  502  0.12512282498E+04  0.16209086777E+03 -0.12009790905E+04  0.17419008147E+04  0.46999998093E+01 0.  1.
</event>
<event>
 5   0  0.8512855E-07  0.3194423E+04  0.7818609E-02  0.8190292E-01
       -1   -1    0    0    0  501  0.00000000000E+00  0.00000000000E+00  0.14649602023E+04  0.14649602023E+04  0.50400001928E-02 0. -1.
        1   -1    0    0  501    0  0.00000000000E+00  0.00000000000E+00 -0.17414016120E+04  0.17414016120E+04  0.50400001928E-02 0.  1.
    10030    2    1    2    0    0  0.00000000000E+00  0.00000000000E+00 -0.27644140968E+03  0.32063618143E+04  0.31944226758E+04 0.  0.
        5    1    3    3  502    0 -0.65771183350E+03 -0.32958620598E+03 -0.15612111225E+04  0.17258662121E+04  0.46999998093E+01 0.  1.
       -5    1    3    3    0  502  0.65771183350E+03  0.32958620598E+03  0.12847697128E+04  0.14804956022E+04  0.46999998093E+01 0. -1.
</event>
<event>
 5   0  0.8512855E-07  0.3206752E+04  0.7818609E-02  0.8187036E-01
       -1   -1    0    0    0  501  0.00000000000E+00  0.00000000000E+00  0.12982569856E+04  0.12982569856E+04  0.50400001928E-02 0. -1.
        1   -1    0    0  501    0  0.00000000000E+00  0.00000000000E+00 -0.19802051177E+04  0.19802051178E+04  0.50400001928E-02 0.  1.
    10030    2    1    2    0    0  0.00000000000E+00  0.00000000000E+00 -0.68194813218E+03  0.32784621033E+04  0.32067523303E+04 0.  0.
        5    1    3    3  502    0  0.44309113918E+03  0.61698967473E+03  0.11026168186E+04  0.13389518121E+04  0.46999998093E+01 0. -1.
       -5    1    3    3    0  502 -0.44309113918E+03 -0.61698967473E+03 -0.17845649508E+04  0.19395102913E+04  0.46999998093E+01 0.  1.
</event>
<event>
 5   0  0.2337504E-06  0.2961745E+04  0.7818609E-02  0.8254740E-01
       -2   -1    0    0    0  501  0.00000000000E+00  0.00000000000E+00  0.81347341312E+03  0.81347341312E+03  0.25500000920E-02 0.  1.
        2   -1    0    0  501    0  0.00000000000E+00  0.00000000000E+00 -0.26958266323E+04  0.26958266323E+04  0.25500000920E-02 0. -1.
    10030    2    1    2    0    0  0.00000000000E+00  0.00000000000E+00 -0.18823532192E+04  0.35093000454E+04  0.29617449531E+04 0.  0.
        1    1    3    3  502    0  0.89194184493E+03  0.10676133966E+04 -0.15425809682E+04  0.20772372669E+04  0.50400001928E-02 0. -1.
       -1    1    3    3    0  502 -0.89194184493E+03 -0.10676133966E+04 -0.33977225097E+03  0.14320627786E+04  0.50400001928E-02 0.  1.
</event>
<event>
 5   0  0.2404430E-06  0.2630089E+04  0.7818609E-02  0.8358052E-01
        2   -1    0    0  501    0  0.00000000000E+00  0.00000000000E+00  0.18929811361E+04  0.18929811361E+04  0.25500000920E-02 0.  1.
       -2   -1    0    0    0  501  0.00000000000E+00  0.00000000000E+00 -0.91355457142E+03  0.91355457143E+03  0.25500000920E-02 0. -1.
    10030    2    1    2    0    0  0.00000000000E+00  0.00000000000E+00  0.97942656465E+03  0.28065357075E+04  0.26300886453E+04 0.  0.
        4    1    3    3  502    0  0.43252966411E+03  0.24446360936E+03  0.17889757440E+04  0.18566852701E+04  0.12699999809E+01 0.  1.
       -4    1    3    3    0  502 -0.43252966411E+03 -0.24446360936E+03 -0.80954917939E+03  0.94985043738E+03  0.12699999809E+01 0. -1.
</event>
<event>
 5   0  0.8487944E-07  0.3163887E+04  0.7818609E-02  0.8198420E-01
       -1   -1    0    0    0  501  0.00000000000E+00  0.00000000000E+00  0.16023383535E+04  0.16023383535E+04  0.50400001928E-02 0.  1.
        1   -1    0    0  501    0  0.00000000000E+00  0.00000000000E+00 -0.15618080667E+04  0.15618080667E+04  0.50400001928E-02 0. -1.
    10030    2    1    2    0    0  0.00000000000E+00  0.00000000000E+00  0.40530286771E+02  0.31641464202E+04  0.31638868286E+04 0.  0.
        2    1    3    3  502    0  0.67979284268E+03  0.11020550358E+04 -0.88860057186E+03  0.15704313379E+04  0.25500000920E-02 0. -1.
       -2    1    3    3    0  502 -0.67979284268E+03 -0.11020550358E+04  0.92913085863E+03  0.15937150822E+04  0.25500000920E-02 0.  1.
</event>
<event>
 5   0  0.8383008E-07  0.3229322E+04  0.7818609E-02  0.8181116E-01
       -1   -1    0    0    0  501  0.00000000000E+00  0.00000000000E+00  0.20792274980E+04  0.20792274980E+04  0.50400001928E-02 0. -1.
        1   -1    0    0  501    0  0.00000000000E+00  0.00000000000E+00 -0.12538933489E+04  0.12538933489E+04  0.50400001928E-02 0.  1.
    10030    2    1    2    0    0  0.00000000000E+00  0.00000000000E+00  0.82533414904E+03  0.33331208469E+04  0.32293216196E+04 0.  0.
        4    1    3    3  502    0  0.14809843735E+04 -0.40498733430E+03 -0.10319623502E+03  0.15388243991E+04  0.12699999809E+01 0. -1.
       -4    1    3    3    0  502 -0.14809843735E+04  0.40498733430E+03  0.92853038406E+03  0.17942964478E+04  0.12699999809E+01 0.  1.
</event>
<event>
 5   0  0.2466076E-06  0.3218938E+04  0.7818609E-02  0.8183833E-01
       -2   -1    0    0    0  501  0.00000000000E+00  0.00000000000E+00  0.16103725961E+04  0.16103725961E+04  0.25500000920E-02 0.  1.
        2   -1    0    0  501    0  0.00000000000E+00  0.00000000000E+00 -0.16085661340E+04  0.16085661340E+04  0.25500000920E-02 0. -1.
    10030    2    1    2    0    0  0.00000000000E+00  0.00000000000E+00  0.18064621206E+01  0.32189387300E+04  0.32189382232E+04 0.  0.
        3    1    3    3  502    0 -0.96427120086E+03 -0.63798869457E+03 -0.11187139725E+04  0.16088410380E+04  0.10100000352E+00 0. -1.
       -3    1    3    3    0  502  0.96427120086E+03  0.63798869457E+03  0.11205204346E+04  0.16100976920E+04  0.10100000352E+00 0.  1.
</event>
<event>
 5   0  0.8681172E-07  0.2640872E+04  0.7818609E-02  0.8354449E-01
       -1   -1    0    0    0  501  0.00000000000E+00  0.00000000000E+00  0.72532366192E+03  0.72532366193E+03  0.50400001928E-02 0.  1.
        1   -1    0    0  501    0  0.00000000000E+00  0.00000000000E+00 -0.24038245574E+04  0.24038245575E+04  0.50400001928E-02 0. -1.
    10030    2    1    2    0    0  0.00000000000E+00  0.00000000000E+00 -0.16785008955E+04  0.31291482194E+04  0.26408716975E+04 0.  0.
        1    1    3    3  502    0  0.11881095421E+04  0.57202228314E+03 -0.75769874906E+03  0.15208291063E+04  0.50400001928E-02 0.  1.
       -1    1    3    3    0  502 -0.11881095421E+04 -0.57202228314E+03 -0.92080214648E+03  0.16083191130E+04  0.50400001928E-02 0. -1.
</event>
<event>
 5   0  0.2401139E-06  0.3232129E+04  0.7818609E-02  0.8180383E-01
        2   -1    0    0  501    0  0.00000000000E+00  0.00000000000E+00  0.79150815310E+03  0.79150815310E+03  0.25500000920E-02 0. -1.
       -2   -1    0    0    0  501  0.00000000000E+00  0.00000000000E+00 -0.32996056807E+04  0.32996056807E+04  0.25500000920E-02 0.  1.
    10030    2    1    2    0    0  0.00000000000E+00  0.00000000000E+00 -0.25080975276E+04  0.40911138338E+04  0.32321292043E+04 0.  0.
        5    1    3    3  502    0  0.45247352130E+02  0.41128118866E+03 -0.32314153892E+04  0.32578009526E+04  0.46999998093E+01 0.  1.
       -5    1    3    3    0  502 -0.45247352130E+02 -0.41128118866E+03  0.72331786163E+03  0.83331288120E+03  0.46999998093E+01 0. -1.
</event>
<event>
 5   0  0.8487944E-07  0.3267494E+04  0.7818609E-02  0.8171216E-01
       -1   -1    0    0    0  501  0.00000000000E+00  0.00000000000E+00  0.31870854496E+04  0.31870854496E+04  0.50400001928E-02 0.  1.
        1   -1    0    0  501    0  0.00000000000E+00  0.00000000000E+00 -0.83748263956E+03  0.83748263958E+03  0.50400001928E-02 0. -1.
    10030    2    1    2    0    0  0.00000000000E+00  0.00000000000E+00  0.23496028101E+04  0.40245680892E+04  0.32674936786E+04 0.  0.
        2    1    3    3  502    0  0.15280878813E+04  0.98205289280E+02  0.18763637756E+04  0.24218666087E+04  0.25500000920E-02 0.  1.
       -2    1    3    3    0  502 -0.15280878813E+04 -0.98205289280E+02  0.47323903451E+03  0.16027014805E+04  0.25500000920E-02 0. -1.
</event>
<event>
 5   0  0.2337504E-06  0.3204442E+04  0.7818609E-02  0.8187645E-01
       -2   -1    0    0    0  501  0.00000000000E+00  0.00000000000E+00  0.91299393341E+03  0.91299393341E+03  0.25500000920E-02 0. -1.
        2   -1    0    0  501    0  0.00000000000E+00  0.00000000000E+00 -0.28117519594E+04  0.28117519594E+04  0.25500000920E-02 0.  1.
    10030    2    1    2    0    0  0.00000000000E+00  0.00000000000E+00 -0.18987580260E+04  0.37247458928E+04  0.32044422174E+04 0.  0.
        1    1    3    3  502    0  0.25346420522E+03  0.14808185856E+04 -0.15966056118E+04  0.21923086613E+04  0.50400001928E-02 0.  1.
       -1    1    3    3    0  502 -0.25346420522E+03 -0.14808185856E+04 -0.30215241417E+03  0.15324372315E+04  0.50400001928E-02 0. -1.
</event>
<event>
 5   0  0.2621528E-06  0.3191450E+04  0.7818609E-02  0.8191079E-01
       -2   -1    0    0    0  501  0.00000000000E+00  0.00000000000E+00  0.14355910450E+04  0.14355910450E+04  0.25500000920E-02 0.  1.
        2   -1    0    0  501    0  0.00000000000E+00  0.00000000000E+00 -0.17737211344E+04  0.17737211344E+04  0.25500000920E-02 0. -1.
    10030    2    1    2    0    0  0.00000000000E+00  0.00000000000E+00 -0.33813008943E+03  0.32093121794E+04  0.31914499381E+04 0.  0.
        2    1    3    3  502    0  0.75041818513E+03  0.66846022460E+03  0.10773769440E+04  0.14733321431E+04  0.25500000920E-02 0.  1.
       -2    1    3    3    0  502 -0.75041818513E+03 -0.66846022460E+03 -0.14155070335E+04  0.17359800362E+04  0.25500000920E-02 0. -1.
</event>
<event>
 5   0  0.7934375E-07  0.3215658E+04  0.7818609E-02  0.8184694E-01
        3   -1    0    0  501    0  0.00000000000E+00  0.00000000000E+00  0.23267162211E+04  0.23267162233E+04  0.10100000352E+00 0.  1.
       -3   -1    0    0    0  501  0.00000000000E+00  0.00000000000E+00 -0.11110566024E+04  0.11110566070E+04  0.10100000352E+00 0. -1.
    10030    2    1    2    0    0  0.00000000000E+00  0.00000000000E+00  0.12156596187E+04  0.34377728303E+04  0.32156575882E+04 0.  0.
        5    1    3    3  502    0  0.54095824705E+03 -0.12662261655E+04 -0.27964687373E+03  0.14050583586E+04  0.46999998093E+01 0. -1.
       -5    1    3    3    0  502 -0.54095824705E+03  0.12662261655E+04  0.14953064924E+04  0.20327144717E+04  0.46999998093E+01 0.  1.
</event>
<event>
 5   0  0.8383008E-07  0.3184339E+04  0.7818609E-02  0.8192965E-01
       -1   -1    0    0    0  501  0.00000000000E+00  0.00000000000E+00  0.89139994704E+03  0.89139994705E+03  0.50400001928E-02 0.  1.
        1   -1    0    0  501    0  0.00000000000E+00  0.00000000000E+00 -0.28438457663E+04  0.28438457663E+04  0.50400001928E-02 0. -1.
    10030    2    1    2    0    0  0.00000000000E+00  0.00000000000E+00 -0.19524458193E+04  0.37352457134E+04  0.31843391563E+04 0.  0.
        4    1    3    3  502    0  0.97793907652E+03 -0.98968470385E+03 -0.68252110065E+02  0.13930185260E+04  0.12699999809E+01 0.  1.
       -4    1    3    3    0  502 -0.97793907652E+03  0.98968470385E+03 -0.18841937092E+04  0.23422271874E+04  0.12699999809E+01 0. -1.
</event>
<event>
 5   0  0.2404430E-06  0.3182249E+04  0.7818609E-02  0.8193521E-01
        2   -1    0    0  501    0  0.00000000000E+00  0.00000000000E+00  0.27918244649E+04  0.27918244649E+04  0.25500000920E-02 0. -1.
       -2   -1    0    0    0  501  0.00000000000E+00  0.00000000000E+00 -0.90681843685E+03  0.90681843686E+03  0.25500000920E-02 0.  1.
    10030    2    1    2    0    0  0.00000000000E+00  0.00000000000E+00  0.18850060280E+04  0.36986429018E+04  0.31822494542E+04 0.  0.
        4    1    3    3  502    0  0.13592463163E+03  0.57801929063E+03 -0.77321618996E+03  0.97490855732E+03  0.12699999809E+01 0.  1.
       -4    1    3    3    0  502 -0.13592463163E+03 -0.57801929063E+03  0.26582222180E+04  0.27237343444E+04  0.12699999809E+01 0. -1.
</event>
<event>
 5   0  0.2401139E-06  0.3153113E+04  0.7818609E-02  0.8201311E-01
        2   -1    0    0  501    0  0.00000000000E+00  0.00000000000E+00  0.12250844664E+04  0.12250844664E+04  0.25500000920E-02 0. -1.
       -2   -1    0    0    0  501  0.00000000000E+00  0.00000000000E+00 -0.20288647836E+04  0.20288647836E+04  0.25500000920E-02 0.  1.
    10030    2    1    2    0    0  0.00000000000E+00  0.00000000000E+00 -0.80378031717E+03  0.32539492500E+04  0.31531132113E+04 0.  0.
        5    1    3    3  502    0  0.61426390634E+03 -0.11905152617E+03 -0.18952385168E+04  0.19958568431E+04  0.46999998093E+01 0.  1.
       -5    1    3    3    0  502 -0.61426390634E+03  0.11905152617E+03  0.10914581997E+04  0.12580924068E+04  0.46999998093E+01 0. -1.
</event>
<event>
 5   0  0.8681172E-07  0.3219092E+04  0.7818609E-02  0.8183793E-01
       -1   -1    0    0    0  501  0.00000000000E+00  0.00000000000E+00  0.14919284551E+04  0.14919284551E+04  0.50400001928E-02 0. -1.
        1   -1    0    0  501    0  0.00000000000E+00  0.00000000000E+00 -0.17364364018E+04  0.17364364018E+04  0.50400001928E-02 0.  1.
    10030    2    1    2    0    0  0.00000000000E+00  0.00000000000E+00 -0.24450794676E+03  0.32283648569E+04  0.32190923431E+04 0.  0.
        1    1    3    3  502    0  0.64760907345E+03 -0.83692161377E+03 -0.13385142280E+04  0.17062988127E+04  0.50400001928E-02 0.  1.
       -1    1    3    3    0  502 -0.64760907345E+03  0.83692161377E+03  0.10940062812E+04  0.15220660442E+04  0.50400001928E-02 0. -1.
</event>
<event>
 5   0  0.2404430E-06  0.3201403E+04  0.7818609E-02  0.8188447E-01
       -2   -1    0    0    0  501  0.00000000000E+00  0.00000000000E+00  0.97640649997E+03  0.97640649997E+03  0.25500000920E-02 0. -1.
        2   -1    0    0  501    0  0.00000000000E+00  0.00000000000E+00 -0.26241587658E+04  0.26241587658E+04  0.25500000920E-02 0.  1.
    10030    2    1    2    0    0  0.00000000000E+00  0.00000000000E+00 -0.16477522658E+04  0.36005652658E+04  0.32014032398E+04 0.  0.
        4    1    3    3  502    0  0.83817886610E+03 -0.68604997826E+03 -0.21493983400E+04  0.24068907788E+04  0.12699999809E+01 0.  1.
       -4    1    3    3    0  502 -0.83817886610E+03  0.68604997826E+03  0.50164607415E+03  0.11936744870E+04  0.12699999809E+01 0. -1.
</event>
<event>
 5   0  0.8545153E-07  0.3194168E+04  0.7818609E-02  0.8190359E-01
       -1   -1    0    0    0  501  0.00000000000E+00  0.00000000000E+00  0.11629350336E+04  0.11629350336E+04  0.50400001928E-02 0. -1.
        1   -1    0    0  501    0  0.00000000000E+00  0.00000000000E+00 -0.21933105270E+04  0.21933105270E+04  0.50400001928E-02 0.  1.
    10030    2    1    2    0    0  0.00000000000E+00  0.00000000000E+00 -0.10303754934E+04  0.33562455606E+04  0.31941682181E+04 0.  0.
        3    1    3    3  502    0 -0.35435492189E+02  0.53142700100E+03 -0.20972457595E+04  0.21638184114E+04  0.10100000352E+00 0.  1.
       -3    1    3    3    0  502  0.35435492189E+02 -0.53142700100E+03  0.10668702660E+04  0.11924271493E+04  0.10100000352E+00 0. -1.
</event>
<event>
 5   0  0.8487944E-07  0.3146783E+04  0.7818609E-02  0.8203015E-01
        1   -1    0    0  501    0  0.00000000000E+00  0.00000000000E+00  0.16076252398E+04  0.16076252398E+04  0.50400001928E-02 0. -1.
       -1   -1    0    0    0  501  0.00000000000E+00  0.00000000000E+00 -0.15398867447E+04  0.15398867447E+04  0.50400001928E-02 0.  1.
    10030    2    1    2    0    0  0.00000000000E+00  0.00000000000E+00  0.67738495085E+02  0.31475119846E+04  0.31467829905E+04 0.  0.
        2    1    3    3  502    0  0.67130432951E+02 -0.10798134876E+04  0.11765248702E+04  0.15983474069E+04  0.25500000920E-02 0. -1.
       -2    1    3    3    0  502 -0.67130432951E+02  0.10798134876E+04 -0.11087863751E+04  0.15491645776E+04  0.25500000920E-02 0.  1.
</event>
<event>
 5   0  0.8487944E-07  0.3204157E+04  0.7818609E-02  0.8187720E-01
        1   -1    0    0  501    0  0.00000000000E+00  0.00000000000E+00  0.21396905618E+04  0.21396905619E+04  0.50400001928E-02 0. -1.
       -1   -1    0    0    0  501  0.00000000000E+00  0.00000000000E+00 -0.11995448959E+04  0.11995448959E+04  0.50400001928E-02 0.  1.
    10030    2    1    2    0    0  0.00000000000E+00  0.00000000000E+00  0.94014566593E+03  0.33392354578E+04  0.32041566081E+04 0.  0.
        2    1    3    3  502    0  0.13185852812E+03  0.13027779138E+04 -0.49189992262E+03  0.13987789311E+04  0.25500000920E-02 0.  1.
       -2    1    3    3    0  502 -0.13185852812E+03 -0.13027779138E+04  0.14320455885E+04  0.19404565267E+04  0.25500000920E-02 0. -1.
</event>
<event>
 5   0  0.8681172E-07  0.3177857E+04  0.7818609E-02  0.8194690E-01
       -1   -1    0    0    0  501  0.00000000000E+00  0.00000000000E+00  0.18122872888E+04  0.18122872888E+04  0.50400001928E-02 0.  1.
        1   -1    0    0  501    0  0.00000000000E+00  0.00000000000E+00 -0.13930978889E+04  0.13930978889E+04  0.50400001928E-02 0. -1.
    10030    2    1    2    0    0  0.00000000000E+00  0.00000000000E+00  0.41918939993E+03  0.32053851778E+04  0.31778568855E+04 0.  0.
        1    1    3    3  502    0 -0.14092437142E+04 -0.61290524607E+02  0.94734651682E+03  0.16991732688E+04  0.50400001928E-02 0.  1.
       -1    1    3    3    0  502  0.14092437142E+04  0.61290524607E+02 -0.52815711689E+03  0.15062119089E+04  0.50400001928E-02 0. -1.
</event>
<event>
 5   0  0.8512855E-07  0.3205164E+04  0.7818609E-02  0.8187455E-01
        1   -1    0    0  501    0  0.00000000000E+00  0.00000000000E+00  0.18784369962E+04  0.18784369962E+04  0.50400001928E-02 0.  1.
       -1   -1    0    0    0  501  0.00000000000E+00  0.00000000000E+00 -0.13672374130E+04  0.13672374130E+04  0.50400001928E-02 0. -1.
    10030    2    1    2    0    0  0.00000000000E+00  0.00000000000E+00  0.51119958319E+03  0.32456744092E+04  0.32051641700E+04 0.  0.
        5    1    3    3  502    0  0.92604162491E+03  0.12959141527E+04  0.43475583747E+03  0.16510546055E+04  0.46999998093E+01 0. -1.
       -5    1    3    3    0  502 -0.92604162491E+03 -0.12959141527E+04  0.76443745717E+02  0.15946198037E+04  0.46999998093E+01 0.  1.
</event>
<event>
 5   0  0.8487944E-07  0.3193723E+04  0.7818609E-02  0.8190477E-01
       -1   -1    0    0    0  501  0.00000000000E+00  0.00000000000E+00  0.99950657843E+03  0.99950657844E+03  0.50400001928E-02 0. -1.
        1   -1    0    0  501    0  0.00000000000E+00  0.00000000000E+00 -0.25512253785E+04  0.25512253785E+04  0.50400001928E-02 0.  1.
    10030    2    1    2    0    0  0.00000000000E+00  0.00000000000E+00 -0.15517188001E+04  0.35507319570E+04  0.31937229366E+04 0.  0.
        2    1    3    3  502    0  0.19341619960E+03 -0.77157695313E+03  0.76356113571E+03  0.11026179886E+04  0.25500000920E-02 0. -1.
       -2    1    3    3    0  502 -0.19341619960E+03  0.77157695313E+03 -0.23152799358E+04  0.24481139683E+04  0.25500000920E-02 0.  1.
</event>
<event>
 5   0  0.2404430E-06  0.3218705E+04  0.7818609E-02  0.8183895E-01
        2   -1    0    0  501    0  0.00000000000E+00  0.00000000000E+00  0.21072646848E+04  0.21072646848E+04  0.25500000920E-02 0.  1.
       -2   -1    0    0    0  501  0.00000000000E+00  0.00000000000E+00 -0.12290889100E+04  0.12290889100E+04  0.25500000920E-02 0. -1.
    10030    2    1    2    0    0  0.00000000000E+00  0.00000000000E+00  0.87817577485E+03  0.33363535948E+04  0.32187051151E+04 0.  0.
        4    1    3    3  502    0 -0.14610846371E+04  0.57058435779E+03  0.81236045062E+03  0.17664274513E+04  0.12699999809E+01 0.  1.
       -4    1    3    3    0  502  0.14610846371E+04 -0.57058435779E+03  0.65815324227E+02  0.15699261435E+04  0.12699999809E+01 0. -1.
</event>
<event>
 5   0  0.2404430E-06  0.3176414E+04  0.7818609E-02  0.8195074E-01
        2   -1    0    0  501    0  0.00000000000E+00  0.00000000000E+00  0.18450436303E+04  0.18450436303E+04  0.25500000920E-02 0. -1.
       -2   -1    0    0    0  501  0.00000000000E+00  0.00000000000E+00 -0.13671228833E+04  0.13671228833E+04  0.25500000920E-02 0.  1.
    10030    2    1    2    0    0  0.00000000000E+00  0.00000000000E+00  0.47792074699E+03  0.32121665136E+04  0.31764139325E+04 0.  0.
        4    1    3    3  502    0  0.15525805746E+04 -0.32262759873E+03  0.14962152231E+03  0.15927910161E+04  0.12699999809E+01 0.  1.
       -4    1    3    3    0  502 -0.15525805746E+04  0.32262759873E+03  0.32829922468E+03  0.16193754975E+04  0.12699999809E+01 0. -1.
</event>
<event>
 5   0  0.2337504E-06  0.3225791E+04  0.7818609E-02  0.8182039E-01
       -2   -1    0    0    0  501  0.00000000000E+00  0.00000000000E+00  0.90433738176E+03  0.90433738176E+03  0.25500000920E-02 0.  1.
        2   -1    0    0  501    0  0.00000000000E+00  0.00000000000E+00 -0.28766164222E+04  0.28766164222E+04  0.25500000920E-02 0. -1.
    10030    2    1    2    0    0  0.00000000000E+00  0.00000000000E+00 -0.19722790404E+04  0.37809538040E+04  0.32257909192E+04 0.  0.
        1    1    3    3  502    0 -0.11418312852E+04  0.10880211650E+04 -0.59063039024E+03  0.16841653711E+04  0.50400001928E-02 0. -1.
       -1    1    3    3    0  502  0.11418312852E+04 -0.10880211650E+04 -0.13816486502E+04  0.20967884328E+04  0.50400001928E-02 0.  1.
</event>
<event>
 5   0  0.8383008E-07  0.3248868E+04  0.7818609E-02  0.8176029E-01
       -1   -1    0    0    0  501  0.00000000000E+00  0.00000000000E+00  0.11320535323E+04  0.11320535323E+04  0.50400001928E-02 0.  1.
        1   -1    0    0  501    0  0.00000000000E+00  0.00000000000E+00 -0.23309724006E+04  0.23309724006E+04  0.50400001928E-02 0. -1.
    10030    2    1    2    0    0  0.00000000000E+00  0.00000000000E+00 -0.11989188683E+04  0.34630259329E+04  0.32488678273E+04 0.  0.
        4    1    3    3  502    0  0.97733706040E+03  0.33192558314E+02  0.78315319864E+03  0.12528447713E+04  0.12699999809E+01 0.  1.
       -4    1    3    3    0  502 -0.97733706040E+03 -0.33192558314E+02 -0.19820720670E+04  0.22101811616E+04  0.12699999809E+01 0. -1.
</event>
<event>
 5   0  0.8383008E-07  0.3204315E+04  0.7818609E-02  0.8187678E-01
        1   -1    0    0  501    0  0.00000000000E+00  0.00000000000E+00  0.19074897285E+04  0.19074897286E+04  0.50400001928E-02 0. -1.
       -1   -1    0    0    0  501  0.00000000000E+00  0.00000000000E+00 -0.13457000105E+04  0.13457000105E+04  0.50400001928E-02 0.  1.
    10030    2    1    2    0    0  0.00000000000E+00  0.00000000000E+00  0.56178971806E+03  0.32531897390E+04  0.32043151828E+04 0.  0.
        4    1    3    3  502    0  0.82236914420E+03 -0.84095477936E+02  0.16742508299E+04  0.18672119625E+04  0.12699999809E+01 0. -1.
       -4    1    3    3    0  502 -0.82236914420E+03  0.84095477936E+02 -0.11124611118E+04  0.13859777765E+04  0.12699999809E+01 0.  1.
</event>
<event>
 5   0  0.2401139E-06  0.3225794E+04  0.7818609E-02  0.8182038E-01
        2   -1    0    0  501    0  0.00000000000E+00  0.00000000000E+00  0.31426278831E+04  0.31426278832E+04  0.25500000920E-02 0. -1.
       -2   -1    0    0    0  501  0.00000000000E+00  0.00000000000E+00 -0.82779022718E+03  0.82779022718E+03  0.25500000920E-02 0.  1.
    10030    2    1    2    0    0  0.00000000000E+00  0.00000000000E+00  0.23148376560E+04  0.39704181103E+04  0.32257939484E+04 0.  0.
        5    1    3    3  502    0 -0.93064766608E+03  0.26173688902E+03 -0.43164665342E+03  0.10587503015E+04  0.46999998093E+01 0.  1.
       -5    1    3    3    0  502  0.93064766608E+03 -0.26173688902E+03  0.27464843094E+04  0.29116678089E+04  0.46999998093E+01 0. -1.
</event>
<event>
 5   0  0.8512855E-07  0.3278721E+04  0.7818609E-02  0.8168331E-01
        1   -1    0    0  501    0  0.00000000000E+00  0.00000000000E+00  0.17805814137E+04  0.17805814137E+04  0.50400001928E-02 0.  1.
       -1   -1    0    0    0  501  0.00000000000E+00  0.00000000000E+00 -0.15093399511E+04  0.15093399511E+04  0.50400001928E-02 0. -1.
    10030    2    1    2    0    0  0.00000000000E+00  0.00000000000E+00  0.27124146258E+03  0.32899213648E+04  0.32787208871E+04 0.  0.
        5    1    3    3  502    0 -0.11877954886E+04 -0.96896357277E+03  0.71875317606E+03  0.16930377273E+04  0.46999998093E+01 0.  1.
       -5    1    3    3    0  502  0.11877954886E+04  0.96896357277E+03 -0.44751171348E+03  0.15968836375E+04  0.46999998093E+01 0. -1.
</event>
<event>
 5   0  0.7934375E-07  0.3204533E+04  0.7818609E-02  0.8187621E-01
       -3   -1    0    0    0  501  0.00000000000E+00  0.00000000000E+00  0.13128667179E+04  0.13128667218E+04  0.10100000352E+00 0.  1.
        3   -1    0    0  501    0  0.00000000000E+00  0.00000000000E+00 -0.19554600915E+04  0.19554600941E+04  0.10100000352E+00 0. -1.
    10030    2    1    2    0    0  0.00000000000E+00  0.00000000000E+00 -0.64259337363E+03  0.32683268159E+04  0.32045333407E+04 0.  0.
        2    1    3    3  502    0  0.19272704004E+03  0.48401187337E+03 -0.18666656305E+04  0.19380020076E+04  0.25500000920E-02 0. -1.
       -2    1    3    3    0  502 -0.19272704004E+03 -0.48401187337E+03  0.12240722568E+04  0.13303248083E+04  0.25500000920E-02 0.  1.
</event>
<event>
 5   0  0.2404430E-06  0.3196027E+04  0.7818609E-02  0.8189867E-01
       -2   -1    0    0    0  501  0.00000000000E+00  0.00000000000E+00  0.11099471943E+04  0.11099471943E+04  0.25500000920E-02 0.  1.
        2   -1    0    0  501    0  0.00000000000E+00  0.00000000000E+00 -0.23006921340E+04  0.23006921340E+04  0.25500000920E-02 0. -1.
    10030    2    1    2    0    0  0.00000000000E+00  0.00000000000E+00 -0.11907449397E+04  0.34106393283E+04  0.31960267703E+04 0.  0.
        4    1    3    3  502    0 -0.28830306078E+03  0.15704474210E+04 -0.66470772466E+03  0.17295264465E+04  0.12699999809E+01 0.  1.
       -4    1    3    3    0  502  0.28830306078E+03 -0.15704474210E+04 -0.52603721507E+03  0.16811128818E+04  0.12699999809E+01 0. -1.
</event>
<event>
 5   0  0.8545153E-07  0.3591987E+04  0.7818609E-02  0.8092330E-01
        1   -1    0    0  501    0  0.00000000000E+00  0.00000000000E+00  0.18018914902E+04  0.18018914902E+04  0.50400001928E-02 0. -1.
       -1   -1    0    0    0  501  0.00000000000E+00  0.00000000000E+00 -0.17901145220E+04  0.17901145220E+04  0.50400001928E-02 0.  1.
    10030    2    1    2    0    0  0.00000000000E+00  0.00000000000E+00  0.11776968192E+02  0.35920060122E+04  0.35919867058E+04 0.  0.
        3    1    3    3  502    0 -0.35875738327E+03  0.45580969046E+03 -0.16938626262E+04  0.17904300993E+04  0.10100000352E+00 0.  1.
       -3    1    3    3    0  502  0.35875738327E+03 -0.45580969046E+03  0.17056395944E+04  0.18015759129E+04  0.10100000352E+00 0. -1.
</event>
<event>
 5   0  0.2466076E-06  0.3195786E+04  0.7818609E-02  0.8189931E-01
        2   -1    0    0  501    0  0.00000000000E+00  0.00000000000E+00  0.22905269228E+04  0.22905269228E+04  0.25500000920E-02 0. -1.
       -2   -1    0    0    0  501  0.00000000000E+00  0.00000000000E+00 -0.11147049255E+04  0.11147049255E+04  0.25500000920E-02 0.  1.
    10030    2    1    2    0    0  0.00000000000E+00  0.00000000000E+00  0.11758219973E+04  0.34052318483E+04  0.31957857518E+04 0.  0.
        3    1    3    3  502    0  0.99204171085E+03 -0.36166133328E+03  0.18658089671E+04  0.21438723814E+04  0.10100000352E+00 0. -1.
       -3    1    3    3    0  502 -0.99204171085E+03  0.36166133328E+03 -0.68998696975E+03  0.12613594669E+04  0.10100000352E+00 0.  1.
</event>
<event>
 5   0  0.2404430E-06  0.3240254E+04  0.7818609E-02  0.8178266E-01
       -2   -1    0    0    0  501  0.00000000000E+00  0.00000000000E+00  0.11821721602E+04  0.11821721602E+04  0.25500000920E-02 0. -1.
        2   -1    0    0  501    0  0.00000000000E+00  0.00000000000E+00 -0.22203298343E+04  0.22203298343E+04  0.25500000920E-02 0.  1.
    10030    2    1    2    0    0  0.00000000000E+00  0.00000000000E+00 -0.10381576741E+04  0.34025019945E+04  0.32402543829E+04 0.  0.
        4    1    3    3  502    0 -0.14763444009E+04  0.66453958705E+03 -0.58212561987E+03  0.17204875771E+04  0.12699999809E+01 0.  1.
       -4    1    3    3    0  502  0.14763444009E+04 -0.66453958705E+03 -0.45603205424E+03  0.16820144174E+04  0.12699999809E+01 0. -1.
</event>
<event>
 5   0  0.2404430E-06  0.3183511E+04  0.7818609E-02  0.8193185E-01
       -2   -1    0    0    0  501  0.00000000000E+00  0.00000000000E+00  0.16958981501E+04  0.16958981501E+04  0.25500000920E-02 0. -1.
        2   -1    0    0  501    0  0.00000000000E+00  0.00000000000E+00 -0.14940083718E+04  0.14940083718E+04  0.25500000920E-02 0.  1.
    10030    2    1    2    0    0  0.00000000000E+00  0.00000000000E+00  0.20188977831E+03  0.31899065219E+04  0.31835112903E+04 0.  0.
        4    1    3    3  502    0 -0.56989812127E+03  0.10086714602E+04  0.11946881366E+04  0.16641764749E+04  0.12699999809E+01 0. -1.
       -4    1    3    3    0  502  0.56989812127E+03 -0.10086714602E+04 -0.99279835825E+03  0.15257300470E+04  0.12699999809E+01 0.  1.
</event>
<event>
 5   0  0.8487944E-07  0.3156140E+04  0.7818609E-02  0.8200498E-01
        1   -1    0    0  501    0  0.00000000000E+00  0.00000000000E+00  0.18600040772E+04  0.18600040772E+04  0.50400001928E-02 0.  1.
       -1   -1    0    0    0  501  0.00000000000E+00  0.00000000000E+00 -0.13388704499E+04  0.13388704499E+04  0.50400001928E-02 0. -1.
    10030    2    1    2    0    0  0.00000000000E+00  0.00000000000E+00  0.52113362734E+03  0.31988745271E+04  0.31561397280E+04 0.  0.
        2    1    3    3  502    0  0.10221655560E+04 -0.98175936983E+03 -0.44282615830E+03  0.14848464199E+04  0.25500000920E-02 0. -1.
       -2    1    3    3    0  502 -0.10221655560E+04  0.98175936983E+03  0.96395978564E+03  0.17140281072E+04  0.25500000920E-02 0.  1.
</event>
<event>
 5   0  0.2337504E-06  0.3182986E+04  0.7818609E-02  0.8193325E-01
       -2   -1    0    0    0  501  0.00000000000E+00  0.00000000000E+00  0.13735543097E+04  0.13735543097E+04  0.25500000920E-02 0.  1.
        2   -1    0    0  501    0  0.00000000000E+00  0.00000000000E+00 -0.18440110048E+04  0.18440110048E+04  0.25500000920E-02 0. -1.
    10030    2    1    2    0    0  0.00000000000E+00  0.00000000000E+00 -0.47045669516E+03  0.32175653145E+04  0.31829855562E+04 0.  0.
        1    1    3    3  502    0  0.10294591079E+04  0.56086380549E+03 -0.13232556300E+04  0.17678686958E+04  0.50400001928E-02 0. -1.
       -1    1    3    3    0  502 -0.10294591079E+04 -0.56086380549E+03  0.85279893485E+03  0.14496966188E+04  0.50400001928E-02 0.  1.
</event>
<event>
 5   0  0.8681172E-07  0.3198717E+04  0.7818609E-02  0.8189156E-01
        1   -1    0    0  501    0  0.00000000000E+00  0.00000000000E+00  0.16107212443E+04  0.16107212444E+04  0.50400001928E-02 0. -1.
       -1   -1    0    0    0  501  0.00000000000E+00  0.00000000000E+00 -0.15880759815E+04  0.15880759815E+04  0.50400001928E-02 0.  1.
    10030    2    1    2    0    0  0.00000000000E+00  0.00000000000E+00  0.22645262850E+02  0.31987972259E+04  0.31987170685E+04 0.  0.
        1    1    3    3  502    0 -0.33293744414E+03  0.98715035057E+03 -0.12022293336E+04  0.15908075078E+04  0.50400001928E-02 0.  1.
       -1    1    3    3    0  502  0.33293744414E+03 -0.98715035057E+03  0.12248745964E+04  0.16079897181E+04  0.50400001928E-02 0. -1.
</event>
<event>
 5   0  0.8512855E-07  0.3169078E+04  0.7818609E-02  0.8197032E-01
       -1   -1    0    0    0  501  0.00000000000E+00  0.00000000000E+00  0.82583453096E+03  0.82583453098E+03  0.50400001928E-02 0. -1.
        1   -1    0    0  501    0  0.00000000000E+00  0.00000000000E+00 -0.30402748932E+04  0.30402748932E+04  0.50400001928E-02 0.  1.
    10030    2    1    2    0    0  0.00000000000E+00  0.00000000000E+00 -0.22144403623E+04  0.38661094242E+04  0.31690780934E+04 0.  0.
        5    1    3    3  502    0  0.14270880563E+04 -0.22444428578E+03 -0.31304798417E+03  0.14781666646E+04  0.46999998093E+01 0. -1.
       -5    1    3    3    0  502 -0.14270880563E+04  0.22444428578E+03 -0.19013923781E+04  0.23879427596E+04  0.46999998093E+01 0.  1.
</event>
<event>
 5   0  0.2337504E-06  0.3208384E+04  0.7818609E-02  0.8186606E-01
       -2   -1    0    0    0  501  0.00000000000E+00  0.00000000000E+00  0.16046851871E+04  0.16046851871E+04  0.25500000920E-02 0.  1.
        2   -1    0    0  501    0  0.00000000000E+00  0.00000000000E+00 -0.16036993401E+04  0.16036993401E+04  0.25500000920E-02 0. -1.
    10030    2    1    2    0    0  0.00000000000E+00  0.00000000000E+00  0.98584703281E+00  0.32083845273E+04  0.32083843758E+04 0.  0.
        1    1    3    3  502    0  0.15112310072E+04 -0.48141761342E+03  0.24101424370E+03  0.16042661691E+04  0.50400001928E-02 0.  1.
       -1    1    3    3    0  502 -0.15112310072E+04  0.48141761342E+03 -0.24002839667E+03  0.16041183581E+04  0.50400001928E-02 0. -1.
</event>
<event>
 5   0  0.8512855E-07  0.3308876E+04  0.7818609E-02  0.8160641E-01
        1   -1    0    0  501    0  0.00000000000E+00  0.00000000000E+00  0.12607169648E+04  0.12607169648E+04  0.50400001928E-02 0. -1.
       -1   -1    0    0    0  501  0.00000000000E+00  0.00000000000E+00 -0.21711178007E+04  0.21711178008E+04  0.50400001928E-02 0.  1.
    10030    2    1    2    0    0  0.00000000000E+00  0.00000000000E+00 -0.91040083597E+03  0.34318347655E+04  0.33088759686E+04 0.  0.
        5    1    3    3  502    0  0.14821535486E+04  0.38651835616E+03  0.19330877852E+03  0.15438801622E+04  0.46999998093E+01 0.  1.
       -5    1    3    3    0  502 -0.14821535486E+04 -0.38651835616E+03 -0.11037096145E+04  0.18879546034E+04  0.46999998093E+01 0. -1.
</event>
<event>
 5   0  0.8545153E-07  0.3190503E+04  0.7818609E-02  0.8191330E-01
        1   -1    0    0  501    0  0.00000000000E+00  0.00000000000E+00  0.15259019266E+04  0.15259019266E+04  0.50400001928E-02 0. -1.
       -1   -1    0    0    0  501  0.00000000000E+00  0.00000000000E+00 -0.16677526655E+04  0.16677526655E+04  0.50400001928E-02 0.  1.
    10030    2    1    2    0    0  0.00000000000E+00  0.00000000000E+00 -0.14185073894E+03  0.31936545921E+04  0.31905027851E+04 0.  0.
        3    1    3    3  502    0 -0.25014940185E+03 -0.26296578331E+03  0.14840252060E+04  0.15277619411E+04  0.10100000352E+00 0. -1.
       -3    1    3    3    0  502  0.25014940185E+03  0.26296578331E+03 -0.16258759449E+04  0.16658926511E+04  0.10100000352E+00 0.  1.
</event>
<event>
 5   0  0.8383008E-07  0.3198847E+04  0.7818609E-02  0.8189122E-01
       -1   -1    0    0    0  501  0.00000000000E+00  0.00000000000E+00  0.14638921884E+04  0.14638921884E+04  0.50400001928E-02 0.  1.
        1   -1    0    0  501    0  0.00000000000E+00  0.00000000000E+00 -0.17475028479E+04  0.17475028479E+04  0.50400001928E-02 0. -1.
    10030    2    1    2    0    0  0.00000000000E+00  0.00000000000E+00 -0.28361065954E+03  0.32113950363E+04  0.31988471475E+04 0.  0.
        4    1    3    3  502    0 -0.10064426448E+04  0.96933624320E+03  0.63945975097E+03  0.15367009910E+04  0.12699999809E+01 0.  1.
       -4    1    3    3    0  502  0.10064426448E+04 -0.96933624320E+03 -0.92307041051E+03  0.16746940453E+04  0.12699999809E+01 0. -1.
</event>
<event>
 5   0  0.2401139E-06  0.3189513E+04  0.7818609E-02  0.8191592E-01
        2   -1    0    0  501    0  0.00000000000E+00  0.00000000000E+00  0.15925528104E+04  0.15925528104E+04  0.25500000920E-02 0.  1.
       -2   -1    0    0    0  501  0.00000000000E+00  0.00000000000E+00 -0.15969634540E+04  0.15969634540E+04  0.25500000920E-02 0. -1.
    10030    2    1    2    0    0  0.00000000000E+00  0.00000000000E+00 -0.44106435928E+01  0.31895162643E+04  0.31895132147E+04 0.  0.
        5    1    3    3  502    0 -0.26300132842E+03  0.18775968076E+03  0.15594629573E+04  0.15925985689E+04  0.46999998093E+01 0.  1.
       -5    1    3    3    0  502  0.26300132842E+03 -0.18775968076E+03 -0.15638736009E+04  0.15969176954E+04  0.46999998093E+01 0. -1.
</event>
<event>
 5   0  0.2337504E-06  0.2910511E+04  0.7818609E-02  0.8269757E-01
       -2   -1    0    0    0  501  0.00000000000E+00  0.00000000000E+00  0.16109542907E+04  0.16109542907E+04  0.25500000920E-02 0. -1.
        2   -1    0    0  501    0  0.00000000000E+00  0.00000000000E+00 -0.13146050309E+04  0.13146050309E+04  0.25500000920E-02 0.  1.
    10030    2    1    2    0    0  0.00000000000E+00  0.00000000000E+00  0.29634925982E+03  0.29255593215E+04  0.29105110307E+04 0.  0.
        1    1    3    3  502    0 -0.47695456908E+03 -0.92497570038E+03  0.11706373776E+04  0.15663516773E+04  0.50400001928E-02 0. -1.
       -1    1    3    3    0  502  0.47695456908E+03  0.92497570038E+03 -0.87428811775E+03  0.13592076442E+04  0.50400001928E-02 0.  1.
</event>
<event>
 5   0  0.8487944E-07  0.3236981E+04  0.7818609E-02  0.8179118E-01
        1   -1    0    0  501    0  0.00000000000E+00  0.00000000000E+00  0.13115928058E+04  0.13115928058E+04  0.50400001928E-02 0.  1.
       -1   -1    0    0    0  501  0.00000000000E+00  0.00000000000E+00 -0.19971984109E+04  0.19971984109E+04  0.50400001928E-02 0. -1.
    10030    2    1    2    0    0  0.00000000000E+00  0.00000000000E+00 -0.68560560514E+03  0.33087912167E+04  0.32369807336E+04 0.  0.
        2    1    3    3  502    0  0.59344334832E+03 -0.12874036867E+04 -0.11411070990E+04  0.18198100647E+04  0.25500000920E-02 0. -1.
       -2    1    3    3    0  502 -0.59344334832E+03  0.12874036867E+04  0.45550149389E+03  0.14889811520E+04  0.25500000920E-02 0.  1.
</event>
<event>
 5   0  0.8512855E-07  0.3190885E+04  0.7818609E-02  0.8191229E-01
        1   -1    0    0  501    0  0.00000000000E+00  0.00000000000E+00  0.24821405472E+04  0.24821405472E+04  0.50400001928E-02 0. -1.
       -1   -1    0    0    0  501  0.00000000000E+00  0.00000000000E+00 -0.10255006349E+04  0.10255006349E+04  0.50400001928E-02 0.  1.
    10030    2    1    2    0    0  0.00000000000E+00  0.00000000000E+00  0.14566399123E+04  0.35076411821E+04  0.31908849601E+04 0.  0.
        5    1    3    3  502    0  0.83687667554E+03  0.11696219376E+04  0.14875613017E+04  0.20691154544E+04  0.46999998093E+01 0. -1.
       -5    1    3    3    0  502 -0.83687667554E+03 -0.11696219376E+04 -0.30921389393E+02  0.14385257278E+04  0.46999998093E+01 0.  1.
</event>
<event>
 5   0  0.2466076E-06  0.3249104E+04  0.7818609E-02  0.8175968E-01
       -2   -1    0    0    0  501  0.00000000000E+00  0.00000000000E+00  0.19001213456E+04  0.19001213456E+04  0.25500000920E-02 0.  1.
        2   -1    0    0  501    0  0.00000000000E+00  0.00000000000E+00 -0.13889475565E+04  0.13889475565E+04  0.25500000920E-02 0. -1.
    10030    2    1    2    0    0  0.00000000000E+00  0.00000000000E+00  0.51117378914E+03  0.32890689021E+04  0.32491038149E+04 0.  0.
        3    1    3    3  502    0  0.11091596753E+02 -0.72386987929E+03  0.17277995653E+04  0.18733397913E+04  0.10100000352E+00 0.  1.
       -3    1    3    3    0  502 -0.11091596753E+02  0.72386987929E+03 -0.12166257762E+04  0.14157291108E+04  0.10100000352E+00 0. -1.
</event>
<event>
 5   0  0.2337504E-06  0.3077651E+04  0.7818609E-02  0.8221898E-01
       -2   -1    0    0    0  501  0.00000000000E+00  0.00000000000E+00  0.12257815430E+04  0.12257815430E+04  0.25500000920E-02 0. -1.
        2   -1    0    0  501    0  0.00000000000E+00  0.00000000000E+00 -0.19318150591E+04  0.19318150591E+04  0.25500000920E-02 0.  1.
    10030    2    1    2    0    0  0.00000000000E+00  0.00000000000E+00 -0.70603351608E+03  0.31575966021E+04  0.30776505611E+04 0.  0.
        1    1    3    3  502    0  0.21582964693E+03  0.98068779995E+03 -0.15493474926E+04  0.18462959271E+04  0.50400001928E-02 0.  1.
       -1    1    3    3    0  502 -0.21582964693E+03 -0.98068779995E+03  0.84331397652E+03  0.13113006751E+04  0.50400001928E-02 0. -1.
</event>
<event>
 5   0  0.7934375E-07  0.3202003E+04  0.7818609E-02  0.8188288E-01
        3   -1    0    0  501    0  0.00000000000E+00  0.00000000000E+00  0.14221641361E+04  0.14221641397E+04  0.10100000352E+00 0.  1.
       -3   -1    0    0    0  501  0.00000000000E+00  0.00000000000E+00 -0.18023274837E+04  0.18023274865E+04  0.10100000352E+00 0. -1.
    10030    2    1    2    0    0  0.00000000000E+00  0.00000000000E+00 -0.38016334757E+03  0.32244916262E+04  0.32020028227E+04 0.  0.
        1    1    3    3  502    0  0.13702761675E+04 -0.82336004087E+03 -0.27802766505E+03  0.16226145305E+04  0.50400001928E-02 0.  1.
       -1    1    3    3    0  502 -0.13702761675E+04  0.82336004087E+03 -0.10213568252E+03  0.16018770957E+04  0.50400001928E-02 0. -1.
</event>
<event>
 5   0  0.8487944E-07  0.3157698E+04  0.7818609E-02  0.8200079E-01
       -1   -1    0    0    0  501  0.00000000000E+00  0.00000000000E+00  0.15516039812E+04  0.15516039812E+04  0.50400001928E-02 0.  1.
        1   -1    0    0  501    0  0.00000000000E+00  0.00000000000E+00 -0.16065727711E+04  0.16065727712E+04  0.50400001928E-02 0. -1.
    10030    2    1    2    0    0  0.00000000000E+00  0.00000000000E+00 -0.54968789984E+02  0.31581767523E+04  0.31576983439E+04 0.  0.
        2    1    3    3  502    0  0.81727157128E+03  0.21452319320E+03 -0.13614074536E+04  0.16023056126E+04  0.25500000920E-02 0. -1.
       -2    1    3    3    0  502 -0.81727157128E+03 -0.21452319320E+03  0.13064386636E+04  0.15558711397E+04  0.25500000920E-02 0.  1.
</event>
<event>
 5   0  0.8512855E-07  0.3189047E+04  0.7818609E-02  0.8191716E-01
       -1   -1    0    0    0  501  0.00000000000E+00  0.00000000000E+00  0.95483134047E+03  0.95483134048E+03  0.50400001928E-02 0. -1.
        1   -1    0    0  501    0  0.00000000000E+00  0.00000000000E+00 -0.26627798243E+04  0.26627798243E+04  0.50400001928E-02 0.  1.
    10030    2    1    2    0    0  0.00000000000E+00  0.00000000000E+00 -0.17079484838E+04  0.36176111648E+04  0.31890472740E+04 0.  0.
        5    1    3    3  502    0 -0.30128742249E+03 -0.41591413109E+02  0.92161359206E+03  0.97051412131E+03  0.46999998093E+01 0. -1.
       -5    1    3    3    0  502  0.30128742249E+03  0.41591413109E+02 -0.26295620759E+04  0.26470970435E+04  0.46999998093E+01 0.  1.
</event>
<event>
 5   0  0.8487944E-07  0.3218311E+04  0.7818609E-02  0.8183998E-01
       -1   -1    0    0    0  501  0.00000000000E+00  0.00000000000E+00  0.15453549034E+04  0.15453549034E+04  0.50400001928E-02 0.  1.
        1   -1    0    0  501    0  0.00000000000E+00  0.00000000000E+00 -0.16755902146E+04  0.16755902146E+04  0.50400001928E-02 0. -1.
    10030    2    1    2    0    0  0.00000000000E+00  0.00000000000E+00 -0.13023531116E+03  0.32209451181E+04  0.32183110815E+04 0.  0.
        2    1    3    3  502    0 -0.22643025821E+01 -0.82416407909E+03 -0.14483233456E+04  0.16664009331E+04  0.25500000920E-02 0. -1.
       -2    1    3    3    0  502  0.22643025821E+01  0.82416407909E+03  0.13180880345E+04  0.15545441850E+04  0.25500000920E-02 0.  1.
</event>
<event>
 5   0  0.8512855E-07  0.3111227E+04  0.7818609E-02  0.8212664E-01
        1   -1    0    0  501    0  0.00000000000E+00  0.00000000000E+00  0.10914777725E+04  0.10914777725E+04  0.50400001928E-02 0.  1.
       -1   -1    0    0    0  501  0.00000000000E+00  0.00000000000E+00 -0.22171159095E+04  0.22171159095E+04  0.50400001928E-02 0. -1.
    10030    2    1    2    0    0  0.00000000000E+00  0.00000000000E+00 -0.11256381370E+04  0.33085936820E+04  0.31112265969E+04 0.  0.
        5    1    3    3  502    0  0.65576451257E+03  0.81228027112E+03  0.66363525470E+03  0.12370368532E+04  0.46999998093E+01 0.  1.
       -5    1    3    3    0  502 -0.65576451257E+03 -0.81228027112E+03 -0.17892733917E+04  0.20715568288E+04  0.46999998093E+01 0. -1.
</event>
<event>
 5   0  0.8487944E-07  0.3255914E+04  0.7818609E-02  0.8174204E-01
        1   -1    0    0  501    0  0.00000000000E+00  0.00000000000E+00  0.20108431732E+04  0.20108431732E+04  0.50400001928E-02 0. -1.
       -1   -1    0    0    0  501  0.00000000000E+00  0.00000000000E+00 -0.13179768178E+04  0.13179768178E+04  0.50400001928E-02 0.  1.
    10030    2    1    2    0    0  0.00000000000E+00  0.00000000000E+00  0.69286635532E+03  0.33288199910E+04  0.32559144255E+04 0.  0.
        2    1    3    3  502    0  0.13893242493E+04  0.78341822158E+03  0.13129228289E+02  0.15950355345E+04  0.25500000920E-02 0.  1.
       -2    1    3    3    0  502 -0.13893242493E+04 -0.78341822158E+03  0.67973712703E+03  0.17337844565E+04  0.25500000920E-02 0. -1.
</event>
<event>
 5   0  0.2466076E-06  0.3237397E+04  0.7818609E-02  0.8179010E-01
       -2   -1    0    0    0  501  0.00000000000E+00  0.00000000000E+00  0.12174101316E+04  0.12174101316E+04  0.25500000920E-02 0.  1.
        2   -1    0    0  501    0  0.00000000000E+00  0.00000000000E+00 -0.21522611412E+04  0.21522611412E+04  0.25500000920E-02 0. -1.
    10030    2    1    2    0    0  0.00000000000E+00  0.00000000000E+00 -0.93485100957E+03  0.33696712727E+04  0.32373968055E+04 0.  0.
        3    1    3    3  502    0  0.13727758920E+04 -0.13053515750E+03  0.41493224809E+03  0.14400423111E+04  0.10100000352E+00 0.  1.
       -3    1    3    3    0  502 -0.13727758920E+04  0.13053515750E+03 -0.13497832577E+04  0.19296289617E+04  0.10100000352E+00 0. -1.
</event>
<event>
 5   0  0.2621528E-06  0.3171862E+04  0.7818609E-02  0.8196288E-01
        2   -1    0    0  501    0  0.00000000000E+00  0.00000000000E+00  0.22365043453E+04  0.22365043453E+04  0.25500000920E-02 0.  1.
       -2   -1    0    0    0  501  0.00000000000E+00  0.00000000000E+00 -0.11246022788E+04  0.11246022788E+04  0.25500000920E-02 0. -1.
    10030    2    1    2    0    0  0.00000000000E+00  0.00000000000E+00  0.11119020664E+04  0.33611066241E+04  0.31718624707E+04 0.  0.
        2    1    3    3  502    0 -0.20851649943E+02 -0.13404370618E+04 -0.34193572496E+03  0.13835195510E+04  0.25500000920E-02 0. -1.
       -2    1    3    3    0  502  0.20851649943E+02  0.13404370618E+04  0.14538377914E+04  0.19775870731E+04  0.25500000920E-02 0.  1.
</event>
<event>
 5   0  0.2337504E-06  0.3252117E+04  0.7818609E-02  0.8175187E-01
        2   -1    0    0  501    0  0.00000000000E+00  0.00000000000E+00  0.24189669565E+04  0.24189669565E+04  0.25500000920E-02 0. -1.
       -2   -1    0    0    0  501  0.00000000000E+00  0.00000000000E+00 -0.10930557615E+04  0.10930557615E+04  0.25500000920E-02 0.  1.
    10030    2    1    2    0    0  0.00000000000E+00  0.00000000000E+00  0.13259111950E+04  0.35120227180E+04  0.32521167068E+04 0.  0.
        1    1    3    3  502    0  0.10535196670E+04  0.11463230298E+04  0.11696040629E+04  0.19472888438E+04  0.50400001928E-02 0. -1.
       -1    1    3    3    0  502 -0.10535196670E+04 -0.11463230298E+04  0.15630713218E+03  0.15647338742E+04  0.50400001928E-02 0.  1.
</event>
<event>
 5   0  0.8487944E-07  0.3173350E+04  0.7818609E-02  0.8195891E-01
        1   -1    0    0  501    0  0.00000000000E+00  0.00000000000E+00  0.14090835077E+04  0.14090835077E+04  0.50400001928E-02 0. -1.
       -1   -1    0    0    0  501  0.00000000000E+00  0.00000000000E+00 -0.17866484917E+04  0.17866484917E+04  0.50400001928E-02 0.  1.
    10030    2    1    2    0    0  0.00000000000E+00  0.00000000000E+00 -0.37756498406E+03  0.31957319994E+04  0.31733496018E+04 0.  0.
        2    1    3    3  502    0 -0.25095526520E+03 -0.83743741028E+03 -0.15222278301E+04  0.17554080802E+04  0.25500000920E-02 0.  1.
       -2    1    3    3    0  502  0.25095526520E+03  0.83743741028E+03  0.11446628460E+04  0.14403239192E+04  0.25500000920E-02 0. -1.
</event>
<event>
 5   0  0.2404430E-06  0.3269339E+04  0.7818609E-02  0.8170741E-01
       -2   -1    0    0    0  501  0.00000000000E+00  0.00000000000E+00  0.14280130275E+04  0.14280130275E+04  0.25500000920E-02 0. -1.
        2   -1    0    0  501    0  0.00000000000E+00  0.00000000000E+00 -0.18712327828E+04  0.18712327828E+04  0.25500000920E-02 0.  1.
    10030    2    1    2    0    0  0.00000000000E+00  0.00000000000E+00 -0.44321975533E+03  0.32992458103E+04  0.32693392551E+04 0.  0.
        4    1    3    3  502    0  0.11022994127E+04 -0.88565878474E+03  0.60606815393E+03  0.15384328709E+04  0.12699999809E+01 0. -1.
       -4    1    3    3    0  502 -0.11022994127E+04  0.88565878474E+03 -0.10492879093E+04  0.17608129394E+04  0.12699999809E+01 0.  1.
</event>
<event>
 5   0  0.8681172E-07  0.3198750E+04  0.7818609E-02  0.8189147E-01
        1   -1    0    0  501    0  0.00000000000E+00  0.00000000000E+00  0.20150687889E+04  0.20150687889E+04  0.50400001928E-02 0. -1.
       -1   -1    0    0    0  501  0.00000000000E+00  0.00000000000E+00 -0.12694360938E+04  0.12694360938E+04  0.50400001928E-02 0.  1.
    10030    2    1    2    0    0  0.00000000000E+00  0.00000000000E+00  0.74563269506E+03  0.32845048827E+04  0.31987504136E+04 0.  0.
        1    1    3    3  502    0  0.41458766142E+03  0.15187379066E+04  0.66242973992E+03  0.17079990978E+04  0.50400001928E-02 0. -1.
       -1    1    3    3    0  502 -0.41458766142E+03 -0.15187379066E+04  0.83202955140E+02  0.15765057848E+04  0.50400001928E-02 0.  1.
</event>
<event>
 5   0  0.8383008E-07  0.3279499E+04  0.7818609E-02  0.8168132E-01
        1   -1    0    0  501    0  0.00000000000E+00  0.00000000000E+00  0.20425165432E+04  0.20425165432E+04  0.50400001928E-02 0.  1.
       -1   -1    0    0    0  501  0.00000000000E+00  0.00000000000E+00 -0.13164046901E+04  0.13164046901E+04  0.50400001928E-02 0. -1.
    10030    2    1    2    0    0  0.00000000000E+00  0.00000000000E+00  0.72611185308E+03  0.33589212333E+04  0.32794989600E+04 0.  0.
        4    1    3    3  502    0 -0.36023012102E+03 -0.96158028468E+03  0.16724431308E+04  0.19625162477E+04  0.12699999809E+01 0.  1.
       -4    1    3    3    0  502  0.36023012102E+03  0.96158028468E+03 -0.94633127767E+03  0.13964049857E+04  0.12699999809E+01 0. -1.
</event>
<event>
 5   0  0.2466076E-06  0.3233095E+04  0.7818609E-02  0.8180131E-01
       -2   -1    0    0    0  501  0.00000000000E+00  0.00000000000E+00  0.12687277813E+04  0.12687277813E+04  0.25500000920E-02 0. -1.
        2   -1    0    0  501    0  0.00000000000E+00  0.00000000000E+00 -0.20597213933E+04  0.20597213933E+04  0.25500000920E-02 0.  1.
    10030    2    1    2    0    0  0.00000000000E+00  0.00000000000E+00 -0.79099361198E+03  0.33284491746E+04  0.32330949590E+04 0.  0.
        3    1    3    3  502    0 -0.37099711801E+03 -0.13542505456E+04  0.42912165807E+03  0.14682570652E+04  0.10100000352E+00 0. -1.
       -3    1    3    3    0  502  0.37099711801E+03  0.13542505456E+04 -0.12201152701E+04  0.18601921095E+04  0.10100000352E+00 0.  1.
</event>
<event>
 5   0  0.8512855E-07  0.3195649E+04  0.7818609E-02  0.8189967E-01
        1   -1    0    0  501    0  0.00000000000E+00  0.00000000000E+00  0.18074031497E+04  0.18074031497E+04  0.50400001928E-02 0. -1.
       -1   -1    0    0    0  501  0.00000000000E+00  0.00000000000E+00 -0.14125475645E+04  0.14125475645E+04  0.50400001928E-02 0.  1.
    10030    2    1    2    0    0  0.00000000000E+00  0.00000000000E+00  0.39485558519E+03  0.32199507142E+04  0.31956488650E+04 0.  0.
        5    1    3    3  502    0  0.14953638437E+04 -0.26467576671E+03  0.69805071474E+03  0.16713656622E+04  0.46999998093E+01 0. -1.
       -5    1    3    3    0  502 -0.14953638437E+04  0.26467576671E+03 -0.30319512955E+03  0.15485850519E+04  0.46999998093E+01 0.  1.
</event>
<event>
 5   0  0.2466076E-06  0.3194123E+04  0.7818609E-02  0.8190371E-01
       -2   -1    0    0    0  501  0.00000000000E+00  0.00000000000E+00  0.20199840676E+04  0.20199840676E+04  0.25500000920E-02 0.  1.
        2   -1    0    0  501    0  0.00000000000E+00  0.00000000000E+00 -0.12626857535E+04  0.12626857535E+04  0.25500000920E-02 0. -1.
    10030    2    1    2    0    0  0.00000000000E+00  0.00000000000E+00  0.75729831408E+03  0.32826698210E+04  0.31941227931E+04 0.  0.
        3    1    3    3  502    0 -0.18988398884E+03 -0.17065104739E+03 -0.12415788468E+04  0.12675550293E+04  0.10100000352E+00 0. -1.
       -3    1    3    3    0  502  0.18988398884E+03  0.17065104739E+03  0.19988771609E+04  0.20151147917E+04  0.10100000352E+00 0.  1.
</event>
<event>
 5   0  0.8383008E-07  0.3188008E+04  0.7818609E-02  0.8191991E-01
        1   -1    0    0  501    0  0.00000000000E+00  0.00000000000E+00  0.22864014703E+04  0.22864014703E+04  0.50400001928E-02 0.  1.
       -1   -1    0    0    0  501  0.00000000000E+00  0.00000000000E+00 -0.11112874347E+04  0.11112874347E+04  0.50400001928E-02 0. -1.
    10030    2    1    2    0    0  0.00000000000E+00  0.00000000000E+00  0.11751140356E+04  0.33976889050E+04  0.31880082965E+04 0.  0.
        4    1    3    3  502    0  0.11995870565E+04  0.10382871778E+04  0.42314384629E+03  0.16419810283E+04  0.12699999809E+01 0. -1.
       -4    1    3    3    0  502 -0.11995870565E+04 -0.10382871778E+04  0.75197018929E+03  0.17557078767E+04  0.12699999809E+01 0.  1.
</event>
<event>
 5   0  0.8512855E-07  0.3203689E+04  0.7818609E-02  0.8187844E-01
       -1   -1    0    0    0  501  0.00000000000E+00  0.00000000000E+00  0.15493036481E+04  0.15493036481E+04  0.50400001928E-02 0.  1.
        1   -1    0    0  501    0  0.00000000000E+00  0.00000000000E+00 -0.16561671689E+04  0.16561671689E+04  0.50400001928E-02 0. -1.
    10030    2    1    2    0    0  0.00000000000E+00  0.00000000000E+00 -0.10686352081E+03  0.32054708170E+04  0.32036890215E+04 0.  0.
        5    1    3    3  502    0 -0.37294432665E+03 -0.12928062203E+04 -0.92308048347E+03  0.16317276314E+04  0.46999998093E+01 0. -1.
       -5    1    3    3    0  502  0.37294432665E+03  0.12928062203E+04  0.81621696266E+03  0.15737431856E+04  0.46999998093E+01 0.  1.
</event>
<event>
 5   0  0.2401139E-06  0.3170909E+04  0.7818609E-02  0.8196543E-01
        2   -1    0    0  501    0  0.00000000000E+00  0.00000000000E+00  0.20525309147E+04  0.20525309147E+04  0.25500000920E-02 0. -1.
       -2   -1    0    0    0  501  0.00000000000E+00  0.00000000000E+00 -0.12246663516E+04  0.12246663516E+04  0.25500000920E-02 0.  1.
    10030    2    1    2    0    0  0.00000000000E+00  0.00000000000E+00  0.82786456311E+03  0.32771972663E+04  0.31709087321E+04 0.  0.
        5    1    3    3  502    0  0.72847169870E+03  0.14247803077E+03  0.18618462414E+04  0.20043613750E+04  0.46999998093E+01 0. -1.
       -5    1    3    3    0  502 -0.72847169870E+03 -0.14247803077E+03 -0.10339816783E+04  0.12728358913E+04  0.46999998093E+01 0.  1.
</event>
<event>
 5   0  0.8681172E-07  0.3031681E+04  0.7818609E-02  0.8234742E-01
        1   -1    0    0  501    0  0.00000000000E+00  0.00000000000E+00  0.10765885493E+04  0.10765885493E+04  0.50400001928E-02 0. -1.
       -1   -1    0    0    0  501  0.00000000000E+00  0.00000000000E+00 -0.21343084671E+04  0.21343084671E+04  0.50400001928E-02 0.  1.
    10030    2    1    2    0    0  0.00000000000E+00  0.00000000000E+00 -0.10577199178E+04  0.32108970165E+04  0.30316807592E+04 0.  0.
        1    1    3    3  502    0  0.23787039642E+03 -0.83685379994E+03  0.78583581708E+03  0.11723670668E+04  0.50400001928E-02 0. -1.
       -1    1    3    3    0  502 -0.23787039642E+03  0.83685379994E+03 -0.18435557349E+04  0.20385299496E+04  0.50400001928E-02 0.  1.
</event>
<event>
 5   0  0.2401139E-06  0.3206020E+04  0.7818609E-02  0.8187229E-01
        2   -1    0    0  501    0  0.00000000000E+00  0.00000000000E+00  0.13657863253E+04  0.13657863253E+04  0.25500000920E-02 0.  1.
       -2   -1    0    0    0  501  0.00000000000E+00  0.00000000000E+00 -0.18814376651E+04  0.18814376651E+04  0.25500000920E-02 0. -1.
    10030    2    1    2    0    0  0.00000000000E+00  0.00000000000E+00 -0.51565133979E+03  0.32472239904E+04  0.32060204833E+04 0.  0.
        5    1    3    3  502    0 -0.13111879065E+04  0.60899664632E+03 -0.95920576946E+03  0.17349894638E+04  0.46999998093E+01 0. -1.
       -5    1    3    3    0  502  0.13111879065E+04 -0.60899664632E+03  0.44355442967E+03  0.15122345266E+04  0.46999998093E+01 0.  1.
</event>
<event>
 5   0  0.8487944E-07  0.2664409E+04  0.7818609E-02  0.8346646E-01
        1   -1    0    0  501    0  0.00000000000E+00  0.00000000000E+00  0.20019411582E+04  0.20019411582E+04  0.50400001928E-02 0.  1.
       -1   -1    0    0    0  501  0.00000000000E+00  0.00000000000E+00 -0.88652413892E+03  0.88652413893E+03  0.50400001928E-02 0. -1.
    10030    2    1    2    0    0  0.00000000000E+00  0.00000000000E+00  0.11154170193E+04  0.28884652971E+04  0.26644092489E+04 0.  0.
        2    1    3    3  502    0 -0.39768777374E+02  0.11209323578E+04  0.13369726992E+04  0.17451552667E+04  0.25500000920E-02 0.  1.
       -2    1    3    3    0  502  0.39768777374E+02 -0.11209323578E+04 -0.22155567988E+03  0.11433100305E+04  0.25500000920E-02 0. -1.
</event>
<event>
 5   0  0.8545153E-07  0.3193267E+04  0.7818609E-02  0.8190598E-01
        1   -1    0    0  501    0  0.00000000000E+00  0.00000000000E+00  0.12075271700E+04  0.12075271700E+04  0.50400001928E-02 0.  1.
       -1   -1    0    0    0  501  0.00000000000E+00  0.00000000000E+00 -0.21111230344E+04  0.21111230344E+04  0.50400001928E-02 0. -1.
    10030    2    1    2    0    0  0.00000000000E+00  0.00000000000E+00 -0.90359586444E+03  0.33186502044E+04  0.31932669311E+04 0.  0.
        3    1    3    3  502    0  0.63334021143E+03  0.10197228168E+04 -0.15458847377E+04  0.19572210093E+04  0.10100000352E+00 0. -1.
       -3    1    3    3    0  502 -0.63334021143E+03 -0.10197228168E+04  0.64228887330E+03  0.13614291952E+04  0.10100000352E+00 0.  1.
</event>
<event>
 5   0  0.8512855E-07  0.2661686E+04  0.7818609E-02  0.8347545E-01
       -1   -1    0    0    0  501  0.00000000000E+00  0.00000000000E+00  0.12691015488E+04  0.12691015488E+04  0.50400001928E-02 0. -1.
        1   -1    0    0  501    0  0.00000000000E+00  0.00000000000E+00 -0.13955877853E+04  0.13955877853E+04  0.50400001928E-02 0.  1.
    10030    2    1    2    0    0  0.00000000000E+00  0.00000000000E+00 -0.12648623651E+03  0.26646893341E+04  0.26616856462E+04 0.  0.
        5    1    3    3  502    0 -0.90256342501E+03 -0.52111889366E+03  0.76529876364E+03  0.12930158255E+04  0.46999998093E+01 0. -1.
       -5    1    3    3    0  502  0.90256342501E+03  0.52111889366E+03 -0.89178500015E+03  0.13716735085E+04  0.46999998093E+01 0.  1.
</event>
<event>
 5   0  0.2621528E-06  0.3194835E+04  0.7818609E-02  0.8190183E-01
        2   -1    0    0  501    0  0.00000000000E+00  0.00000000000E+00  0.15679243742E+04  0.15679243742E+04  0.25500000920E-02 0.  1.
       -2   -1    0    0    0  501  0.00000000000E+00  0.00000000000E+00 -0.16274653174E+04  0.16274653174E+04  0.25500000920E-02 0. -1.
    10030    2    1    2    0    0  0.00000000000E+00  0.00000000000E+00 -0.59540943199E+02  0.31953896917E+04  0.31948349187E+04 0.  0.
        2    1    3    3  502    0  0.99330452101E+03 -0.10194734399E+04  0.69545031071E+03  0.15841815240E+04  0.25500000920E-02 0.  1.
       -2    1    3    3    0  502 -0.99330452101E+03  0.10194734399E+04 -0.75499125391E+03  0.16112081677E+04  0.25500000920E-02 0. -1.
</event>
<event>
 5   0  0.2337504E-06  0.3182899E+04  0.7818609E-02  0.8193348E-01
       -2   -1    0    0    0  501  0.00000000000E+00  0.00000000000E+00  0.14721402250E+04  0.14721402250E+04  0.25500000920E-02 0. -1.
        2   -1    0    0  501    0  0.00000000000E+00  0.00000000000E+00 -0.17204279066E+04  0.17204279066E+04  0.25500000920E-02 0.  1.
    10030    2    1    2    0    0  0.00000000000E+00  0.00000000000E+00 -0.24828768165E+03  0.31925681316E+04  0.31828987578E+04 0.  0.
        1    1    3    3  502    0 -0.96034091670E+03 -0.59010146734E+03 -0.12510499996E+04  0.16839241430E+04  0.50400001928E-02 0.  1.
       -1    1    3    3    0  502  0.96034091670E+03  0.59010146734E+03  0.10027623179E+04  0.15086439886E+04  0.50400001928E-02 0. -1.
</event>
<event>
 5   0  0.8681172E-07  0.3202507E+04  0.7818609E-02  0.8188155E-01
       -1   -1    0    0    0  501  0.00000000000E+00  0.00000000000E+00  0.13057365750E+04  0.13057365750E+04  0.50400001928E-02 0. -1.
        1   -1    0    0  501    0  0.00000000000E+00  0.00000000000E+00 -0.19636520695E+04  0.19636520695E+04  0.50400001928E-02 0.  1.
    10030    2    1    2    0    0  0.00000000000E+00  0.00000000000E+00 -0.65791549446E+03  0.32693886445E+04  0.32025067231E+04 0.  0.
        1    1    3    3  502    0  0.13331499103E+04  0.84808680409E+03 -0.59413705580E+03  0.16880576862E+04  0.50400001928E-02 0. -1.
       -1    1    3    3    0  502 -0.13331499103E+04 -0.84808680409E+03 -0.63778438664E+02  0.15813309584E+04  0.50400001928E-02 0.  1.
</event>
<event>
 5   0  0.8545153E-07  0.3277585E+04  0.7818609E-02  0.8168623E-01
        1   -1    0    0  501    0  0.00000000000E+00  0.00000000000E+00  0.18155427854E+04  0.18155427854E+04  0.50400001928E-02 0. -1.
       -1   -1    0    0    0  501  0.00000000000E+00  0.00000000000E+00 -0.14792491648E+04  0.14792491648E+04  0.50400001928E-02 0.  1.
    10030    2    1    2    0    0  0.00000000000E+00  0.00000000000E+00  0.33629362061E+03  0.32947919502E+04  0.32775845673E+04 0.  0.
        3    1    3    3  502    0  0.62372939653E+03  0.69419699573E+03  0.15223242978E+04  0.17856144900E+04  0.10100000352E+00 0. -1.
       -3    1    3    3    0  502 -0.62372939653E+03 -0.69419699573E+03 -0.11860306772E+04  0.15091774602E+04  0.10100000352E+00 0.  1.
</event>
<event>
 5   0  0.8545153E-07  0.3224385E+04  0.7818609E-02  0.8182407E-01
        1   -1    0    0  501    0  0.00000000000E+00  0.00000000000E+00  0.15880489988E+04  0.15880489988E+04  0.50400001928E-02 0.  1.
       -1   -1    0    0    0  501  0.00000000000E+00  0.00000000000E+00 -0.16367026941E+04  0.16367026941E+04  0.50400001928E-02 0. -1.
    10030    2    1    2    0    0  0.00000000000E+00  0.00000000000E+00 -0.48653695279E+02  0.32247516929E+04  0.32243846387E+04 0.  0.
        3    1    3    3  502    0  0.10811120963E+04 -0.11847766860E+04 -0.18763935517E+03  0.16148398368E+04  0.10100000352E+00 0. -1.
       -3    1    3    3    0  502 -0.10811120963E+04  0.11847766860E+04  0.13898565989E+03  0.16099118561E+04  0.10100000352E+00 0.  1.
</event>
<event>
 5   0  0.8383008E-07  0.2845961E+04  0.7818609E-02  0.8289140E-01
       -1   -1    0    0    0  501  0.00000000000E+00  0.00000000000E+00  0.14748607728E+04  0.14748607728E+04  0.50400001928E-02 0. -1.
        1   -1    0    0  501    0  0.00000000000E+00  0.00000000000E+00 -0.13729247701E+04  0.13729247701E+04  0.50400001928E-02 0.  1.
    10030    2    1    2    0    0  0.00000000000E+00  0.00000000000E+00  0.10193600267E+03  0.28477855429E+04  0.28459605672E+04 0.  0.
        4    1    3    3  502    0 -0.19172115554E+03 -0.81853252511E+03 -0.10978617559E+04  0.13827706043E+04  0.12699999809E+01 0.  1.
       -4    1    3    3    0  502  0.19172115554E+03  0.81853252511E+03  0.11997977586E+04  0.14650149387E+04  0.12699999809E+01 0. -1.
</event>
<event>
 5   0  0.2337504E-06  0.3175120E+04  0.7818609E-02  0.8195419E-01
       -2   -1    0    0    0  501  0.00000000000E+00  0.00000000000E+00  0.21687996089E+04  0.21687996089E+04  0.25500000920E-02 0.  1.
        2   -1    0    0  501    0  0.00000000000E+00  0.00000000000E+00 -0.11620927449E+04  0.11620927449E+04  0.25500000920E-02 0. -1.
    10030    2    1    2    0    0  0.00000000000E+00  0.00000000000E+00  0.10067068640E+04  0.33308923538E+04  0.31751197084E+04 0.  0.
        1    1    3    3  502    0 -0.12047009239E+04  0.10326243963E+04  0.55815447214E+03  0.16820088806E+04  0.50400001928E-02 0.  1.
       -1    1    3    3    0  502  0.12047009239E+04 -0.10326243963E+04  0.44855239183E+03  0.16488834731E+04  0.50400001928E-02 0. -1.
</event>
<event>
 5   0  0.2466076E-06  0.3171921E+04  0.7818609E-02  0.8196272E-01
        2   -1    0    0  501    0  0.00000000000E+00  0.00000000000E+00  0.20236980942E+04  0.20236980942E+04  0.25500000920E-02 0.  1.
       -2   -1    0    0    0  501  0.00000000000E+00  0.00000000000E+00 -0.12429081658E+04  0.12429081658E+04  0.25500000920E-02 0. -1.
    10030    2    1    2    0    0  0.00000000000E+00  0.00000000000E+00  0.78078992835E+03  0.32666062600E+04  0.31719211127E+04 0.  0.
        3    1    3    3  502    0  0.82686096874E+03  0.35153639285E+03 -0.95551987076E+03  0.13116002176E+04  0.10100000352E+00 0. -1.
       -3    1    3    3    0  502 -0.82686096874E+03 -0.35153639285E+03  0.17363097991E+04  0.19550060424E+04  0.10100000352E+00 0.  1.
</event>
<event>
 5   0  0.8545153E-07  0.3187114E+04  0.7818609E-02  0.8192229E-01
        1   -1    0    0  501    0  0.00000000000E+00  0.00000000000E+00  0.10571466589E+04  0.10571466589E+04  0.50400001928E-02 0. -1.
       -1   -1    0    0    0  501  0.00000000000E+00  0.00000000000E+00 -0.24021484805E+04  0.24021484805E+04  0.50400001928E-02 0.  1.
    10030    2    1    2    0    0  0.00000000000E+00  0.00000000000E+00 -0.13450018216E+04  0.34592951394E+04  0.31871135784E+04 0.  0.
        3    1    3    3  502    0 -0.28746943475E+03  0.14892210901E+04 -0.14186863899E+03  0.15233334671E+04  0.10100000352E+00 0. -1.
       -3    1    3    3    0  502  0.28746943475E+03 -0.14892210901E+04 -0.12031331826E+04  0.19359616723E+04  0.10100000352E+00 0.  1.
</event>
<event>
 5   0  0.2404430E-06  0.3218599E+04  0.7818609E-02  0.8183922E-01
        2   -1    0    0  501    0  0.00000000000E+00  0.00000000000E+00  0.17747176838E+04  0.17747176838E+04  0.25500000920E-02 0. -1.
       -2   -1    0    0    0  501  0.00000000000E+00  0.00000000000E+00 -0.14592998501E+04  0.14592998501E+04  0.25500000920E-02 0.  1.
    10030    2    1    2    0    0  0.00000000000E+00  0.00000000000E+00  0.31541783376E+03  0.32340175339E+04  0.32185992294E+04 0.  0.
        4    1    3    3  502    0 -0.12006663917E+04 -0.89859104724E+03 -0.42884944589E+03  0.15598009855E+04  0.12699999809E+01 0.  1.
       -4    1    3    3    0  502  0.12006663917E+04  0.89859104724E+03  0.74426727965E+03  0.16742165484E+04  0.12699999809E+01 0. -1.
</event>
<event>
 5   0  0.8545153E-07  0.3182899E+04  0.7818609E-02  0.8193348E-01
        1   -1    0    0  501    0  0.00000000000E+00  0.00000000000E+00  0.22089131007E+04  0.22089131007E+04  0.50400001928E-02 0. -1.
       -1   -1    0    0    0  501  0.00000000000E+00  0.00000000000E+00 -0.11465870815E+04  0.11465870815E+04  0.50400001928E-02 0.  1.
    10030    2    1    2    0    0  0.00000000000E+00  0.00000000000E+00  0.10623260192E+04  0.33555001822E+04  0.31828988206E+04 0.  0.
        3    1    3    3  502    0 -0.40106793632E+03 -0.15331209346E+04  0.37695747052E+03  0.16289297819E+04  0.10100000352E+00 0.  1.
       -3    1    3    3    0  502  0.40106793632E+03  0.15331209346E+04  0.68536854867E+03  0.17265704003E+04  0.10100000352E+00 0. -1.
</event>
<event>
 5   0  0.8545153E-07  0.3190479E+04  0.7818609E-02  0.8191336E-01
        1   -1    0    0  501    0  0.00000000000E+00  0.00000000000E+00  0.20320315965E+04  0.20320315965E+04  0.50400001928E-02 0. -1.
       -1   -1    0    0    0  501  0.00000000000E+00  0.00000000000E+00 -0.12523375328E+04  0.12523375328E+04  0.50400001928E-02 0.  1.
    10030    2    1    2    0    0  0.00000000000E+00  0.00000000000E+00  0.77969406371E+03  0.32843691293E+04  0.31904792343E+04 0.  0.
        3    1    3    3  502    0 -0.61051950825E+03 -0.80284194619E+03 -0.88244460395E+03  0.13401484059E+04  0.10100000352E+00 0.  1.
       -3    1    3    3    0  502  0.61051950825E+03  0.80284194619E+03  0.16621386677E+04  0.19442207234E+04  0.10100000352E+00 0. -1.
</event>
<event>
 5   0  0.2401139E-06  0.3222779E+04  0.7818609E-02  0.8182827E-01
       -2   -1    0    0    0  501  0.00000000000E+00  0.00000000000E+00  0.97828934879E+03  0.97828934879E+03  0.25500000920E-02 0.  1.
        2   -1    0    0  501    0  0.00000000000E+00  0.00000000000E+00 -0.26542010290E+04  0.26542010290E+04  0.25500000920E-02 0. -1.
    10030    2    1    2    0    0  0.00000000000E+00  0.00000000000E+00 -0.16759116803E+04  0.36324903778E+04  0.32227792951E+04 0.  0.
        5    1    3    3  502    0 -0.22334574946E+03 -0.14072072846E+04 -0.16862577023E+04  0.22076237891E+04  0.46999998093E+01 0. -1.
       -5    1    3    3    0  502  0.22334574946E+03  0.14072072846E+04  0.10346022021E+02  0.14248665888E+04  0.46999998093E+01 0.  1.
</event>
<event>
 5   0  0.8383008E-07  0.3224985E+04  0.7818609E-02  0.8182250E-01
        1   -1    0    0  501    0  0.00000000000E+00  0.00000000000E+00  0.17261726434E+04  0.17261726434E+04  0.50400001928E-02 0. -1.
       -1   -1    0    0    0  501  0.00000000000E+00  0.00000000000E+00 -0.15062986462E+04  0.15062986462E+04  0.50400001928E-02 0.  1.
    10030    2    1    2    0    0  0.00000000000E+00  0.00000000000E+00  0.21987399716E+03  0.32324712896E+04  0.32249846609E+04 0.  0.
        4    1    3    3  502    0  0.58745826735E+03  0.67737864499E+03  0.14532649604E+04  0.17076093530E+04  0.12699999809E+01 0. -1.
       -4    1    3    3    0  502 -0.58745826735E+03 -0.67737864499E+03 -0.12333909632E+04  0.15248619366E+04  0.12699999809E+01 0.  1.
</event>
<event>
 5   0  0.8545153E-07  0.3203426E+04  0.7818609E-02  0.8187913E-01
       -1   -1    0    0    0  501  0.00000000000E+00  0.00000000000E+00  0.10366772145E+04  0.10366772145E+04  0.50400001928E-02 0. -1.
        1   -1    0    0  501    0  0.00000000000E+00  0.00000000000E+00 -0.24747189941E+04  0.24747189941E+04  0.50400001928E-02 0.  1.
    10030    2    1    2    0    0  0.00000000000E+00  0.00000000000E+00 -0.14380417796E+04  0.35113962086E+04  0.32034261617E+04 0.  0.
        3    1    3    3  502    0 -0.10665277598E+04 -0.68296516166E+03  0.35584366901E+03  0.13155027942E+04  0.10100000352E+00 0. -1.
       -3    1    3    3    0  502  0.10665277598E+04  0.68296516166E+03 -0.17938854486E+04  0.21958934144E+04  0.10100000352E+00 0.  1.
</event>
<event>
 5   0  0.2621528E-06  0.3175844E+04  0.7818609E-02  0.8195226E-01
       -2   -1    0    0    0  501  0.00000000000E+00  0.00000000000E+00  0.17597332510E+04  0.17597332510E+04  0.25500000920E-02 0.  1.
        2   -1    0    0  501    0  0.00000000000E+00  0.00000000000E+00 -0.14328856893E+04  0.14328856893E+04  0.25500000920E-02 0. -1.
    10030    2    1    2    0    0  0.00000000000E+00  0.00000000000E+00  0.32684756163E+03  0.31926189403E+04  0.31758441979E+04 0.  0.
        2    1    3    3  502    0 -0.39973088666E+03  0.10425165718E+04 -0.97164197061E+03  0.14801059770E+04  0.25500000920E-02 0. -1.
       -2    1    3    3    0  502  0.39973088666E+03 -0.10425165718E+04  0.12984895322E+04  0.17125129633E+04  0.25500000920E-02 0.  1.
</event>
<event>
 5   0  0.8383008E-07  0.3137296E+04  0.7818609E-02  0.8205576E-01
       -1   -1    0    0    0  501  0.00000000000E+00  0.00000000000E+00  0.15369221260E+04  0.15369221260E+04  0.50400001928E-02 0. -1.
        1   -1    0    0  501    0  0.00000000000E+00  0.00000000000E+00 -0.16010286054E+04  0.16010286054E+04  0.50400001928E-02 0.  1.
    10030    2    1    2    0    0  0.00000000000E+00  0.00000000000E+00 -0.64106479386E+02  0.31379507315E+04  0.31372958344E+04 0.  0.
        4    1    3    3  502    0  0.54132073836E+03 -0.96854119434E+03  0.10770310088E+04  0.15463174298E+04  0.12699999809E+01 0. -1.
       -4    1    3    3    0  502 -0.54132073836E+03  0.96854119434E+03 -0.11411374882E+04  0.15916333016E+04  0.12699999809E+01 0.  1.
</event>
<event>
 5   0  0.2337504E-06  0.3269898E+04  0.7818609E-02  0.8170597E-01
       -2   -1    0    0    0  501  0.00000000000E+00  0.00000000000E+00  0.12110459950E+04  0.12110459950E+04  0.25500000920E-02 0.  1.
        2   -1    0    0  501    0  0.00000000000E+00  0.00000000000E+00 -0.22072308300E+04  0.22072308300E+04  0.25500000920E-02 0. -1.
    10030    2    1    2    0    0  0.00000000000E+00  0.00000000000E+00 -0.99618483500E+03  0.34182768250E+04  0.32698978925E+04 0.  0.
        1    1    3    3  502    0 -0.86408120469E+03  0.68766448550E+03  0.76224382786E+03  0.13418399405E+04  0.50400001928E-02 0.  1.
       -1    1    3    3    0  502  0.86408120469E+03 -0.68766448550E+03 -0.17584286629E+04  0.20764368845E+04  0.50400001928E-02 0. -1.
</event>
<event>
 5   0  0.8487944E-07  0.3209799E+04  0.7818609E-02  0.8186234E-01
       -1   -1    0    0    0  501  0.00000000000E+00  0.00000000000E+00  0.98717719529E+03  0.98717719531E+03  0.50400001928E-02 0.  1.
        1   -1    0    0  501    0  0.00000000000E+00  0.00000000000E+00 -0.26091591038E+04  0.26091591038E+04  0.50400001928E-02 0. -1.
    10030    2    1    2    0    0  0.00000000000E+00  0.00000000000E+00 -0.16219819085E+04  0.35963362991E+04  0.32097989758E+04 0.  0.
        2    1    3    3  502    0  0.41883267949E+03 -0.46169603913E+03  0.84599413984E+03  0.10508520974E+04  0.25500000920E-02 0.  1.
       -2    1    3    3    0  502 -0.41883267949E+03  0.46169603913E+03 -0.24679760484E+04  0.25454842017E+04  0.25500000920E-02 0. -1.
</event>
<event>
 5   0  0.8383008E-07  0.3188271E+04  0.7818609E-02  0.8191922E-01
       -1   -1    0    0    0  501  0.00000000000E+00  0.00000000000E+00  0.14856005692E+04  0.14856005692E+04  0.50400001928E-02 0. -1.
        1   -1    0    0  501    0  0.00000000000E+00  0.00000000000E+00 -0.17105996777E+04  0.17105996777E+04  0.50400001928E-02 0.  1.
    10030    2    1    2    0    0  0.00000000000E+00  0.00000000000E+00 -0.22499910845E+03  0.31962002469E+04  0.31882709138E+04 0.  0.
        4    1    3    3  502    0 -0.17889474747E+03 -0.92988929991E+03 -0.13980963671E+04  0.16886007537E+04  0.12699999809E+01 0.  1.
       -4    1    3    3    0  502  0.17889474747E+03  0.92988929991E+03  0.11730972587E+04  0.15075994932E+04  0.12699999809E+01 0. -1.
</event>
<event>
 5   0  0.2466076E-06  0.2971066E+04  0.7818609E-02  0.8252042E-01
       -2   -1    0    0    0  501  0.00000000000E+00  0.00000000000E+00  0.14230427270E+04  0.14230427270E+04  0.25500000920E-02 0.  1.
        2   -1    0    0  501    0  0.00000000000E+00  0.00000000000E+00 -0.15507674504E+04  0.15507674504E+04  0.25500000920E-02 0. -1.
    10030    2    1    2    0    0  0.00000000000E+00  0.00000000000E+00 -0.12772472342E+03  0.29738101775E+04  0.29710660320E+04 0.  0.
        3    1    3    3  502    0  0.25277570098E+03  0.10392158093E+04  0.96808129129E+03  0.14425832559E+04  0.10100000352E+00 0.  1.
       -3    1    3    3    0  502 -0.25277570098E+03 -0.10392158093E+04 -0.10958060147E+04  0.15312269216E+04  0.10100000352E+00 0. -1.
</event>
<event>
 5   0  0.8545153E-07  0.3203930E+04  0.7818609E-02  0.8187780E-01
        1   -1    0    0  501    0  0.00000000000E+00  0.00000000000E+00  0.19618475737E+04  0.19618475737E+04  0.50400001928E-02 0.  1.
       -1   -1    0    0    0  501  0.00000000000E+00  0.00000000000E+00 -0.13080996088E+04  0.13080996088E+04  0.50400001928E-02 0. -1.
    10030    2    1    2    0    0  0.00000000000E+00  0.00000000000E+00  0.65374796482E+03  0.32699471825E+04  0.32039301139E+04 0.  0.
        3    1    3    3  502    0 -0.10533257534E+04 -0.99131133431E+03 -0.37586185042E+03  0.14944783187E+04  0.10100000352E+00 0.  1.
       -3    1    3    3    0  502  0.10533257534E+04  0.99131133431E+03  0.10296098152E+04  0.17754688638E+04  0.10100000352E+00 0. -1.
</event>
<event>
 5   0  0.2621528E-06  0.3182202E+04  0.7818609E-02  0.8193533E-01
       -2   -1    0    0    0  501  0.00000000000E+00  0.00000000000E+00  0.12592242885E+04  0.12592242886E+04  0.25500000920E-02 0.  1.
        2   -1    0    0  501    0  0.00000000000E+00  0.00000000000E+00 -0.20104462709E+04  0.20104462709E+04  0.25500000920E-02 0. -1.
    10030    2    1    2    0    0  0.00000000000E+00  0.00000000000E+00 -0.75122198238E+03  0.32696705595E+04  0.31822022407E+04 0.  0.
        2    1    3    3  502    0 -0.15629483655E+04 -0.13222916922E+03 -0.64999156037E+03  0.16978754886E+04  0.25500000920E-02 0.  1.
       -2    1    3    3    0  502  0.15629483655E+04  0.13222916922E+03 -0.10123042201E+03  0.15717950708E+04  0.25500000920E-02 0. -1.
</event>
<event>
 5   0  0.2466076E-06  0.3193523E+04  0.7818609E-02  0.8190530E-01
        2   -1    0    0  501    0  0.00000000000E+00  0.00000000000E+00  0.26558496696E+04  0.26558496696E+04  0.25500000920E-02 0.  1.
       -2   -1    0    0    0  501  0.00000000000E+00  0.00000000000E+00 -0.96001217689E+03  0.96001217689E+03  0.25500000920E-02 0. -1.
    10030    2    1    2    0    0  0.00000000000E+00  0.00000000000E+00  0.16958374927E+04  0.36158618465E+04  0.31935234602E+04 0.  0.
        3    1    3    3  502    0  0.11624576567E+04 -0.10826906529E+04  0.66492428678E+03  0.17221066084E+04  0.10100000352E+00 0. -1.
       -3    1    3    3    0  502 -0.11624576567E+04  0.10826906529E+04  0.10309132059E+04  0.18937552381E+04  0.10100000352E+00 0.  1.
</event>
<event>
 5   0  0.2621528E-06  0.3191572E+04  0.7818609E-02  0.8191046E-01
        2   -1    0    0  501    0  0.00000000000E+00  0.00000000000E+00  0.28419145167E+04  0.28419145167E+04  0.25500000920E-02 0.  1.
       -2   -1    0    0    0  501  0.00000000000E+00  0.00000000000E+00 -0.89606270691E+03  0.89606270692E+03  0.25500000920E-02 0. -1.
    10030    2    1    2    0    0  0.00000000000E+00  0.00000000000E+00  0.19458518098E+04  0.37379772236E+04  0.31915724116E+04 0.  0.
        2    1    3    3  502    0 -0.14580150731E+04 -0.51250274779E+03  0.50728406425E+03  0.16265928014E+04  0.25500000920E-02 0. -1.
       -2    1    3    3    0  502  0.14580150731E+04  0.51250274779E+03  0.14385677455E+04  0.21113844222E+04  0.25500000920E-02 0.  1.
</event>
<event>
 5   0  0.2404430E-06  0.3212599E+04  0.7818609E-02  0.8185498E-01
       -2   -1    0    0    0  501  0.00000000000E+00  0.00000000000E+00  0.15117546305E+04  0.15117546305E+04  0.25500000920E-02 0. -1.
        2   -1    0    0  501    0  0.00000000000E+00  0.00000000000E+00 -0.17067568979E+04  0.17067568979E+04  0.25500000920E-02 0.  1.
    10030    2    1    2    0    0  0.00000000000E+00  0.00000000000E+00 -0.19500226743E+03  0.32185115284E+04  0.32125987260E+04 0.  0.
        4    1    3    3  502    0 -0.69907359458E+03  0.13827008083E+04  0.32710744512E+03  0.15835296996E+04  0.12699999809E+01 0. -1.
       -4    1    3    3    0  502  0.69907359458E+03 -0.13827008083E+04 -0.52210971255E+03  0.16349818289E+04  0.12699999809E+01 0.  1.
</event>
<event>
 5   0  0.8512855E-07  0.3224604E+04  0.7818609E-02  0.8182349E-01
       -1   -1    0    0    0  501  0.00000000000E+00  0.00000000000E+00  0.19227496659E+04  0.19227496659E+04  0.50400001928E-02 0.  1.
        1   -1    0    0  501    0  0.00000000000E+00  0.00000000000E+00 -0.13519790883E+04  0.13519790883E+04  0.50400001928E-02 0. -1.
    10030    2    1    2    0    0  0.00000000000E+00  0.00000000000E+00  0.57077057764E+03  0.32747287543E+04  0.32246037527E+04 0.  0.
        5    1    3    3  502    0 -0.42050662351E+03 -0.92070550677E+03  0.15598717646E+04  0.18595016705E+04  0.46999998093E+01 0.  1.
       -5    1    3    3    0  502  0.42050662351E+03  0.92070550677E+03 -0.98910118695E+03  0.14152270838E+04  0.46999998093E+01 0. -1.
</event>
<event>
 5   0  0.8383008E-07  0.3223775E+04  0.7818609E-02  0.8182566E-01
        1   -1    0    0  501    0  0.00000000000E+00  0.00000000000E+00  0.23444419106E+04  0.23444419106E+04  0.50400001928E-02 0.  1.
       -1   -1    0    0    0  501  0.00000000000E+00  0.00000000000E+00 -0.11082302799E+04  0.11082302800E+04  0.50400001928E-02 0. -1.
    10030    2    1    2    0    0  0.00000000000E+00  0.00000000000E+00  0.12362116307E+04  0.34526721906E+04  0.32237751255E+04 0.  0.
        4    1    3    3  502    0  0.12853153634E+04  0.96452814669E+03  0.48335607160E+03  0.16780896383E+04  0.12699999809E+01 0. -1.
       -4    1    3    3    0  502 -0.12853153634E+04 -0.96452814669E+03  0.75285555907E+03  0.17745825523E+04  0.12699999809E+01 0.  1.
</event>
<event>
 5   0  0.2621528E-06  0.3216979E+04  0.7818609E-02  0.8184348E-01
       -2   -1    0    0    0  501  0.00000000000E+00  0.00000000000E+00  0.12670592871E+04  0.12670592871E+04  0.25500000920E-02 0. -1.
        2   -1    0    0  501    0  0.00000000000E+00  0.00000000000E+00 -0.20419232688E+04  0.20419232688E+04  0.25500000920E-02 0.  1.
    10030    2    1    2    0    0  0.00000000000E+00  0.00000000000E+00 -0.77486398167E+03  0.33089825559E+04  0.32169786081E+04 0.  0.
        2    1    3    3  502    0  0.49885768255E+03  0.80073006701E+03  0.95259678031E+03  0.13406969283E+04  0.25500000920E-02 0. -1.
       -2    1    3    3    0  502 -0.49885768255E+03 -0.80073006701E+03 -0.17274607620E+04  0.19682856276E+04  0.25500000920E-02 0.  1.
</event>
<event>
 5   0  0.2621528E-06  0.3479142E+04  0.7818609E-02  0.8118751E-01
        2   -1    0    0  501    0  0.00000000000E+00  0.00000000000E+00  0.22170573262E+04  0.22170573262E+04  0.25500000920E-02 0. -1.
       -2   -1    0    0    0  501  0.00000000000E+00  0.00000000000E+00 -0.13649208317E+04  0.13649208317E+04  0.25500000920E-02 0.  1.
    10030    2    1    2    0    0  0.00000000000E+00  0.00000000000E+00  0.85213649448E+03  0.35819781579E+04  0.34791422676E+04 0.  0.
        2    1    3    3  502    0 -0.15585978148E+04 -0.64962965789E+03 -0.44567054410E+01  0.16885691289E+04  0.25500000920E-02 0.  1.
       -2    1    3    3    0  502  0.15585978148E+04  0.64962965789E+03  0.85659319992E+03  0.18934090290E+04  0.25500000920E-02 0. -1.
</event>
<event>
 5   0  0.2466076E-06  0.3182781E+04  0.7818609E-02  0.8193380E-01
        2   -1    0    0  501    0  0.00000000000E+00  0.00000000000E+00  0.13832573699E+04  0.13832573699E+04  0.25500000920E-02 0. -1.
       -2   -1    0    0    0  501  0.00000000000E+00  0.00000000000E+00 -0.18308405292E+04  0.18308405292E+04  0.25500000920E-02 0.  1.
    10030    2    1    2    0    0  0.00000000000E+00  0.00000000000E+00 -0.44758315933E+03  0.32140978992E+04  0.31827809571E+04 0.  0.
        3    1    3    3  502    0  0.10235139342E+04 -0.47950270349E+03 -0.13550912963E+04  0.17645894842E+04  0.10100000352E+00 0.  1.
       -3    1    3    3    0  502 -0.10235139342E+04  0.47950270349E+03  0.90750813698E+03  0.14495084150E+04  0.10100000352E+00 0. -1.
</event>
<event>
 5   0  0.8487944E-07  0.3205337E+04  0.7818609E-02  0.8187409E-01
        1   -1    0    0  501    0  0.00000000000E+00  0.00000000000E+00  0.97983222249E+03  0.97983222250E+03  0.50400001928E-02 0. -1.
       -1   -1    0    0    0  501  0.00000000000E+00  0.00000000000E+00 -0.26214145133E+04  0.26214145133E+04  0.50400001928E-02 0.  1.
    10030    2    1    2    0    0  0.00000000000E+00  0.00000000000E+00 -0.16415822908E+04  0.36012467358E+04  0.32053370548E+04 0.  0.
        2    1    3    3  502    0 -0.75015584007E+03  0.23893147898E+03  0.74760000061E+03  0.10856923123E+04  0.25500000920E-02 0. -1.
       -2    1    3    3    0  502  0.75015584007E+03 -0.23893147898E+03 -0.23891822914E+04  0.25155544235E+04  0.25500000920E-02 0.  1.
</event>
<event>
 5   0  0.8681172E-07  0.3179454E+04  0.7818609E-02  0.8194265E-01
       -1   -1    0    0    0  501  0.00000000000E+00  0.00000000000E+00  0.12782909439E+04  0.12782909440E+04  0.50400001928E-02 0.  1.
        1   -1    0    0  501    0  0.00000000000E+00  0.00000000000E+00 -0.19770393495E+04  0.19770393495E+04  0.50400001928E-02 0. -1.
    10030    2    1    2    0    0  0.00000000000E+00  0.00000000000E+00 -0.69874840551E+03  0.32553302934E+04  0.31794537243E+04 0.  0.
        1    1    3    3  502    0 -0.35108224475E+03 -0.47600940399E+03 -0.18601862665E+04  0.19519571311E+04  0.50400001928E-02 0. -1.
       -1    1    3    3    0  502  0.35108224475E+03  0.47600940399E+03  0.11614378610E+04  0.13033731624E+04  0.50400001928E-02 0.  1.
</event>
<event>
 5   0  0.2621528E-06  0.3067663E+04  0.7818609E-02  0.8224669E-01
        2   -1    0    0  501    0  0.00000000000E+00  0.00000000000E+00  0.15283201496E+04  0.15283201496E+04  0.25500000920E-02 0. -1.
       -2   -1    0    0    0  501  0.00000000000E+00  0.00000000000E+00 -0.15393631770E+04  0.15393631770E+04  0.25500000920E-02 0.  1.
    10030    2    1    2    0    0  0.00000000000E+00  0.00000000000E+00 -0.11043027472E+02  0.30676833266E+04  0.30676634502E+04 0.  0.
        2    1    3    3  502    0  0.31124546839E+02 -0.12802372929E+04 -0.84972097621E+03  0.15368806073E+04  0.25500000920E-02 0.  1.
       -2    1    3    3    0  502 -0.31124546839E+02  0.12802372929E+04  0.83867794874E+03  0.15308027193E+04  0.25500000920E-02 0. -1.
</event>
<event>
 5   0  0.2401139E-06  0.2941861E+04  0.7818609E-02  0.8260530E-01
        2   -1    0    0  501    0  0.00000000000E+00  0.00000000000E+00  0.20016242315E+04  0.20016242315E+04  0.25500000920E-02 0.  1.
       -2   -1    0    0    0  501  0.00000000000E+00  0.00000000000E+00 -0.10809404119E+04  0.10809404119E+04  0.25500000920E-02 0. -1.
    10030    2    1    2    0    0  0.00000000000E+00  0.00000000000E+00  0.92068381957E+03  0.30825646434E+04  0.29418609901E+04 0.  0.
        5    1    3    3  502    0 -0.86561705868E+02  0.12910669002E+04 -0.27258951986E+03  0.13223743064E+04  0.46999998093E+01 0. -1.
       -5    1    3    3    0  502  0.86561705868E+02 -0.12910669002E+04  0.11932733394E+04  0.17601903370E+04  0.46999998093E+01 0.  1.
</event>
<event>
 5   0  0.8487944E-07  0.3128899E+04  0.7818609E-02  0.8207851E-01
       -1   -1    0    0    0  501  0.00000000000E+00  0.00000000000E+00  0.13984658042E+04  0.13984658042E+04  0.50400001928E-02 0.  1.
        1   -1    0    0  501    0  0.00000000000E+00  0.00000000000E+00 -0.17501340315E+04  0.17501340315E+04  0.50400001928E-02 0. -1.
    10030    2    1    2    0    0  0.00000000000E+00  0.00000000000E+00 -0.35166822739E+03  0.31485998357E+04  0.31288992287E+04 0.  0.
        2    1    3    3  502    0  0.82799697557E+03 -0.12949673037E+04 -0.46918854560E+03  0.16070647779E+04  0.25500000920E-02 0. -1.
       -2    1    3    3    0  502 -0.82799697557E+03  0.12949673037E+04  0.11752031822E+03  0.15415350578E+04  0.25500000920E-02 0.  1.
</event>
<event>
 5   0  0.8512855E-07  0.3237894E+04  0.7818609E-02  0.8178881E-01
        1   -1    0    0  501    0  0.00000000000E+00  0.00000000000E+00  0.21077768610E+04  0.21077768610E+04  0.50400001928E-02 0.  1.
       -1   -1    0    0    0  501  0.00000000000E+00  0.00000000000E+00 -0.12434852799E+04  0.12434852799E+04  0.50400001928E-02 0. -1.
    10030    2    1    2    0    0  0.00000000000E+00  0.00000000000E+00  0.86429158115E+03  0.33512621409E+04  0.32378940687E+04 0.  0.
        5    1    3    3  502    0  0.40040503127E+03 -0.15481392751E+04  0.69379739196E+03  0.17431111024E+04  0.46999998093E+01 0.  1.
       -5    1    3    3    0  502 -0.40040503127E+03  0.15481392751E+04  0.17049418919E+03  0.16081510385E+04  0.46999998093E+01 0. -1.
</event>
<event>
 5   0  0.2404430E-06  0.3202804E+04  0.7818609E-02  0.8188077E-01
        2   -1    0    0  501    0  0.00000000000E+00  0.00000000000E+00  0.15727469508E+04  0.15727469508E+04  0.25500000920E-02 0.  1.
       -2   -1    0    0    0  501  0.00000000000E+00  0.00000000000E+00 -0.16305786719E+04  0.16305786719E+04  0.25500000920E-02 0. -1.
    10030    2    1    2    0    0  0.00000000000E+00  0.00000000000E+00 -0.57831721143E+02  0.32033256227E+04  0.32028035433E+04 0.  0.
        4    1    3    3  502    0  0.22144184598E+03 -0.24485371420E+03 -0.15961735867E+04  0.16299575345E+04  0.12699999809E+01 0. -1.
       -4    1    3    3    0  502 -0.22144184598E+03  0.24485371420E+03  0.15383418656E+04  0.15733680881E+04  0.12699999809E+01 0.  1.
</event>
<event>
 5   0  0.8545153E-07  0.3283010E+04  0.7818609E-02  0.8167232E-01
        1   -1    0    0  501    0  0.00000000000E+00  0.00000000000E+00  0.21200546106E+04  0.21200546106E+04  0.50400001928E-02 0. -1.
       -1   -1    0    0    0  501  0.00000000000E+00  0.00000000000E+00 -0.12709762420E+04  0.12709762420E+04  0.50400001928E-02 0.  1.
    10030    2    1    2    0    0  0.00000000000E+00  0.00000000000E+00  0.84907836854E+03  0.33910308526E+04  0.32830102295E+04 0.  0.
        3    1    3    3  502    0 -0.36375745357E+03  0.85001373303E+03  0.18255212017E+04  0.20463065507E+04  0.10100000352E+00 0. -1.
       -3    1    3    3    0  502  0.36375745357E+03 -0.85001373303E+03 -0.97644283318E+03  0.13447243019E+04  0.10100000352E+00 0.  1.
</event>
<event>
 5   0  0.8487944E-07  0.3193927E+04  0.7818609E-02  0.8190423E-01
       -1   -1    0    0    0  501  0.00000000000E+00  0.00000000000E+00  0.11472371413E+04  0.11472371413E+04  0.50400001928E-02 0. -1.
        1   -1    0    0  501    0  0.00000000000E+00  0.00000000000E+00 -0.22229860458E+04  0.22229860459E+04  0.50400001928E-02 0.  1.
    10030    2    1    2    0    0  0.00000000000E+00  0.00000000000E+00 -0.10757489046E+04  0.33702231872E+04  0.31939268347E+04 0.  0.
        2    1    3    3  502    0  0.12506436657E+04  0.70844306169E+03 -0.12721970629E+04  0.19195016325E+04  0.25500000920E-02 0.  1.
       -2    1    3    3    0  502 -0.12506436657E+04 -0.70844306169E+03  0.19644815832E+03  0.14507215547E+04  0.25500000920E-02 0. -1.
</event>
<event>
 5   0  0.2621528E-06  0.3224824E+04  0.7818609E-02  0.8182292E-01
        2   -1    0    0  501    0  0.00000000000E+00  0.00000000000E+00  0.18631545788E+04  0.18631545788E+04  0.25500000920E-02 0. -1.
       -2   -1    0    0    0  501  0.00000000000E+00  0.00000000000E+00 -0.13954142795E+04  0.13954142795E+04  0.25500000920E-02 0.  1.
    10030    2    1    2    0    0  0.00000000000E+00  0.00000000000E+00  0.46774029937E+03  0.32585688583E+04  0.32248240288E+04 0.  0.
        2    1    3    3  502    0  0.11579880665E+03  0.15998220330E+04  0.67733741245E+02  0.16054369376E+04  0.25500000920E-02 0.  1.
       -2    1    3    3    0  502 -0.11579880665E+03 -0.15998220330E+04  0.40000655812E+03  0.16531319207E+04  0.25500000920E-02 0. -1.
</event>
<event>
 5   0  0.2401139E-06  0.3174211E+04  0.7818609E-02  0.8195661E-01
        2   -1    0    0  501    0  0.00000000000E+00  0.00000000000E+00  0.12992072456E+04  0.12992072456E+04  0.25500000920E-02 0.  1.
       -2   -1    0    0    0  501  0.00000000000E+00  0.00000000000E+00 -0.19388011856E+04  0.19388011856E+04  0.25500000920E-02 0. -1.
    10030    2    1    2    0    0  0.00000000000E+00  0.00000000000E+00 -0.63959393998E+03  0.32380084313E+04  0.31742114285E+04 0.  0.
        5    1    3    3  502    0 -0.14934373743E+03  0.15768927669E+04 -0.21784779003E+03  0.15988665047E+04  0.46999998093E+01 0.  1.
       -5    1    3    3    0  502  0.14934373743E+03 -0.15768927669E+04 -0.42174614994E+03  0.16391419265E+04  0.46999998093E+01 0. -1.
</event>
<event>
 5   0  0.8383008E-07  0.3193220E+04  0.7818609E-02  0.8190610E-01
        1   -1    0    0  501    0  0.00000000000E+00  0.00000000000E+00  0.17084696469E+04  0.17084696469E+04  0.50400001928E-02 0.  1.
       -1   -1    0    0    0  501  0.00000000000E+00  0.00000000000E+00 -0.14920746160E+04  0.14920746160E+04  0.50400001928E-02 0. -1.
    10030    2    1    2    0    0  0.00000000000E+00  0.00000000000E+00  0.21639503087E+03  0.32005442628E+04  0.31932204385E+04 0.  0.
        4    1    3    3  502    0  0.10761066106E+04  0.10346399838E+04  0.67578003286E+03  0.16386474908E+04  0.12699999809E+01 0.  1.
       -4    1    3    3    0  502 -0.10761066106E+04 -0.10346399838E+04 -0.45938500199E+03  0.15618967720E+04  0.12699999809E+01 0. -1.
</event>
<event>
 5   0  0.2401139E-06  0.3284425E+04  0.7818609E-02  0.8166870E-01
       -2   -1    0    0    0  501  0.00000000000E+00  0.00000000000E+00  0.13882770084E+04  0.13882770084E+04  0.25500000920E-02 0.  1.
        2   -1    0    0  501    0  0.00000000000E+00  0.00000000000E+00 -0.19425959493E+04  0.19425959493E+04  0.25500000920E-02 0. -1.
    10030    2    1    2    0    0  0.00000000000E+00  0.00000000000E+00 -0.55431894096E+03  0.33308729577E+04  0.32844246334E+04 0.  0.
        5    1    3    3  502    0 -0.81434475175E+03  0.40169166454E+02 -0.17228252963E+04  0.19060220430E+04  0.46999998093E+01 0. -1.
       -5    1    3    3    0  502  0.81434475175E+03 -0.40169166454E+02  0.11685063554E+04  0.14248509147E+04  0.46999998093E+01 0.  1.
</event>
<event>
 5   0  0.8545153E-07  0.3098338E+04  0.7818609E-02  0.8216194E-01
        1   -1    0    0  501    0  0.00000000000E+00  0.00000000000E+00  0.16798565882E+04  0.16798565883E+04  0.50400001928E-02 0. -1.
       -1   -1    0    0    0  501  0.00000000000E+00  0.00000000000E+00 -0.14286483304E+04  0.14286483304E+04  0.50400001928E-02 0.  1.
    10030    2    1    2    0    0  0.00000000000E+00  0.00000000000E+00  0.25120825787E+03  0.31085049186E+04  0.30983378190E+04 0.  0.
        3    1    3    3  502    0  0.55739940966E+03  0.10663461807E+04  0.11045806779E+04  0.16333666958E+04  0.10100000352E+00 0. -1.
       -3    1    3    3    0  502 -0.55739940966E+03 -0.10663461807E+04 -0.85337241999E+03  0.14751382228E+04  0.10100000352E+00 0.  1.
</event>
<event>
 5   0  0.2621528E-06  0.3085052E+04  0.7818609E-02  0.8219852E-01
       -2   -1    0    0    0  501  0.00000000000E+00  0.00000000000E+00  0.21773263239E+04  0.21773263239E+04  0.25500000920E-02 0. -1.
        2   -1    0    0  501    0  0.00000000000E+00  0.00000000000E+00 -0.10928016164E+04  0.10928016164E+04  0.25500000920E-02 0.  1.
    10030    2    1    2    0    0  0.00000000000E+00  0.00000000000E+00  0.10845247074E+04  0.32701279403E+04  0.30850515239E+04 0.  0.
        2    1    3    3  502    0 -0.12110898031E+04 -0.37358853817E+03  0.14742587004E+04  0.19441567897E+04  0.25500000920E-02 0. -1.
       -2    1    3    3    0  502  0.12110898031E+04  0.37358853817E+03 -0.38973399299E+03  0.13259711507E+04  0.25500000920E-02 0.  1.
</event>
<event>
 5   0  0.2466076E-06  0.3208365E+04  0.7818609E-02  0.8186612E-01
        2   -1    0    0  501    0  0.00000000000E+00  0.00000000000E+00  0.94946994045E+03  0.94946994045E+03  0.25500000920E-02 0. -1.
       -2   -1    0    0    0  501  0.00000000000E+00  0.00000000000E+00 -0.27103554199E+04  0.27103554199E+04  0.25500000920E-02 0.  1.
    10030    2    1    2    0    0  0.00000000000E+00  0.00000000000E+00 -0.17608854795E+04  0.36598253604E+04  0.32083646920E+04 0.  0.
        3    1    3    3  502    0  0.11530055783E+04 -0.54064977761E+03 -0.19932537341E+04  0.23653296819E+04  0.10100000352E+00 0.  1.
       -3    1    3    3    0  502 -0.11530055783E+04  0.54064977761E+03  0.23236825461E+03  0.12944956785E+04  0.10100000352E+00 0. -1.
</event>
<event>
 5   0  0.2337504E-06  0.2885354E+04  0.7818609E-02  0.8277249E-01
        2   -1    0    0  501    0  0.00000000000E+00  0.00000000000E+00  0.14595764252E+04  0.14595764252E+04  0.25500000920E-02 0.  1.
       -2   -1    0    0    0  501  0.00000000000E+00  0.00000000000E+00 -0.14259727608E+04  0.14259727608E+04  0.25500000920E-02 0. -1.
    10030    2    1    2    0    0  0.00000000000E+00  0.00000000000E+00  0.33603664314E+02  0.28855491860E+04  0.28853535136E+04 0.  0.
        1    1    3    3  502    0  0.21165539691E+03  0.14170016992E+04  0.18600078210E+03  0.14447449994E+04  0.50400001928E-02 0.  1.
       -1    1    3    3    0  502 -0.21165539691E+03 -0.14170016992E+04 -0.15239711779E+03  0.14408041866E+04  0.50400001928E-02 0. -1.
</event>
<event>
 5   0  0.8681172E-07  0.3380911E+04  0.7818609E-02  0.8142607E-01
       -1   -1    0    0    0  501  0.00000000000E+00  0.00000000000E+00  0.15829173143E+04  0.15829173143E+04  0.50400001928E-02 0.  1.
        1   -1    0    0  501    0  0.00000000000E+00  0.00000000000E+00 -0.18052998268E+04  0.18052998268E+04  0.50400001928E-02 0. -1.
    10030    2    1    2    0    0  0.00000000000E+00  0.00000000000E+00 -0.22238251248E+03  0.33882171411E+04  0.33809113289E+04 0.  0.
        1    1    3    3  502    0 -0.85996198956E+03  0.12367847548E+04  0.65758386983E+03  0.16436507230E+04  0.50400001928E-02 0.  1.
       -1    1    3    3    0  502  0.85996198956E+03 -0.12367847548E+04 -0.87996638231E+03  0.17445664181E+04  0.50400001928E-02 0. -1.
</event>
<event>
 5   0  0.2466076E-06  0.3532474E+04  0.7818609E-02  0.8106137E-01
       -2   -1    0    0    0  501  0.00000000000E+00  0.00000000000E+00  0.14454274343E+04  0.14454274343E+04  0.25500000920E-02 0. -1.
        2   -1    0    0  501    0  0.00000000000E+00  0.00000000000E+00 -0.21582490610E+04  0.21582490610E+04  0.25500000920E-02 0.  1.
    10030    2    1    2    0    0  0.00000000000E+00  0.00000000000E+00 -0.71282162670E+03  0.36036764953E+04  0.35324735826E+04 0.  0.
        3    1    3    3  502    0 -0.53833705389E+03 -0.16612490419E+04 -0.86430961433E+02  0.17484351529E+04  0.10100000352E+00 0.  1.
       -3    1    3    3    0  502  0.53833705389E+03  0.16612490419E+04 -0.62639066527E+03  0.18552413424E+04  0.10100000352E+00 0. -1.
</event>
<event>
 5   0  0.8383008E-07  0.3179895E+04  0.7818609E-02  0.8194147E-01
        1   -1    0    0  501    0  0.00000000000E+00  0.00000000000E+00  0.12359475919E+04  0.12359475920E+04  0.50400001928E-02 0.  1.
       -1   -1    0    0    0  501  0.00000000000E+00  0.00000000000E+00 -0.20453397011E+04  0.20453397011E+04  0.50400001928E-02 0. -1.
    10030    2    1    2    0    0  0.00000000000E+00  0.00000000000E+00 -0.80939210912E+03  0.32812872930E+04  0.31798947645E+04 0.  0.
        4    1    3    3  502    0  0.53865394815E+03 -0.14372279675E+04 -0.83284617528E+03  0.17462550418E+04  0.12699999809E+01 0. -1.
       -4    1    3    3    0  502 -0.53865394815E+03  0.14372279675E+04  0.23454066162E+02  0.15350322513E+04  0.12699999809E+01 0.  1.
</event>
<event>
 5   0  0.2401139E-06  0.3207034E+04  0.7818609E-02  0.8186962E-01
        2   -1    0    0  501    0  0.00000000000E+00  0.00000000000E+00  0.24828240930E+04  0.24828240930E+04  0.25500000920E-02 0.  1.
       -2   -1    0    0    0  501  0.00000000000E+00  0.00000000000E+00 -0.10356216547E+04  0.10356216547E+04  0.25500000920E-02 0. -1.
    10030    2    1    2    0    0  0.00000000000E+00  0.00000000000E+00  0.14472024383E+04  0.35184457477E+04  0.32070337669E+04 0.  0.
        5    1    3    3  502    0 -0.60076062691E+03 -0.12406894088E+04 -0.17509994921E+03  0.13895703013E+04  0.46999998093E+01 0. -1.
       -5    1    3    3    0  502  0.60076062691E+03  0.12406894088E+04  0.16223023875E+04  0.21288754464E+04  0.46999998093E+01 0.  1.
</event>
<event>
 5   0  0.8383008E-07  0.2641683E+04  0.7818609E-02  0.8354179E-01
       -1   -1    0    0    0  501  0.00000000000E+00  0.00000000000E+00  0.13741297937E+04  0.13741297937E+04  0.50400001928E-02 0. -1.
        1   -1    0    0  501    0  0.00000000000E+00  0.00000000000E+00 -0.12696201320E+04  0.12696201320E+04  0.50400001928E-02 0.  1.
    10030    2    1    2    0    0  0.00000000000E+00  0.00000000000E+00  0.10450966165E+03  0.26437499257E+04  0.26416834406E+04 0.  0.
        4    1    3    3  502    0  0.71681256845E+03  0.11035798732E+04  0.16597664958E+03  0.13263704821E+04  0.12699999809E+01 0.  1.
       -4    1    3    3    0  502 -0.71681256845E+03 -0.11035798732E+04 -0.61466987931E+02  0.13173794435E+04  0.12699999809E+01 0. -1.
</event>
<event>
 5   0  0.8545153E-07  0.3193497E+04  0.7818609E-02  0.8190537E-01
       -1   -1    0    0    0  501  0.00000000000E+00  0.00000000000E+00  0.11393745411E+04  0.11393745411E+04  0.50400001928E-02 0.  1.
        1   -1    0    0  501    0  0.00000000000E+00  0.00000000000E+00 -0.22377246730E+04  0.22377246730E+04  0.50400001928E-02 0. -1.
    10030    2    1    2    0    0  0.00000000000E+00  0.00000000000E+00 -0.10983501320E+04  0.33770992142E+04  0.31934974698E+04 0.  0.
        3    1    3    3  502    0 -0.11939529742E+04 -0.10509057450E+04 -0.40082459108E+03  0.16403008725E+04  0.10100000352E+00 0.  1.
       -3    1    3    3    0  502  0.11939529742E+04  0.10509057450E+04 -0.69752554087E+03  0.17367983417E+04  0.10100000352E+00 0. -1.
</event>
<event>
 5   0  0.2337504E-06  0.3173449E+04  0.7818609E-02  0.8195865E-01
        2   -1    0    0  501    0  0.00000000000E+00  0.00000000000E+00  0.16953153119E+04  0.16953153119E+04  0.25500000920E-02 0.  1.
       -2   -1    0    0    0  501  0.00000000000E+00  0.00000000000E+00 -0.14850893109E+04  0.14850893109E+04  0.25500000920E-02 0. -1.
    10030    2    1    2    0    0  0.00000000000E+00  0.00000000000E+00  0.21022600101E+03  0.31804046229E+04  0.31734490060E+04 0.  0.
        1    1    3    3  502    0  0.75436843835E+03  0.94091495974E+03 -0.92831245840E+03  0.15218924807E+04  0.50400001928E-02 0. -1.
       -1    1    3    3    0  502 -0.75436843835E+03 -0.94091495974E+03  0.11385384594E+04  0.16585121422E+04  0.50400001928E-02 0.  1.
</event>
<event>
 5   0  0.2404430E-06  0.3171383E+04  0.7818609E-02  0.8196416E-01
       -2   -1    0    0    0  501  0.00000000000E+00  0.00000000000E+00  0.13245541322E+04  0.13245541322E+04  0.25500000920E-02 0. -1.
        2   -1    0    0  501    0  0.00000000000E+00  0.00000000000E+00 -0.18983126438E+04  0.18983126438E+04  0.25500000920E-02 0.  1.
    10030    2    1    2    0    0  0.00000000000E+00  0.00000000000E+00 -0.57375851164E+03  0.32228667760E+04  0.31713832039E+04 0.  0.
        4    1    3    3  502    0 -0.12061638535E+04  0.93891654492E+03 -0.71565372011E+03  0.16877669803E+04  0.12699999809E+01 0.  1.
       -4    1    3    3    0  502  0.12061638535E+04 -0.93891654492E+03  0.14189520847E+03  0.15350997957E+04  0.12699999809E+01 0. -1.
</event>
<event>
 5   0  0.2466076E-06  0.3221397E+04  0.7818609E-02  0.8183189E-01
       -2   -1    0    0    0  501  0.00000000000E+00  0.00000000000E+00  0.26539617628E+04  0.26539617628E+04  0.25500000920E-02 0.  1.
        2   -1    0    0  501    0  0.00000000000E+00  0.00000000000E+00 -0.97753861227E+03  0.97753861228E+03  0.25500000920E-02 0. -1.
    10030    2    1    2    0    0  0.00000000000E+00  0.00000000000E+00  0.16764231505E+04  0.36315003751E+04  0.32213972736E+04 0.  0.
        3    1    3    3  502    0 -0.32750571845E+03  0.11751430628E+04 -0.34740611672E+03  0.12684290417E+04  0.10100000352E+00 0. -1.
       -3    1    3    3    0  502  0.32750571845E+03 -0.11751430628E+04  0.20238292672E+04  0.23630713334E+04  0.10100000352E+00 0.  1.
</event>
<event>
 5   0  0.8383008E-07  0.3194856E+04  0.7818609E-02  0.8190177E-01
        1   -1    0    0  501    0  0.00000000000E+00  0.00000000000E+00  0.23139072806E+04  0.23139072806E+04  0.50400001928E-02 0.  1.
       -1   -1    0    0    0  501  0.00000000000E+00  0.00000000000E+00 -0.11027997731E+04  0.11027997731E+04  0.50400001928E-02 0. -1.
    10030    2    1    2    0    0  0.00000000000E+00  0.00000000000E+00  0.12111075074E+04  0.34167070537E+04  0.31948561308E+04 0.  0.
        4    1    3    3  502    0 -0.15870524526E+04 -0.17561474106E+03  0.55540640666E+03  0.16905779823E+04  0.12699999809E+01 0.  1.
       -4    1    3    3    0  502  0.15870524526E+04  0.17561474106E+03  0.65570110076E+03  0.17261290714E+04  0.12699999809E+01 0. -1.
</event>
<event>
 5   0  0.8487944E-07  0.3223676E+04  0.7818609E-02  0.8182592E-01
       -1   -1    0    0    0  501  0.00000000000E+00  0.00000000000E+00  0.16450099929E+04  0.16450099929E+04  0.50400001928E-02 0. -1.
        1   -1    0    0  501    0  0.00000000000E+00  0.00000000000E+00 -0.15793346537E+04  0.15793346537E+04  0.50400001928E-02 0.  1.
    10030    2    1    2    0    0  0.00000000000E+00  0.00000000000E+00  0.65675339192E+02  0.32243446465E+04  0.32236757203E+04 0.  0.
        2    1    3    3  502    0 -0.20584796887E+03 -0.11267627301E+04  0.11671160435E+04  0.16352759692E+04  0.25500000920E-02 0. -1.
       -2    1    3    3    0  502  0.20584796887E+03  0.11267627301E+04 -0.11014407043E+04  0.15890686774E+04  0.25500000920E-02 0.  1.
</event>
<event>
 5   0  0.2401139E-06  0.3183097E+04  0.7818609E-02  0.8193296E-01
        2   -1    0    0  501    0  0.00000000000E+00  0.00000000000E+00  0.13516608758E+04  0.13516608758E+04  0.25500000920E-02 0. -1.
       -2   -1    0    0    0  501  0.00000000000E+00  0.00000000000E+00 -0.18740104064E+04  0.18740104064E+04  0.25500000920E-02 0.  1.
    10030    2    1    2    0    0  0.00000000000E+00  0.00000000000E+00 -0.52234953062E+03  0.32256712823E+04  0.31830969494E+04 0.  0.
        5    1    3    3  502    0 -0.63293328565E+03 -0.73707281665E+03 -0.15386399614E+04  0.18197021465E+04  0.46999998093E+01 0.  1.
       -5    1    3    3    0  502  0.63293328565E+03  0.73707281665E+03  0.10162904308E+04  0.14059691358E+04  0.46999998093E+01 0. -1.
</event>
<event>
 5   0  0.8681172E-07  0.3219811E+04  0.7818609E-02  0.8183605E-01
        1   -1    0    0  501    0  0.00000000000E+00  0.00000000000E+00  0.22166514568E+04  0.22166514568E+04  0.50400001928E-02 0.  1.
       -1   -1    0    0    0  501  0.00000000000E+00  0.00000000000E+00 -0.11692390569E+04  0.11692390569E+04  0.50400001928E-02 0. -1.
    10030    2    1    2    0    0  0.00000000000E+00  0.00000000000E+00  0.10474124000E+04  0.33858905137E+04  0.32198108384E+04 0.  0.
        1    1    3    3  502    0  0.11742979332E+03 -0.14248269543E+04 -0.25465797666E+03  0.14521612483E+04  0.50400001928E-02 0.  1.
       -1    1    3    3    0  502 -0.11742979332E+03  0.14248269543E+04  0.13020703766E+04  0.19337292654E+04  0.50400001928E-02 0. -1.
</event>
<event>
 5   0  0.2466076E-06  0.3135998E+04  0.7818609E-02  0.8205927E-01
        2   -1    0    0  501    0  0.00000000000E+00  0.00000000000E+00  0.24528098629E+04  0.24528098629E+04  0.25500000920E-02 0.  1.
       -2   -1    0    0    0  501  0.00000000000E+00  0.00000000000E+00 -0.10023692237E+04  0.10023692237E+04  0.25500000920E-02 0. -1.
    10030    2    1    2    0    0  0.00000000000E+00  0.00000000000E+00  0.14504406393E+04  0.34551790866E+04  0.31359981621E+04 0.  0.
        3    1    3    3  502    0  0.10683354538E+04 -0.58222145835E+03 -0.36453873868E+03  0.12701224235E+04  0.10100000352E+00 0. -1.
       -3    1    3    3    0  502 -0.10683354538E+04  0.58222145835E+03  0.18149793779E+04  0.21850566631E+04  0.10100000352E+00 0.  1.
</event>
<event>
 5   0  0.8487944E-07  0.3180888E+04  0.7818609E-02  0.8193883E-01
       -1   -1    0    0    0  501  0.00000000000E+00  0.00000000000E+00  0.10907711167E+04  0.10907711168E+04  0.50400001928E-02 0.  1.
        1   -1    0    0  501    0  0.00000000000E+00  0.00000000000E+00 -0.23190125903E+04  0.23190125903E+04  0.50400001928E-02 0. -1.
    10030    2    1    2    0    0  0.00000000000E+00  0.00000000000E+00 -0.12282414735E+04  0.34097837071E+04  0.31808878967E+04 0.  0.
        2    1    3    3  502    0 -0.35269136779E+03 -0.13511617721E+04  0.20189526307E+03  0.14109539442E+04  0.25500000920E-02 0.  1.
       -2    1    3    3    0  502  0.35269136779E+03  0.13511617721E+04 -0.14301367366E+04  0.19988297628E+04  0.25500000920E-02 0. -1.
</event>
<event>
 5   0  0.8383008E-07  0.3206416E+04  0.7818609E-02  0.8187125E-01
        1   -1    0    0  501    0  0.00000000000E+00  0.00000000000E+00  0.12028564095E+04  0.12028564095E+04  0.50400001928E-02 0.  1.
       -1   -1    0    0    0  501  0.00000000000E+00  0.00000000000E+00 -0.21368106840E+04  0.21368106840E+04  0.50400001928E-02 0. -1.
    10030    2    1    2    0    0  0.00000000000E+00  0.00000000000E+00 -0.93395427453E+03  0.33396670935E+04  0.32064163342E+04 0.  0.
        4    1    3    3  502    0 -0.39641405964E+03 -0.13599414987E+04  0.31501676022E+03  0.14511451198E+04  0.12699999809E+01 0.  1.
       -4    1    3    3    0  502  0.39641405964E+03  0.13599414987E+04 -0.12489710348E+04  0.18885219737E+04  0.12699999809E+01 0. -1.
</event>
<event>
 5   0  0.7934375E-07  0.3206303E+04  0.7818609E-02  0.8187154E-01
        3   -1    0    0  501    0  0.00000000000E+00  0.00000000000E+00  0.18564687210E+04  0.18564687238E+04  0.10100000352E+00 0. -1.
       -3   -1    0    0    0  501  0.00000000000E+00  0.00000000000E+00 -0.13843998752E+04  0.13843998788E+04  0.10100000352E+00 0.  1.
    10030    2    1    2    0    0  0.00000000000E+00  0.00000000000E+00  0.47206884589E+03  0.32408686026E+04  0.32063032147E+04 0.  0.
        3    1    3    3  502    0  0.50900766912E+03  0.62888697960E+03  0.16349733430E+04  0.18242054388E+04  0.10100000352E+00 0. -1.
       -3    1    3    3    0  502 -0.50900766912E+03 -0.62888697960E+03 -0.11629044971E+04  0.14166631639E+04  0.10100000352E+00 0.  1.
</event>
<event>
 5   0  0.2404430E-06  0.3175765E+04  0.7818609E-02  0.8195247E-01
        2   -1    0    0  501    0  0.00000000000E+00  0.00000000000E+00  0.15210378612E+04  0.15210378612E+04  0.25500000920E-02 0. -1.
       -2   -1    0    0    0  501  0.00000000000E+00  0.00000000000E+00 -0.16576644008E+04  0.16576644008E+04  0.25500000920E-02 0.  1.
    10030    2    1    2    0    0  0.00000000000E+00  0.00000000000E+00 -0.13662653959E+03  0.31787022619E+04  0.31757646731E+04 0.  0.
        4    1    3    3  502    0 -0.13427216890E+04  0.59167951869E+03 -0.67581992743E+03  0.16154628978E+04  0.12699999809E+01 0.  1.
       -4    1    3    3    0  502  0.13427216890E+04 -0.59167951869E+03  0.53919338785E+03  0.15632393641E+04  0.12699999809E+01 0. -1.
</event>
<event>
 5   0  0.8512855E-07  0.3191961E+04  0.7818609E-02  0.8190943E-01
        1   -1    0    0  501    0  0.00000000000E+00  0.00000000000E+00  0.10500814660E+04  0.10500814660E+04  0.50400001928E-02 0.  1.
       -1   -1    0    0    0  501  0.00000000000E+00  0.00000000000E+00 -0.24256725555E+04  0.24256725555E+04  0.50400001928E-02 0. -1.
    10030    2    1    2    0    0  0.00000000000E+00  0.00000000000E+00 -0.13755910895E+04  0.34757540215E+04  0.31919610230E+04 0.  0.
        5    1    3    3  502    0  0.63009009400E+03 -0.49151032704E+03  0.81652922638E+03  0.11425138930E+04  0.46999998093E+01 0.  1.
       -5    1    3    3    0  502 -0.63009009400E+03  0.49151032704E+03 -0.21921203159E+04  0.23332401285E+04  0.46999998093E+01 0. -1.
</event>
<event>
 5   0  0.2621528E-06  0.3197018E+04  0.7818609E-02  0.8189605E-01
       -2   -1    0    0    0  501  0.00000000000E+00  0.00000000000E+00  0.10200637560E+04  0.10200637560E+04  0.25500000920E-02 0.  1.
        2   -1    0    0  501    0  0.00000000000E+00  0.00000000000E+00 -0.25049723227E+04  0.25049723227E+04  0.25500000920E-02 0. -1.
    10030    2    1    2    0    0  0.00000000000E+00  0.00000000000E+00 -0.14849085667E+04  0.35250360787E+04  0.31970182835E+04 0.  0.
        2    1    3    3  502    0 -0.78481357779E+03 -0.42714029096E+03 -0.22039105521E+04  0.23781511520E+04  0.25500000920E-02 0.  1.
       -2    1    3    3    0  502  0.78481357779E+03  0.42714029096E+03  0.71900198544E+03  0.11468849267E+04  0.25500000920E-02 0. -1.
</event>
<event>
 5   0  0.8383008E-07  0.3214179E+04  0.7818609E-02  0.8185083E-01
        1   -1    0    0  501    0  0.00000000000E+00  0.00000000000E+00  0.13913342769E+04  0.13913342769E+04  0.50400001928E-02 0. -1.
       -1   -1    0    0    0  501  0.00000000000E+00  0.00000000000E+00 -0.18563016476E+04  0.18563016476E+04  0.50400001928E-02 0.  1.
    10030    2    1    2    0    0  0.00000000000E+00  0.00000000000E+00 -0.46496737066E+03  0.32476359245E+04  0.32141786575E+04 0.  0.
        4    1    3    3  502    0  0.14434196452E+04 -0.32083159981E+03  0.40362597956E+03  0.15327454883E+04  0.12699999809E+01 0.  1.
       -4    1    3    3    0  502 -0.14434196452E+04  0.32083159981E+03 -0.86859335022E+03  0.17148904363E+04  0.12699999809E+01 0. -1.
</event>
<event>
 5   0  0.8681172E-07  0.3187543E+04  0.7818609E-02  0.8192115E-01
       -1   -1    0    0    0  501  0.00000000000E+00  0.00000000000E+00  0.13966063681E+04  0.13966063681E+04  0.50400001928E-02 0. -1.
        1   -1    0    0  501    0  0.00000000000E+00  0.00000000000E+00 -0.18187709381E+04  0.18187709381E+04  0.50400001928E-02 0.  1.
    10030    2    1    2    0    0  0.00000000000E+00  0.00000000000E+00 -0.42216457002E+03  0.32153773062E+04  0.31875426737E+04 0.  0.
        1    1    3    3  502    0 -0.74362955783E+03 -0.48228574250E+03 -0.15472329129E+04  0.17831192174E+04  0.50400001928E-02 0.  1.
       -1    1    3    3    0  502  0.74362955783E+03  0.48228574250E+03  0.11250683429E+04  0.14322580888E+04  0.50400001928E-02 0. -1.
</event>
<event>
 5   0  0.2621528E-06  0.3197142E+04  0.7818609E-02  0.8189572E-01
        2   -1    0    0  501    0  0.00000000000E+00  0.00000000000E+00  0.16458693693E+04  0.16458693693E+04  0.25500000920E-02 0.  1.
       -2   -1    0    0    0  501  0.00000000000E+00  0.00000000000E+00 -0.15526316227E+04  0.15526316227E+04  0.25500000920E-02 0. -1.
    10030    2    1    2    0    0  0.00000000000E+00  0.00000000000E+00  0.93237746619E+02  0.31985009919E+04  0.31971417419E+04 0.  0.
        2    1    3    3  502    0 -0.10931893897E+02 -0.10140427525E+04 -0.11896356765E+04  0.15632131182E+04  0.25500000920E-02 0. -1.
       -2    1    3    3    0  502  0.10931893897E+02  0.10140427525E+04  0.12828734231E+04  0.16352878737E+04  0.25500000920E-02 0.  1.
</event>
<event>
 5   0  0.2337504E-06  0.3068623E+04  0.7818609E-02  0.8224402E-01
        2   -1    0    0  501    0  0.00000000000E+00  0.00000000000E+00  0.16390574563E+04  0.16390574563E+04  0.25500000920E-02 0.  1.
       -2   -1    0    0    0  501  0.00000000000E+00  0.00000000000E+00 -0.14362591731E+04  0.14362591731E+04  0.25500000920E-02 0. -1.
    10030    2    1    2    0    0  0.00000000000E+00  0.00000000000E+00  0.20279828312E+03  0.30753166294E+04  0.30686226922E+04 0.  0.
        1    1    3    3  502    0  0.32645437161E+03 -0.54184603877E+02  0.16028672155E+04  0.16366709317E+04  0.50400001928E-02 0.  1.
       -1    1    3    3    0  502 -0.32645437161E+03  0.54184603877E+02 -0.14000689324E+04  0.14386456977E+04  0.50400001928E-02 0. -1.
</event>
<event>
 5   0  0.8487944E-07  0.3200706E+04  0.7818609E-02  0.8188631E-01
       -1   -1    0    0    0  501  0.00000000000E+00  0.00000000000E+00  0.13548221550E+04  0.13548221551E+04  0.50400001928E-02 0. -1.
        1   -1    0    0  501    0  0.00000000000E+00  0.00000000000E+00 -0.18903812038E+04  0.18903812038E+04  0.50400001928E-02 0.  1.
    10030    2    1    2    0    0  0.00000000000E+00  0.00000000000E+00 -0.53555904876E+03  0.32452033589E+04  0.32007063823E+04 0.  0.
        2    1    3    3  502    0 -0.98282536502E+03 -0.38610143796E+02 -0.15477458248E+04  0.18338357558E+04  0.25500000920E-02 0.  1.
       -2    1    3    3    0  502  0.98282536502E+03  0.38610143796E+02  0.10121867760E+04  0.14113676030E+04  0.25500000920E-02 0. -1.
</event>
<event>
 5   0  0.8681172E-07  0.3204567E+04  0.7818609E-02  0.8187612E-01
       -1   -1    0    0    0  501  0.00000000000E+00  0.00000000000E+00  0.16722505020E+04  0.16722505020E+04  0.50400001928E-02 0. -1.
        1   -1    0    0  501    0  0.00000000000E+00  0.00000000000E+00 -0.15352438027E+04  0.15352438027E+04  0.50400001928E-02 0.  1.
    10030    2    1    2    0    0  0.00000000000E+00  0.00000000000E+00  0.13700669930E+03  0.32074943048E+04  0.32045668786E+04 0.  0.
        1    1    3    3  502    0  0.13640437936E+04  0.55320335615E+03  0.70206088815E+03  0.16308092822E+04  0.50400001928E-02 0. -1.
       -1    1    3    3    0  502 -0.13640437936E+04 -0.55320335615E+03 -0.56505418885E+03  0.15766850226E+04  0.50400001928E-02 0.  1.
</event>
<event>
 5   0  0.8383008E-07  0.3208693E+04  0.7818609E-02  0.8186525E-01
       -1   -1    0    0    0  501  0.00000000000E+00  0.00000000000E+00  0.10690589839E+04  0.10690589840E+04  0.50400001928E-02 0. -1.
        1   -1    0    0  501    0  0.00000000000E+00  0.00000000000E+00 -0.24076571620E+04  0.24076571620E+04  0.50400001928E-02 0.  1.
    10030    2    1    2    0    0  0.00000000000E+00  0.00000000000E+00 -0.13385981780E+04  0.34767161459E+04  0.32086928923E+04 0.  0.
        4    1    3    3  502    0  0.42307446564E+03 -0.10403196533E+04 -0.19107189346E+04  0.22163270165E+04  0.12699999809E+01 0.  1.
       -4    1    3    3    0  502 -0.42307446564E+03  0.10403196533E+04  0.57212075652E+03  0.12603891294E+04  0.12699999809E+01 0. -1.
</event>
<event>
 5   0  0.2404430E-06  0.3213849E+04  0.7818609E-02  0.8185169E-01
       -2   -1    0    0    0  501  0.00000000000E+00  0.00000000000E+00  0.13379844650E+04  0.13379844650E+04  0.25500000920E-02 0.  1.
        2   -1    0    0  501    0  0.00000000000E+00  0.00000000000E+00 -0.19299222686E+04  0.19299222686E+04  0.25500000920E-02 0. -1.
    10030    2    1    2    0    0  0.00000000000E+00  0.00000000000E+00 -0.59193780356E+03  0.32679067337E+04  0.32138487918E+04 0.  0.
        4    1    3    3  502    0  0.14677953928E+04 -0.47971573026E+02  0.36729092624E+03  0.15138126781E+04  0.12699999809E+01 0.  1.
       -4    1    3    3    0  502 -0.14677953928E+04  0.47971573026E+02 -0.95922872980E+03  0.17540940556E+04  0.12699999809E+01 0. -1.
</event>
<event>
 5   0  0.8545153E-07  0.3067427E+04  0.7818609E-02  0.8224735E-01
        1   -1    0    0  501    0  0.00000000000E+00  0.00000000000E+00  0.14783854825E+04  0.14783854825E+04  0.50400001928E-02 0.  1.
       -1   -1    0    0    0  501  0.00000000000E+00  0.00000000000E+00 -0.15911116551E+04  0.15911116551E+04  0.50400001928E-02 0. -1.
    10030    2    1    2    0    0  0.00000000000E+00  0.00000000000E+00 -0.11272617265E+03  0.30694971376E+04  0.30674265253E+04 0.  0.
        3    1    3    3  502    0 -0.10166474522E+04  0.54939900831E+03 -0.10654410548E+04  0.15718065924E+04  0.10100000352E+00 0. -1.
       -3    1    3    3    0  502  0.10166474522E+04 -0.54939900831E+03  0.95271488211E+03  0.14976905452E+04  0.10100000352E+00 0.  1.
</event>
<event>
 5   0  0.8681172E-07  0.3162554E+04  0.7818609E-02  0.8198777E-01
        1   -1    0    0  501    0  0.00000000000E+00  0.00000000000E+00  0.20202235328E+04  0.20202235328E+04  0.50400001928E-02 0. -1.
       -1   -1    0    0    0  501  0.00000000000E+00  0.00000000000E+00 -0.12377033403E+04  0.12377033403E+04  0.50400001928E-02 0.  1.
    10030    2    1    2    0    0  0.00000000000E+00  0.00000000000E+00  0.78252019254E+03  0.32579268732E+04  0.31625542935E+04 0.  0.
        1    1    3    3  502    0  0.35629242040E+03  0.97371243933E+03 -0.83863550287E+03  0.13335552895E+04  0.50400001928E-02 0.  1.
       -1    1    3    3    0  502 -0.35629242040E+03 -0.97371243933E+03  0.16211556954E+04  0.19243715837E+04  0.50400001928E-02 0. -1.
</event>
<event>
 5   0  0.8681172E-07  0.3125262E+04  0.7818609E-02  0.8208839E-01
       -1   -1    0    0    0  501  0.00000000000E+00  0.00000000000E+00  0.13110777452E+04  0.13110777452E+04  0.50400001928E-02 0. -1.
        1   -1    0    0  501    0  0.00000000000E+00  0.00000000000E+00 -0.18624495808E+04  0.18624495808E+04  0.50400001928E-02 0.  1.
    10030    2    1    2    0    0  0.00000000000E+00  0.00000000000E+00 -0.55137183559E+03  0.31735273260E+04  0.31252623550E+04 0.  0.
        1    1    3    3  502    0 -0.81201603938E+03 -0.90200834428E+03  0.72380510943E+03  0.14131110847E+04  0.50400001928E-02 0. -1.
       -1    1    3    3    0  502  0.81201603938E+03  0.90200834428E+03 -0.12751769450E+04  0.17604162413E+04  0.50400001928E-02 0.  1.
</event>
<event>
 5   0  0.2404430E-06  0.3195883E+04  0.7818609E-02  0.8189905E-01
       -2   -1    0    0    0  501  0.00000000000E+00  0.00000000000E+00  0.11748399102E+04  0.11748399102E+04  0.25500000920E-02 0. -1.
        2   -1    0    0  501    0  0.00000000000E+00  0.00000000000E+00 -0.21734175835E+04  0.21734175835E+04  0.25500000920E-02 0.  1.
    10030    2    1    2    0    0  0.00000000000E+00  0.00000000000E+00 -0.99857767329E+03  0.33482574938E+04  0.31958834264E+04 0.  0.
        4    1    3    3  502    0 -0.80466487362E+03  0.48290291520E+03 -0.18542958210E+04  0.20782433421E+04  0.12699999809E+01 0.  1.
       -4    1    3    3    0  502  0.80466487362E+03 -0.48290291520E+03  0.85571814768E+03  0.12700141517E+04  0.12699999809E+01 0. -1.
</event>
<event>
 5   0  0.2466076E-06  0.3198750E+04  0.7818609E-02  0.8189147E-01
        2   -1    0    0  501    0  0.00000000000E+00  0.00000000000E+00  0.16781407861E+04  0.16781407861E+04  0.25500000920E-02 0. -1.
       -2   -1    0    0    0  501  0.00000000000E+00  0.00000000000E+00 -0.15243059430E+04  0.15243059430E+04  0.25500000920E-02 0.  1.
    10030    2    1    2    0    0  0.00000000000E+00  0.00000000000E+00  0.15383484306E+03  0.32024467291E+04  0.31987497392E+04 0.  0.
        3    1    3    3  502    0 -0.39961346688E+03 -0.56425280418E+03  0.15207797384E+04  0.16705816870E+04  0.10100000352E+00 0. -1.
       -3    1    3    3    0  502  0.39961346688E+03  0.56425280418E+03 -0.13669448954E+04  0.15318650421E+04  0.10100000352E+00 0.  1.
</event>
<event>
 5   0  0.2401139E-06  0.3268620E+04  0.7818609E-02  0.8170926E-01
        2   -1    0    0  501    0  0.00000000000E+00  0.00000000000E+00  0.12579579051E+04  0.12579579051E+04  0.25500000920E-02 0.  1.
       -2   -1    0    0    0  501  0.00000000000E+00  0.00000000000E+00 -0.21232585307E+04  0.21232585307E+04  0.25500000920E-02 0. -1.
    10030    2    1    2    0    0  0.00000000000E+00  0.00000000000E+00 -0.86530062557E+03  0.33812164358E+04  0.32686204144E+04 0.  0.
        5    1    3    3  502    0  0.25998817195E+03 -0.52042075940E+03  0.11472177214E+04  0.12862978686E+04  0.46999998093E+01 0.  1.
       -5    1    3    3    0  502 -0.25998817195E+03  0.52042075940E+03 -0.20125183470E+04  0.20949185672E+04  0.46999998093E+01 0. -1.
</event>
<event>
 5   0  0.2466076E-06  0.3211867E+04  0.7818609E-02  0.8185690E-01
       -2   -1    0    0    0  501  0.00000000000E+00  0.00000000000E+00  0.10859502804E+04  0.10859502804E+04  0.25500000920E-02 0.  1.
        2   -1    0    0  501    0  0.00000000000E+00  0.00000000000E+00 -0.23748995565E+04  0.23748995565E+04  0.25500000920E-02 0. -1.
    10030    2    1    2    0    0  0.00000000000E+00  0.00000000000E+00 -0.12889492761E+04  0.34608498368E+04  0.32118672695E+04 0.  0.
        3    1    3    3  502    0 -0.85869891782E+03 -0.11902016172E+04 -0.13469968281E+04  0.19920703266E+04  0.10100000352E+00 0. -1.
       -3    1    3    3    0  502  0.85869891782E+03  0.11902016172E+04  0.58047551968E+02  0.14687795102E+04  0.10100000352E+00 0.  1.
</event>
<event>
 5   0  0.8512855E-07  0.3084864E+04  0.7818609E-02  0.8219904E-01
       -1   -1    0    0    0  501  0.00000000000E+00  0.00000000000E+00  0.15436859512E+04  0.15436859512E+04  0.50400001928E-02 0.  1.
        1   -1    0    0  501    0  0.00000000000E+00  0.00000000000E+00 -0.15411792763E+04  0.15411792763E+04  0.50400001928E-02 0. -1.
    10030    2    1    2    0    0  0.00000000000E+00  0.00000000000E+00  0.25066749574E+01  0.30848652275E+04  0.30848642091E+04 0.  0.
        5    1    3    3  502    0 -0.49170905218E+03  0.12669604202E+04  0.73071105397E+03  0.15430253506E+04  0.46999998093E+01 0.  1.
       -5    1    3    3    0  502  0.49170905218E+03 -0.12669604202E+04 -0.72820437901E+03  0.15418398769E+04  0.46999998093E+01 0. -1.
</event>
<event>
 5   0  0.2401139E-06  0.3229677E+04  0.7818609E-02  0.8181023E-01
       -2   -1    0    0    0  501  0.00000000000E+00  0.00000000000E+00  0.16414478782E+04  0.16414478782E+04  0.25500000920E-02 0.  1.
        2   -1    0    0  501    0  0.00000000000E+00  0.00000000000E+00 -0.15886604307E+04  0.15886604307E+04  0.25500000920E-02 0. -1.
    10030    2    1    2    0    0  0.00000000000E+00  0.00000000000E+00  0.52787447489E+02  0.32301083089E+04  0.32296769456E+04 0.  0.
        5    1    3    3  502    0 -0.14578306771E+04  0.63284769992E+03  0.31263940795E+03  0.16197320716E+04  0.46999998093E+01 0.  1.
       -5    1    3    3    0  502  0.14578306771E+04 -0.63284769992E+03 -0.25985196046E+03  0.16103762373E+04  0.46999998093E+01 0. -1.
</event>
<event>
 5   0  0.2621528E-06  0.3195643E+04  0.7818609E-02  0.8189969E-01
       -2   -1    0    0    0  501  0.00000000000E+00  0.00000000000E+00  0.12488787853E+04  0.12488787853E+04  0.25500000920E-02 0. -1.
        2   -1    0    0  501    0  0.00000000000E+00  0.00000000000E+00 -0.20442608843E+04  0.20442608843E+04  0.25500000920E-02 0.  1.
    10030    2    1    2    0    0  0.00000000000E+00  0.00000000000E+00 -0.79538209903E+03  0.32931396697E+04  0.31956433156E+04 0.  0.
        2    1    3    3  502    0  0.12572330444E+03  0.11969196066E+04  0.68537904388E+03  0.13849791795E+04  0.25500000920E-02 0. -1.
       -2    1    3    3    0  502 -0.12572330444E+03 -0.11969196066E+04 -0.14807611429E+04  0.19081604902E+04  0.25500000920E-02 0.  1.
</event>
<event>
 5   0  0.2401139E-06  0.3183725E+04  0.7818609E-02  0.8193129E-01
       -2   -1    0    0    0  501  0.00000000000E+00  0.00000000000E+00  0.10135047161E+04  0.10135047161E+04  0.25500000920E-02 0. -1.
        2   -1    0    0  501    0  0.00000000000E+00  0.00000000000E+00 -0.25002601291E+04  0.25002601291E+04  0.25500000920E-02 0.  1.
    10030    2    1    2    0    0  0.00000000000E+00  0.00000000000E+00 -0.14867554130E+04  0.35137648453E+04  0.31837245059E+04 0.  0.
        5    1    3    3  502    0  0.80151717048E+03 -0.12652525282E+04 -0.13384461301E+04  0.20086696762E+04  0.46999998093E+01 0. -1.
       -5    1    3    3    0  502 -0.80151717048E+03  0.12652525282E+04 -0.14830928292E+03  0.15050951691E+04  0.46999998093E+01 0.  1.
</event>
<event>
 5   0  0.8681172E-07  0.3211751E+04  0.7818609E-02  0.8185721E-01
        1   -1    0    0  501    0  0.00000000000E+00  0.00000000000E+00  0.21975627620E+04  0.21975627620E+04  0.50400001928E-02 0. -1.
       -1   -1    0    0    0  501  0.00000000000E+00  0.00000000000E+00 -0.11734980129E+04  0.11734980129E+04  0.50400001928E-02 0.  1.
    10030    2    1    2    0    0  0.00000000000E+00  0.00000000000E+00  0.10240647492E+04  0.33710607749E+04  0.32117506344E+04 0.  0.
        1    1    3    3  502    0  0.47896069939E+03 -0.36476822559E+03  0.20746276786E+04  0.21602173999E+04  0.50400001928E-02 0. -1.
       -1    1    3    3    0  502 -0.47896069939E+03  0.36476822559E+03 -0.10505629295E+04  0.12108433750E+04  0.50400001928E-02 0.  1.
</event>
<event>
 5   0  0.2621528E-06  0.3204135E+04  0.7818609E-02  0.8187726E-01
       -2   -1    0    0    0  501  0.00000000000E+00  0.00000000000E+00  0.13253809907E+04  0.13253809907E+04  0.25500000920E-02 0.  1.
        2   -1    0    0  501    0  0.00000000000E+00  0.00000000000E+00 -0.19365148703E+04  0.19365148703E+04  0.25500000920E-02 0. -1.
    10030    2    1    2    0    0  0.00000000000E+00  0.00000000000E+00 -0.61113387959E+03  0.32618958610E+04  0.32041348269E+04 0.  0.
        2    1    3    3  502    0  0.23638120455E+03 -0.14143241484E+04 -0.10328908825E+04  0.17672160156E+04  0.25500000920E-02 0. -1.
       -2    1    3    3    0  502 -0.23638120455E+03  0.14143241484E+04  0.42175700286E+03  0.14946798454E+04  0.25500000920E-02 0.  1.
</event>
<event>
 5   0  0.8512855E-07  0.3209797E+04  0.7818609E-02  0.8186235E-01
       -1   -1    0    0    0  501  0.00000000000E+00  0.00000000000E+00  0.11972125050E+04  0.11972125051E+04  0.50400001928E-02 0. -1.
        1   -1    0    0  501    0  0.00000000000E+00  0.00000000000E+00 -0.21514135747E+04  0.21514135747E+04  0.50400001928E-02 0.  1.
    10030    2    1    2    0    0  0.00000000000E+00  0.00000000000E+00 -0.95420106961E+03  0.33486260797E+04  0.32097970248E+04 0.  0.
        5    1    3    3  502    0  0.14746489377E+04 -0.19712554104E+02  0.18328606602E+03  0.14861338924E+04  0.46999998093E+01 0. -1.
       -5    1    3    3    0  502 -0.14746489377E+04  0.19712554104E+02 -0.11374871356E+04  0.18624921873E+04  0.46999998093E+01 0.  1.
</event>
<event>
 5   0  0.8545153E-07  0.3187226E+04  0.7818609E-02  0.8192199E-01
       -1   -1    0    0    0  501  0.00000000000E+00  0.00000000000E+00  0.11924444687E+04  0.11924444687E+04  0.50400001928E-02 0.  1.
        1   -1    0    0  501    0  0.00000000000E+00  0.00000000000E+00 -0.21297451607E+04  0.21297451607E+04  0.50400001928E-02 0. -1.
    10030    2    1    2    0    0  0.00000000000E+00  0.00000000000E+00 -0.93730069196E+03  0.33221896294E+04  0.31872262779E+04 0.  0.
        3    1    3    3  502    0  0.49105424933E+03 -0.14370082699E+04 -0.97230452415E+03  0.18031924859E+04  0.10100000352E+00 0. -1.
       -3    1    3    3    0  502 -0.49105424933E+03  0.14370082699E+04  0.35003832197E+02  0.15189971435E+04  0.10100000352E+00 0.  1.
</event>
<event>
 5   0  0.2404430E-06  0.3196139E+04  0.7818609E-02  0.8189838E-01
       -2   -1    0    0    0  501  0.00000000000E+00  0.00000000000E+00  0.13060120994E+04  0.13060120994E+04  0.25500000920E-02 0.  1.
        2   -1    0    0  501    0  0.00000000000E+00  0.00000000000E+00 -0.19554386791E+04  0.19554386791E+04  0.25500000920E-02 0. -1.
    10030    2    1    2    0    0  0.00000000000E+00  0.00000000000E+00 -0.64942657973E+03  0.32614507785E+04  0.31961392802E+04 0.  0.
        4    1    3    3  502    0 -0.14820907071E+04 -0.58049422646E+03 -0.17947226024E+03  0.16018047060E+04  0.12699999809E+01 0.  1.
       -4    1    3    3    0  502  0.14820907071E+04  0.58049422646E+03 -0.46995431949E+03  0.16596460726E+04  0.12699999809E+01 0. -1.
</event>
<event>
 5   0  0.8512855E-07  0.3086555E+04  0.7818609E-02  0.8219437E-01
       -1   -1    0    0    0  501  0.00000000000E+00  0.00000000000E+00  0.16475275532E+04  0.16475275532E+04  0.50400001928E-02 0. -1.
        1   -1    0    0  501    0  0.00000000000E+00  0.00000000000E+00 -0.14456240704E+04  0.14456240704E+04  0.50400001928E-02 0.  1.
    10030    2    1    2    0    0  0.00000000000E+00  0.00000000000E+00  0.20190348279E+03  0.30931516237E+04  0.30865550296E+04 0.  0.
        5    1    3    3  502    0  0.13603758039E+04 -0.36923430586E+03  0.73056759570E+03  0.15876735818E+04  0.46999998093E+01 0. -1.
       -5    1    3    3    0  502 -0.13603758039E+04  0.36923430586E+03 -0.52866411291E+03  0.15054780419E+04  0.46999998093E+01 0.  1.
</event>
<event>
 5   0  0.8681172E-07  0.3422150E+04  0.7818609E-02  0.8132491E-01
       -1   -1    0    0    0  501  0.00000000000E+00  0.00000000000E+00  0.16692368953E+04  0.16692368953E+04  0.50400001928E-02 0.  1.
        1   -1    0    0  501    0  0.00000000000E+00  0.00000000000E+00 -0.17539615390E+04  0.17539615390E+04  0.50400001928E-02 0. -1.
    10030    2    1    2    0    0  0.00000000000E+00  0.00000000000E+00 -0.84724643700E+02  0.34231984343E+04  0.34221498002E+04 0.  0.
        1    1    3    3  502    0 -0.14540954568E+04 -0.36472770639E+03 -0.86745288543E+03  0.17320203249E+04  0.50400001928E-02 0. -1.
       -1    1    3    3    0  502  0.14540954568E+04  0.36472770639E+03  0.78272824173E+03  0.16911781094E+04  0.50400001928E-02 0.  1.
</event>
<event>
 5   0  0.8512855E-07  0.3141014E+04  0.7818609E-02  0.8204571E-01
       -1   -1    0    0    0  501  0.00000000000E+00  0.00000000000E+00  0.21861211075E+04  0.21861211075E+04  0.50400001928E-02 0.  1.
        1   -1    0    0  501    0  0.00000000000E+00  0.00000000000E+00 -0.11282501830E+04  0.11282501830E+04  0.50400001928E-02 0. -1.
    10030    2    1    2    0    0  0.00000000000E+00  0.00000000000E+00  0.10578709245E+04  0.33143712906E+04  0.31410135560E+04 0.  0.
        5    1    3    3  502    0  0.11613533882E+03  0.90220054037E+03  0.18798347512E+04  0.20883615620E+04  0.46999998093E+01 0.  1.
       -5    1    3    3    0  502 -0.11613533882E+03 -0.90220054037E+03 -0.82196382672E+03  0.12260097285E+04  0.46999998093E+01 0. -1.
</event>
<event>
 5   0  0.2401139E-06  0.3213730E+04  0.7818609E-02  0.8185200E-01
        2   -1    0    0  501    0  0.00000000000E+00  0.00000000000E+00  0.23806147299E+04  0.23806147299E+04  0.25500000920E-02 0. -1.
       -2   -1    0    0    0  501  0.00000000000E+00  0.00000000000E+00 -0.10846002350E+04  0.10846002350E+04  0.25500000920E-02 0.  1.
    10030    2    1    2    0    0  0.00000000000E+00  0.00000000000E+00  0.12960144949E+04  0.34652149649E+04  0.32137301041E+04 0.  0.
        5    1    3    3  502    0  0.10149045344E+04 -0.12323669741E+04  0.45144066475E+03  0.16590902135E+04  0.46999998093E+01 0. -1.
       -5    1    3    3    0  502 -0.10149045344E+04  0.12323669741E+04  0.84457383013E+03  0.18061247513E+04  0.46999998093E+01 0.  1.
</event>
<event>
 5   0  0.8383008E-07  0.3184003E+04  0.7818609E-02  0.8193055E-01
       -1   -1    0    0    0  501  0.00000000000E+00  0.00000000000E+00  0.10698906139E+04  0.10698906140E+04  0.50400001928E-02 0. -1.
        1   -1    0    0  501    0  0.00000000000E+00  0.00000000000E+00 -0.23689044919E+04  0.23689044919E+04  0.50400001928E-02 0.  1.
    10030    2    1    2    0    0  0.00000000000E+00  0.00000000000E+00 -0.12990138779E+04  0.34387951058E+04  0.31840029405E+04 0.  0.
        4    1    3    3  502    0  0.64181215420E+02 -0.20731260785E+03  0.10538394599E+04  0.10759539795E+04  0.12699999809E+01 0. -1.
       -4    1    3    3    0  502 -0.64181215420E+02  0.20731260785E+03 -0.23528533379E+04  0.23628411263E+04  0.12699999809E+01 0.  1.
</event>
<event>
 5   0  0.7934375E-07  0.3212129E+04  0.7818609E-02  0.8185621E-01
        3   -1    0    0  501    0  0.00000000000E+00  0.00000000000E+00  0.11277743608E+04  0.11277743653E+04  0.10100000352E+00 0. -1.
       -3   -1    0    0    0  501  0.00000000000E+00  0.00000000000E+00 -0.22871981212E+04  0.22871981234E+04  0.10100000352E+00 0.  1.
    10030    2    1    2    0    0  0.00000000000E+00  0.00000000000E+00 -0.11594237604E+04  0.34149724887E+04  0.32121291447E+04 0.  0.
        4    1    3    3  502    0  0.60885489065E+03  0.13811526733E+04  0.37186015621E+01  0.15094046594E+04  0.12699999809E+01 0. -1.
       -4    1    3    3    0  502 -0.60885489065E+03 -0.13811526733E+04 -0.11631423620E+04  0.19055678293E+04  0.12699999809E+01 0.  1.
</event>
<event>
 5   0  0.2401139E-06  0.3183021E+04  0.7818609E-02  0.8193316E-01
       -2   -1    0    0    0  501  0.00000000000E+00  0.00000000000E+00  0.15979503552E+04  0.15979503552E+04  0.25500000920E-02 0.  1.
        2   -1    0    0  501    0  0.00000000000E+00  0.00000000000E+00 -0.15850961089E+04  0.15850961089E+04  0.25500000920E-02 0. -1.
    10030    2    1    2    0    0  0.00000000000E+00  0.00000000000E+00  0.12854246392E+02  0.31830464641E+04  0.31830205090E+04 0.  0.
        5    1    3    3  502    0  0.22227893985E+03 -0.64705562543E+03 -0.14305236639E+04  0.15857203260E+04  0.46999998093E+01 0. -1.
       -5    1    3    3    0  502 -0.22227893985E+03  0.64705562543E+03  0.14433779103E+04  0.15973261381E+04  0.46999998093E+01 0.  1.
</event>
<event>
 5   0  0.8512855E-07  0.2668595E+04  0.7818609E-02  0.8345267E-01
       -1   -1    0    0    0  501  0.00000000000E+00  0.00000000000E+00  0.13943034670E+04  0.13943034670E+04  0.50400001928E-02 0. -1.
        1   -1    0    0  501    0  0.00000000000E+00  0.00000000000E+00 -0.12768742631E+04  0.12768742631E+04  0.50400001928E-02 0.  1.
    10030    2    1    2    0    0  0.00000000000E+00  0.00000000000E+00  0.11742920393E+03  0.26711777301E+04  0.26685952949E+04 0.  0.
        5    1    3    3  502    0  0.38618726372E+03 -0.98778583567E+02  0.13333008048E+04  0.13916216934E+04  0.46999998093E+01 0. -1.
       -5    1    3    3    0  502 -0.38618726372E+03  0.98778583567E+02 -0.12158716009E+04  0.12795560367E+04  0.46999998093E+01 0.  1.
</event>
<event>
 5   0  0.2404430E-06  0.2681560E+04  0.7818609E-02  0.8341013E-01
       -2   -1    0    0    0  501  0.00000000000E+00  0.00000000000E+00  0.57413700970E+03  0.57413700971E+03  0.25500000920E-02 0. -1.
        2   -1    0    0  501    0  0.00000000000E+00  0.00000000000E+00 -0.31311193955E+04  0.31311193955E+04  0.25500000920E-02 0.  1.
    10030    2    1    2    0    0  0.00000000000E+00  0.00000000000E+00 -0.25569823858E+04  0.37052564052E+04  0.26815603866E+04 0.  0.
        4    1    3    3  502    0  0.83494672919E+03 -0.65837068072E+03 -0.24070567209E+04  0.26314466866E+04  0.12699999809E+01 0.  1.
       -4    1    3    3    0  502 -0.83494672919E+03  0.65837068072E+03 -0.14992566484E+03  0.10738097186E+04  0.12699999809E+01 0. -1.
</event>
<event>
 5   0  0.8383008E-07  0.3200683E+04  0.7818609E-02  0.8188637E-01
       -1   -1    0    0    0  501  0.00000000000E+00  0.00000000000E+00  0.22195015410E+04  0.22195015410E+04  0.50400001928E-02 0.  1.
        1   -1    0    0  501    0  0.00000000000E+00  0.00000000000E+00 -0.11539045500E+04  0.11539045500E+04  0.50400001928E-02 0. -1.
    10030    2    1    2    0    0  0.00000000000E+00  0.00000000000E+00  0.10655969909E+04  0.33734060910E+04  0.32006830064E+04 0.  0.
        4    1    3    3  502    0 -0.41210220678E+03  0.67352448612E+03 -0.93430632802E+03  0.12232715928E+04  0.12699999809E+01 0. -1.
       -4    1    3    3    0  502  0.41210220678E+03 -0.67352448612E+03  0.19999033190E+04  0.21501344982E+04  0.12699999809E+01 0.  1.
</event>
<event>
 5   0  0.8487944E-07  0.3131156E+04  0.7818609E-02  0.8207239E-01
        1   -1    0    0  501    0  0.00000000000E+00  0.00000000000E+00  0.19701490657E+04  0.19701490657E+04  0.50400001928E-02 0.  1.
       -1   -1    0    0    0  501  0.00000000000E+00  0.00000000000E+00 -0.12440856263E+04  0.12440856263E+04  0.50400001928E-02 0. -1.
    10030    2    1    2    0    0  0.00000000000E+00  0.00000000000E+00  0.72606343943E+03  0.32142346920E+04  0.31311557830E+04 0.  0.
        2    1    3    3  502    0  0.12506900506E+04 -0.88690756242E+03  0.38083344179E+02  0.15337147610E+04  0.25500000920E-02 0.  1.
       -2    1    3    3    0  502 -0.12506900506E+04  0.88690756242E+03  0.68798009525E+03  0.16805199310E+04  0.25500000920E-02 0. -1.
</event>
<event>
 5   0  0.8545153E-07  0.3165804E+04  0.7818609E-02  0.8197907E-01
       -1   -1    0    0    0  501  0.00000000000E+00  0.00000000000E+00  0.13376265031E+04  0.13376265031E+04  0.50400001928E-02 0.  1.
        1   -1    0    0  501    0  0.00000000000E+00  0.00000000000E+00 -0.18731528732E+04  0.18731528732E+04  0.50400001928E-02 0. -1.
    10030    2    1    2    0    0  0.00000000000E+00  0.00000000000E+00 -0.53552637015E+03  0.32107793763E+04  0.31658041175E+04 0.  0.
        3    1    3    3  502    0  0.15623681716E+04 -0.24580743085E+03 -0.20232272200E+03  0.15944748636E+04  0.10100000352E+00 0.  1.
       -3    1    3    3    0  502 -0.15623681716E+04  0.24580743085E+03 -0.33320364814E+03  0.16163045127E+04  0.10100000352E+00 0. -1.
</event>
<event>
 5   0  0.2466076E-06  0.3189668E+04  0.7818609E-02  0.8191551E-01
       -2   -1    0    0    0  501  0.00000000000E+00  0.00000000000E+00  0.98866377084E+03  0.98866377085E+03  0.25500000920E-02 0.  1.
        2   -1    0    0  501    0  0.00000000000E+00  0.00000000000E+00 -0.25726591729E+04  0.25726591729E+04  0.25500000920E-02 0. -1.
    10030    2    1    2    0    0  0.00000000000E+00  0.00000000000E+00 -0.15839954021E+04  0.35613229438E+04  0.31896676435E+04 0.  0.
        3    1    3    3  502    0 -0.57805738372E+03  0.46528632110E+03 -0.23681695987E+04  0.24817068638E+04  0.10100000352E+00 0. -1.
       -3    1    3    3    0  502  0.57805738372E+03 -0.46528632110E+03  0.78417419656E+03  0.10796160800E+04  0.10100000352E+00 0.  1.
</event>
<event>
 5   0  0.8487944E-07  0.3064994E+04  0.7818609E-02  0.8225411E-01
        1   -1    0    0  501    0  0.00000000000E+00  0.00000000000E+00  0.13339878090E+04  0.13339878090E+04  0.50400001928E-02 0. -1.
       -1   -1    0    0    0  501  0.00000000000E+00  0.00000000000E+00 -0.17605464276E+04  0.17605464276E+04  0.50400001928E-02 0.  1.
    10030    2    1    2    0    0  0.00000000000E+00  0.00000000000E+00 -0.42655861865E+03  0.30945342366E+04  0.30649942719E+04 0.  0.
        2    1    3    3  502    0  0.12614287647E+03 -0.75653064663E+03  0.11262696083E+04  0.13626202241E+04  0.25500000920E-02 0. -1.
       -2    1    3    3    0  502 -0.12614287647E+03  0.75653064663E+03 -0.15528282269E+04  0.17319140126E+04  0.25500000920E-02 0.  1.
</event>
<event>
 5   0  0.8487944E-07  0.3102299E+04  0.7818609E-02  0.8215107E-01
        1   -1    0    0  501    0  0.00000000000E+00  0.00000000000E+00  0.95498221561E+03  0.95498221562E+03  0.50400001928E-02 0.  1.
       -1   -1    0    0    0  501  0.00000000000E+00  0.00000000000E+00 -0.25194856727E+04  0.25194856727E+04  0.50400001928E-02 0. -1.
    10030    2    1    2    0    0  0.00000000000E+00  0.00000000000E+00 -0.15645034571E+04  0.34744678883E+04  0.31022985091E+04 0.  0.
        2    1    3    3  502    0 -0.82172023387E+03 -0.10187200748E+04 -0.17146184741E+04  0.21570654244E+04  0.25500000920E-02 0. -1.
       -2    1    3    3    0  502  0.82172023387E+03  0.10187200748E+04  0.15011501706E+03  0.13174024639E+04  0.25500000920E-02 0.  1.
</event>
<event>
 5   0  0.2401139E-06  0.3213194E+04  0.7818609E-02  0.8185341E-01
       -2   -1    0    0    0  501  0.00000000000E+00  0.00000000000E+00  0.20357750148E+04  0.20357750148E+04  0.25500000920E-02 0.  1.
        2   -1    0    0  501    0  0.00000000000E+00  0.00000000000E+00 -0.12678971378E+04  0.12678971378E+04  0.25500000920E-02 0. -1.
    10030    2    1    2    0    0  0.00000000000E+00  0.00000000000E+00  0.76787787704E+03  0.33036721526E+04  0.32131936229E+04 0.  0.
        5    1    3    3  502    0 -0.14164517529E+03 -0.16002461759E+04  0.40114471416E+03  0.16558352427E+04  0.46999998093E+01 0. -1.
       -5    1    3    3    0  502  0.14164517529E+03  0.16002461759E+04  0.36673316288E+03  0.16478369100E+04  0.46999998093E+01 0.  1.
</event>
<event>
 5   0  0.2404430E-06  0.3169449E+04  0.7818609E-02  0.8196932E-01
        2   -1    0    0  501    0  0.00000000000E+00  0.00000000000E+00  0.17448841388E+04  0.17448841388E+04  0.25500000920E-02 0.  1.
       -2   -1    0    0    0  501  0.00000000000E+00  0.00000000000E+00 -0.14392656795E+04  0.14392656795E+04  0.25500000920E-02 0. -1.
    10030    2    1    2    0    0  0.00000000000E+00  0.00000000000E+00  0.30561845934E+03  0.31841498183E+04  0.31694490724E+04 0.  0.
        4    1    3    3  502    0 -0.76570253007E+03 -0.13543496447E+04  0.45551545488E+03  0.16211290101E+04  0.12699999809E+01 0. -1.
       -4    1    3    3    0  502  0.76570253007E+03  0.13543496447E+04 -0.14989699554E+03  0.15630208082E+04  0.12699999809E+01 0.  1.
</event>
<event>
 5   0  0.8487944E-07  0.3276378E+04  0.7818609E-02  0.8168932E-01
       -1   -1    0    0    0  501  0.00000000000E+00  0.00000000000E+00  0.19171278788E+04  0.19171278789E+04  0.50400001928E-02 0.  1.
        1   -1    0    0  501    0  0.00000000000E+00  0.00000000000E+00 -0.13998352095E+04  0.13998352095E+04  0.50400001928E-02 0. -1.
    10030    2    1    2    0    0  0.00000000000E+00  0.00000000000E+00  0.51729266938E+03  0.33169630883E+04  0.32763779427E+04 0.  0.
        2    1    3    3  502    0  0.86527228744E+03 -0.52709258647E+03  0.15618920180E+04  0.18617275317E+04  0.25500000920E-02 0.  1.
       -2    1    3    3    0  502 -0.86527228744E+03  0.52709258647E+03 -0.10445993487E+04  0.14552355567E+04  0.25500000920E-02 0. -1.
</event>
<event>
 5   0  0.8545153E-07  0.3240711E+04  0.7818609E-02  0.8178148E-01
       -1   -1    0    0    0  501  0.00000000000E+00  0.00000000000E+00  0.11547296872E+04  0.11547296872E+04  0.50400001928E-02 0. -1.
        1   -1    0    0  501    0  0.00000000000E+00  0.00000000000E+00 -0.22737371258E+04  0.22737371258E+04  0.50400001928E-02 0.  1.
    10030    2    1    2    0    0  0.00000000000E+00  0.00000000000E+00 -0.11190074387E+04  0.34284668130E+04  0.32407108850E+04 0.  0.
        3    1    3    3  502    0 -0.10059814869E+04 -0.11055159634E+04 -0.12213591113E+04  0.19302544875E+04  0.10100000352E+00 0.  1.
       -3    1    3    3    0  502  0.10059814869E+04  0.11055159634E+04  0.10235167265E+03  0.14982123255E+04  0.10100000352E+00 0. -1.
</event>
<event>
 5   0  0.8545153E-07  0.3217418E+04  0.7818609E-02  0.8184232E-01
        1   -1    0    0  501    0  0.00000000000E+00  0.00000000000E+00  0.24541302405E+04  0.24541302405E+04  0.50400001928E-02 0. -1.
       -1   -1    0    0    0  501  0.00000000000E+00  0.00000000000E+00 -0.10545263329E+04  0.10545263329E+04  0.50400001928E-02 0.  1.
    10030    2    1    2    0    0  0.00000000000E+00  0.00000000000E+00  0.13996039075E+04  0.35086565734E+04  0.32174181967E+04 0.  0.
        3    1    3    3  502    0 -0.12717153303E+04  0.54019040893E+03 -0.19872200363E+03  0.13959068751E+04  0.10100000352E+00 0. -1.
       -3    1    3    3    0  502  0.12717153303E+04 -0.54019040893E+03  0.15983259112E+04  0.21127496983E+04  0.10100000352E+00 0.  1.
</event>
<event>
 5   0  0.2621528E-06  0.3220232E+04  0.7818609E-02  0.8183494E-01
       -2   -1    0    0    0  501  0.00000000000E+00  0.00000000000E+00  0.11054737164E+04  0.11054737164E+04  0.25500000920E-02 0. -1.
        2   -1    0    0  501    0  0.00000000000E+00  0.00000000000E+00 -0.23451246881E+04  0.23451246881E+04  0.25500000920E-02 0.  1.
    10030    2    1    2    0    0  0.00000000000E+00  0.00000000000E+00 -0.12396509717E+04  0.34505984045E+04  0.32202321062E+04 0.  0.
        2    1    3    3  502    0  0.34338461862E+03 -0.62558920911E+03 -0.21664062527E+04  0.22809188733E+04  0.25500000920E-02 0.  1.
       -2    1    3    3    0  502 -0.34338461862E+03  0.62558920911E+03  0.92675528099E+03  0.11696795312E+04  0.25500000920E-02 0. -1.
</event>
<event>
 5   0  0.8681172E-07  0.3253048E+04  0.7818609E-02  0.8174946E-01
        1   -1    0    0  501    0  0.00000000000E+00  0.00000000000E+00  0.17743736516E+04  0.17743736516E+04  0.50400001928E-02 0.  1.
       -1   -1    0    0    0  501  0.00000000000E+00  0.00000000000E+00 -0.14909940599E+04  0.14909940599E+04  0.50400001928E-02 0. -1.
    10030    2    1    2    0    0  0.00000000000E+00  0.00000000000E+00  0.28337959168E+03  0.32653677115E+04  0.32530481550E+04 0.  0.
        1    1    3    3  502    0  0.97726880296E+03 -0.34684143428E+03  0.13995224383E+04  0.17418428027E+04  0.50400001928E-02 0.  1.
       -1    1    3    3    0  502 -0.97726880296E+03  0.34684143428E+03 -0.11161428466E+04  0.15235249089E+04  0.50400001928E-02 0. -1.
</event>
<event>
 5   0  0.2401139E-06  0.3203763E+04  0.7818609E-02  0.8187824E-01
        2   -1    0    0  501    0  0.00000000000E+00  0.00000000000E+00  0.19065598527E+04  0.19065598527E+04  0.25500000920E-02 0.  1.
       -2   -1    0    0    0  501  0.00000000000E+00  0.00000000000E+00 -0.13458926253E+04  0.13458926253E+04  0.25500000920E-02 0. -1.
    10030    2    1    2    0    0  0.00000000000E+00  0.00000000000E+00  0.56066722745E+03  0.32524524780E+04  0.32037633155E+04 0.  0.
        5    1    3    3  502    0  0.49639085268E+03  0.11088558673E+04 -0.77958193567E+03  0.14435149107E+04  0.46999998093E+01 0. -1.
       -5    1    3    3    0  502 -0.49639085268E+03 -0.11088558673E+04  0.13402491631E+04  0.18089375673E+04  0.46999998093E+01 0.  1.
</event>
<event>
 5   0  0.8545153E-07  0.3177257E+04  0.7818609E-02  0.8194850E-01
       -1   -1    0    0    0  501  0.00000000000E+00  0.00000000000E+00  0.14342301552E+04  0.14342301552E+04  0.50400001928E-02 0.  1.
        1   -1    0    0  501    0  0.00000000000E+00  0.00000000000E+00 -0.17596478591E+04  0.17596478591E+04  0.50400001928E-02 0. -1.
    10030    2    1    2    0    0  0.00000000000E+00  0.00000000000E+00 -0.32541770392E+03  0.31938780143E+04  0.31772566923E+04 0.  0.
        3    1    3    3  502    0  0.27619610661E+03 -0.14739173206E+04 -0.68987909562E+03  0.16506513060E+04  0.10100000352E+00 0. -1.
       -3    1    3    3    0  502 -0.27619610661E+03  0.14739173206E+04  0.36446139170E+03  0.15432267084E+04  0.10100000352E+00 0.  1.
</event>
<event>
 5   0  0.2621528E-06  0.3196060E+04  0.7818609E-02  0.8189859E-01
       -2   -1    0    0    0  501  0.00000000000E+00  0.00000000000E+00  0.24831354865E+04  0.24831354865E+04  0.25500000920E-02 0.  1.
        2   -1    0    0  501    0  0.00000000000E+00  0.00000000000E+00 -0.10284171506E+04  0.10284171506E+04  0.25500000920E-02 0. -1.
    10030    2    1    2    0    0  0.00000000000E+00  0.00000000000E+00  0.14547183359E+04  0.35115526371E+04  0.31960595249E+04 0.  0.
        2    1    3    3  502    0  0.11411913518E+03  0.24397686539E+02  0.24784476065E+04  0.24811934553E+04  0.25500000920E-02 0.  1.
       -2    1    3    3    0  502 -0.11411913518E+03 -0.24397686539E+02 -0.10237292706E+04  0.10303591819E+04  0.25500000920E-02 0. -1.
</event>
<event>
 5   0  0.2401139E-06  0.3210871E+04  0.7818609E-02  0.8185952E-01
       -2   -1    0    0    0  501  0.00000000000E+00  0.00000000000E+00  0.13335414747E+04  0.13335414747E+04  0.25500000920E-02 0.  1.
        2   -1    0    0  501    0  0.00000000000E+00  0.00000000000E+00 -0.19327657307E+04  0.19327657307E+04  0.25500000920E-02 0. -1.
    10030    2    1    2    0    0  0.00000000000E+00  0.00000000000E+00 -0.59922425599E+03  0.32663072055E+04  0.32108710736E+04 0.  0.
        5    1    3    3  502    0 -0.11549802870E+04  0.33646716650E+03  0.78185676718E+03  0.14347514460E+04  0.46999998093E+01 0. -1.
       -5    1    3    3    0  502  0.11549802870E+04 -0.33646716650E+03 -0.13810810232E+04  0.18315557595E+04  0.46999998093E+01 0.  1.
</event>
<event>
 5   0  0.8681172E-07  0.3210595E+04  0.7818609E-02  0.8186025E-01
       -1   -1    0    0    0  501  0.00000000000E+00  0.00000000000E+00  0.12558827084E+04  0.12558827084E+04  0.50400001928E-02 0.  1.
        1   -1    0    0  501    0  0.00000000000E+00  0.00000000000E+00 -0.20519272685E+04  0.20519272685E+04  0.50400001928E-02 0. -1.
    10030    2    1    2    0    0  0.00000000000E+00  0.00000000000E+00 -0.79604456007E+03  0.33078099769E+04  0.32105949451E+04 0.  0.
        1    1    3    3  502    0 -0.83354600589E+03  0.13592018744E+03 -0.18045355126E+04  0.19923909400E+04  0.50400001928E-02 0. -1.
       -1    1    3    3    0  502  0.83354600589E+03 -0.13592018744E+03  0.10084909526E+04  0.13154190369E+04  0.50400001928E-02 0.  1.
</event>
<event>
 5   0  0.8383008E-07  0.3284580E+04  0.7818609E-02  0.8166830E-01
       -1   -1    0    0    0  501  0.00000000000E+00  0.00000000000E+00  0.15382594197E+04  0.15382594197E+04  0.50400001928E-02 0. -1.
        1   -1    0    0  501    0  0.00000000000E+00  0.00000000000E+00 -0.17533559837E+04  0.17533559837E+04  0.50400001928E-02 0.  1.
    10030    2    1    2    0    0  0.00000000000E+00  0.00000000000E+00 -0.21509656396E+03  0.32916154034E+04  0.32845799476E+04 0.  0.
        4    1    3    3  502    0 -0.11332094880E+04  0.92848414722E+03  0.63624644650E+03  0.15972030895E+04  0.12699999809E+01 0. -1.
       -4    1    3    3    0  502  0.11332094880E+04 -0.92848414722E+03 -0.85134301047E+03  0.16944123140E+04  0.12699999809E+01 0.  1.
</event>
<event>
 5   0  0.2466076E-06  0.3222363E+04  0.7818609E-02  0.8182936E-01
        2   -1    0    0  501    0  0.00000000000E+00  0.00000000000E+00  0.10193694378E+04  0.10193694378E+04  0.25500000920E-02 0.  1.
       -2   -1    0    0    0  501  0.00000000000E+00  0.00000000000E+00 -0.25465804028E+04  0.25465804028E+04  0.25500000920E-02 0. -1.
    10030    2    1    2    0    0  0.00000000000E+00  0.00000000000E+00 -0.15272109650E+04  0.35659498405E+04  0.32223632529E+04 0.  0.
        3    1    3    3  502    0  0.12432337430E+04  0.72869601059E+03 -0.15610505613E+04  0.21245015605E+04  0.10100000352E+00 0. -1.
       -3    1    3    3    0  502 -0.12432337430E+04 -0.72869601059E+03  0.33839596276E+02  0.14414482800E+04  0.10100000352E+00 0.  1.
</event>
<event>
 5   0  0.8512855E-07  0.3204109E+04  0.7818609E-02  0.8187733E-01
       -1   -1    0    0    0  501  0.00000000000E+00  0.00000000000E+00  0.10516499190E+04  0.10516499190E+04  0.50400001928E-02 0.  1.
        1   -1    0    0  501    0  0.00000000000E+00  0.00000000000E+00 -0.24405254966E+04  0.24405254966E+04  0.50400001928E-02 0. -1.
    10030    2    1    2    0    0  0.00000000000E+00  0.00000000000E+00 -0.13888755776E+04  0.34921754157E+04  0.32041088876E+04 0.  0.
        5    1    3    3  502    0  0.12633325057E+04 -0.43815244721E+03  0.26725763808E+03  0.13636111330E+04  0.46999998093E+01 0.  1.
       -5    1    3    3    0  502 -0.12633325057E+04  0.43815244721E+03 -0.16561332157E+04  0.21285642826E+04  0.46999998093E+01 0. -1.
</event>
<event>
 5   0  0.2337504E-06  0.3202859E+04  0.7818609E-02  0.8188063E-01
       -2   -1    0    0    0  501  0.00000000000E+00  0.00000000000E+00  0.15230254651E+04  0.15230254651E+04  0.25500000920E-02 0. -1.
        2   -1    0    0  501    0  0.00000000000E+00  0.00000000000E+00 -0.16838693535E+04  0.16838693535E+04  0.25500000920E-02 0.  1.
    10030    2    1    2    0    0  0.00000000000E+00  0.00000000000E+00 -0.16084388846E+03  0.32068948186E+04  0.32028586640E+04 0.  0.
        1    1    3    3  502    0  0.13151723071E+04  0.61936498345E+03 -0.75304578793E+03  0.16371832942E+04  0.50400001928E-02 0.  1.
       -1    1    3    3    0  502 -0.13151723071E+04 -0.61936498345E+03  0.59220189947E+03  0.15697115244E+04  0.50400001928E-02 0. -1.
</event>
<event>
 5   0  0.8681172E-07  0.3193923E+04  0.7818609E-02  0.8190424E-01
       -1   -1    0    0    0  501  0.00000000000E+00  0.00000000000E+00  0.16668358445E+04  0.16668358445E+04  0.50400001928E-02 0.  1.
        1   -1    0    0  501    0  0.00000000000E+00  0.00000000000E+00 -0.15300159956E+04  0.15300159956E+04  0.50400001928E-02 0. -1.
    10030    2    1    2    0    0  0.00000000000E+00  0.00000000000E+00  0.13681984890E+03  0.31968518400E+04  0.31939226691E+04 0.  0.
        1    1    3    3  502    0  0.40436683087E+03  0.14776997220E+04  0.51957435339E+03  0.16177349941E+04  0.50400001928E-02 0. -1.
       -1    1    3    3    0  502 -0.40436683087E+03 -0.14776997220E+04 -0.38275450449E+03  0.15791168459E+04  0.50400001928E-02 0.  1.
</event>
<event>
 5   0  0.2621528E-06  0.3191610E+04  0.7818609E-02  0.8191037E-01
        2   -1    0    0  501    0  0.00000000000E+00  0.00000000000E+00  0.18290022003E+04  0.18290022003E+04  0.25500000920E-02 0.  1.
       -2   -1    0    0    0  501  0.00000000000E+00  0.00000000000E+00 -0.13923400346E+04  0.13923400346E+04  0.25500000920E-02 0. -1.
    10030    2    1    2    0    0  0.00000000000E+00  0.00000000000E+00  0.43666216572E+03  0.32213422348E+04  0.31916096170E+04 0.  0.
        2    1    3    3  502    0 -0.65268175263E+03  0.27324423194E+03  0.16620187322E+04  0.18063671130E+04  0.25500000920E-02 0.  1.
       -2    1    3    3    0  502  0.65268175263E+03 -0.27324423194E+03 -0.12253565665E+04  0.14149751219E+04  0.25500000920E-02 0. -1.
</event>
<event>
 5   0  0.8545153E-07  0.3355441E+04  0.7818609E-02  0.8148930E-01
        1   -1    0    0  501    0  0.00000000000E+00  0.00000000000E+00  0.11328120072E+04  0.11328120072E+04  0.50400001928E-02 0. -1.
       -1   -1    0    0    0  501  0.00000000000E+00  0.00000000000E+00 -0.24847419913E+04  0.24847419913E+04  0.50400001928E-02 0.  1.
    10030    2    1    2    0    0  0.00000000000E+00  0.00000000000E+00 -0.13519299841E+04  0.36175539986E+04  0.33554406939E+04 0.  0.
        3    1    3    3  502    0  0.14824619205E+04 -0.75086869009E+03 -0.42718307753E+03  0.17158037555E+04  0.10100000352E+00 0. -1.
       -3    1    3    3    0  502 -0.14824619205E+04  0.75086869009E+03 -0.92474690657E+03  0.19017502430E+04  0.10100000352E+00 0.  1.
</event>
<event>
 5   0  0.2404430E-06  0.3127966E+04  0.7818609E-02  0.8208105E-01
        2   -1    0    0  501    0  0.00000000000E+00  0.00000000000E+00  0.31093807392E+04  0.31093807392E+04  0.25500000920E-02 0.  1.
       -2   -1    0    0    0  501  0.00000000000E+00  0.00000000000E+00 -0.78666546194E+03  0.78666546195E+03  0.25500000920E-02 0. -1.
    10030    2    1    2    0    0  0.00000000000E+00  0.00000000000E+00  0.23227152772E+04  0.38960462011E+04  0.31279657514E+04 0.  0.
        4    1    3    3  502    0  0.11453436674E+04  0.88684816496E+03  0.42687321686E+03  0.15101437482E+04  0.12699999809E+01 0. -1.
       -4    1    3    3    0  502 -0.11453436674E+04 -0.88684816496E+03  0.18958420604E+04  0.23859024529E+04  0.12699999809E+01 0.  1.
</event>
<event>
 5   0  0.2337504E-06  0.3170100E+04  0.7818609E-02  0.8196758E-01
       -2   -1    0    0    0  501  0.00000000000E+00  0.00000000000E+00  0.84982402712E+03  0.84982402713E+03  0.25500000920E-02 0.  1.
        2   -1    0    0  501    0  0.00000000000E+00  0.00000000000E+00 -0.29563582154E+04  0.29563582154E+04  0.25500000920E-02 0. -1.
    10030    2    1    2    0    0  0.00000000000E+00  0.00000000000E+00 -0.21065341883E+04  0.38061822426E+04  0.31701004680E+04 0.  0.
        1    1    3    3  502    0 -0.14447053593E+04  0.16342772056E+03 -0.29533232179E+03  0.14836115986E+04  0.50400001928E-02 0.  1.
       -1    1    3    3    0  502  0.14447053593E+04 -0.16342772056E+03 -0.18112018665E+04  0.23225706440E+04  0.50400001928E-02 0. -1.
</event>
<event>
 5   0  0.8545153E-07  0.3187304E+04  0.7818609E-02  0.8192178E-01
        1   -1    0    0  501    0  0.00000000000E+00  0.00000000000E+00  0.27322232095E+04  0.27322232095E+04  0.50400001928E-02 0. -1.
       -1   -1    0    0    0  501  0.00000000000E+00  0.00000000000E+00 -0.92954565059E+03  0.92954565060E+03  0.50400001928E-02 0.  1.
    10030    2    1    2    0    0  0.00000000000E+00  0.00000000000E+00  0.18026775589E+04  0.36617688601E+04  0.31873036886E+04 0.  0.
        3    1    3    3  502    0 -0.10308189541E+04 -0.89809976895E+03 -0.39434069089E+02  0.13677448473E+04  0.10100000352E+00 0.  1.
       -3    1    3    3    0  502  0.10308189541E+04  0.89809976895E+03  0.18421116280E+04  0.22940240128E+04  0.10100000352E+00 0. -1.
</event>
<event>
 5   0  0.8512855E-07  0.3192485E+04  0.7818609E-02  0.8190805E-01
        1   -1    0    0  501    0  0.00000000000E+00  0.00000000000E+00  0.12790414810E+04  0.12790414810E+04  0.50400001928E-02 0. -1.
       -1   -1    0    0    0  501  0.00000000000E+00  0.00000000000E+00 -0.19921087066E+04  0.19921087066E+04  0.50400001928E-02 0.  1.
    10030    2    1    2    0    0  0.00000000000E+00  0.00000000000E+00 -0.71306722560E+03  0.32711501876E+04  0.31924847190E+04 0.  0.
        5    1    3    3  502    0 -0.49997534012E+03 -0.14627925140E+04 -0.76411700887E+03  0.17244228521E+04  0.46999998093E+01 0.  1.
       -5    1    3    3    0  502  0.49997534012E+03  0.14627925140E+04  0.51049783273E+02  0.15467273354E+04  0.46999998093E+01 0. -1.
</event>
<event>
 5   0  0.8545153E-07  0.2617977E+04  0.7818609E-02  0.8362120E-01
       -1   -1    0    0    0  501  0.00000000000E+00  0.00000000000E+00  0.89675624886E+03  0.89675624888E+03  0.50400001928E-02 0.  1.
        1   -1    0    0  501    0  0.00000000000E+00  0.00000000000E+00 -0.19107204407E+04  0.19107204408E+04  0.50400001928E-02 0. -1.
    10030    2    1    2    0    0  0.00000000000E+00  0.00000000000E+00 -0.10139641919E+04  0.28074766896E+04  0.26179766959E+04 0.  0.
        3    1    3    3  502    0 -0.10749267889E+04  0.26169726238E+03 -0.12572659300E+04  0.16747151064E+04  0.10100000352E+00 0. -1.
       -3    1    3    3    0  502  0.10749267889E+04 -0.26169726238E+03  0.24330173809E+03  0.11327615833E+04  0.10100000352E+00 0.  1.
</event>
<event>
 5   0  0.7934375E-07  0.3151352E+04  0.7818609E-02  0.8201785E-01
       -3   -1    0    0    0  501  0.00000000000E+00  0.00000000000E+00  0.15684248565E+04  0.15684248598E+04  0.10100000352E+00 0. -1.
        3   -1    0    0  501    0  0.00000000000E+00  0.00000000000E+00 -0.15829601709E+04  0.15829601741E+04  0.10100000352E+00 0.  1.
    10030    2    1    2    0    0  0.00000000000E+00  0.00000000000E+00 -0.14535314411E+02  0.31513850339E+04  0.31513515127E+04 0.  0.
        2    1    3    3  502    0  0.36987926967E+03  0.60529989055E+03  0.13997140666E+04  0.15692030142E+04  0.25500000920E-02 0. -1.
       -2    1    3    3    0  502 -0.36987926967E+03 -0.60529989055E+03 -0.14142493810E+04  0.15821820197E+04  0.25500000920E-02 0.  1.
</event>
<event>
 5   0  0.2621528E-06  0.3169477E+04  0.7818609E-02  0.8196925E-01
       -2   -1    0    0    0  501  0.00000000000E+00  0.00000000000E+00  0.15821886230E+04  0.15821886230E+04  0.25500000920E-02 0.  1.
        2   -1    0    0  501    0  0.00000000000E+00  0.00000000000E+00 -0.15872922915E+04  0.15872922915E+04  0.25500000920E-02 0. -1.
    10030    2    1    2    0    0  0.00000000000E+00  0.00000000000E+00 -0.51036685280E+01  0.31694809146E+04  0.31694768055E+04 0.  0.
        2    1    3    3  502    0 -0.53599408388E+03 -0.34466605467E+03 -0.14535228597E+04  0.15870768888E+04  0.25500000920E-02 0. -1.
       -2    1    3    3    0  502  0.53599408388E+03  0.34466605467E+03  0.14484191912E+04  0.15824040257E+04  0.25500000920E-02 0.  1.
</event>
<event>
 5   0  0.8545153E-07  0.3235861E+04  0.7818609E-02  0.8179410E-01
       -1   -1    0    0    0  501  0.00000000000E+00  0.00000000000E+00  0.14609261890E+04  0.14609261890E+04  0.50400001928E-02 0. -1.
        1   -1    0    0  501    0  0.00000000000E+00  0.00000000000E+00 -0.17918082848E+04  0.17918082848E+04  0.50400001928E-02 0.  1.
    10030    2    1    2    0    0  0.00000000000E+00  0.00000000000E+00 -0.33088209579E+03  0.32527344738E+04  0.32358613375E+04 0.  0.
        3    1    3    3  502    0 -0.97441253199E+03 -0.89975752891E+03  0.76602788823E+03  0.15316142233E+04  0.10100000352E+00 0. -1.
       -3    1    3    3    0  502  0.97441253199E+03  0.89975752891E+03 -0.10969099840E+04  0.17211202505E+04  0.10100000352E+00 0.  1.
</event>
<event>
 5   0  0.2337504E-06  0.3268685E+04  0.7818609E-02  0.8170910E-01
       -2   -1    0    0    0  501  0.00000000000E+00  0.00000000000E+00  0.21966951962E+04  0.21966951962E+04  0.25500000920E-02 0. -1.
        2   -1    0    0  501    0  0.00000000000E+00  0.00000000000E+00 -0.12159517624E+04  0.12159517624E+04  0.25500000920E-02 0.  1.
    10030    2    1    2    0    0  0.00000000000E+00  0.00000000000E+00  0.98074343386E+03  0.34126469586E+04  0.32686849926E+04 0.  0.
        1    1    3    3  502    0  0.11039586196E+03 -0.16301116344E+04  0.53244817238E+03  0.17184156201E+04  0.50400001928E-02 0. -1.
       -1    1    3    3    0  502 -0.11039586196E+03  0.16301116344E+04  0.44829526147E+03  0.16942313385E+04  0.50400001928E-02 0.  1.
</event>
<event>
 5   0  0.2404430E-06  0.3207168E+04  0.7818609E-02  0.8186927E-01
       -2   -1    0    0    0  501  0.00000000000E+00  0.00000000000E+00  0.16905405798E+04  0.16905405798E+04  0.25500000920E-02 0.  1.
        2   -1    0    0  501    0  0.00000000000E+00  0.00000000000E+00 -0.15210998438E+04  0.15210998438E+04  0.25500000920E-02 0. -1.
    10030    2    1    2    0    0  0.00000000000E+00  0.00000000000E+00  0.16944073607E+03  0.32116404236E+04  0.32071676051E+04 0.  0.
        4    1    3    3  502    0 -0.10670852581E+04 -0.44459643541E+03  0.11976399523E+04  0.16645359734E+04  0.12699999809E+01 0.  1.
       -4    1    3    3    0  502  0.10670852581E+04  0.44459643541E+03 -0.10281992163E+04  0.15471044502E+04  0.12699999809E+01 0. -1.
</event>
<event>
 5   0  0.8512855E-07  0.3186720E+04  0.7818609E-02  0.8192333E-01
        1   -1    0    0  501    0  0.00000000000E+00  0.00000000000E+00  0.18733041960E+04  0.18733041960E+04  0.50400001928E-02 0.  1.
       -1   -1    0    0    0  501  0.00000000000E+00  0.00000000000E+00 -0.13552504611E+04  0.13552504611E+04  0.50400001928E-02 0. -1.
    10030    2    1    2    0    0  0.00000000000E+00  0.00000000000E+00  0.51805373492E+03  0.32285546571E+04  0.31867201794E+04 0.  0.
        5    1    3    3  502    0  0.14344621135E+04  0.68195270823E+03  0.38731154267E+03  0.16348618818E+04  0.46999998093E+01 0.  1.
       -5    1    3    3    0  502 -0.14344621135E+04 -0.68195270823E+03  0.13074219225E+03  0.15936927753E+04  0.46999998093E+01 0. -1.
</event>
<event>
 5   0  0.2466076E-06  0.3186678E+04  0.7818609E-02  0.8192344E-01
        2   -1    0    0  501    0  0.00000000000E+00  0.00000000000E+00  0.27638787308E+04  0.27638787309E+04  0.25500000920E-02 0.  1.
       -2   -1    0    0    0  501  0.00000000000E+00  0.00000000000E+00 -0.91853849082E+03  0.91853849083E+03  0.25500000920E-02 0. -1.
    10030    2    1    2    0    0  0.00000000000E+00  0.00000000000E+00  0.18453402400E+04  0.36824172217E+04  0.31866778929E+04 0.  0.
        3    1    3    3  502    0 -0.66375080589E+03  0.11234876876E+03 -0.74612974142E+03  0.10049363061E+04  0.10100000352E+00 0. -1.
       -3    1    3    3    0  502  0.66375080589E+03 -0.11234876876E+03  0.25914699814E+04  0.26774809155E+04  0.10100000352E+00 0.  1.
</event>
<event>
 5   0  0.2466076E-06  0.3209542E+04  0.7818609E-02  0.8186302E-01
        2   -1    0    0  501    0  0.00000000000E+00  0.00000000000E+00  0.25332103363E+04  0.25332103363E+04  0.25500000920E-02 0. -1.
       -2   -1    0    0    0  501  0.00000000000E+00  0.00000000000E+00 -0.10166114876E+04  0.10166114876E+04  0.25500000920E-02 0.  1.
    10030    2    1    2    0    0  0.00000000000E+00  0.00000000000E+00  0.15165988487E+04  0.35498218239E+04  0.32095424772E+04 0.  0.
        3    1    3    3  502    0 -0.87871206994E+03  0.43466165821E+03  0.21635231370E+04  0.23752679920E+04  0.10100000352E+00 0. -1.
       -3    1    3    3    0  502  0.87871206994E+03 -0.43466165821E+03 -0.64692428832E+03  0.11745538319E+04  0.10100000352E+00 0.  1.
</event>
<event>
 5   0  0.8487944E-07  0.3207486E+04  0.7818609E-02  0.8186843E-01
       -1   -1    0    0    0  501  0.00000000000E+00  0.00000000000E+00  0.19992752215E+04  0.19992752215E+04  0.50400001928E-02 0.  1.
        1   -1    0    0  501    0  0.00000000000E+00  0.00000000000E+00 -0.12864621689E+04  0.12864621689E+04  0.50400001928E-02 0. -1.
    10030    2    1    2    0    0  0.00000000000E+00  0.00000000000E+00  0.71281305254E+03  0.32857373904E+04  0.32074862043E+04 0.  0.
        2    1    3    3  502    0 -0.14421143397E+04  0.16602970890E+03 -0.34193759882E+03  0.14913688191E+04  0.25500000920E-02 0.  1.
       -2    1    3    3    0  502  0.14421143397E+04 -0.16602970890E+03  0.10547506514E+04  0.17943685713E+04  0.25500000920E-02 0. -1.
</event>
<event>
 5   0  0.8512855E-07  0.3237871E+04  0.7818609E-02  0.8178887E-01
       -1   -1    0    0    0  501  0.00000000000E+00  0.00000000000E+00  0.15358976696E+04  0.15358976696E+04  0.50400001928E-02 0. -1.
        1   -1    0    0  501    0  0.00000000000E+00  0.00000000000E+00 -0.17064627282E+04  0.17064627282E+04  0.50400001928E-02 0.  1.
    10030    2    1    2    0    0  0.00000000000E+00  0.00000000000E+00 -0.17056505859E+03  0.32423603978E+04  0.32378709841E+04 0.  0.
        5    1    3    3  502    0  0.15667275442E+04  0.35009370006E+03 -0.29468785112E+03  0.16321960104E+04  0.46999998093E+01 0.  1.
       -5    1    3    3    0  502 -0.15667275442E+04 -0.35009370006E+03  0.12412279254E+03  0.16101643874E+04  0.46999998093E+01 0. -1.
</event>
<event>
 5   0  0.8681172E-07  0.3192010E+04  0.7818609E-02  0.8190930E-01
       -1   -1    0    0    0  501  0.00000000000E+00  0.00000000000E+00  0.11386464844E+04  0.11386464844E+04  0.50400001928E-02 0.  1.
        1   -1    0    0  501    0  0.00000000000E+00  0.00000000000E+00 -0.22370705158E+04  0.22370705158E+04  0.50400001928E-02 0. -1.
    10030    2    1    2    0    0  0.00000000000E+00  0.00000000000E+00 -0.10984240314E+04  0.33757170002E+04  0.31920103246E+04 0.  0.
        1    1    3    3  502    0  0.56596982286E+03 -0.10662149591E+04 -0.16533775222E+04  0.20471427431E+04  0.50400001928E-02 0. -1.
       -1    1    3    3    0  502 -0.56596982286E+03  0.10662149591E+04  0.55495349088E+03  0.13285742571E+04  0.50400001928E-02 0.  1.
</event>
<event>
 5   0  0.2401139E-06  0.3210739E+04  0.7818609E-02  0.8185987E-01
        2   -1    0    0  501    0  0.00000000000E+00  0.00000000000E+00  0.18309368180E+04  0.18309368180E+04  0.25500000920E-02 0. -1.
       -2   -1    0    0    0  501  0.00000000000E+00  0.00000000000E+00 -0.14075912118E+04  0.14075912118E+04  0.25500000920E-02 0.  1.
    10030    2    1    2    0    0  0.00000000000E+00  0.00000000000E+00  0.42334560621E+03  0.32385280298E+04  0.32107385907E+04 0.  0.
        5    1    3    3  502    0  0.36492933966E+03 -0.87006313449E+03 -0.10984165686E+04  0.14480070197E+04  0.46999998093E+01 0.  1.
       -5    1    3    3    0  502 -0.36492933966E+03  0.87006313449E+03  0.15217621748E+04  0.17905210101E+04  0.46999998093E+01 0. -1.
</event>
<event>
 5   0  0.2466076E-06  0.3191931E+04  0.7818609E-02  0.8190951E-01
       -2   -1    0    0    0  501  0.00000000000E+00  0.00000000000E+00  0.12431199287E+04  0.12431199287E+04  0.25500000920E-02 0.  1.
        2   -1    0    0  501    0  0.00000000000E+00  0.00000000000E+00 -0.20489620350E+04  0.20489620350E+04  0.25500000920E-02 0. -1.
    10030    2    1    2    0    0  0.00000000000E+00  0.00000000000E+00 -0.80584210631E+03  0.32920819637E+04  0.31919307880E+04 0.  0.
        3    1    3    3  502    0 -0.55891356088E+03 -0.10074382882E+04  0.73617297601E+03  0.13672113713E+04  0.10100000352E+00 0.  1.
       -3    1    3    3    0  502  0.55891356088E+03  0.10074382882E+04 -0.15420150823E+04  0.19248705924E+04  0.10100000352E+00 0. -1.
</event>
<event>
 5   0  0.2404430E-06  0.3167988E+04  0.7818609E-02  0.8197323E-01
        2   -1    0    0  501    0  0.00000000000E+00  0.00000000000E+00  0.19033545138E+04  0.19033545138E+04  0.25500000920E-02 0.  1.
       -2   -1    0    0    0  501  0.00000000000E+00  0.00000000000E+00 -0.13182187361E+04  0.13182187361E+04  0.25500000920E-02 0. -1.
    10030    2    1    2    0    0  0.00000000000E+00  0.00000000000E+00  0.58513577772E+03  0.32215732499E+04  0.31679883722E+04 0.  0.
        4    1    3    3  502    0 -0.65065643158E+03  0.13179874351E+04  0.89297067943E+03  0.17198380500E+04  0.12699999809E+01 0.  1.
       -4    1    3    3    0  502  0.65065643158E+03 -0.13179874351E+04 -0.30783490171E+03  0.15017351999E+04  0.12699999809E+01 0. -1.
</event>
<event>
 5   0  0.2466076E-06  0.3270313E+04  0.7818609E-02  0.8170491E-01
       -2   -1    0    0    0  501  0.00000000000E+00  0.00000000000E+00  0.14312686537E+04  0.14312686537E+04  0.25500000920E-02 0.  1.
        2   -1    0    0  501    0  0.00000000000E+00  0.00000000000E+00 -0.18680882136E+04  0.18680882136E+04  0.25500000920E-02 0. -1.
    10030    2    1    2    0    0  0.00000000000E+00  0.00000000000E+00 -0.43681955989E+03  0.32993568673E+04  0.32703125860E+04 0.  0.
        3    1    3    3  502    0  0.15837826845E+04  0.22914268818E+03  0.12052344664E+03  0.16048052451E+04  0.10100000352E+00 0.  1.
       -3    1    3    3    0  502 -0.15837826845E+04 -0.22914268818E+03 -0.55734300653E+03  0.16945516222E+04  0.10100000352E+00 0. -1.
</event>
<event>
 5   0  0.8512855E-07  0.3184798E+04  0.7818609E-02  0.8192844E-01
       -1   -1    0    0    0  501  0.00000000000E+00  0.00000000000E+00  0.12847745259E+04  0.12847745259E+04  0.50400001928E-02 0.  1.
        1   -1    0    0  501    0  0.00000000000E+00  0.00000000000E+00 -0.19736803152E+04  0.19736803152E+04  0.50400001928E-02 0. -1.
    10030    2    1    2    0    0  0.00000000000E+00  0.00000000000E+00 -0.68890578925E+03  0.32584548411E+04  0.31847977589E+04 0.  0.
        5    1    3    3  502    0  0.56885410195E+03  0.12852412638E+04 -0.11102774884E+04  0.17911388239E+04  0.46999998093E+01 0.  1.
       -5    1    3    3    0  502 -0.56885410195E+03 -0.12852412638E+04  0.42137169910E+03  0.14673160172E+04  0.46999998093E+01 0. -1.
</event>
<event>
 5   0  0.8383008E-07  0.3059173E+04  0.7818609E-02  0.8227033E-01
       -1   -1    0    0    0  501  0.00000000000E+00  0.00000000000E+00  0.11785224724E+04  0.11785224724E+04  0.50400001928E-02 0. -1.
        1   -1    0    0  501    0  0.00000000000E+00  0.00000000000E+00 -0.19852276782E+04  0.19852276782E+04  0.50400001928E-02 0.  1.
    10030    2    1    2    0    0  0.00000000000E+00  0.00000000000E+00 -0.80670520578E+03  0.31637501506E+04  0.30591733731E+04 0.  0.
        4    1    3    3  502    0 -0.22527500225E+03 -0.68417936617E+03 -0.17988442884E+04  0.19377029232E+04  0.12699999809E+01 0.  1.
       -4    1    3    3    0  502  0.22527500225E+03  0.68417936617E+03  0.99213908263E+03  0.12260472274E+04  0.12699999809E+01 0. -1.
</event>
<event>
 5   0  0.8512855E-07  0.3180524E+04  0.7818609E-02  0.8193980E-01
        1   -1    0    0  501    0  0.00000000000E+00  0.00000000000E+00  0.11991182974E+04  0.11991182975E+04  0.50400001928E-02 0. -1.
       -1   -1    0    0    0  501  0.00000000000E+00  0.00000000000E+00 -0.21089944643E+04  0.21089944643E+04  0.50400001928E-02 0.  1.
    10030    2    1    2    0    0  0.00000000000E+00  0.00000000000E+00 -0.90987616683E+03  0.33081127617E+04  0.31805243916E+04 0.  0.
        5    1    3    3  502    0  0.48032461188E+03  0.10800856252E+04  0.65150973159E+03  0.13497346817E+04  0.46999998093E+01 0. -1.
       -5    1    3    3    0  502 -0.48032461188E+03 -0.10800856252E+04 -0.15613858984E+04  0.19583780800E+04  0.46999998093E+01 0.  1.
</event>
<event>
 5   0  0.8383008E-07  0.3205845E+04  0.7818609E-02  0.8187275E-01
        1   -1    0    0  501    0  0.00000000000E+00  0.00000000000E+00  0.18093401254E+04  0.18093401254E+04  0.50400001928E-02 0. -1.
       -1   -1    0    0    0  501  0.00000000000E+00  0.00000000000E+00 -0.14200540767E+04  0.14200540767E+04  0.50400001928E-02 0.  1.
    10030    2    1    2    0    0  0.00000000000E+00  0.00000000000E+00  0.38928604867E+03  0.32293942021E+04  0.32058451748E+04 0.  0.
        4    1    3    3  502    0 -0.43248962198E+03  0.87184231730E+02 -0.13576863822E+04  0.14275721658E+04  0.12699999809E+01 0.  1.
       -4    1    3    3    0  502  0.43248962198E+03 -0.87184231730E+02  0.17469724308E+04  0.18018220363E+04  0.12699999809E+01 0. -1.
</event>
<event>
 5   0  0.2466076E-06  0.3187997E+04  0.7818609E-02  0.8191994E-01
       -2   -1    0    0    0  501  0.00000000000E+00  0.00000000000E+00  0.16868387429E+04  0.16868387429E+04  0.25500000920E-02 0.  1.
        2   -1    0    0  501    0  0.00000000000E+00  0.00000000000E+00 -0.15062676639E+04  0.15062676639E+04  0.25500000920E-02 0. -1.
    10030    2    1    2    0    0  0.00000000000E+00  0.00000000000E+00  0.18057107900E+03  0.31931064068E+04  0.31879966453E+04 0.  0.
        3    1    3    3  502    0  0.12444315176E+04  0.21041990534E+03 -0.88489931136E+03  0.15414062216E+04  0.10100000352E+00 0. -1.
       -3    1    3    3    0  502 -0.12444315176E+04 -0.21041990534E+03  0.10654703904E+04  0.16517001851E+04  0.10100000352E+00 0.  1.
</event>
<event>
 5   0  0.8545153E-07  0.3215554E+04  0.7818609E-02  0.8184721E-01
       -1   -1    0    0    0  501  0.00000000000E+00  0.00000000000E+00  0.22703746367E+04  0.22703746367E+04  0.50400001928E-02 0.  1.
        1   -1    0    0  501    0  0.00000000000E+00  0.00000000000E+00 -0.11385551443E+04  0.11385551443E+04  0.50400001928E-02 0. -1.
    10030    2    1    2    0    0  0.00000000000E+00  0.00000000000E+00  0.11318194924E+04  0.34089297810E+04  0.32155539007E+04 0.  0.
        3    1    3    3  502    0 -0.77359205545E+03 -0.82941687686E+03 -0.64216802184E+03  0.13033636493E+04  0.10100000352E+00 0. -1.
       -3    1    3    3    0  502  0.77359205545E+03  0.82941687686E+03  0.17739875142E+04  0.21055661317E+04  0.10100000352E+00 0.  1.
</event>
<event>
 5   0  0.2401139E-06  0.3187817E+04  0.7818609E-02  0.8192042E-01
        2   -1    0    0  501    0  0.00000000000E+00  0.00000000000E+00  0.18858423314E+04  0.18858423314E+04  0.25500000920E-02 0.  1.
       -2   -1    0    0    0  501  0.00000000000E+00  0.00000000000E+00 -0.13471665070E+04  0.13471665070E+04  0.25500000920E-02 0. -1.
    10030    2    1    2    0    0  0.00000000000E+00  0.00000000000E+00  0.53867582438E+03  0.32330088384E+04  0.31878165733E+04 0.  0.
        5    1    3    3  502    0 -0.53236798530E+02  0.15653569510E+04 -0.30393721884E+02  0.15665638860E+04  0.46999998093E+01 0.  1.
       -5    1    3    3    0  502  0.53236798530E+02 -0.15653569510E+04  0.56906954626E+03  0.16664449523E+04  0.46999998093E+01 0. -1.
</event>
<event>
 5   0  0.2466076E-06  0.3171205E+04  0.7818609E-02  0.8196464E-01
       -2   -1    0    0    0  501  0.00000000000E+00  0.00000000000E+00  0.19090443422E+04  0.19090443422E+04  0.25500000920E-02 0.  1.
        2   -1    0    0  501    0  0.00000000000E+00  0.00000000000E+00 -0.13169598877E+04  0.13169598877E+04  0.25500000920E-02 0. -1.
    10030    2    1    2    0    0  0.00000000000E+00  0.00000000000E+00  0.59208445446E+03  0.32260042300E+04  0.31712047065E+04 0.  0.
        3    1    3    3  502    0 -0.12289136635E+04  0.53245108864E+03 -0.56738962800E+03  0.14545322115E+04  0.10100000352E+00 0. -1.
       -3    1    3    3    0  502  0.12289136635E+04 -0.53245108864E+03  0.11594740825E+04  0.17714720185E+04  0.10100000352E+00 0.  1.
</event>
<event>
 5   0  0.8545153E-07  0.3233812E+04  0.7818609E-02  0.8179944E-01
       -1   -1    0    0    0  501  0.00000000000E+00  0.00000000000E+00  0.25811877938E+04  0.25811877938E+04  0.50400001928E-02 0. -1.
        1   -1    0    0  501    0  0.00000000000E+00  0.00000000000E+00 -0.10128614821E+04  0.10128614821E+04  0.50400001928E-02 0.  1.
    10030    2    1    2    0    0  0.00000000000E+00  0.00000000000E+00  0.15683263117E+04  0.35940492759E+04  0.32338124216E+04 0.  0.
        3    1    3    3  502    0  0.41379441305E+03  0.91195637411E+03 -0.62669626581E+03  0.11813714337E+04  0.10100000352E+00 0.  1.
       -3    1    3    3    0  502 -0.41379441305E+03 -0.91195637411E+03  0.21950225775E+04  0.24126778422E+04  0.10100000352E+00 0. -1.
</event>
<event>
 5   0  0.2404430E-06  0.3203715E+04  0.7818609E-02  0.8187837E-01
       -2   -1    0    0    0  501  0.00000000000E+00  0.00000000000E+00  0.14163023024E+04  0.14163023024E+04  0.25500000920E-02 0. -1.
        2   -1    0    0  501    0  0.00000000000E+00  0.00000000000E+00 -0.18117227895E+04  0.18117227895E+04  0.25500000920E-02 0.  1.
    10030    2    1    2    0    0  0.00000000000E+00  0.00000000000E+00 -0.39542048708E+03  0.32280250919E+04  0.32037148176E+04 0.  0.
        4    1    3    3  502    0 -0.84202196576E+02  0.80921783860E+03 -0.15880438995E+04  0.17843229976E+04  0.12699999809E+01 0.  1.
       -4    1    3    3    0  502  0.84202196576E+02 -0.80921783860E+03  0.11926234124E+04  0.14437020943E+04  0.12699999809E+01 0. -1.
</event>
<event>
 5   0  0.7934375E-07  0.3215951E+04  0.7818609E-02  0.8184617E-01
        4   -1    0    0  501    0  0.00000000000E+00  0.00000000000E+00  0.14575589615E+04  0.14575595148E+04  0.12699999809E+01 0. -1.
       -4   -1    0    0    0  501  0.00000000000E+00  0.00000000000E+00 -0.17739136548E+04  0.17739141094E+04  0.12699999809E+01 0.  1.
    10030    2    1    2    0    0  0.00000000000E+00  0.00000000000E+00 -0.31635469334E+03  0.32314736242E+04  0.32159511022E+04 0.  0.
        2    1    3    3  502    0 -0.27599420008E+03 -0.36628699364E+03 -0.17067996658E+04  0.17673437864E+04  0.25500000920E-02 0.  1.
       -2    1    3    3    0  502  0.27599420008E+03  0.36628699364E+03  0.13904449725E+04  0.14641298377E+04  0.25500000920E-02 0. -1.
</event>
<event>
 5   0  0.8487944E-07  0.3311640E+04  0.7818609E-02  0.8159940E-01
       -1   -1    0    0    0  501  0.00000000000E+00  0.00000000000E+00  0.12106571523E+04  0.12106571523E+04  0.50400001928E-02 0.  1.
        1   -1    0    0  501    0  0.00000000000E+00  0.00000000000E+00 -0.22646712144E+04  0.22646712144E+04  0.50400001928E-02 0. -1.
    10030    2    1    2    0    0  0.00000000000E+00  0.00000000000E+00 -0.10540140621E+04  0.34753283667E+04  0.33116403207E+04 0.  0.
        2    1    3    3  502    0  0.29948882134E+03  0.33706068220E+02 -0.22356457231E+04  0.22558682258E+04  0.25500000920E-02 0. -1.
       -2    1    3    3    0  502 -0.29948882134E+03 -0.33706068220E+02  0.11816316609E+04  0.12194601409E+04  0.25500000920E-02 0.  1.
</event>
<event>
 5   0  0.8383008E-07  0.3184824E+04  0.7818609E-02  0.8192837E-01
       -1   -1    0    0    0  501  0.00000000000E+00  0.00000000000E+00  0.10968451851E+04  0.10968451851E+04  0.50400001928E-02 0. -1.
        1   -1    0    0  501    0  0.00000000000E+00  0.00000000000E+00 -0.23118813263E+04  0.23118813263E+04  0.50400001928E-02 0.  1.
    10030    2    1    2    0    0  0.00000000000E+00  0.00000000000E+00 -0.12150361412E+04  0.34087265114E+04  0.31848239520E+04 0.  0.
        4    1    3    3  502    0 -0.73982264401E+02 -0.12784622116E+04 -0.16205445795E+04  0.20654552401E+04  0.12699999809E+01 0.  1.
       -4    1    3    3    0  502  0.73982264401E+02  0.12784622116E+04  0.40550843827E+03  0.13432712713E+04  0.12699999809E+01 0. -1.
</event>
<event>
 5   0  0.8545153E-07  0.3205873E+04  0.7818609E-02  0.8187268E-01
       -1   -1    0    0    0  501  0.00000000000E+00  0.00000000000E+00  0.11270653670E+04  0.11270653670E+04  0.50400001928E-02 0.  1.
        1   -1    0    0  501    0  0.00000000000E+00  0.00000000000E+00 -0.22797302537E+04  0.22797302537E+04  0.50400001928E-02 0. -1.
    10030    2    1    2    0    0  0.00000000000E+00  0.00000000000E+00 -0.11526648867E+04  0.34067956207E+04  0.32058727455E+04 0.  0.
        3    1    3    3  502    0 -0.40084196668E+02 -0.96831636059E+03  0.78046539178E+03  0.12443349850E+04  0.10100000352E+00 0.  1.
       -3    1    3    3    0  502  0.40084196668E+02  0.96831636059E+03 -0.19331302785E+04  0.21624606357E+04  0.10100000352E+00 0. -1.
</event>
<event>
 5   0  0.8512855E-07  0.3165743E+04  0.7818609E-02  0.8197923E-01
        1   -1    0    0  501    0  0.00000000000E+00  0.00000000000E+00  0.14328771502E+04  0.14328771502E+04  0.50400001928E-02 0. -1.
       -1   -1    0    0    0  501  0.00000000000E+00  0.00000000000E+00 -0.17485676797E+04  0.17485676797E+04  0.50400001928E-02 0.  1.
    10030    2    1    2    0    0  0.00000000000E+00  0.00000000000E+00 -0.31569052949E+03  0.31814448298E+04  0.31657433084E+04 0.  0.
        5    1    3    3  502    0  0.56672047623E+03  0.63834185194E+03 -0.14974262355E+04  0.17236472489E+04  0.46999998093E+01 0.  1.
       -5    1    3    3    0  502 -0.56672047623E+03 -0.63834185194E+03  0.11817357060E+04  0.14577975809E+04  0.46999998093E+01 0. -1.
</event>
<event>
 5   0  0.2466076E-06  0.3169079E+04  0.7818609E-02  0.8197031E-01
       -2   -1    0    0    0  501  0.00000000000E+00  0.00000000000E+00  0.13515911117E+04  0.13515911117E+04  0.25500000920E-02 0.  1.
        2   -1    0    0  501    0  0.00000000000E+00  0.00000000000E+00 -0.18576363689E+04  0.18576363689E+04  0.25500000920E-02 0. -1.
    10030    2    1    2    0    0  0.00000000000E+00  0.00000000000E+00 -0.50604525722E+03  0.32092274805E+04  0.31690786073E+04 0.  0.
        3    1    3    3  502    0  0.11749828851E+04  0.10581849309E+04 -0.35641739881E+03  0.16209174873E+04  0.10100000352E+00 0. -1.
       -3    1    3    3    0  502 -0.11749828851E+04 -0.10581849309E+04 -0.14962785840E+03  0.15883099932E+04  0.10100000352E+00 0.  1.
</event>
<event>
 5   0  0.8681172E-07  0.3165428E+04  0.7818609E-02  0.8198008E-01
        1   -1    0    0  501    0  0.00000000000E+00  0.00000000000E+00  0.15428706988E+04  0.15428706988E+04  0.50400001928E-02 0. -1.
       -1   -1    0    0    0  501  0.00000000000E+00  0.00000000000E+00 -0.16235865288E+04  0.16235865288E+04  0.50400001928E-02 0.  1.
    10030    2    1    2    0    0  0.00000000000E+00  0.00000000000E+00 -0.80715829984E+02  0.31664572277E+04  0.31654283011E+04 0.  0.
        1    1    3    3  502    0  0.10217138795E+04 -0.24470394668E+02 -0.12492564428E+04  0.16140445198E+04  0.50400001928E-02 0.  1.
       -1    1    3    3    0  502 -0.10217138795E+04  0.24470394668E+02  0.11685406128E+04  0.15524127079E+04  0.50400001928E-02 0. -1.
</event>
<event>
 5   0  0.2337504E-06  0.3180425E+04  0.7818609E-02  0.8194006E-01
       -2   -1    0    0    0  501  0.00000000000E+00  0.00000000000E+00  0.12883335420E+04  0.12883335420E+04  0.25500000920E-02 0. -1.
        2   -1    0    0  501    0  0.00000000000E+00  0.00000000000E+00 -0.19628275148E+04  0.19628275148E+04  0.25500000920E-02 0.  1.
    10030    2    1    2    0    0  0.00000000000E+00  0.00000000000E+00 -0.67449397279E+03  0.32511610568E+04  0.31804254586E+04 0.  0.
        1    1    3    3  502    0  0.12403050146E+04 -0.92434354843E+02  0.67568797242E+03  0.14154345182E+04  0.50400001928E-02 0. -1.
       -1    1    3    3    0  502 -0.12403050146E+04  0.92434354843E+02 -0.13501819452E+04  0.18357265386E+04  0.50400001928E-02 0.  1.
</event>
<event>
 5   0  0.8545153E-07  0.3222470E+04  0.7818609E-02  0.8182908E-01
        1   -1    0    0  501    0  0.00000000000E+00  0.00000000000E+00  0.12416891352E+04  0.12416891352E+04  0.50400001928E-02 0. -1.
       -1   -1    0    0    0  501  0.00000000000E+00  0.00000000000E+00 -0.20907633038E+04  0.20907633038E+04  0.50400001928E-02 0.  1.
    10030    2    1    2    0    0  0.00000000000E+00  0.00000000000E+00 -0.84907416859E+03  0.33324524390E+04  0.32224699090E+04 0.  0.
        3    1    3    3  502    0  0.18008232858E+03  0.27437328271E+03  0.12067574049E+04  0.12505893762E+04  0.10100000352E+00 0. -1.
       -3    1    3    3    0  502 -0.18008232858E+03 -0.27437328271E+03 -0.20558315735E+04  0.20818630628E+04  0.10100000352E+00 0.  1.
</event>
<event>
 5   0  0.8487944E-07  0.3234044E+04  0.7818609E-02  0.8179884E-01
        1   -1    0    0  501    0  0.00000000000E+00  0.00000000000E+00  0.19261228005E+04  0.19261228005E+04  0.50400001928E-02 0.  1.
       -1   -1    0    0    0  501  0.00000000000E+00  0.00000000000E+00 -0.13575252077E+04  0.13575252077E+04  0.50400001928E-02 0. -1.
    10030    2    1    2    0    0  0.00000000000E+00  0.00000000000E+00  0.56859759278E+03  0.32836480082E+04  0.32340440657E+04 0.  0.
        2    1    3    3  502    0 -0.14260612379E+04  0.75800790353E+03  0.20222820713E+03  0.16276126333E+04  0.25500000920E-02 0. -1.
       -2    1    3    3    0  502  0.14260612379E+04 -0.75800790353E+03  0.36636938566E+03  0.16560353749E+04  0.25500000920E-02 0.  1.
</event>
<event>
 5   0  0.8512855E-07  0.3269260E+04  0.7818609E-02  0.8170762E-01
        1   -1    0    0  501    0  0.00000000000E+00  0.00000000000E+00  0.16553166361E+04  0.16553166361E+04  0.50400001928E-02 0.  1.
       -1   -1    0    0    0  501  0.00000000000E+00  0.00000000000E+00 -0.16142018709E+04  0.16142018709E+04  0.50400001928E-02 0. -1.
    10030    2    1    2    0    0  0.00000000000E+00  0.00000000000E+00  0.41114765210E+02  0.32695185070E+04  0.32692599841E+04 0.  0.
        5    1    3    3  502    0 -0.22348389933E+03 -0.52034499106E+03  0.15540700294E+04  0.16540434424E+04  0.46999998093E+01 0.  1.
       -5    1    3    3    0  502  0.22348389933E+03  0.52034499106E+03 -0.15129552642E+04  0.16154750646E+04  0.46999998093E+01 0. -1.
</event>
<event>
 5   0  0.2401139E-06  0.2996912E+04  0.7818609E-02  0.8244613E-01
        2   -1    0    0  501    0  0.00000000000E+00  0.00000000000E+00  0.16079233287E+04  0.16079233287E+04  0.25500000920E-02 0.  1.
       -2   -1    0    0    0  501  0.00000000000E+00  0.00000000000E+00 -0.13964409108E+04  0.13964409108E+04  0.25500000920E-02 0. -1.
    10030    2    1    2    0    0  0.00000000000E+00  0.00000000000E+00  0.21148241782E+03  0.30043642395E+04  0.29969116888E+04 0.  0.
        5    1    3    3  502    0  0.55397497447E+03 -0.11362189319E+04  0.91239495261E+03  0.15589638780E+04  0.46999998093E+01 0.  1.
       -5    1    3    3    0  502 -0.55397497447E+03  0.11362189319E+04 -0.70091253479E+03  0.14454003615E+04  0.46999998093E+01 0. -1.
</event>
<event>
 5   0  0.2401139E-06  0.3200782E+04  0.7818609E-02  0.8188611E-01
       -2   -1    0    0    0  501  0.00000000000E+00  0.00000000000E+00  0.13565338275E+04  0.13565338275E+04  0.25500000920E-02 0. -1.
        2   -1    0    0  501    0  0.00000000000E+00  0.00000000000E+00 -0.18880851498E+04  0.18880851498E+04  0.25500000920E-02 0.  1.
    10030    2    1    2    0    0  0.00000000000E+00  0.00000000000E+00 -0.53155132224E+03  0.32446189773E+04  0.32007820138E+04 0.  0.
        5    1    3    3  502    0  0.38215946078E+03 -0.11026688593E+03 -0.18371755515E+04  0.18797448594E+04  0.46999998093E+01 0.  1.
       -5    1    3    3    0  502 -0.38215946078E+03  0.11026688593E+03  0.13056242292E+04  0.13648741179E+04  0.46999998093E+01 0. -1.
</event>
<event>
 5   0  0.2401139E-06  0.3184820E+04  0.7818609E-02  0.8192838E-01
        2   -1    0    0  501    0  0.00000000000E+00  0.00000000000E+00  0.16428826593E+04  0.16428826593E+04  0.25500000920E-02 0.  1.
       -2   -1    0    0    0  501  0.00000000000E+00  0.00000000000E+00 -0.15434882296E+04  0.15434882296E+04  0.25500000920E-02 0. -1.
    10030    2    1    2    0    0  0.00000000000E+00  0.00000000000E+00  0.99394429704E+02  0.31863708888E+04  0.31848202757E+04 0.  0.
        5    1    3    3  502    0 -0.35487393873E+03  0.12841859038E+04  0.92229099341E+03  0.16204047996E+04  0.46999998093E+01 0.  1.
       -5    1    3    3    0  502  0.35487393873E+03 -0.12841859038E+04 -0.82289656371E+03  0.15659660892E+04  0.46999998093E+01 0. -1.
</event>
<event>
 5   0  0.8383008E-07  0.3182247E+04  0.7818609E-02  0.8193522E-01
       -1   -1    0    0    0  501  0.00000000000E+00  0.00000000000E+00  0.13024587067E+04  0.13024587067E+04  0.50400001928E-02 0.  1.
        1   -1    0    0  501    0  0.00000000000E+00  0.00000000000E+00 -0.19437646720E+04  0.19437646720E+04  0.50400001928E-02 0. -1.
    10030    2    1    2    0    0  0.00000000000E+00  0.00000000000E+00 -0.64130596532E+03  0.32462233788E+04  0.31822465152E+04 0.  0.
        4    1    3    3  502    0 -0.87338018694E+03 -0.38766594270E+03 -0.16184701490E+04  0.18795012823E+04  0.12699999809E+01 0. -1.
       -4    1    3    3    0  502  0.87338018694E+03  0.38766594270E+03  0.97716418372E+03  0.13667220964E+04  0.12699999809E+01 0.  1.
</event>
<event>
 5   0  0.2621528E-06  0.3114466E+04  0.7818609E-02  0.8211779E-01
       -2   -1    0    0    0  501  0.00000000000E+00  0.00000000000E+00  0.10356943487E+04  0.10356943487E+04  0.25500000920E-02 0.  1.
        2   -1    0    0  501    0  0.00000000000E+00  0.00000000000E+00 -0.23414002151E+04  0.23414002151E+04  0.25500000920E-02 0. -1.
    10030    2    1    2    0    0  0.00000000000E+00  0.00000000000E+00 -0.13057058664E+04  0.33770945638E+04  0.31144662277E+04 0.  0.
        2    1    3    3  502    0 -0.44635154245E+03 -0.70393607929E+03  0.77344472070E+03  0.11370894596E+04  0.25500000920E-02 0.  1.
       -2    1    3    3    0  502  0.44635154245E+03  0.70393607929E+03 -0.20791505870E+04  0.22400051042E+04  0.25500000920E-02 0. -1.
</event>
<event>
 5   0  0.2466076E-06  0.3196219E+04  0.7818609E-02  0.8189816E-01
        2   -1    0    0  501    0  0.00000000000E+00  0.00000000000E+00  0.13299361289E+04  0.13299361289E+04  0.25500000920E-02 0.  1.
       -2   -1    0    0    0  501  0.00000000000E+00  0.00000000000E+00 -0.19203583903E+04  0.19203583903E+04  0.25500000920E-02 0. -1.
    10030    2    1    2    0    0  0.00000000000E+00  0.00000000000E+00 -0.59042226132E+03  0.32502945192E+04  0.31962190186E+04 0.  0.
        3    1    3    3  502    0 -0.62799705070E+03 -0.13372352489E+04 -0.91492734578E+03  0.17377199040E+04  0.10100000352E+00 0. -1.
       -3    1    3    3    0  502  0.62799705070E+03  0.13372352489E+04  0.32450508446E+03  0.15125746152E+04  0.10100000352E+00 0.  1.
</event>
<event>
 5   0  0.8545153E-07  0.3170952E+04  0.7818609E-02  0.8196531E-01
       -1   -1    0    0    0  501  0.00000000000E+00  0.00000000000E+00  0.12396262990E+04  0.12396262990E+04  0.50400001928E-02 0. -1.
        1   -1    0    0  501    0  0.00000000000E+00  0.00000000000E+00 -0.20278165056E+04  0.20278165057E+04  0.50400001928E-02 0.  1.
    10030    2    1    2    0    0  0.00000000000E+00  0.00000000000E+00 -0.78819020663E+03  0.32674428047E+04  0.31709523301E+04 0.  0.
        3    1    3    3  502    0 -0.13569052065E+04  0.70982966668E+03  0.29115179138E+02  0.15316323315E+04  0.10100000352E+00 0. -1.
       -3    1    3    3    0  502  0.13569052065E+04 -0.70982966668E+03 -0.81730538577E+03  0.17358104732E+04  0.10100000352E+00 0.  1.
</event>
<event>
 5   0  0.2466076E-06  0.2581476E+04  0.7818609E-02  0.8374521E-01
       -2   -1    0    0    0  501  0.00000000000E+00  0.00000000000E+00  0.25550139233E+04  0.25550139233E+04  0.25500000920E-02 0. -1.
        2   -1    0    0  501    0  0.00000000000E+00  0.00000000000E+00 -0.65205290323E+03  0.65205290324E+03  0.25500000920E-02 0.  1.
    10030    2    1    2    0    0  0.00000000000E+00  0.00000000000E+00  0.19029610201E+04  0.32070668265E+04  0.25814757380E+04 0.  0.
        3    1    3    3  502    0  0.47619073798E+03 -0.11723823075E+04  0.63531488671E+03  0.14159318167E+04  0.10100000352E+00 0.  1.
       -3    1    3    3    0  502 -0.47619073798E+03  0.11723823075E+04  0.12676461333E+04  0.17911350099E+04  0.10100000352E+00 0. -1.
</event>
<event>
 5   0  0.8383008E-07  0.2889228E+04  0.7818609E-02  0.8276090E-01
       -1   -1    0    0    0  501  0.00000000000E+00  0.00000000000E+00  0.15613859901E+04  0.15613859901E+04  0.50400001928E-02 0. -1.
        1   -1    0    0  501    0  0.00000000000E+00  0.00000000000E+00 -0.13365747793E+04  0.13365747793E+04  0.50400001928E-02 0.  1.
    10030    2    1    2    0    0  0.00000000000E+00  0.00000000000E+00  0.22481121075E+03  0.28979607694E+04  0.28892276720E+04 0.  0.
        4    1    3    3  502    0  0.10896083148E+04 -0.56458213954E+03  0.87688275449E+03  0.15082852018E+04  0.12699999809E+01 0. -1.
       -4    1    3    3    0  502 -0.10896083148E+04  0.56458213954E+03 -0.65207154374E+03  0.13896755676E+04  0.12699999809E+01 0.  1.
</event>
<event>
 5   0  0.2401139E-06  0.3021763E+04  0.7818609E-02  0.8237544E-01
       -2   -1    0    0    0  501  0.00000000000E+00  0.00000000000E+00  0.16190554487E+04  0.16190554487E+04  0.25500000920E-02 0.  1.
        2   -1    0    0  501    0  0.00000000000E+00  0.00000000000E+00 -0.14099349071E+04  0.14099349071E+04  0.25500000920E-02 0. -1.
    10030    2    1    2    0    0  0.00000000000E+00  0.00000000000E+00  0.20912054158E+03  0.30289903558E+04  0.30217629249E+04 0.  0.
        5    1    3    3  502    0  0.12795544164E+04 -0.68300493540E+03 -0.31951834642E+03  0.14852169235E+04  0.46999998093E+01 0. -1.
       -5    1    3    3    0  502 -0.12795544164E+04  0.68300493540E+03  0.52863888800E+03  0.15437734323E+04  0.46999998093E+01 0.  1.
</event>
<event>
 5   0  0.8545153E-07  0.3220455E+04  0.7818609E-02  0.8183436E-01
        1   -1    0    0  501    0  0.00000000000E+00  0.00000000000E+00  0.20467234401E+04  0.20467234401E+04  0.50400001928E-02 0. -1.
       -1   -1    0    0    0  501  0.00000000000E+00  0.00000000000E+00 -0.12668209679E+04  0.12668209679E+04  0.50400001928E-02 0.  1.
    10030    2    1    2    0    0  0.00000000000E+00  0.00000000000E+00  0.77990247225E+03  0.33135444080E+04  0.32204547315E+04 0.  0.
        3    1    3    3  502    0 -0.13466894017E+04 -0.31453228202E+02 -0.51774572924E+03  0.14431293430E+04  0.10100000352E+00 0.  1.
       -3    1    3    3    0  502  0.13466894017E+04  0.31453228202E+02  0.12976482015E+04  0.18704150650E+04  0.10100000352E+00 0. -1.
</event>
<event>
 5   0  0.2621528E-06  0.3229821E+04  0.7818609E-02  0.8180986E-01
        2   -1    0    0  501    0  0.00000000000E+00  0.00000000000E+00  0.12865471125E+04  0.12865471125E+04  0.25500000920E-02 0.  1.
       -2   -1    0    0    0  501  0.00000000000E+00  0.00000000000E+00 -0.20270810692E+04  0.20270810692E+04  0.25500000920E-02 0. -1.
    10030    2    1    2    0    0  0.00000000000E+00  0.00000000000E+00 -0.74053395665E+03  0.33136281817E+04  0.32298206120E+04 0.  0.
        2    1    3    3  502    0  0.85138354686E+03  0.69416320803E+03 -0.15847133735E+04  0.19282201584E+04  0.25500000920E-02 0. -1.
       -2    1    3    3    0  502 -0.85138354686E+03 -0.69416320803E+03  0.84417941684E+03  0.13854080233E+04  0.25500000920E-02 0.  1.
</event>
<event>
 5   0  0.8512855E-07  0.3206144E+04  0.7818609E-02  0.8187196E-01
       -1   -1    0    0    0  501  0.00000000000E+00  0.00000000000E+00  0.11363021735E+04  0.11363021735E+04  0.50400001928E-02 0.  1.
        1   -1    0    0  501    0  0.00000000000E+00  0.00000000000E+00 -0.22615813548E+04  0.22615813548E+04  0.50400001928E-02 0. -1.
    10030    2    1    2    0    0  0.00000000000E+00  0.00000000000E+00 -0.11252791813E+04  0.33978835282E+04  0.32061439824E+04 0.  0.
        5    1    3    3  502    0  0.12588174828E+04 -0.70631774037E+03 -0.13017047716E+04  0.19436984354E+04  0.46999998093E+01 0. -1.
       -5    1    3    3    0  502 -0.12588174828E+04  0.70631774037E+03  0.17642559028E+03  0.14541850929E+04  0.46999998093E+01 0.  1.
</event>
<event>
 5   0  0.8487944E-07  0.3177015E+04  0.7818609E-02  0.8194914E-01
        1   -1    0    0  501    0  0.00000000000E+00  0.00000000000E+00  0.25736518752E+04  0.25736518752E+04  0.50400001928E-02 0. -1.
       -1   -1    0    0    0  501  0.00000000000E+00  0.00000000000E+00 -0.98045766550E+03  0.98045766551E+03  0.50400001928E-02 0.  1.
    10030    2    1    2    0    0  0.00000000000E+00  0.00000000000E+00  0.15931942097E+04  0.35541095407E+04  0.31770153978E+04 0.  0.
        2    1    3    3  502    0  0.79578272566E+03  0.10680846037E+04 -0.17175676719E+03  0.13429725441E+04  0.25500000920E-02 0.  1.
       -2    1    3    3    0  502 -0.79578272566E+03 -0.10680846037E+04  0.17649509769E+04  0.22111369966E+04  0.25500000920E-02 0. -1.
</event>
<event>
 5   0  0.8512855E-07  0.3186781E+04  0.7818609E-02  0.8192317E-01
       -1   -1    0    0    0  501  0.00000000000E+00  0.00000000000E+00  0.14728406923E+04  0.14728406923E+04  0.50400001928E-02 0. -1.
        1   -1    0    0  501    0  0.00000000000E+00  0.00000000000E+00 -0.17238071822E+04  0.17238071822E+04  0.50400001928E-02 0.  1.
    10030    2    1    2    0    0  0.00000000000E+00  0.00000000000E+00 -0.25096648995E+03  0.31966478745E+04  0.31867810490E+04 0.  0.
        5    1    3    3  502    0  0.55747042110E+03 -0.12339050116E+04 -0.96806995432E+03  0.16644748044E+04  0.46999998093E+01 0.  1.
       -5    1    3    3    0  502 -0.55747042110E+03  0.12339050116E+04  0.71710346437E+03  0.15321730701E+04  0.46999998093E+01 0. -1.
</event>
<event>
 5   0  0.2401139E-06  0.3183517E+04  0.7818609E-02  0.8193184E-01
       -2   -1    0    0    0  501  0.00000000000E+00  0.00000000000E+00  0.13381919273E+04  0.13381919273E+04  0.25500000920E-02 0. -1.
        2   -1    0    0  501    0  0.00000000000E+00  0.00000000000E+00 -0.18933725202E+04  0.18933725202E+04  0.25500000920E-02 0.  1.
    10030    2    1    2    0    0  0.00000000000E+00  0.00000000000E+00 -0.55518059289E+03  0.32315644474E+04  0.31835174394E+04 0.  0.
        5    1    3    3  502    0  0.14148404788E+04  0.37650157360E+03 -0.91163454348E+03  0.17247105978E+04  0.46999998093E+01 0.  1.
       -5    1    3    3    0  502 -0.14148404788E+04 -0.37650157360E+03  0.35645395059E+03  0.15068538496E+04  0.46999998093E+01 0. -1.
</event>
<event>
 5   0  0.8512855E-07  0.3229704E+04  0.7818609E-02  0.8181016E-01
       -1   -1    0    0    0  501  0.00000000000E+00  0.00000000000E+00  0.22326804208E+04  0.22326804208E+04  0.50400001928E-02 0. -1.
        1   -1    0    0  501    0  0.00000000000E+00  0.00000000000E+00 -0.11679895341E+04  0.11679895341E+04  0.50400001928E-02 0.  1.
    10030    2    1    2    0    0  0.00000000000E+00  0.00000000000E+00  0.10646908867E+04  0.34006699550E+04  0.32297042370E+04 0.  0.
        5    1    3    3  502    0 -0.12268391494E+04  0.10312498554E+04  0.32410177838E+03  0.16351374913E+04  0.46999998093E+01 0.  1.
       -5    1    3    3    0  502  0.12268391494E+04 -0.10312498554E+04  0.74058910837E+03  0.17655324636E+04  0.46999998093E+01 0. -1.
</event>
<event>
 5   0  0.2337504E-06  0.3212211E+04  0.7818609E-02  0.8185600E-01
       -2   -1    0    0    0  501  0.00000000000E+00  0.00000000000E+00  0.11317360012E+04  0.11317360012E+04  0.25500000920E-02 0.  1.
        2   -1    0    0  501    0  0.00000000000E+00  0.00000000000E+00 -0.22793077742E+04  0.22793077742E+04  0.25500000920E-02 0. -1.
    10030    2    1    2    0    0  0.00000000000E+00  0.00000000000E+00 -0.11475717730E+04  0.34110437754E+04  0.32122108685E+04 0.  0.
        1    1    3    3  502    0 -0.62681671651E+03 -0.13121112781E+04  0.15036347184E+03  0.14618975258E+04  0.50400001928E-02 0.  1.
       -1    1    3    3    0  502  0.62681671651E+03  0.13121112781E+04 -0.12979352449E+04  0.19491462496E+04  0.50400001928E-02 0. -1.
</event>
<event>
 5   0  0.2401139E-06  0.3169648E+04  0.7818609E-02  0.8196879E-01
        2   -1    0    0  501    0  0.00000000000E+00  0.00000000000E+00  0.13602215859E+04  0.13602215859E+04  0.25500000920E-02 0. -1.
       -2   -1    0    0    0  501  0.00000000000E+00  0.00000000000E+00 -0.18465133827E+04  0.18465133827E+04  0.25500000920E-02 0.  1.
    10030    2    1    2    0    0  0.00000000000E+00  0.00000000000E+00 -0.48629179685E+03  0.32067349686E+04  0.31696481582E+04 0.  0.
        5    1    3    3  502    0  0.82950990269E+03 -0.11213624244E+04  0.51805706495E+03  0.14879333245E+04  0.46999998093E+01 0. -1.
       -5    1    3    3    0  502 -0.82950990269E+03  0.11213624244E+04 -0.10043488618E+04  0.17188016441E+04  0.46999998093E+01 0.  1.
</event>
<event>
 5   0  0.2401139E-06  0.2743102E+04  0.7818609E-02  0.8321154E-01
        2   -1    0    0  501    0  0.00000000000E+00  0.00000000000E+00  0.11540439132E+04  0.11540439132E+04  0.25500000920E-02 0. -1.
       -2   -1    0    0    0  501  0.00000000000E+00  0.00000000000E+00 -0.16300521610E+04  0.16300521610E+04  0.25500000920E-02 0.  1.
    10030    2    1    2    0    0  0.00000000000E+00  0.00000000000E+00 -0.47600824783E+03  0.27840960742E+04  0.27431017295E+04 0.  0.
        5    1    3    3  502    0  0.89723931434E+03  0.67831305550E+02 -0.12886017325E+04  0.15716729902E+04  0.46999998093E+01 0.  1.
       -5    1    3    3    0  502 -0.89723931434E+03 -0.67831305550E+02  0.81259348467E+03  0.12124230840E+04  0.46999998093E+01 0. -1.
</event>
<event>
 5   0  0.8512855E-07  0.3182758E+04  0.7818609E-02  0.8193386E-01
        1   -1    0    0  501    0  0.00000000000E+00  0.00000000000E+00  0.17206808858E+04  0.17206808858E+04  0.50400001928E-02 0. -1.
       -1   -1    0    0    0  501  0.00000000000E+00  0.00000000000E+00 -0.14717939443E+04  0.14717939443E+04  0.50400001928E-02 0.  1.
    10030    2    1    2    0    0  0.00000000000E+00  0.00000000000E+00  0.24888694150E+03  0.31924748300E+04  0.31827583683E+04 0.  0.
        5    1    3    3  502    0 -0.82095122534E+03 -0.70743469498E+03 -0.10444642602E+04  0.15051087811E+04  0.46999998093E+01 0.  1.
       -5    1    3    3    0  502  0.82095122534E+03  0.70743469498E+03  0.12933512017E+04  0.16873660489E+04  0.46999998093E+01 0. -1.
</event>
<event>
 5   0  0.8512855E-07  0.3296100E+04  0.7818609E-02  0.8163889E-01
        1   -1    0    0  501    0  0.00000000000E+00  0.00000000000E+00  0.16611881311E+04  0.16611881311E+04  0.50400001928E-02 0.  1.
       -1   -1    0    0    0  501  0.00000000000E+00  0.00000000000E+00 -0.16350152947E+04  0.16350152947E+04  0.50400001928E-02 0. -1.
    10030    2    1    2    0    0  0.00000000000E+00  0.00000000000E+00  0.26172836458E+02  0.32962034258E+04  0.32960995141E+04 0.  0.
        5    1    3    3  502    0  0.66355278979E+03 -0.46541715464E+03 -0.14219258856E+04  0.16367072880E+04  0.46999998093E+01 0. -1.
       -5    1    3    3    0  502 -0.66355278979E+03  0.46541715464E+03  0.14480987220E+04  0.16594961378E+04  0.46999998093E+01 0.  1.
</event>
<event>
 5   0  0.2401139E-06  0.3158192E+04  0.7818609E-02  0.8199947E-01
       -2   -1    0    0    0  501  0.00000000000E+00  0.00000000000E+00  0.13707073625E+04  0.13707073625E+04  0.25500000920E-02 0. -1.
        2   -1    0    0  501    0  0.00000000000E+00  0.00000000000E+00 -0.18191664191E+04  0.18191664191E+04  0.25500000920E-02 0.  1.
    10030    2    1    2    0    0  0.00000000000E+00  0.00000000000E+00 -0.44845905662E+03  0.31898737815E+04  0.31581923970E+04 0.  0.
        5    1    3    3  502    0 -0.82663467497E+03  0.53103200087E+02 -0.15821032901E+04  0.17858381075E+04  0.46999998093E+01 0.  1.
       -5    1    3    3    0  502  0.82663467497E+03 -0.53103200087E+02  0.11336442335E+04  0.14040356740E+04  0.46999998093E+01 0. -1.
</event>
<event>
 5   0  0.8383008E-07  0.3220481E+04  0.7818609E-02  0.8183429E-01
        1   -1    0    0  501    0  0.00000000000E+00  0.00000000000E+00  0.17615196981E+04  0.17615196981E+04  0.50400001928E-02 0. -1.
       -1   -1    0    0    0  501  0.00000000000E+00  0.00000000000E+00 -0.14719529285E+04  0.14719529285E+04  0.50400001928E-02 0.  1.
    10030    2    1    2    0    0  0.00000000000E+00  0.00000000000E+00  0.28956676958E+03  0.32334726266E+04  0.32204807581E+04 0.  0.
        4    1    3    3  502    0  0.89120428831E+03  0.54129952421E+03  0.13767714082E+04  0.17270643826E+04  0.12699999809E+01 0. -1.
       -4    1    3    3    0  502 -0.89120428831E+03 -0.54129952421E+03 -0.10872046386E+04  0.15064082440E+04  0.12699999809E+01 0.  1.
</event>
<event>
 5   0  0.2337504E-06  0.3220388E+04  0.7818609E-02  0.8183453E-01
       -2   -1    0    0    0  501  0.00000000000E+00  0.00000000000E+00  0.13943688452E+04  0.13943688452E+04  0.25500000920E-02 0.  1.
        2   -1    0    0  501    0  0.00000000000E+00  0.00000000000E+00 -0.18594251347E+04  0.18594251347E+04  0.25500000920E-02 0. -1.
    10030    2    1    2    0    0  0.00000000000E+00  0.00000000000E+00 -0.46505628944E+03  0.32537939799E+04  0.32203878511E+04 0.  0.
        1    1    3    3  502    0  0.14412325662E+04  0.71680744497E+03 -0.19013753830E+03  0.16208382111E+04  0.50400001928E-02 0. -1.
       -1    1    3    3    0  502 -0.14412325662E+04 -0.71680744497E+03 -0.27491875113E+03  0.16329557688E+04  0.50400001928E-02 0.  1.
</event>
<event>
 5   0  0.8512855E-07  0.3211453E+04  0.7818609E-02  0.8185799E-01
        1   -1    0    0  501    0  0.00000000000E+00  0.00000000000E+00  0.25355743565E+04  0.25355743565E+04  0.50400001928E-02 0.  1.
       -1   -1    0    0    0  501  0.00000000000E+00  0.00000000000E+00 -0.10168734050E+04  0.10168734050E+04  0.50400001928E-02 0. -1.
    10030    2    1    2    0    0  0.00000000000E+00  0.00000000000E+00  0.15187009514E+04  0.35524477615E+04  0.32114533343E+04 0.  0.
        5    1    3    3  502    0 -0.16043445656E+03  0.60491174691E+03  0.23951066280E+04  0.24755232348E+04  0.46999998093E+01 0.  1.
       -5    1    3    3    0  502  0.16043445656E+03 -0.60491174691E+03 -0.87640567654E+03  0.10769245267E+04  0.46999998093E+01 0. -1.
</event>
<event>
 5   0  0.8681172E-07  0.3235417E+04  0.7818609E-02  0.8179526E-01
       -1   -1    0    0    0  501  0.00000000000E+00  0.00000000000E+00  0.13083217702E+04  0.13083217702E+04  0.50400001928E-02 0. -1.
        1   -1    0    0  501    0  0.00000000000E+00  0.00000000000E+00 -0.20002580467E+04  0.20002580467E+04  0.50400001928E-02 0.  1.
    10030    2    1    2    0    0  0.00000000000E+00  0.00000000000E+00 -0.69193627647E+03  0.33085798169E+04  0.32354172210E+04 0.  0.
        1    1    3    3  502    0  0.15035662459E+03  0.14140929330E+03 -0.19867371089E+04  0.19974303599E+04  0.50400001928E-02 0.  1.
       -1    1    3    3    0  502 -0.15035662459E+03 -0.14140929330E+03  0.12948008325E+04  0.13111494570E+04  0.50400001928E-02 0. -1.
</event>
<event>
 5   0  0.8681172E-07  0.3181559E+04  0.7818609E-02  0.8193704E-01
       -1   -1    0    0    0  501  0.00000000000E+00  0.00000000000E+00  0.12122931618E+04  0.12122931618E+04  0.50400001928E-02 0.  1.
        1   -1    0    0  501    0  0.00000000000E+00  0.00000000000E+00 -0.20874321187E+04  0.20874321187E+04  0.50400001928E-02 0. -1.
    10030    2    1    2    0    0  0.00000000000E+00  0.00000000000E+00 -0.87513895694E+03  0.32997252805E+04  0.31815591670E+04 0.  0.
        1    1    3    3  502    0  0.93140438685E+03  0.10124732675E+04 -0.12659610537E+04  0.18695650935E+04  0.50400001928E-02 0. -1.
       -1    1    3    3    0  502 -0.93140438685E+03 -0.10124732675E+04  0.39082209677E+03  0.14301601870E+04  0.50400001928E-02 0.  1.
</event>
<event>
 5   0  0.8383008E-07  0.3240538E+04  0.7818609E-02  0.8178193E-01
       -1   -1    0    0    0  501  0.00000000000E+00  0.00000000000E+00  0.14751571795E+04  0.14751571795E+04  0.50400001928E-02 0. -1.
        1   -1    0    0  501    0  0.00000000000E+00  0.00000000000E+00 -0.17796550638E+04  0.17796550638E+04  0.50400001928E-02 0.  1.
    10030    2    1    2    0    0  0.00000000000E+00  0.00000000000E+00 -0.30449788438E+03  0.32548122433E+04  0.32405375754E+04 0.  0.
        4    1    3    3  502    0 -0.45036518511E+03  0.15231884306E+04 -0.47356050762E+03  0.16574658254E+04  0.12699999809E+01 0.  1.
       -4    1    3    3    0  502  0.45036518511E+03 -0.15231884306E+04  0.16906262324E+03  0.15973464179E+04  0.12699999809E+01 0. -1.
</event>
<event>
 5   0  0.2404430E-06  0.3200767E+04  0.7818609E-02  0.8188615E-01
       -2   -1    0    0    0  501  0.00000000000E+00  0.00000000000E+00  0.94389532223E+03  0.94389532223E+03  0.25500000920E-02 0. -1.
        2   -1    0    0  501    0  0.00000000000E+00  0.00000000000E+00 -0.27134659772E+04  0.27134659772E+04  0.25500000920E-02 0.  1.
    10030    2    1    2    0    0  0.00000000000E+00  0.00000000000E+00 -0.17695706549E+04  0.36573612994E+04  0.32007673098E+04 0.  0.
        4    1    3    3  502    0 -0.57209681978E+03  0.79364518716E+03 -0.23319698229E+04  0.25288836118E+04  0.12699999809E+01 0.  1.
       -4    1    3    3    0  502  0.57209681978E+03 -0.79364518716E+03  0.56239916797E+03  0.11284776876E+04  0.12699999809E+01 0. -1.
</event>
<event>
 5   0  0.2466076E-06  0.3210460E+04  0.7818609E-02  0.8186060E-01
       -2   -1    0    0    0  501  0.00000000000E+00  0.00000000000E+00  0.10029119170E+04  0.10029119170E+04  0.25500000920E-02 0.  1.
        2   -1    0    0  501    0  0.00000000000E+00  0.00000000000E+00 -0.25692817084E+04  0.25692817084E+04  0.25500000920E-02 0. -1.
    10030    2    1    2    0    0  0.00000000000E+00  0.00000000000E+00 -0.15663697913E+04  0.35721936254E+04  0.32104599318E+04 0.  0.
        3    1    3    3  502    0  0.24768738615E+02 -0.15274971316E+04 -0.23480249160E+03  0.15456368259E+04  0.10100000352E+00 0. -1.
       -3    1    3    3    0  502 -0.24768738615E+02  0.15274971316E+04 -0.13315672997E+04  0.20265567994E+04  0.10100000352E+00 0.  1.
</event>
<event>
 5   0  0.8383008E-07  0.3186279E+04  0.7818609E-02  0.8192450E-01
       -1   -1    0    0    0  501  0.00000000000E+00  0.00000000000E+00  0.19733787183E+04  0.19733787183E+04  0.50400001928E-02 0. -1.
        1   -1    0    0  501    0  0.00000000000E+00  0.00000000000E+00 -0.12861667753E+04  0.12861667753E+04  0.50400001928E-02 0.  1.
    10030    2    1    2    0    0  0.00000000000E+00  0.00000000000E+00  0.68721194302E+03  0.32595454936E+04  0.31862794244E+04 0.  0.
        4    1    3    3  502    0  0.55894797681E+03 -0.13316488488E+04  0.10316644987E+04  0.17748365412E+04  0.12699999809E+01 0. -1.
       -4    1    3    3    0  502 -0.55894797681E+03  0.13316488488E+04 -0.34445255569E+03  0.14847089524E+04  0.12699999809E+01 0.  1.
</event>
<event>
 5   0  0.2401139E-06  0.3195870E+04  0.7818609E-02  0.8189909E-01
        2   -1    0    0  501    0  0.00000000000E+00  0.00000000000E+00  0.14279016773E+04  0.14279016773E+04  0.25500000920E-02 0. -1.
       -2   -1    0    0    0  501  0.00000000000E+00  0.00000000000E+00 -0.17882155825E+04  0.17882155825E+04  0.25500000920E-02 0.  1.
    10030    2    1    2    0    0  0.00000000000E+00  0.00000000000E+00 -0.36031390520E+03  0.32161172598E+04  0.31958698532E+04 0.  0.
        5    1    3    3  502    0 -0.14805001821E+03 -0.79716424239E+03 -0.15658280498E+04  0.17633006575E+04  0.46999998093E+01 0.  1.
       -5    1    3    3    0  502  0.14805001821E+03  0.79716424239E+03  0.12055141446E+04  0.14528166023E+04  0.46999998093E+01 0. -1.
</event>
<event>
 5   0  0.2466076E-06  0.3189930E+04  0.7818609E-02  0.8191482E-01
        2   -1    0    0  501    0  0.00000000000E+00  0.00000000000E+00  0.18740288327E+04  0.18740288327E+04  0.25500000920E-02 0.  1.
       -2   -1    0    0    0  501  0.00000000000E+00  0.00000000000E+00 -0.13574565244E+04  0.13574565244E+04  0.25500000920E-02 0. -1.
    10030    2    1    2    0    0  0.00000000000E+00  0.00000000000E+00  0.51657230832E+03  0.32314853570E+04  0.31899295702E+04 0.  0.
        3    1    3    3  502    0 -0.15788462144E+04 -0.16814760386E+03  0.10504199281E+03  0.15912456806E+04  0.10100000352E+00 0.  1.
       -3    1    3    3    0  502  0.15788462144E+04  0.16814760386E+03  0.41153031551E+03  0.16402396765E+04  0.10100000352E+00 0. -1.
</event>
<event>
 5   0  0.2404430E-06  0.3187042E+04  0.7818609E-02  0.8192248E-01
       -2   -1    0    0    0  501  0.00000000000E+00  0.00000000000E+00  0.12102758480E+04  0.12102758480E+04  0.25500000920E-02 0.  1.
        2   -1    0    0  501    0  0.00000000000E+00  0.00000000000E+00 -0.20981243566E+04  0.20981243566E+04  0.25500000920E-02 0. -1.
    10030    2    1    2    0    0  0.00000000000E+00  0.00000000000E+00 -0.88784850857E+03  0.33084002047E+04  0.31870420361E+04 0.  0.
        4    1    3    3  502    0 -0.31811990765E+03  0.43642733267E+03 -0.20002248420E+04  0.20718518585E+04  0.12699999809E+01 0. -1.
       -4    1    3    3    0  502  0.31811990765E+03 -0.43642733267E+03  0.11123763334E+04  0.12365483461E+04  0.12699999809E+01 0.  1.
</event>
<event>
 5   0  0.2621528E-06  0.3216272E+04  0.7818609E-02  0.8184533E-01
        2   -1    0    0  501    0  0.00000000000E+00  0.00000000000E+00  0.24097469028E+04  0.24097469028E+04  0.25500000920E-02 0. -1.
       -2   -1    0    0    0  501  0.00000000000E+00  0.00000000000E+00 -0.10731836836E+04  0.10731836836E+04  0.25500000920E-02 0.  1.
    10030    2    1    2    0    0  0.00000000000E+00  0.00000000000E+00  0.13365632192E+04  0.34829305864E+04  0.32162717906E+04 0.  0.
        2    1    3    3  502    0  0.87556759604E+03  0.50376692589E+03 -0.68674098623E+03  0.12214798046E+04  0.25500000920E-02 0.  1.
       -2    1    3    3    0  502 -0.87556759604E+03 -0.50376692589E+03  0.20233042054E+04  0.22614507818E+04  0.25500000920E-02 0. -1.
</event>
<event>
 5   0  0.2621528E-06  0.3222866E+04  0.7818609E-02  0.8182804E-01
       -2   -1    0    0    0  501  0.00000000000E+00  0.00000000000E+00  0.11317059248E+04  0.11317059248E+04  0.25500000920E-02 0.  1.
        2   -1    0    0  501    0  0.00000000000E+00  0.00000000000E+00 -0.22945155629E+04  0.22945155629E+04  0.25500000920E-02 0. -1.
    10030    2    1    2    0    0  0.00000000000E+00  0.00000000000E+00 -0.11628096380E+04  0.34262214877E+04  0.32228663374E+04 0.  0.
        2    1    3    3  502    0 -0.86974483442E+03  0.11672459902E+04  0.15343911304E+03  0.14637154232E+04  0.25500000920E-02 0.  1.
       -2    1    3    3    0  502  0.86974483442E+03 -0.11672459902E+04 -0.13162487511E+04  0.19625060645E+04  0.25500000920E-02 0. -1.
</event>
<event>
 5   0  0.2621528E-06  0.3154602E+04  0.7818609E-02  0.8200910E-01
       -2   -1    0    0    0  501  0.00000000000E+00  0.00000000000E+00  0.13655691795E+04  0.13655691795E+04  0.25500000920E-02 0. -1.
        2   -1    0    0  501    0  0.00000000000E+00  0.00000000000E+00 -0.18218624437E+04  0.18218624437E+04  0.25500000920E-02 0.  1.
    10030    2    1    2    0    0  0.00000000000E+00  0.00000000000E+00 -0.45629326423E+03  0.31874316233E+04  0.31546024805E+04 0.  0.
        2    1    3    3  502    0 -0.10629765454E+04  0.11652673661E+04 -0.23884129565E+03  0.15952467944E+04  0.25500000920E-02 0.  1.
       -2    1    3    3    0  502  0.10629765454E+04 -0.11652673661E+04 -0.21745196858E+03  0.15921848289E+04  0.25500000920E-02 0. -1.
</event>
<event>
 5   0  0.2466076E-06  0.3553715E+04  0.7818609E-02  0.8101177E-01
       -2   -1    0    0    0  501  0.00000000000E+00  0.00000000000E+00  0.10071068516E+04  0.10071068516E+04  0.25500000920E-02 0. -1.
        2   -1    0    0  501    0  0.00000000000E+00  0.00000000000E+00 -0.31349423912E+04  0.31349423912E+04  0.25500000920E-02 0.  1.
    10030    2    1    2    0    0  0.00000000000E+00  0.00000000000E+00 -0.21278355396E+04  0.41420492429E+04  0.35537146547E+04 0.  0.
        3    1    3    3  502    0  0.85099456033E+03  0.70065664925E+03  0.56039503978E+03  0.12365897026E+04  0.10100000352E+00 0. -1.
       -3    1    3    3    0  502 -0.85099456033E+03 -0.70065664925E+03 -0.26882305794E+04  0.29054595402E+04  0.10100000352E+00 0.  1.
</event>
<event>
 5   0  0.2404430E-06  0.3218271E+04  0.7818609E-02  0.8184008E-01
        2   -1    0    0  501    0  0.00000000000E+00  0.00000000000E+00  0.19211141556E+04  0.19211141556E+04  0.25500000920E-02 0.  1.
       -2   -1    0    0    0  501  0.00000000000E+00  0.00000000000E+00 -0.13478207005E+04  0.13478207005E+04  0.25500000920E-02 0. -1.
    10030    2    1    2    0    0  0.00000000000E+00  0.00000000000E+00  0.57329345505E+03  0.32689348561E+04  0.32182712297E+04 0.  0.
        4    1    3    3  502    0 -0.22280587986E+03  0.26934916111E+03 -0.13087883855E+04  0.13546660406E+04  0.12699999809E+01 0. -1.
       -4    1    3    3    0  502  0.22280587986E+03 -0.26934916111E+03  0.18820818406E+04  0.19142688155E+04  0.12699999809E+01 0.  1.
</event>
<event>
 5   0  0.2337504E-06  0.3202334E+04  0.7818609E-02  0.8188201E-01
       -2   -1    0    0    0  501  0.00000000000E+00  0.00000000000E+00  0.14558551470E+04  0.14558551470E+04  0.25500000920E-02 0.  1.
        2   -1    0    0  501    0  0.00000000000E+00  0.00000000000E+00 -0.17609828815E+04  0.17609828815E+04  0.25500000920E-02 0. -1.
    10030    2    1    2    0    0  0.00000000000E+00  0.00000000000E+00 -0.30512773444E+03  0.32168380285E+04  0.32023341436E+04 0.  0.
        1    1    3    3  502    0  0.49383119149E+03  0.62483738063E+03  0.12427719722E+04  0.14760667914E+04  0.50400001928E-02 0.  1.
       -1    1    3    3    0  502 -0.49383119149E+03 -0.62483738063E+03 -0.15478997066E+04  0.17407712370E+04  0.50400001928E-02 0. -1.
</event>
<event>
 5   0  0.8681172E-07  0.3181722E+04  0.7818609E-02  0.8193661E-01
       -1   -1    0    0    0  501  0.00000000000E+00  0.00000000000E+00  0.11459807693E+04  0.11459807693E+04  0.50400001928E-02 0.  1.
        1   -1    0    0  501    0  0.00000000000E+00  0.00000000000E+00 -0.22084474836E+04  0.22084474836E+04  0.50400001928E-02 0. -1.
    10030    2    1    2    0    0  0.00000000000E+00  0.00000000000E+00 -0.10624667143E+04  0.33544282528E+04  0.31817217642E+04 0.  0.
        1    1    3    3  502    0  0.66644240081E+03 -0.10521113506E+04  0.51232072051E+03  0.13466834403E+04  0.50400001928E-02 0.  1.
       -1    1    3    3    0  502 -0.66644240081E+03  0.10521113506E+04 -0.15747874348E+04  0.20077448126E+04  0.50400001928E-02 0. -1.
</event>
<event>
 5   0  0.8545153E-07  0.3025609E+04  0.7818609E-02  0.8236456E-01
       -1   -1    0    0    0  501  0.00000000000E+00  0.00000000000E+00  0.19544263360E+04  0.19544263360E+04  0.50400001928E-02 0.  1.
        1   -1    0    0  501    0  0.00000000000E+00  0.00000000000E+00 -0.11709716880E+04  0.11709716880E+04  0.50400001928E-02 0. -1.
    10030    2    1    2    0    0  0.00000000000E+00  0.00000000000E+00  0.78345464800E+03  0.31253980241E+04  0.30256092979E+04 0.  0.
        3    1    3    3  502    0  0.83320667253E+03  0.48671563243E+03  0.15952514392E+04  0.18643906861E+04  0.10100000352E+00 0.  1.
       -3    1    3    3    0  502 -0.83320667253E+03 -0.48671563243E+03 -0.81179679119E+03  0.12610073380E+04  0.10100000352E+00 0. -1.
</event>
<event>
 5   0  0.8681172E-07  0.3202169E+04  0.7818609E-02  0.8188245E-01
       -1   -1    0    0    0  501  0.00000000000E+00  0.00000000000E+00  0.15365800498E+04  0.15365800498E+04  0.50400001928E-02 0. -1.
        1   -1    0    0  501    0  0.00000000000E+00  0.00000000000E+00 -0.16682966795E+04  0.16682966795E+04  0.50400001928E-02 0.  1.
    10030    2    1    2    0    0  0.00000000000E+00  0.00000000000E+00 -0.13171662972E+03  0.32048767293E+04  0.32021688868E+04 0.  0.
        1    1    3    3  502    0  0.64871609016E+03 -0.14408950534E+04 -0.32387521955E+03  0.16130425532E+04  0.50400001928E-02 0.  1.
       -1    1    3    3    0  502 -0.64871609016E+03  0.14408950534E+04  0.19215858983E+03  0.15918341761E+04  0.50400001928E-02 0. -1.
</event>
<event>
 5   0  0.2404430E-06  0.3218376E+04  0.7818609E-02  0.8183981E-01
       -2   -1    0    0    0  501  0.00000000000E+00  0.00000000000E+00  0.12078671908E+04  0.12078671908E+04  0.25500000920E-02 0.  1.
        2   -1    0    0  501    0  0.00000000000E+00  0.00000000000E+00 -0.21438503147E+04  0.21438503147E+04  0.25500000920E-02 0. -1.
    10030    2    1    2    0    0  0.00000000000E+00  0.00000000000E+00 -0.93598312391E+03  0.33517175054E+04  0.32183762720E+04 0.  0.
        4    1    3    3  502    0  0.68319409713E+03  0.69612641566E+03 -0.18009172046E+04  0.20480846056E+04  0.12699999809E+01 0. -1.
       -4    1    3    3    0  502 -0.68319409713E+03 -0.69612641566E+03  0.86493408064E+03  0.13036328999E+04  0.12699999809E+01 0.  1.
</event>
<event>
 5   0  0.2621528E-06  0.3235196E+04  0.7818609E-02  0.8179583E-01
        2   -1    0    0  501    0  0.00000000000E+00  0.00000000000E+00  0.19694071430E+04  0.19694071430E+04  0.25500000920E-02 0.  1.
       -2   -1    0    0    0  501  0.00000000000E+00  0.00000000000E+00 -0.13286352665E+04  0.13286352665E+04  0.25500000920E-02 0. -1.
    10030    2    1    2    0    0  0.00000000000E+00  0.00000000000E+00  0.64077187645E+03  0.32980424095E+04  0.32351963058E+04 0.  0.
        2    1    3    3  502    0  0.32402891043E+03 -0.13632403661E+04  0.11442968720E+04  0.18090976651E+04  0.25500000920E-02 0.  1.
       -2    1    3    3    0  502 -0.32402891043E+03  0.13632403661E+04 -0.50352499553E+03  0.14889447444E+04  0.25500000920E-02 0. -1.
</event>
<event>
 5   0  0.2621528E-06  0.3203392E+04  0.7818609E-02  0.8187922E-01
        2   -1    0    0  501    0  0.00000000000E+00  0.00000000000E+00  0.22218302719E+04  0.22218302719E+04  0.25500000920E-02 0. -1.
       -2   -1    0    0    0  501  0.00000000000E+00  0.00000000000E+00 -0.11546472731E+04  0.11546472731E+04  0.25500000920E-02 0.  1.
    10030    2    1    2    0    0  0.00000000000E+00  0.00000000000E+00  0.10671829988E+04  0.33764775450E+04  0.32033921175E+04 0.  0.
        2    1    3    3  502    0  0.14966383277E+04 -0.56493541269E+03  0.61759698525E+03  0.17147898824E+04  0.25500000920E-02 0. -1.
       -2    1    3    3    0  502 -0.14966383277E+04  0.56493541269E+03  0.44958601359E+03  0.16616876626E+04  0.25500000920E-02 0.  1.
</event>
<event>
 5   0  0.2337504E-06  0.3229670E+04  0.7818609E-02  0.8181025E-01
        2   -1    0    0  501    0  0.00000000000E+00  0.00000000000E+00  0.17151459702E+04  0.17151459702E+04  0.25500000920E-02 0.  1.
       -2   -1    0    0    0  501  0.00000000000E+00  0.00000000000E+00 -0.15203909881E+04  0.15203909881E+04  0.25500000920E-02 0. -1.
    10030    2    1    2    0    0  0.00000000000E+00  0.00000000000E+00  0.19475498210E+03  0.32355369582E+04  0.32296702471E+04 0.  0.
        1    1    3    3  502    0  0.14369285429E+04  0.50615600740E+03  0.63382654901E+03  0.16500586764E+04  0.50400001928E-02 0. -1.
       -1    1    3    3    0  502 -0.14369285429E+04 -0.50615600740E+03 -0.43907156691E+03  0.15854782818E+04  0.50400001928E-02 0.  1.
</event>
<event>
 5   0  0.2401139E-06  0.3238540E+04  0.7818609E-02  0.8178712E-01
        2   -1    0    0  501    0  0.00000000000E+00  0.00000000000E+00  0.18132944685E+04  0.18132944685E+04  0.25500000920E-02 0.  1.
       -2   -1    0    0    0  501  0.00000000000E+00  0.00000000000E+00 -0.14460063525E+04  0.14460063525E+04  0.25500000920E-02 0. -1.
    10030    2    1    2    0    0  0.00000000000E+00  0.00000000000E+00  0.36728811598E+03  0.32593008209E+04  0.32385399922E+04 0.  0.
        5    1    3    3  502    0 -0.86644576594E+03  0.48424154254E+03  0.14712184744E+04  0.17747461864E+04  0.46999998093E+01 0.  1.
       -5    1    3    3    0  502  0.86644576594E+03 -0.48424154254E+03 -0.11039303584E+04  0.14845546346E+04  0.46999998093E+01 0. -1.
</event>
<event>
 5   0  0.8487944E-07  0.3230047E+04  0.7818609E-02  0.8180927E-01
        1   -1    0    0  501    0  0.00000000000E+00  0.00000000000E+00  0.17430147713E+04  0.17430147713E+04  0.50400001928E-02 0.  1.
       -1   -1    0    0    0  501  0.00000000000E+00  0.00000000000E+00 -0.14964305255E+04  0.14964305255E+04  0.50400001928E-02 0. -1.
    10030    2    1    2    0    0  0.00000000000E+00  0.00000000000E+00  0.24658424577E+03  0.32394452968E+04  0.32300467552E+04 0.  0.
        2    1    3    3  502    0 -0.51181055864E+03 -0.71681672831E+03  0.14809386275E+04  0.17230657237E+04  0.25500000920E-02 0.  1.
       -2    1    3    3    0  502  0.51181055864E+03  0.71681672831E+03 -0.12343543817E+04  0.15163795730E+04  0.25500000920E-02 0. -1.
</event>
<event>
 5   0  0.8545153E-07  0.3194723E+04  0.7818609E-02  0.8190212E-01
        1   -1    0    0  501    0  0.00000000000E+00  0.00000000000E+00  0.22788298130E+04  0.22788298130E+04  0.50400001928E-02 0. -1.
       -1   -1    0    0    0  501  0.00000000000E+00  0.00000000000E+00 -0.11196812785E+04  0.11196812785E+04  0.50400001928E-02 0.  1.
    10030    2    1    2    0    0  0.00000000000E+00  0.00000000000E+00  0.11591485345E+04  0.33985110914E+04  0.31947225722E+04 0.  0.
        3    1    3    3  502    0 -0.32785078741E+03 -0.50737954450E+03 -0.99348279282E+03  0.11627244776E+04  0.10100000352E+00 0.  1.
       -3    1    3    3    0  502  0.32785078741E+03  0.50737954450E+03  0.21526313273E+04  0.22357866138E+04  0.10100000352E+00 0. -1.
</event>
<event>
 5   0  0.8681172E-07  0.3059642E+04  0.7818609E-02  0.8226902E-01
       -1   -1    0    0    0  501  0.00000000000E+00  0.00000000000E+00  0.22740928414E+04  0.22740928414E+04  0.50400001928E-02 0.  1.
        1   -1    0    0  501    0  0.00000000000E+00  0.00000000000E+00 -0.10291367537E+04  0.10291367537E+04  0.50400001928E-02 0. -1.
    10030    2    1    2    0    0  0.00000000000E+00  0.00000000000E+00  0.12449560877E+04  0.33032295952E+04  0.30596421520E+04 0.  0.
        1    1    3    3  502    0  0.10749293547E+04 -0.19119312729E+03 -0.53443431055E+03  0.12155854399E+04  0.50400001928E-02 0. -1.
       -1    1    3    3    0  502 -0.10749293547E+04  0.19119312729E+03  0.17793903982E+04  0.20876441552E+04  0.50400001928E-02 0.  1.
</event>
<event>
 5   0  0.8487944E-07  0.3190395E+04  0.7818609E-02  0.8191358E-01
       -1   -1    0    0    0  501  0.00000000000E+00  0.00000000000E+00  0.18723881040E+04  0.18723881040E+04  0.50400001928E-02 0. -1.
        1   -1    0    0  501    0  0.00000000000E+00  0.00000000000E+00 -0.13590428798E+04  0.13590428798E+04  0.50400001928E-02 0.  1.
    10030    2    1    2    0    0  0.00000000000E+00  0.00000000000E+00  0.51334522418E+03  0.32314309837E+04  0.31903954118E+04 0.  0.
        2    1    3    3  502    0 -0.93130772124E+03 -0.97997522104E+03 -0.60095929486E+03  0.14794720611E+04  0.25500000920E-02 0.  1.
       -2    1    3    3    0  502  0.93130772124E+03  0.97997522104E+03  0.11143045190E+04  0.17519589226E+04  0.25500000920E-02 0. -1.
</event>
<event>
 5   0  0.2466076E-06  0.3156081E+04  0.7818609E-02  0.8200513E-01
        2   -1    0    0  501    0  0.00000000000E+00  0.00000000000E+00  0.14880837250E+04  0.14880837250E+04  0.25500000920E-02 0.  1.
       -2   -1    0    0    0  501  0.00000000000E+00  0.00000000000E+00 -0.16734354449E+04  0.16734354449E+04  0.25500000920E-02 0. -1.
    10030    2    1    2    0    0  0.00000000000E+00  0.00000000000E+00 -0.18535171991E+03  0.31615191698E+04  0.31560811461E+04 0.  0.
        3    1    3    3  502    0  0.52991782868E+03 -0.43784466401E+03  0.13302261963E+04  0.14973385050E+04  0.10100000352E+00 0.  1.
       -3    1    3    3    0  502 -0.52991782868E+03  0.43784466401E+03 -0.15155779162E+04  0.16641806648E+04  0.10100000352E+00 0. -1.
</event>
<event>
 5   0  0.8487944E-07  0.3170799E+04  0.7818609E-02  0.8196572E-01
        1   -1    0    0  501    0  0.00000000000E+00  0.00000000000E+00  0.18138271900E+04  0.18138271900E+04  0.50400001928E-02 0. -1.
       -1   -1    0    0    0  501  0.00000000000E+00  0.00000000000E+00 -0.13857389468E+04  0.13857389468E+04  0.50400001928E-02 0.  1.
    10030    2    1    2    0    0  0.00000000000E+00  0.00000000000E+00  0.42808824321E+03  0.31995661369E+04  0.31707986250E+04 0.  0.
        2    1    3    3  502    0 -0.10359278175E+03 -0.15489686810E+04 -0.11051910208E+03  0.15563578994E+04  0.25500000920E-02 0.  1.
       -2    1    3    3    0  502  0.10359278175E+03  0.15489686810E+04  0.53860734529E+03  0.16432082375E+04  0.25500000920E-02 0. -1.
</event>
<event>
 5   0  0.2401139E-06  0.3191897E+04  0.7818609E-02  0.8190960E-01
       -2   -1    0    0    0  501  0.00000000000E+00  0.00000000000E+00  0.11680161413E+04  0.11680161413E+04  0.25500000920E-02 0. -1.
        2   -1    0    0  501    0  0.00000000000E+00  0.00000000000E+00 -0.21806644997E+04  0.21806644997E+04  0.25500000920E-02 0.  1.
    10030    2    1    2    0    0  0.00000000000E+00  0.00000000000E+00 -0.10126483584E+04  0.33486806409E+04  0.31918968243E+04 0.  0.
        5    1    3    3  502    0 -0.30260131045E+03  0.51939121565E+02  0.11367333508E+04  0.11774761256E+04  0.46999998093E+01 0. -1.
       -5    1    3    3    0  502  0.30260131045E+03 -0.51939121565E+02 -0.21493817092E+04  0.21712045153E+04  0.46999998093E+01 0.  1.
</event>
<event>
 5   0  0.2337504E-06  0.2961348E+04  0.7818609E-02  0.8254855E-01
       -2   -1    0    0    0  501  0.00000000000E+00  0.00000000000E+00  0.15610562298E+04  0.15610562298E+04  0.25500000920E-02 0.  1.
        2   -1    0    0  501    0  0.00000000000E+00  0.00000000000E+00 -0.14044311820E+04  0.14044311820E+04  0.25500000920E-02 0. -1.
    10030    2    1    2    0    0  0.00000000000E+00  0.00000000000E+00  0.15662504786E+03  0.29654874118E+04  0.29613483726E+04 0.  0.
        1    1    3    3  502    0  0.11769125289E+04  0.22175570261E+03 -0.79359228793E+03  0.14366932212E+04  0.50400001928E-02 0.  1.
       -1    1    3    3    0  502 -0.11769125289E+04 -0.22175570261E+03  0.95021733579E+03  0.15287941907E+04  0.50400001928E-02 0. -1.
</event>
<event>
 5   0  0.8512855E-07  0.3195945E+04  0.7818609E-02  0.8189889E-01
        1   -1    0    0  501    0  0.00000000000E+00  0.00000000000E+00  0.19458358139E+04  0.19458358139E+04  0.50400001928E-02 0.  1.
       -1   -1    0    0    0  501  0.00000000000E+00  0.00000000000E+00 -0.13122975557E+04  0.13122975557E+04  0.50400001928E-02 0. -1.
    10030    2    1    2    0    0  0.00000000000E+00  0.00000000000E+00  0.63353825818E+03  0.32581333696E+04  0.31959446694E+04 0.  0.
        5    1    3    3  502    0 -0.32193729014E+03  0.15643958825E+04  0.36789877871E+03  0.16390087545E+04  0.46999998093E+01 0.  1.
       -5    1    3    3    0  502  0.32193729014E+03 -0.15643958825E+04  0.26563947947E+03  0.16191246151E+04  0.46999998093E+01 0. -1.
</event>
<event>
 5   0  0.8545153E-07  0.3194821E+04  0.7818609E-02  0.8190186E-01
        1   -1    0    0  501    0  0.00000000000E+00  0.00000000000E+00  0.15217069560E+04  0.15217069560E+04  0.50400001928E-02 0.  1.
       -1   -1    0    0    0  501  0.00000000000E+00  0.00000000000E+00 -0.16768799813E+04  0.16768799813E+04  0.50400001928E-02 0. -1.
    10030    2    1    2    0    0  0.00000000000E+00  0.00000000000E+00 -0.15517302524E+03  0.31985869373E+04  0.31948207661E+04 0.  0.
        3    1    3    3  502    0  0.53290154948E+03  0.11253840994E+04 -0.10793891341E+04  0.16478939121E+04  0.10100000352E+00 0. -1.
       -3    1    3    3    0  502 -0.53290154948E+03 -0.11253840994E+04  0.92421610881E+03  0.15506930252E+04  0.10100000352E+00 0.  1.
</event>
<event>
 5   0  0.8681172E-07  0.3204727E+04  0.7818609E-02  0.8187570E-01
       -1   -1    0    0    0  501  0.00000000000E+00  0.00000000000E+00  0.18704806150E+04  0.18704806150E+04  0.50400001928E-02 0. -1.
        1   -1    0    0  501    0  0.00000000000E+00  0.00000000000E+00 -0.13726789019E+04  0.13726789019E+04  0.50400001928E-02 0.  1.
    10030    2    1    2    0    0  0.00000000000E+00  0.00000000000E+00  0.49780171311E+03  0.32431595168E+04  0.32047273061E+04 0.  0.
        1    1    3    3  502    0 -0.10933325173E+04  0.10248120636E+04 -0.32531319590E+03  0.15334420219E+04  0.50400001928E-02 0.  1.
       -1    1    3    3    0  502  0.10933325173E+04 -0.10248120636E+04  0.82311490901E+03  0.17097174949E+04  0.50400001928E-02 0. -1.
</event>
<event>
 5   0  0.8512855E-07  0.3202315E+04  0.7818609E-02  0.8188206E-01
        1   -1    0    0  501    0  0.00000000000E+00  0.00000000000E+00  0.19406163662E+04  0.19406163662E+04  0.50400001928E-02 0.  1.
       -1   -1    0    0    0  501  0.00000000000E+00  0.00000000000E+00 -0.13210777944E+04  0.13210777944E+04  0.50400001928E-02 0. -1.
    10030    2    1    2    0    0  0.00000000000E+00  0.00000000000E+00  0.61953857178E+03  0.32616941605E+04  0.32023149057E+04 0.  0.
        5    1    3    3  502    0 -0.13863548827E+04 -0.36074296549E+03  0.10382713367E+04  0.17692215255E+04  0.46999998093E+01 0.  1.
       -5    1    3    3    0  502  0.13863548827E+04  0.36074296549E+03 -0.41873276490E+03  0.14924726350E+04  0.46999998093E+01 0. -1.
</event>
<event>
 5   0  0.2621528E-06  0.3159501E+04  0.7818609E-02  0.8199595E-01
       -2   -1    0    0    0  501  0.00000000000E+00  0.00000000000E+00  0.16034071396E+04  0.16034071396E+04  0.25500000920E-02 0. -1.
        2   -1    0    0  501    0  0.00000000000E+00  0.00000000000E+00 -0.15564430618E+04  0.15564430618E+04  0.25500000920E-02 0.  1.
    10030    2    1    2    0    0  0.00000000000E+00  0.00000000000E+00  0.46964077868E+02  0.31598502014E+04  0.31595011744E+04 0.  0.
        2    1    3    3  502    0  0.12731942114E+03  0.11048311706E+04 -0.10985820805E+04  0.15632481371E+04  0.25500000920E-02 0.  1.
       -2    1    3    3    0  502 -0.12731942114E+03 -0.11048311706E+04  0.11455461584E+04  0.15966020643E+04  0.25500000920E-02 0. -1.
</event>
<event>
 5   0  0.8487944E-07  0.3196370E+04  0.7818609E-02  0.8189777E-01
        1   -1    0    0  501    0  0.00000000000E+00  0.00000000000E+00  0.24543971005E+04  0.24543971005E+04  0.50400001928E-02 0.  1.
       -1   -1    0    0    0  501  0.00000000000E+00  0.00000000000E+00 -0.10406606626E+04  0.10406606626E+04  0.50400001928E-02 0. -1.
    10030    2    1    2    0    0  0.00000000000E+00  0.00000000000E+00  0.14137364380E+04  0.34950577631E+04  0.31963695111E+04 0.  0.
        2    1    3    3  502    0  0.46701651553E+03  0.15282886008E+04  0.68435172821E+03  0.17384210540E+04  0.25500000920E-02 0.  1.
       -2    1    3    3    0  502 -0.46701651553E+03 -0.15282886008E+04  0.72938470975E+03  0.17566367091E+04  0.25500000920E-02 0. -1.
</event>
<event>
 5   0  0.2401139E-06  0.2693921E+04  0.7818609E-02  0.8336980E-01
        2   -1    0    0  501    0  0.00000000000E+00  0.00000000000E+00  0.24934642122E+04  0.24934642122E+04  0.25500000920E-02 0. -1.
       -2   -1    0    0    0  501  0.00000000000E+00  0.00000000000E+00 -0.72762339292E+03  0.72762339292E+03  0.25500000920E-02 0.  1.
    10030    2    1    2    0    0  0.00000000000E+00  0.00000000000E+00  0.17658408193E+04  0.32210876051E+04  0.26939212240E+04 0.  0.
        5    1    3    3  502    0  0.74735677275E+03 -0.85495721892E+03  0.17491023001E+04  0.20853956311E+04  0.46999998093E+01 0. -1.
       -5    1    3    3    0  502 -0.74735677275E+03  0.85495721892E+03  0.16738519238E+02  0.11356919741E+04  0.46999998093E+01 0.  1.
</event>
<event>
 5   0  0.8681172E-07  0.3187922E+04  0.7818609E-02  0.8192014E-01
        1   -1    0    0  501    0  0.00000000000E+00  0.00000000000E+00  0.14573620337E+04  0.14573620337E+04  0.50400001928E-02 0. -1.
       -1   -1    0    0    0  501  0.00000000000E+00  0.00000000000E+00 -0.17433639594E+04  0.17433639594E+04  0.50400001928E-02 0.  1.
    10030    2    1    2    0    0  0.00000000000E+00  0.00000000000E+00 -0.28600192574E+03  0.32007259931E+04  0.31879224867E+04 0.  0.
        1    1    3    3  502    0  0.10381480509E+04 -0.51621185566E+03  0.95523238022E+03  0.15022299943E+04  0.50400001928E-02 0. -1.
       -1    1    3    3    0  502 -0.10381480509E+04  0.51621185566E+03 -0.12412343060E+04  0.16984959988E+04  0.50400001928E-02 0.  1.
</event>
<event>
 5   0  0.2466076E-06  0.3153005E+04  0.7818609E-02  0.8201340E-01
       -2   -1    0    0    0  501  0.00000000000E+00  0.00000000000E+00  0.20217408274E+04  0.20217408274E+04  0.25500000920E-02 0. -1.
        2   -1    0    0  501    0  0.00000000000E+00  0.00000000000E+00 -0.12293166880E+04  0.12293166880E+04  0.25500000920E-02 0.  1.
    10030    2    1    2    0    0  0.00000000000E+00  0.00000000000E+00  0.79242413937E+03  0.32510575154E+04  0.31530047498E+04 0.  0.
        3    1    3    3  502    0 -0.17664621986E+03 -0.44817052718E+03 -0.11515686828E+04  0.12482672590E+04  0.10100000352E+00 0.  1.
       -3    1    3    3    0  502  0.17664621986E+03  0.44817052718E+03  0.19439928222E+04  0.20027902565E+04  0.10100000352E+00 0. -1.
</event>
<event>
 5   0  0.2401139E-06  0.3176301E+04  0.7818609E-02  0.8195104E-01
       -2   -1    0    0    0  501  0.00000000000E+00  0.00000000000E+00  0.10065786897E+04  0.10065786897E+04  0.25500000920E-02 0.  1.
        2   -1    0    0  501    0  0.00000000000E+00  0.00000000000E+00 -0.25057382918E+04  0.25057382918E+04  0.25500000920E-02 0. -1.
    10030    2    1    2    0    0  0.00000000000E+00  0.00000000000E+00 -0.14991596021E+04  0.35123169815E+04  0.31763014759E+04 0.  0.
        5    1    3    3  502    0 -0.14733592100E+03 -0.12581407515E+04  0.30965609731E+03  0.13040456329E+04  0.46999998093E+01 0.  1.
       -5    1    3    3    0  502  0.14733592100E+03  0.12581407515E+04 -0.18088156995E+04  0.22082713485E+04  0.46999998093E+01 0. -1.
</event>
<event>
 5   0  0.2401139E-06  0.3000193E+04  0.7818609E-02  0.8243676E-01
       -2   -1    0    0    0  501  0.00000000000E+00  0.00000000000E+00  0.85450956460E+03  0.85450956460E+03  0.25500000920E-02 0.  1.
        2   -1    0    0  501    0  0.00000000000E+00  0.00000000000E+00 -0.26334281408E+04  0.26334281408E+04  0.25500000920E-02 0. -1.
    10030    2    1    2    0    0  0.00000000000E+00  0.00000000000E+00 -0.17789185762E+04  0.34879377054E+04  0.30001930165E+04 0.  0.
        5    1    3    3  502    0  0.46015008853E+03 -0.59312218463E+02  0.76899286816E+03  0.89812480453E+03  0.46999998093E+01 0.  1.
       -5    1    3    3    0  502 -0.46015008853E+03  0.59312218463E+02 -0.25479114444E+04  0.25898129009E+04  0.46999998093E+01 0. -1.
</event>
<event>
 5   0  0.2466076E-06  0.3196808E+04  0.7818609E-02  0.8189661E-01
       -2   -1    0    0    0  501  0.00000000000E+00  0.00000000000E+00  0.21172730100E+04  0.21172730100E+04  0.25500000920E-02 0.  1.
        2   -1    0    0  501    0  0.00000000000E+00  0.00000000000E+00 -0.12066917782E+04  0.12066917782E+04  0.25500000920E-02 0. -1.
    10030    2    1    2    0    0  0.00000000000E+00  0.00000000000E+00  0.91058123183E+03  0.33239647882E+04  0.31968083667E+04 0.  0.
        3    1    3    3  502    0  0.10496908494E+03  0.13525918474E+04 -0.42353405209E+03  0.14212333791E+04  0.10100000352E+00 0.  1.
       -3    1    3    3    0  502 -0.10496908494E+03 -0.13525918474E+04  0.13341152839E+04  0.19027314091E+04  0.10100000352E+00 0. -1.
</event>
<event>
 5   0  0.8681172E-07  0.3211825E+04  0.7818609E-02  0.8185701E-01
        1   -1    0    0  501    0  0.00000000000E+00  0.00000000000E+00  0.20106535862E+04  0.20106535862E+04  0.50400001928E-02 0.  1.
       -1   -1    0    0    0  501  0.00000000000E+00  0.00000000000E+00 -0.12826454159E+04  0.12826454159E+04  0.50400001928E-02 0. -1.
    10030    2    1    2    0    0  0.00000000000E+00  0.00000000000E+00  0.72800817030E+03  0.32932990021E+04  0.32118254033E+04 0.  0.
        1    1    3    3  502    0 -0.15650059607E+04 -0.35938469397E+03  0.38815119974E+03  0.16519873998E+04  0.50400001928E-02 0.  1.
       -1    1    3    3    0  502  0.15650059607E+04  0.35938469397E+03  0.33985697056E+03  0.16413116023E+04  0.50400001928E-02 0. -1.
</event>
<event>
 5   0  0.8383008E-07  0.3194308E+04  0.7818609E-02  0.8190322E-01
        1   -1    0    0  501    0  0.00000000000E+00  0.00000000000E+00  0.22943857399E+04  0.22943857399E+04  0.50400001928E-02 0.  1.
       -1   -1    0    0    0  501  0.00000000000E+00  0.00000000000E+00 -0.11118012341E+04  0.11118012341E+04  0.50400001928E-02 0. -1.
    10030    2    1    2    0    0  0.00000000000E+00  0.00000000000E+00  0.11825845058E+04  0.34061869740E+04  0.31943079984E+04 0.  0.
        4    1    3    3  502    0 -0.87833194180E+03  0.13045688670E+04  0.29437653778E+03  0.16000081523E+04  0.12699999809E+01 0. -1.
       -4    1    3    3    0  502  0.87833194180E+03 -0.13045688670E+04  0.88820796801E+03  0.18061788217E+04  0.12699999809E+01 0.  1.
</event>
<event>
 5   0  0.8512855E-07  0.3042370E+04  0.7818609E-02  0.8231734E-01
        1   -1    0    0  501    0  0.00000000000E+00  0.00000000000E+00  0.30752194202E+04  0.30752194202E+04  0.50400001928E-02 0.  1.
       -1   -1    0    0    0  501  0.00000000000E+00  0.00000000000E+00 -0.75246767177E+03  0.75246767178E+03  0.50400001928E-02 0. -1.
    10030    2    1    2    0    0  0.00000000000E+00  0.00000000000E+00  0.23227517484E+04  0.38276870920E+04  0.30423696010E+04 0.  0.
        5    1    3    3  502    0  0.42102804712E+03  0.65464603520E+03  0.28057025426E+04  0.29116687475E+04  0.46999998093E+01 0.  1.
       -5    1    3    3    0  502 -0.42102804712E+03 -0.65464603520E+03 -0.48295079414E+03  0.91601834448E+03  0.46999998093E+01 0. -1.
</event>
<event>
 5   0  0.2621528E-06  0.3210155E+04  0.7818609E-02  0.8186140E-01
        2   -1    0    0  501    0  0.00000000000E+00  0.00000000000E+00  0.10574068084E+04  0.10574068084E+04  0.25500000920E-02 0.  1.
       -2   -1    0    0    0  501  0.00000000000E+00  0.00000000000E+00 -0.24364073891E+04  0.24364073891E+04  0.25500000920E-02 0. -1.
    10030    2    1    2    0    0  0.00000000000E+00  0.00000000000E+00 -0.13790005807E+04  0.34938141974E+04  0.32101549876E+04 0.  0.
        2    1    3    3  502    0  0.13297509275E+03  0.13940412418E+04 -0.15431824943E+04  0.20838535385E+04  0.25500000920E-02 0. -1.
       -2    1    3    3    0  502 -0.13297509275E+03 -0.13940412418E+04  0.16418191355E+03  0.14099606590E+04  0.25500000920E-02 0.  1.
</event>
<event>
 5   0  0.8545153E-07  0.3189635E+04  0.7818609E-02  0.8191560E-01
        1   -1    0    0  501    0  0.00000000000E+00  0.00000000000E+00  0.22629740094E+04  0.22629740094E+04  0.50400001928E-02 0. -1.
       -1   -1    0    0    0  501  0.00000000000E+00  0.00000000000E+00 -0.11239378774E+04  0.11239378774E+04  0.50400001928E-02 0.  1.
    10030    2    1    2    0    0  0.00000000000E+00  0.00000000000E+00  0.11390361320E+04  0.33869118868E+04  0.31896345903E+04 0.  0.
        3    1    3    3  502    0 -0.10440550687E+04 -0.38476203148E+02  0.18489963884E+04  0.21237511764E+04  0.10100000352E+00 0. -1.
       -3    1    3    3    0  502  0.10440550687E+04  0.38476203148E+02 -0.70996025640E+03  0.12631607105E+04  0.10100000352E+00 0.  1.
</event>
<event>
 5   0  0.8383008E-07  0.3246458E+04  0.7818609E-02  0.8176654E-01
       -1   -1    0    0    0  501  0.00000000000E+00  0.00000000000E+00  0.16214203110E+04  0.16214203110E+04  0.50400001928E-02 0. -1.
        1   -1    0    0  501    0  0.00000000000E+00  0.00000000000E+00 -0.16250398841E+04  0.16250398841E+04  0.50400001928E-02 0.  1.
    10030    2    1    2    0    0  0.00000000000E+00  0.00000000000E+00 -0.36195731060E+01  0.32464601951E+04  0.32464581773E+04 0.  0.
        4    1    3    3  502    0 -0.12119113373E+04  0.64721217958E+03  0.86263182244E+03  0.16222663064E+04  0.12699999809E+01 0. -1.
       -4    1    3    3    0  502  0.12119113373E+04 -0.64721217958E+03 -0.86625139554E+03  0.16241938887E+04  0.12699999809E+01 0.  1.
</event>
<event>
 5   0  0.2404430E-06  0.3202103E+04  0.7818609E-02  0.8188262E-01
        2   -1    0    0  501    0  0.00000000000E+00  0.00000000000E+00  0.19418049815E+04  0.19418049815E+04  0.25500000920E-02 0.  1.
       -2   -1    0    0    0  501  0.00000000000E+00  0.00000000000E+00 -0.13200941468E+04  0.13200941468E+04  0.25500000920E-02 0. -1.
    10030    2    1    2    0    0  0.00000000000E+00  0.00000000000E+00  0.62171083469E+03  0.32618991283E+04  0.32021026781E+04 0.  0.
        4    1    3    3  502    0  0.28913042358E+02 -0.13027677210E+03 -0.13144185590E+04  0.13211759014E+04  0.12699999809E+01 0. -1.
       -4    1    3    3    0  502 -0.28913042358E+02  0.13027677210E+03  0.19361293937E+04  0.19407232269E+04  0.12699999809E+01 0.  1.
</event>
<event>
 5   0  0.8383008E-07  0.3076566E+04  0.7818609E-02  0.8222199E-01
        1   -1    0    0  501    0  0.00000000000E+00  0.00000000000E+00  0.17887577148E+04  0.17887577148E+04  0.50400001928E-02 0. -1.
       -1   -1    0    0    0  501  0.00000000000E+00  0.00000000000E+00 -0.13228813028E+04  0.13228813028E+04  0.50400001928E-02 0.  1.
    10030    2    1    2    0    0  0.00000000000E+00  0.00000000000E+00  0.46587641198E+03  0.31116390176E+04  0.30765657062E+04 0.  0.
        4    1    3    3  502    0 -0.10520647764E+04  0.17143623619E+03 -0.88879614219E+03  0.13878727867E+04  0.12699999809E+01 0.  1.
       -4    1    3    3    0  502  0.10520647764E+04 -0.17143623619E+03  0.13546725542E+04  0.17237662309E+04  0.12699999809E+01 0. -1.
</event>
<event>
 5   0  0.8383008E-07  0.3199600E+04  0.7818609E-02  0.8188923E-01
        1   -1    0    0  501    0  0.00000000000E+00  0.00000000000E+00  0.24561198972E+04  0.24561198972E+04  0.50400001928E-02 0.  1.
       -1   -1    0    0    0  501  0.00000000000E+00  0.00000000000E+00 -0.10420340883E+04  0.10420340883E+04  0.50400001928E-02 0. -1.
    10030    2    1    2    0    0  0.00000000000E+00  0.00000000000E+00  0.14140858090E+04  0.34981539855E+04  0.31996003862E+04 0.  0.
        4    1    3    3  502    0  0.42469711661E+03  0.10339547930E+03 -0.97548242567E+03  0.10689367810E+04  0.12699999809E+01 0. -1.
       -4    1    3    3    0  502 -0.42469711661E+03 -0.10339547930E+03  0.23895682346E+04  0.24292172045E+04  0.12699999809E+01 0.  1.
</event>
<event>
 5   0  0.8681172E-07  0.3236251E+04  0.7818609E-02  0.8179309E-01
       -1   -1    0    0    0  501  0.00000000000E+00  0.00000000000E+00  0.10383221378E+04  0.10383221378E+04  0.50400001928E-02 0.  1.
        1   -1    0    0  501    0  0.00000000000E+00  0.00000000000E+00 -0.25216931413E+04  0.25216931413E+04  0.50400001928E-02 0. -1.
    10030    2    1    2    0    0  0.00000000000E+00  0.00000000000E+00 -0.14833710035E+04  0.35600152791E+04  0.32362508020E+04 0.  0.
        1    1    3    3  502    0  0.10584110129E+03  0.12077393699E+04  0.43720612733E+03  0.12887924279E+04  0.50400001928E-02 0.  1.
       -1    1    3    3    0  502 -0.10584110129E+03 -0.12077393699E+04 -0.19205771309E+04  0.22712228512E+04  0.50400001928E-02 0. -1.
</event>
<event>
 5   0  0.2337504E-06  0.3220121E+04  0.7818609E-02  0.8183523E-01
       -2   -1    0    0    0  501  0.00000000000E+00  0.00000000000E+00  0.11456304759E+04  0.11456304759E+04  0.25500000920E-02 0.  1.
        2   -1    0    0  501    0  0.00000000000E+00  0.00000000000E+00 -0.22627667663E+04  0.22627667663E+04  0.25500000920E-02 0. -1.
    10030    2    1    2    0    0  0.00000000000E+00  0.00000000000E+00 -0.11171362903E+04  0.34083972422E+04  0.32201208470E+04 0.  0.
        1    1    3    3  502    0 -0.10179295922E+04 -0.33813349167E+03 -0.18295152644E+04  0.21207642527E+04  0.50400001928E-02 0. -1.
       -1    1    3    3    0  502  0.10179295922E+04  0.33813349167E+03  0.71237897413E+03  0.12876329895E+04  0.50400001928E-02 0.  1.
</event>
<event>
 5   0  0.8545153E-07  0.3191758E+04  0.7818609E-02  0.8190997E-01
        1   -1    0    0  501    0  0.00000000000E+00  0.00000000000E+00  0.25314497525E+04  0.25314497525E+04  0.50400001928E-02 0. -1.
       -1   -1    0    0    0  501  0.00000000000E+00  0.00000000000E+00 -0.10060758661E+04  0.10060758661E+04  0.50400001928E-02 0.  1.
    10030    2    1    2    0    0  0.00000000000E+00  0.00000000000E+00  0.15253738863E+04  0.35375256186E+04  0.31917584509E+04 0.  0.
        3    1    3    3  502    0  0.15177497008E+03  0.33239668787E+02  0.25230470474E+04  0.25278265230E+04  0.10100000352E+00 0. -1.
       -3    1    3    3    0  502 -0.15177497008E+03 -0.33239668787E+02 -0.99767316102E+03  0.10096990955E+04  0.10100000352E+00 0.  1.
</event>
<event>
 5   0  0.2621528E-06  0.3218547E+04  0.7818609E-02  0.8183936E-01
       -2   -1    0    0    0  501  0.00000000000E+00  0.00000000000E+00  0.14686166861E+04  0.14686166861E+04  0.25500000920E-02 0.  1.
        2   -1    0    0  501    0  0.00000000000E+00  0.00000000000E+00 -0.17634019284E+04  0.17634019284E+04  0.25500000920E-02 0. -1.
    10030    2    1    2    0    0  0.00000000000E+00  0.00000000000E+00 -0.29478524235E+03  0.32320186145E+04  0.32185471855E+04 0.  0.
        2    1    3    3  502    0  0.15075060650E+04 -0.17621691422E+02  0.41788129445E+03  0.15644519284E+04  0.25500000920E-02 0.  1.
       -2    1    3    3    0  502 -0.15075060650E+04  0.17621691422E+02 -0.71266653680E+03  0.16675666861E+04  0.25500000920E-02 0. -1.
</event>
<event>
 5   0  0.2466076E-06  0.2916712E+04  0.7818609E-02  0.8267922E-01
        2   -1    0    0  501    0  0.00000000000E+00  0.00000000000E+00  0.20822075197E+04  0.20822075197E+04  0.25500000920E-02 0. -1.
       -2   -1    0    0    0  501  0.00000000000E+00  0.00000000000E+00 -0.10214172654E+04  0.10214172654E+04  0.25500000920E-02 0.  1.
    10030    2    1    2    0    0  0.00000000000E+00  0.00000000000E+00  0.10607902542E+04  0.31036247851E+04  0.29167123347E+04 0.  0.
        3    1    3    3  502    0  0.11173280538E+01  0.10137339685E+04  0.16459812066E+04  0.19331093994E+04  0.10100000352E+00 0. -1.
       -3    1    3    3    0  502 -0.11173280538E+01 -0.10137339685E+04 -0.58519095240E+03  0.11705153857E+04  0.10100000352E+00 0.  1.
</event>
<event>
 5   0  0.8512855E-07  0.3220459E+04  0.7818609E-02  0.8183435E-01
        1   -1    0    0  501    0  0.00000000000E+00  0.00000000000E+00  0.18623372435E+04  0.18623372435E+04  0.50400001928E-02 0. -1.
       -1   -1    0    0    0  501  0.00000000000E+00  0.00000000000E+00 -0.13922503535E+04  0.13922503535E+04  0.50400001928E-02 0.  1.
    10030    2    1    2    0    0  0.00000000000E+00  0.00000000000E+00  0.47008688996E+03  0.32545875970E+04  0.32204593993E+04 0.  0.
        5    1    3    3  502    0  0.24027469052E+03 -0.15728494794E+04  0.48511305606E+03  0.16634134119E+04  0.46999998093E+01 0. -1.
       -5    1    3    3    0  502 -0.24027469052E+03  0.15728494794E+04 -0.15026166099E+02  0.15911741851E+04  0.46999998093E+01 0.  1.
</event>
<event>
 5   0  0.2404430E-06  0.3179706E+04  0.7818609E-02  0.8194197E-01
        2   -1    0    0  501    0  0.00000000000E+00  0.00000000000E+00  0.20943092971E+04  0.20943092971E+04  0.25500000920E-02 0. -1.
       -2   -1    0    0    0  501  0.00000000000E+00  0.00000000000E+00 -0.12069052981E+04  0.12069052981E+04  0.25500000920E-02 0.  1.
    10030    2    1    2    0    0  0.00000000000E+00  0.00000000000E+00  0.88740399900E+03  0.33012145952E+04  0.31797062673E+04 0.  0.
        4    1    3    3  502    0 -0.15847054933E+04  0.32928604528E+02  0.31546861135E+03  0.16161367056E+04  0.12699999809E+01 0.  1.
       -4    1    3    3    0  502  0.15847054933E+04 -0.32928604528E+02  0.57193538766E+03  0.16850778896E+04  0.12699999809E+01 0. -1.
</event>
<event>
 5   0  0.2404430E-06  0.3182021E+04  0.7818609E-02  0.8193581E-01
       -2   -1    0    0    0  501  0.00000000000E+00  0.00000000000E+00  0.13592768203E+04  0.13592768203E+04  0.25500000920E-02 0.  1.
        2   -1    0    0  501    0  0.00000000000E+00  0.00000000000E+00 -0.18622512220E+04  0.18622512220E+04  0.25500000920E-02 0. -1.
    10030    2    1    2    0    0  0.00000000000E+00  0.00000000000E+00 -0.50297440173E+03  0.32215280423E+04  0.31820213196E+04 0.  0.
        4    1    3    3  502    0 -0.42980790678E+03 -0.14712100515E+04 -0.68354017723E+03  0.16782200807E+04  0.12699999809E+01 0.  1.
       -4    1    3    3    0  502  0.42980790678E+03  0.14712100515E+04  0.18056577550E+03  0.15433079617E+04  0.12699999809E+01 0. -1.
</event>
<event>
 5   0  0.2621528E-06  0.3211271E+04  0.7818609E-02  0.8185847E-01
       -2   -1    0    0    0  501  0.00000000000E+00  0.00000000000E+00  0.13896228396E+04  0.13896228396E+04  0.25500000920E-02 0.  1.
        2   -1    0    0  501    0  0.00000000000E+00  0.00000000000E+00 -0.18552262092E+04  0.18552262093E+04  0.25500000920E-02 0. -1.
    10030    2    1    2    0    0  0.00000000000E+00  0.00000000000E+00 -0.46560336966E+03  0.32448490488E+04  0.32112705977E+04 0.  0.
        2    1    3    3  502    0 -0.15516946798E+04  0.34396859178E+03 -0.46320778103E+03  0.16554854937E+04  0.25500000920E-02 0. -1.
       -2    1    3    3    0  502  0.15516946798E+04 -0.34396859178E+03 -0.23955886285E+01  0.15893635551E+04  0.25500000920E-02 0.  1.
</event>
<event>
 5   0  0.8512855E-07  0.3241996E+04  0.7818609E-02  0.8177813E-01
       -1   -1    0    0    0  501  0.00000000000E+00  0.00000000000E+00  0.12030382648E+04  0.12030382648E+04  0.50400001928E-02 0.  1.
        1   -1    0    0  501    0  0.00000000000E+00  0.00000000000E+00 -0.21841656531E+04  0.21841656531E+04  0.50400001928E-02 0. -1.
    10030    2    1    2    0    0  0.00000000000E+00  0.00000000000E+00 -0.98112738826E+03  0.33872039179E+04  0.32419962106E+04 0.  0.
        5    1    3    3  502    0  0.71093290559E+03  0.77344218573E+03 -0.17803497274E+04  0.20671975360E+04  0.46999998093E+01 0.  1.
       -5    1    3    3    0  502 -0.71093290559E+03 -0.77344218573E+03  0.79922233915E+03  0.13200063819E+04  0.46999998093E+01 0. -1.
</event>
<event>
 5   0  0.2466076E-06  0.3199091E+04  0.7818609E-02  0.8189057E-01
       -2   -1    0    0    0  501  0.00000000000E+00  0.00000000000E+00  0.11586087702E+04  0.11586087702E+04  0.25500000920E-02 0. -1.
        2   -1    0    0  501    0  0.00000000000E+00  0.00000000000E+00 -0.22082917662E+04  0.22082917662E+04  0.25500000920E-02 0.  1.
    10030    2    1    2    0    0  0.00000000000E+00  0.00000000000E+00 -0.10496829960E+04  0.33669005365E+04  0.31990912507E+04 0.  0.
        3    1    3    3  502    0 -0.13799644243E+04  0.14737969027E+03  0.31219044111E+03  0.14224926949E+04  0.10100000352E+00 0. -1.
       -3    1    3    3    0  502  0.13799644243E+04 -0.14737969027E+03 -0.13618734371E+04  0.19444078415E+04  0.10100000352E+00 0.  1.
</event>
<event>
 5   0  0.7934375E-07  0.3161481E+04  0.7818609E-02  0.8199065E-01
        3   -1    0    0  501    0  0.00000000000E+00  0.00000000000E+00  0.18138549771E+04  0.18138549799E+04  0.10100000352E+00 0.  1.
       -3   -1    0    0    0  501  0.00000000000E+00  0.00000000000E+00 -0.13775853967E+04  0.13775854004E+04  0.10100000352E+00 0. -1.
    10030    2    1    2    0    0  0.00000000000E+00  0.00000000000E+00  0.43626958044E+03  0.31914403803E+04  0.31614807534E+04 0.  0.
        3    1    3    3  502    0  0.14087006673E+04  0.47278163602E+03 -0.32621557857E+03  0.15213075492E+04  0.10100000352E+00 0. -1.
       -3    1    3    3    0  502 -0.14087006673E+04 -0.47278163602E+03  0.76248515901E+03  0.16701328311E+04  0.10100000352E+00 0.  1.
</event>
<event>
 5   0  0.8545153E-07  0.3182159E+04  0.7818609E-02  0.8193545E-01
       -1   -1    0    0    0  501  0.00000000000E+00  0.00000000000E+00  0.21773061033E+04  0.21773061033E+04  0.50400001928E-02 0.  1.
        1   -1    0    0  501    0  0.00000000000E+00  0.00000000000E+00 -0.11626911331E+04  0.11626911331E+04  0.50400001928E-02 0. -1.
    10030    2    1    2    0    0  0.00000000000E+00  0.00000000000E+00  0.10146149702E+04  0.33399972365E+04  0.31821593301E+04 0.  0.
        3    1    3    3  502    0  0.98193766979E+03  0.11116456965E+04 -0.97081054624E+02  0.14863991669E+04  0.10100000352E+00 0.  1.
       -3    1    3    3    0  502 -0.98193766979E+03 -0.11116456965E+04  0.11116960249E+04  0.18535980696E+04  0.10100000352E+00 0. -1.
</event>
<event>
 5   0  0.7934375E-07  0.3173820E+04  0.7818609E-02  0.8195766E-01
       -3   -1    0    0    0  501  0.00000000000E+00  0.00000000000E+00  0.13618895842E+04  0.13618895880E+04  0.10100000352E+00 0.  1.
        3   -1    0    0  501    0  0.00000000000E+00  0.00000000000E+00 -0.18491094053E+04  0.18491094080E+04  0.10100000352E+00 0. -1.
    10030    2    1    2    0    0  0.00000000000E+00  0.00000000000E+00 -0.48721982105E+03  0.32109989960E+04  0.31738196858E+04 0.  0.
        5    1    3    3  502    0  0.48441425290E+03 -0.54070009555E+03  0.11840359395E+04  0.13888761492E+04  0.46999998093E+01 0.  1.
       -5    1    3    3    0  502 -0.48441425290E+03  0.54070009555E+03 -0.16712557605E+04  0.18221228468E+04  0.46999998093E+01 0. -1.
</event>
<event>
 5   0  0.2404430E-06  0.3148765E+04  0.7818609E-02  0.8202481E-01
        2   -1    0    0  501    0  0.00000000000E+00  0.00000000000E+00  0.18750959820E+04  0.18750959820E+04  0.25500000920E-02 0.  1.
       -2   -1    0    0    0  501  0.00000000000E+00  0.00000000000E+00 -0.13218951534E+04  0.13218951534E+04  0.25500000920E-02 0. -1.
    10030    2    1    2    0    0  0.00000000000E+00  0.00000000000E+00  0.55320082856E+03  0.31969911354E+04  0.31487650219E+04 0.  0.
        4    1    3    3  502    0 -0.12840198254E+04 -0.53099184323E+03 -0.47502102134E+03  0.14684365268E+04  0.12699999809E+01 0. -1.
       -4    1    3    3    0  502  0.12840198254E+04  0.53099184323E+03  0.10282218499E+04  0.17285546086E+04  0.12699999809E+01 0.  1.
</event>
<event>
 5   0  0.8383008E-07  0.3205556E+04  0.7818609E-02  0.8187351E-01
        1   -1    0    0  501    0  0.00000000000E+00  0.00000000000E+00  0.25680641311E+04  0.25680641311E+04  0.50400001928E-02 0.  1.
       -1   -1    0    0    0  501  0.00000000000E+00  0.00000000000E+00 -0.10003245664E+04  0.10003245664E+04  0.50400001928E-02 0. -1.
    10030    2    1    2    0    0  0.00000000000E+00  0.00000000000E+00  0.15677395646E+04  0.35683886975E+04  0.32055562004E+04 0.  0.
        4    1    3    3  502    0  0.22915282838E+03  0.52231477223E+03 -0.88352636240E+03  0.10516388097E+04  0.12699999809E+01 0. -1.
       -4    1    3    3    0  502 -0.22915282838E+03 -0.52231477223E+03  0.24512659270E+04  0.25167498879E+04  0.12699999809E+01 0.  1.
</event>
<event>
 5   0  0.8545153E-07  0.3189067E+04  0.7818609E-02  0.8191710E-01
       -1   -1    0    0    0  501  0.00000000000E+00  0.00000000000E+00  0.14132946670E+04  0.14132946670E+04  0.50400001928E-02 0. -1.
        1   -1    0    0  501    0  0.00000000000E+00  0.00000000000E+00 -0.17990146205E+04  0.17990146205E+04  0.50400001928E-02 0.  1.
    10030    2    1    2    0    0  0.00000000000E+00  0.00000000000E+00 -0.38571995352E+03  0.32123092874E+04  0.31890674304E+04 0.  0.
        3    1    3    3  502    0 -0.10028104104E+04 -0.99326173258E+03 -0.94011571380E+03  0.16958818220E+04  0.10100000352E+00 0.  1.
       -3    1    3    3    0  502  0.10028104104E+04  0.99326173258E+03  0.55439576028E+03  0.15164274654E+04  0.10100000352E+00 0. -1.
</event>
<event>
 5   0  0.2621528E-06  0.3205817E+04  0.7818609E-02  0.8187282E-01
        2   -1    0    0  501    0  0.00000000000E+00  0.00000000000E+00  0.12880172025E+04  0.12880172025E+04  0.25500000920E-02 0.  1.
       -2   -1    0    0    0  501  0.00000000000E+00  0.00000000000E+00 -0.19947841951E+04  0.19947841951E+04  0.25500000920E-02 0. -1.
    10030    2    1    2    0    0  0.00000000000E+00  0.00000000000E+00 -0.70676699259E+03  0.32828013976E+04  0.32058174362E+04 0.  0.
        2    1    3    3  502    0 -0.73311234064E+03 -0.12686834521E+04  0.31207183770E+03  0.14981322497E+04  0.25500000920E-02 0.  1.
       -2    1    3    3    0  502  0.73311234064E+03  0.12686834521E+04 -0.10188388303E+04  0.17846691480E+04  0.25500000920E-02 0. -1.
</event>
<event>
 5   0  0.8545153E-07  0.3230756E+04  0.7818609E-02  0.8180742E-01
        1   -1    0    0  501    0  0.00000000000E+00  0.00000000000E+00  0.27361778232E+04  0.27361778232E+04  0.50400001928E-02 0.  1.
       -1   -1    0    0    0  501  0.00000000000E+00  0.00000000000E+00 -0.95368290333E+03  0.95368290334E+03  0.50400001928E-02 0. -1.
    10030    2    1    2    0    0  0.00000000000E+00  0.00000000000E+00  0.17824949199E+04  0.36898607265E+04  0.32307559552E+04 0.  0.
        3    1    3    3  502    0 -0.11853561996E+04  0.10400667259E+04  0.12912089230E+04  0.20381434217E+04  0.10100000352E+00 0.  1.
       -3    1    3    3    0  502  0.11853561996E+04 -0.10400667259E+04  0.49128599685E+03  0.16517173049E+04  0.10100000352E+00 0. -1.
</event>
<event>
 5   0  0.2337504E-06  0.3207275E+04  0.7818609E-02  0.8186898E-01
       -2   -1    0    0    0  501  0.00000000000E+00  0.00000000000E+00  0.82653587737E+03  0.82653587738E+03  0.25500000920E-02 0.  1.
        2   -1    0    0  501    0  0.00000000000E+00  0.00000000000E+00 -0.31113635542E+04  0.31113635542E+04  0.25500000920E-02 0. -1.
    10030    2    1    2    0    0  0.00000000000E+00  0.00000000000E+00 -0.22848276769E+04  0.39378994316E+04  0.32072752331E+04 0.  0.
        1    1    3    3  502    0  0.52145207809E+03  0.53820587633E+02 -0.30031903011E+04  0.30485998278E+04  0.50400001928E-02 0. -1.
       -1    1    3    3    0  502 -0.52145207809E+03 -0.53820587633E+02  0.71836262425E+03  0.88929960381E+03  0.50400001928E-02 0.  1.
</event>
<event>
 5   0  0.2337504E-06  0.3184860E+04  0.7818609E-02  0.8192827E-01
        2   -1    0    0  501    0  0.00000000000E+00  0.00000000000E+00  0.28758970996E+04  0.28758970996E+04  0.25500000920E-02 0.  1.
       -2   -1    0    0    0  501  0.00000000000E+00  0.00000000000E+00 -0.88175369005E+03  0.88175369006E+03  0.25500000920E-02 0. -1.
    10030    2    1    2    0    0  0.00000000000E+00  0.00000000000E+00  0.19941434095E+04  0.37576507897E+04  0.31848597330E+04 0.  0.
        1    1    3    3  502    0 -0.41592947822E+03  0.10113716347E+03 -0.81260411447E+03  0.91845059942E+03  0.50400001928E-02 0. -1.
       -1    1    3    3    0  502  0.41592947822E+03 -0.10113716347E+03  0.28067475240E+04  0.28392001902E+04  0.50400001928E-02 0.  1.
</event>
<event>
 5   0  0.2466076E-06  0.3198974E+04  0.7818609E-02  0.8189088E-01
       -2   -1    0    0    0  501  0.00000000000E+00  0.00000000000E+00  0.23674468827E+04  0.23674468827E+04  0.25500000920E-02 0. -1.
        2   -1    0    0  501    0  0.00000000000E+00  0.00000000000E+00 -0.10806405747E+04  0.10806405747E+04  0.25500000920E-02 0.  1.
    10030    2    1    2    0    0  0.00000000000E+00  0.00000000000E+00  0.12868063080E+04  0.34480874574E+04  0.31989743105E+04 0.  0.
        3    1    3    3  502    0 -0.23035388571E+03  0.63592570369E+02  0.23480964923E+04  0.23602254288E+04  0.10100000352E+00 0. -1.
       -3    1    3    3    0  502  0.23035388571E+03 -0.63592570369E+02 -0.10612901843E+04  0.10878620285E+04  0.10100000352E+00 0.  1.
</event>
<event>
 5   0  0.2466076E-06  0.2977346E+04  0.7818609E-02  0.8250229E-01
        2   -1    0    0  501    0  0.00000000000E+00  0.00000000000E+00  0.29458494639E+04  0.29458494639E+04  0.25500000920E-02 0.  1.
       -2   -1    0    0    0  501  0.00000000000E+00  0.00000000000E+00 -0.75229500928E+03  0.75229500928E+03  0.25500000920E-02 0. -1.
    10030    2    1    2    0    0  0.00000000000E+00  0.00000000000E+00  0.21935544546E+04  0.36981444732E+04  0.29773463687E+04 0.  0.
        3    1    3    3  502    0  0.20950781006E+03 -0.14254487128E+04  0.63144711132E+03  0.15730616707E+04  0.10100000352E+00 0. -1.
       -3    1    3    3    0  502 -0.20950781006E+03  0.14254487128E+04  0.15621073433E+04  0.21250828025E+04  0.10100000352E+00 0.  1.
</event>
<event>
 5   0  0.2401139E-06  0.3163800E+04  0.7818609E-02  0.8198443E-01
       -2   -1    0    0    0  501  0.00000000000E+00  0.00000000000E+00  0.11964045080E+04  0.11964045080E+04  0.25500000920E-02 0. -1.
        2   -1    0    0  501    0  0.00000000000E+00  0.00000000000E+00 -0.20916064104E+04  0.20916064104E+04  0.25500000920E-02 0.  1.
    10030    2    1    2    0    0  0.00000000000E+00  0.00000000000E+00 -0.89520190242E+03  0.32880109184E+04  0.31637998283E+04 0.  0.
        5    1    3    3  502    0  0.11586784897E+04 -0.77605906581E+03 -0.12236309702E+04  0.18552892920E+04  0.46999998093E+01 0.  1.
       -5    1    3    3    0  502 -0.11586784897E+04  0.77605906581E+03  0.32842906774E+03  0.14327216263E+04  0.46999998093E+01 0. -1.
</event>
<event>
 5   0  0.8545153E-07  0.3124076E+04  0.7818609E-02  0.8209162E-01
        1   -1    0    0  501    0  0.00000000000E+00  0.00000000000E+00  0.26473306174E+04  0.26473306174E+04  0.50400001928E-02 0. -1.
       -1   -1    0    0    0  501  0.00000000000E+00  0.00000000000E+00 -0.92166877326E+03  0.92166877327E+03  0.50400001928E-02 0.  1.
    10030    2    1    2    0    0  0.00000000000E+00  0.00000000000E+00  0.17256618441E+04  0.35689993907E+04  0.31240755193E+04 0.  0.
        3    1    3    3  502    0  0.78139369248E+03  0.91159193847E+03  0.20043263823E+04  0.23364289465E+04  0.10100000352E+00 0. -1.
       -3    1    3    3    0  502 -0.78139369248E+03 -0.91159193847E+03 -0.27866453814E+03  0.12325704442E+04  0.10100000352E+00 0.  1.
</event>
<event>
 5   0  0.8383008E-07  0.3200326E+04  0.7818609E-02  0.8188731E-01
        1   -1    0    0  501    0  0.00000000000E+00  0.00000000000E+00  0.17874721716E+04  0.17874721716E+04  0.50400001928E-02 0.  1.
       -1   -1    0    0    0  501  0.00000000000E+00  0.00000000000E+00 -0.14324821314E+04  0.14324821314E+04  0.50400001928E-02 0. -1.
    10030    2    1    2    0    0  0.00000000000E+00  0.00000000000E+00  0.35499004023E+03  0.32199543029E+04  0.32003261997E+04 0.  0.
        4    1    3    3  502    0 -0.30026576128E+02 -0.96053777038E+03  0.14647895822E+04  0.17518974104E+04  0.12699999809E+01 0.  1.
       -4    1    3    3    0  502  0.30026576128E+02  0.96053777038E+03 -0.11097995419E+04  0.14680568926E+04  0.12699999809E+01 0. -1.
</event>
<event>
 5   0  0.2404430E-06  0.3183083E+04  0.7818609E-02  0.8193299E-01
        2   -1    0    0  501    0  0.00000000000E+00  0.00000000000E+00  0.18245522300E+04  0.18245522300E+04  0.25500000920E-02 0. -1.
       -2   -1    0    0    0  501  0.00000000000E+00  0.00000000000E+00 -0.13882885307E+04  0.13882885307E+04  0.25500000920E-02 0.  1.
    10030    2    1    2    0    0  0.00000000000E+00  0.00000000000E+00  0.43626369927E+03  0.32128407607E+04  0.31830833697E+04 0.  0.
        4    1    3    3  502    0  0.63679798899E+03 -0.13494104059E+04  0.77700772526E+03  0.16823087530E+04  0.12699999809E+01 0.  1.
       -4    1    3    3    0  502 -0.63679798899E+03  0.13494104059E+04 -0.34074402599E+03  0.15305320077E+04  0.12699999809E+01 0. -1.
</event>
<event>
 5   0  0.8545153E-07  0.3192013E+04  0.7818609E-02  0.8190930E-01
       -1   -1    0    0    0  501  0.00000000000E+00  0.00000000000E+00  0.10652352495E+04  0.10652352495E+04  0.50400001928E-02 0. -1.
        1   -1    0    0  501    0  0.00000000000E+00  0.00000000000E+00 -0.23912430946E+04  0.23912430946E+04  0.50400001928E-02 0.  1.
    10030    2    1    2    0    0  0.00000000000E+00  0.00000000000E+00 -0.13260078452E+04  0.34564783441E+04  0.31920128035E+04 0.  0.
        3    1    3    3  502    0 -0.71926746047E+02 -0.49828162232E+02 -0.23886438272E+04  0.23902459384E+04  0.10100000352E+00 0.  1.
       -3    1    3    3    0  502  0.71926746047E+02  0.49828162232E+02  0.10626359820E+04  0.10662324057E+04  0.10100000352E+00 0. -1.
</event>
<event>
 5   0  0.8487944E-07  0.3215334E+04  0.7818609E-02  0.8184779E-01
       -1   -1    0    0    0  501  0.00000000000E+00  0.00000000000E+00  0.10860888834E+04  0.10860888834E+04  0.50400001928E-02 0.  1.
        1   -1    0    0  501    0  0.00000000000E+00  0.00000000000E+00 -0.23797255987E+04  0.23797255987E+04  0.50400001928E-02 0. -1.
    10030    2    1    2    0    0  0.00000000000E+00  0.00000000000E+00 -0.12936367153E+04  0.34658144821E+04  0.32153342086E+04 0.  0.
        2    1    3    3  502    0  0.10653093527E+04  0.57487981690E+03 -0.17871664634E+04  0.21585492324E+04  0.25500000920E-02 0. -1.
       -2    1    3    3    0  502 -0.10653093527E+04 -0.57487981690E+03  0.49352974809E+03  0.13072652497E+04  0.25500000920E-02 0.  1.
</event>
<event>
 5   0  0.8512855E-07  0.3127912E+04  0.7818609E-02  0.8208119E-01
        1   -1    0    0  501    0  0.00000000000E+00  0.00000000000E+00  0.21204369837E+04  0.21204369837E+04  0.50400001928E-02 0.  1.
       -1   -1    0    0    0  501  0.00000000000E+00  0.00000000000E+00 -0.11535162899E+04  0.11535162899E+04  0.50400001928E-02 0. -1.
    10030    2    1    2    0    0  0.00000000000E+00  0.00000000000E+00  0.96692069376E+03  0.32739532736E+04  0.31279121486E+04 0.  0.
        5    1    3    3  502    0  0.34275783133E+03  0.14705920898E+04  0.57247489790E+02  0.15111000597E+04  0.46999998093E+01 0. -1.
       -5    1    3    3    0  502 -0.34275783133E+03 -0.14705920898E+04  0.90967320397E+03  0.17628532138E+04  0.46999998093E+01 0.  1.
</event>
<event>
 5   0  0.8545153E-07  0.3173634E+04  0.7818609E-02  0.8195815E-01
        1   -1    0    0  501    0  0.00000000000E+00  0.00000000000E+00  0.23695756284E+04  0.23695756284E+04  0.50400001928E-02 0.  1.
       -1   -1    0    0    0  501  0.00000000000E+00  0.00000000000E+00 -0.10626328310E+04  0.10626328311E+04  0.50400001928E-02 0. -1.
    10030    2    1    2    0    0  0.00000000000E+00  0.00000000000E+00  0.13069427974E+04  0.34322084595E+04  0.31736344203E+04 0.  0.
        3    1    3    3  502    0 -0.86979594514E+03  0.39545075315E+03  0.20236044488E+04  0.22378340554E+04  0.10100000352E+00 0.  1.
       -3    1    3    3    0  502  0.86979594514E+03 -0.39545075315E+03 -0.71666165138E+03  0.11943744041E+04  0.10100000352E+00 0. -1.
</event>
<event>
 5   0  0.8512855E-07  0.3284822E+04  0.7818609E-02  0.8166768E-01
        1   -1    0    0  501    0  0.00000000000E+00  0.00000000000E+00  0.13074540450E+04  0.13074540450E+04  0.50400001928E-02 0. -1.
       -1   -1    0    0    0  501  0.00000000000E+00  0.00000000000E+00 -0.20631809334E+04  0.20631809334E+04  0.50400001928E-02 0.  1.
    10030    2    1    2    0    0  0.00000000000E+00  0.00000000000E+00 -0.75572688834E+03  0.33706349784E+04  0.32848222217E+04 0.  0.
        5    1    3    3  502    0 -0.43229576297E+03 -0.14530400841E+04 -0.10262626409E+04  0.18306944613E+04  0.46999998093E+01 0.  1.
       -5    1    3    3    0  502  0.43229576297E+03  0.14530400841E+04  0.27053575251E+03  0.15399405171E+04  0.46999998093E+01 0. -1.
</event>
<event>
 5   0  0.8487944E-07  0.3211347E+04  0.7818609E-02  0.8185827E-01
       -1   -1    0    0    0  501  0.00000000000E+00  0.00000000000E+00  0.13811470225E+04  0.13811470225E+04  0.50400001928E-02 0. -1.
        1   -1    0    0  501    0  0.00000000000E+00  0.00000000000E+00 -0.18667003391E+04  0.18667003391E+04  0.50400001928E-02 0.  1.
    10030    2    1    2    0    0  0.00000000000E+00  0.00000000000E+00 -0.48555331660E+03  0.32478473615E+04  0.32113471411E+04 0.  0.
        2    1    3    3  502    0 -0.11582874360E+03 -0.13561462058E+04 -0.11043030777E+04  0.17527219166E+04  0.25500000920E-02 0.  1.
       -2    1    3    3    0  502  0.11582874360E+03  0.13561462058E+04  0.61874976111E+03  0.14951254450E+04  0.25500000920E-02 0. -1.
</event>
<event>
 5   0  0.8487944E-07  0.3220390E+04  0.7818609E-02  0.8183453E-01
       -1   -1    0    0    0  501  0.00000000000E+00  0.00000000000E+00  0.88793254194E+03  0.88793254195E+03  0.50400001928E-02 0. -1.
        1   -1    0    0  501    0  0.00000000000E+00  0.00000000000E+00 -0.29199595920E+04  0.29199595920E+04  0.50400001928E-02 0.  1.
    10030    2    1    2    0    0  0.00000000000E+00  0.00000000000E+00 -0.20320270500E+04  0.38078921339E+04  0.32203895062E+04 0.  0.
        2    1    3    3  502    0  0.16353867473E+03  0.14599780427E+04 -0.17953846581E+04  0.23198462996E+04  0.25500000920E-02 0.  1.
       -2    1    3    3    0  502 -0.16353867473E+03 -0.14599780427E+04 -0.23664239196E+03  0.14880458343E+04  0.25500000920E-02 0. -1.
</event>
<event>
 5   0  0.2401139E-06  0.3211594E+04  0.7818609E-02  0.8185762E-01
       -2   -1    0    0    0  501  0.00000000000E+00  0.00000000000E+00  0.14407531672E+04  0.14407531672E+04  0.25500000920E-02 0.  1.
        2   -1    0    0  501    0  0.00000000000E+00  0.00000000000E+00 -0.17897477173E+04  0.17897477173E+04  0.25500000920E-02 0. -1.
    10030    2    1    2    0    0  0.00000000000E+00  0.00000000000E+00 -0.34899455008E+03  0.32305008845E+04  0.32115944278E+04 0.  0.
        5    1    3    3  502    0  0.72140293969E+02 -0.14950139676E+04 -0.75954970364E+03  0.16784542971E+04  0.46999998093E+01 0.  1.
       -5    1    3    3    0  502 -0.72140293969E+02  0.14950139676E+04  0.41055515356E+03  0.15520465874E+04  0.46999998093E+01 0. -1.
</event>
<event>
 5   0  0.8545153E-07  0.3179824E+04  0.7818609E-02  0.8194166E-01
       -1   -1    0    0    0  501  0.00000000000E+00  0.00000000000E+00  0.10527583445E+04  0.10527583445E+04  0.50400001928E-02 0.  1.
        1   -1    0    0  501    0  0.00000000000E+00  0.00000000000E+00 -0.24011397597E+04  0.24011397597E+04  0.50400001928E-02 0. -1.
    10030    2    1    2    0    0  0.00000000000E+00  0.00000000000E+00 -0.13483814152E+04  0.34538981042E+04  0.31798238432E+04 0.  0.
        3    1    3    3  502    0  0.18761995798E+02 -0.15893709699E+04 -0.71436241213E+03  0.17426318482E+04  0.10100000352E+00 0. -1.
       -3    1    3    3    0  502 -0.18761995798E+02  0.15893709699E+04 -0.63401900310E+03  0.17112662560E+04  0.10100000352E+00 0.  1.
</event>
<event>
 5   0  0.2401139E-06  0.3223798E+04  0.7818609E-02  0.8182560E-01
       -2   -1    0    0    0  501  0.00000000000E+00  0.00000000000E+00  0.15227649493E+04  0.15227649493E+04  0.25500000920E-02 0.  1.
        2   -1    0    0  501    0  0.00000000000E+00  0.00000000000E+00 -0.17062500698E+04  0.17062500698E+04  0.25500000920E-02 0. -1.
    10030    2    1    2    0    0  0.00000000000E+00  0.00000000000E+00 -0.18348512053E+03  0.32290150191E+04  0.32237976370E+04 0.  0.
        5    1    3    3  502    0  0.85729498695E+03 -0.62605891862E+03 -0.13066735727E+04  0.16835445880E+04  0.46999998093E+01 0. -1.
       -5    1    3    3    0  502 -0.85729498695E+03  0.62605891862E+03  0.11231884522E+04  0.15454704311E+04  0.46999998093E+01 0.  1.
</event>
<event>
 5   0  0.8545153E-07  0.3169361E+04  0.7818609E-02  0.8196956E-01
        1   -1    0    0  501    0  0.00000000000E+00  0.00000000000E+00  0.13267984198E+04  0.13267984198E+04  0.50400001928E-02 0. -1.
       -1   -1    0    0    0  501  0.00000000000E+00  0.00000000000E+00 -0.18926859091E+04  0.18926859091E+04  0.50400001928E-02 0.  1.
    10030    2    1    2    0    0  0.00000000000E+00  0.00000000000E+00 -0.56588748925E+03  0.32194843289E+04  0.31693612438E+04 0.  0.
        3    1    3    3  502    0 -0.28151506570E+03 -0.14795006410E+04 -0.78373098851E+03  0.16977653406E+04  0.10100000352E+00 0. -1.
       -3    1    3    3    0  502  0.28151506570E+03  0.14795006410E+04  0.21784349926E+03  0.15217189883E+04  0.10100000352E+00 0.  1.
</event>
<event>
 5   0  0.2404430E-06  0.2988917E+04  0.7818609E-02  0.8246903E-01
        2   -1    0    0  501    0  0.00000000000E+00  0.00000000000E+00  0.21274458111E+04  0.21274458111E+04  0.25500000920E-02 0. -1.
       -2   -1    0    0    0  501  0.00000000000E+00  0.00000000000E+00 -0.10498061271E+04  0.10498061271E+04  0.25500000920E-02 0.  1.
    10030    2    1    2    0    0  0.00000000000E+00  0.00000000000E+00  0.10776396840E+04  0.31772519382E+04  0.29889166249E+04 0.  0.
        4    1    3    3  502    0 -0.75266822689E+01 -0.12681421996E+04  0.13793134162E+04  0.18736991227E+04  0.12699999809E+01 0. -1.
       -4    1    3    3    0  502  0.75266822689E+01  0.12681421996E+04 -0.30167373214E+03  0.13035528156E+04  0.12699999809E+01 0.  1.
</event>
<event>
 5   0  0.8383008E-07  0.3166912E+04  0.7818609E-02  0.8197611E-01
       -1   -1    0    0    0  501  0.00000000000E+00  0.00000000000E+00  0.29369166318E+04  0.29369166318E+04  0.50400001928E-02 0. -1.
        1   -1    0    0  501    0  0.00000000000E+00  0.00000000000E+00 -0.85372971939E+03  0.85372971941E+03  0.50400001928E-02 0.  1.
    10030    2    1    2    0    0  0.00000000000E+00  0.00000000000E+00  0.20831869124E+04  0.37906463512E+04  0.31669120682E+04 0.  0.
        4    1    3    3  502    0 -0.14988251909E+03 -0.15052507465E+04  0.48133890996E+03  0.15874297901E+04  0.12699999809E+01 0. -1.
       -4    1    3    3    0  502  0.14988251909E+03  0.15052507465E+04  0.16018480025E+04  0.22032165611E+04  0.12699999809E+01 0.  1.
</event>
<event>
 5   0  0.2404430E-06  0.3197292E+04  0.7818609E-02  0.8189533E-01
        2   -1    0    0  501    0  0.00000000000E+00  0.00000000000E+00  0.15931651524E+04  0.15931651524E+04  0.25500000920E-02 0. -1.
       -2   -1    0    0    0  501  0.00000000000E+00  0.00000000000E+00 -0.16041460253E+04  0.16041460253E+04  0.25500000920E-02 0.  1.
    10030    2    1    2    0    0  0.00000000000E+00  0.00000000000E+00 -0.10980872962E+02  0.31973111777E+04  0.31972923212E+04 0.  0.
        4    1    3    3  502    0  0.77386769669E+03  0.55778442487E+03  0.12773550993E+04  0.15942497731E+04  0.12699999809E+01 0. -1.
       -4    1    3    3    0  502 -0.77386769669E+03 -0.55778442487E+03 -0.12883359722E+04  0.16030614046E+04  0.12699999809E+01 0.  1.
</event>
<event>
 5   0  0.2621528E-06  0.3147493E+04  0.7818609E-02  0.8202823E-01
       -2   -1    0    0    0  501  0.00000000000E+00  0.00000000000E+00  0.20290725841E+04  0.20290725841E+04  0.25500000920E-02 0. -1.
        2   -1    0    0  501    0  0.00000000000E+00  0.00000000000E+00 -0.12205960312E+04  0.12205960312E+04  0.25500000920E-02 0.  1.
    10030    2    1    2    0    0  0.00000000000E+00  0.00000000000E+00  0.80847655292E+03  0.32496686153E+04  0.31474929345E+04 0.  0.
        2    1    3    3  502    0 -0.87218697913E+03  0.11912190395E+04  0.96687355211E+03  0.17648108659E+04  0.25500000920E-02 0. -1.
       -2    1    3    3    0  502  0.87218697913E+03 -0.11912190395E+04 -0.15839699919E+03  0.14848577494E+04  0.25500000920E-02 0.  1.
</event>
<event>
 5   0  0.8681172E-07  0.3207549E+04  0.7818609E-02  0.8186826E-01
       -1   -1    0    0    0  501  0.00000000000E+00  0.00000000000E+00  0.12256774404E+04  0.12256774404E+04  0.50400001928E-02 0.  1.
        1   -1    0    0  501    0  0.00000000000E+00  0.00000000000E+00 -0.20985069939E+04  0.20985069939E+04  0.50400001928E-02 0. -1.
    10030    2    1    2    0    0  0.00000000000E+00  0.00000000000E+00 -0.87282955348E+03  0.33241844343E+04  0.32075490213E+04 0.  0.
        1    1    3    3  502    0 -0.62675084150E+02  0.65798213821E+03  0.10779605749E+04  0.12644633888E+04  0.50400001928E-02 0.  1.
       -1    1    3    3    0  502  0.62675084150E+02 -0.65798213821E+03 -0.19507901284E+04  0.20597210456E+04  0.50400001928E-02 0. -1.
</event>
<event>
 5   0  0.8681172E-07  0.3191103E+04  0.7818609E-02  0.8191171E-01
       -1   -1    0    0    0  501  0.00000000000E+00  0.00000000000E+00  0.14383813309E+04  0.14383813309E+04  0.50400001928E-02 0. -1.
        1   -1    0    0  501    0  0.00000000000E+00  0.00000000000E+00 -0.17698958150E+04  0.17698958150E+04  0.50400001928E-02 0.  1.
    10030    2    1    2    0    0  0.00000000000E+00  0.00000000000E+00 -0.33151448405E+03  0.32082771459E+04  0.31911033188E+04 0.  0.
        1    1    3    3  502    0 -0.12378874120E+04 -0.11042893513E+03  0.84024030173E+03  0.15001878413E+04  0.50400001928E-02 0. -1.
       -1    1    3    3    0  502  0.12378874120E+04  0.11042893513E+03 -0.11717547858E+04  0.17080893046E+04  0.50400001928E-02 0.  1.
</event>
<event>
 5   0  0.2401139E-06  0.2974857E+04  0.7818609E-02  0.8250947E-01
       -2   -1    0    0    0  501  0.00000000000E+00  0.00000000000E+00  0.10335536281E+04  0.10335536281E+04  0.25500000920E-02 0. -1.
        2   -1    0    0  501    0  0.00000000000E+00  0.00000000000E+00 -0.21406182690E+04  0.21406182690E+04  0.25500000920E-02 0.  1.
    10030    2    1    2    0    0  0.00000000000E+00  0.00000000000E+00 -0.11070646408E+04  0.31741718971E+04  0.29748571585E+04 0.  0.
        5    1    3    3  502    0  0.75936736278E+03 -0.12733768985E+04 -0.42596371299E+03  0.15425934954E+04  0.46999998093E+01 0.  1.
       -5    1    3    3    0  502 -0.75936736278E+03  0.12733768985E+04 -0.68110092786E+03  0.16315784018E+04  0.46999998093E+01 0. -1.
</event>
<event>
 5   0  0.2466076E-06  0.3102276E+04  0.7818609E-02  0.8215113E-01
        2   -1    0    0  501    0  0.00000000000E+00  0.00000000000E+00  0.13032401174E+04  0.13032401174E+04  0.25500000920E-02 0.  1.
       -2   -1    0    0    0  501  0.00000000000E+00  0.00000000000E+00 -0.18461904773E+04  0.18461904773E+04  0.25500000920E-02 0. -1.
    10030    2    1    2    0    0  0.00000000000E+00  0.00000000000E+00 -0.54295035998E+03  0.31494305947E+04  0.31022762574E+04 0.  0.
        3    1    3    3  502    0 -0.61985497709E+03  0.64677397778E+03  0.10140632628E+04  0.13530931535E+04  0.10100000352E+00 0.  1.
       -3    1    3    3    0  502  0.61985497709E+03 -0.64677397778E+03 -0.15570136228E+04  0.17963374412E+04  0.10100000352E+00 0. -1.
</event>
<event>
 5   0  0.2401139E-06  0.3156282E+04  0.7818609E-02  0.8200459E-01
        2   -1    0    0  501    0  0.00000000000E+00  0.00000000000E+00  0.20130597021E+04  0.20130597021E+04  0.25500000920E-02 0.  1.
       -2   -1    0    0    0  501  0.00000000000E+00  0.00000000000E+00 -0.12371855770E+04  0.12371855770E+04  0.25500000920E-02 0. -1.
    10030    2    1    2    0    0  0.00000000000E+00  0.00000000000E+00  0.77587412511E+03  0.32502452791E+04  0.31562816281E+04 0.  0.
        5    1    3    3  502    0 -0.80198444360E+03  0.89874638198E+03 -0.66201582637E+03  0.13744857770E+04  0.46999998093E+01 0. -1.
       -5    1    3    3    0  502  0.80198444360E+03 -0.89874638198E+03  0.14378899515E+04  0.18757595020E+04  0.46999998093E+01 0.  1.
</event>
<event>
 5   0  0.8487944E-07  0.3023212E+04  0.7818609E-02  0.8237133E-01
       -1   -1    0    0    0  501  0.00000000000E+00  0.00000000000E+00  0.10852911412E+04  0.10852911412E+04  0.50400001928E-02 0. -1.
        1   -1    0    0  501    0  0.00000000000E+00  0.00000000000E+00 -0.21053820833E+04  0.21053820833E+04  0.50400001928E-02 0.  1.
    10030    2    1    2    0    0  0.00000000000E+00  0.00000000000E+00 -0.10200909421E+04  0.31906732245E+04  0.30232118840E+04 0.  0.
        2    1    3    3  502    0 -0.10410255008E+04 -0.47450193191E+03 -0.15527311567E+04  0.19286939160E+04  0.25500000920E-02 0.  1.
       -2    1    3    3    0  502  0.10410255008E+04  0.47450193191E+03  0.53264021460E+03  0.12619793085E+04  0.25500000920E-02 0. -1.
</event>
<event>
 5   0  0.2404430E-06  0.3211062E+04  0.7818609E-02  0.8185902E-01
       -2   -1    0    0    0  501  0.00000000000E+00  0.00000000000E+00  0.26028380988E+04  0.26028380988E+04  0.25500000920E-02 0.  1.
        2   -1    0    0  501    0  0.00000000000E+00  0.00000000000E+00 -0.99035323164E+03  0.99035323164E+03  0.25500000920E-02 0. -1.
    10030    2    1    2    0    0  0.00000000000E+00  0.00000000000E+00  0.16124848672E+04  0.35931913305E+04  0.32110615831E+04 0.  0.
        4    1    3    3  502    0 -0.12545036211E+04 -0.71124411755E+03  0.15959771890E+04  0.21509979848E+04  0.12699999809E+01 0.  1.
       -4    1    3    3    0  502  0.12545036211E+04  0.71124411755E+03  0.16507678214E+02  0.14421933457E+04  0.12699999809E+01 0. -1.
</event>
<event>
 5   0  0.8681172E-07  0.3067333E+04  0.7818609E-02  0.8224761E-01
        1   -1    0    0  501    0  0.00000000000E+00  0.00000000000E+00  0.17102943185E+04  0.17102943185E+04  0.50400001928E-02 0.  1.
       -1   -1    0    0    0  501  0.00000000000E+00  0.00000000000E+00 -0.13752799882E+04  0.13752799882E+04  0.50400001928E-02 0. -1.
    10030    2    1    2    0    0  0.00000000000E+00  0.00000000000E+00  0.33501433028E+03  0.30855743067E+04  0.30673334023E+04 0.  0.
        1    1    3    3  502    0  0.12100577909E+04 -0.76944716435E+03 -0.37964353838E+03  0.14833806027E+04  0.50400001928E-02 0.  1.
       -1    1    3    3    0  502 -0.12100577909E+04  0.76944716435E+03  0.71465786867E+03  0.16021937041E+04  0.50400001928E-02 0. -1.
</event>
<event>
 5   0  0.2466076E-06  0.3203946E+04  0.7818609E-02  0.8187776E-01
       -2   -1    0    0    0  501  0.00000000000E+00  0.00000000000E+00  0.10948355557E+04  0.10948355558E+04  0.25500000920E-02 0. -1.
        2   -1    0    0  501    0  0.00000000000E+00  0.00000000000E+00 -0.23440204567E+04  0.23440204567E+04  0.25500000920E-02 0.  1.
    10030    2    1    2    0    0  0.00000000000E+00  0.00000000000E+00 -0.12491849009E+04  0.34388560124E+04  0.32039456546E+04 0.  0.
        3    1    3    3  502    0  0.57266967335E+03 -0.44848401569E+03 -0.21565570103E+04  0.22759232447E+04  0.10100000352E+00 0.  1.
       -3    1    3    3    0  502 -0.57266967335E+03  0.44848401569E+03  0.90737210937E+03  0.11629327677E+04  0.10100000352E+00 0. -1.
</event>
<event>
 5   0  0.8681172E-07  0.3224579E+04  0.7818609E-02  0.8182356E-01
        1   -1    0    0  501    0  0.00000000000E+00  0.00000000000E+00  0.27138966481E+04  0.27138966481E+04  0.50400001928E-02 0. -1.
       -1   -1    0    0    0  501  0.00000000000E+00  0.00000000000E+00 -0.95783927051E+03  0.95783927052E+03  0.50400001928E-02 0.  1.
    10030    2    1    2    0    0  0.00000000000E+00  0.00000000000E+00  0.17560573776E+04  0.36717359186E+04  0.32245785993E+04 0.  0.
        1    1    3    3  502    0  0.98838264785E+03 -0.70457555379E+03  0.20863892877E+04  0.24137827635E+04  0.50400001928E-02 0. -1.
       -1    1    3    3    0  502 -0.98838264785E+03  0.70457555379E+03 -0.33033191011E+03  0.12579531551E+04  0.50400001928E-02 0.  1.
</event>
<event>
 5   0  0.2401139E-06  0.3175923E+04  0.7818609E-02  0.8195205E-01
       -2   -1    0    0    0  501  0.00000000000E+00  0.00000000000E+00  0.10291733314E+04  0.10291733314E+04  0.25500000920E-02 0. -1.
        2   -1    0    0  501    0  0.00000000000E+00  0.00000000000E+00 -0.24501430255E+04  0.24501430255E+04  0.25500000920E-02 0.  1.
    10030    2    1    2    0    0  0.00000000000E+00  0.00000000000E+00 -0.14209696941E+04  0.34793163569E+04  0.31759230847E+04 0.  0.
        5    1    3    3  502    0 -0.13477834053E+02  0.15488625900E+04 -0.10938305153E+04  0.18962184107E+04  0.46999998093E+01 0.  1.
       -5    1    3    3    0  502  0.13477834053E+02 -0.15488625900E+04 -0.32713917879E+03  0.15830979462E+04  0.46999998093E+01 0. -1.
</event>
<event>
 5   0  0.8383008E-07  0.3016060E+04  0.7818609E-02  0.8239160E-01
       -1   -1    0    0    0  501  0.00000000000E+00  0.00000000000E+00  0.11719400007E+04  0.11719400007E+04  0.50400001928E-02 0. -1.
        1   -1    0    0  501    0  0.00000000000E+00  0.00000000000E+00 -0.19405037925E+04  0.19405037925E+04  0.50400001928E-02 0.  1.
    10030    2    1    2    0    0  0.00000000000E+00  0.00000000000E+00 -0.76856379180E+03  0.31124437931E+04  0.30160596916E+04 0.  0.
        4    1    3    3  502    0 -0.53880948383E+03  0.77077296010E+03 -0.16008299487E+04  0.18566272521E+04  0.12699999809E+01 0.  1.
       -4    1    3    3    0  502  0.53880948383E+03 -0.77077296010E+03  0.83226615687E+03  0.12558165410E+04  0.12699999809E+01 0. -1.
</event>
<event>
 5   0  0.2621528E-06  0.3186371E+04  0.7818609E-02  0.8192426E-01
       -2   -1    0    0    0  501  0.00000000000E+00  0.00000000000E+00  0.25176906686E+04  0.25176906686E+04  0.25500000920E-02 0.  1.
        2   -1    0    0  501    0  0.00000000000E+00  0.00000000000E+00 -0.10081622620E+04  0.10081622620E+04  0.25500000920E-02 0. -1.
    10030    2    1    2    0    0  0.00000000000E+00  0.00000000000E+00  0.15095284066E+04  0.35258529306E+04  0.31863714281E+04 0.  0.
        2    1    3    3  502    0  0.88500158490E+03  0.47023715094E+03 -0.61569115436E+03  0.11761914729E+04  0.25500000920E-02 0. -1.
       -2    1    3    3    0  502 -0.88500158490E+03 -0.47023715094E+03  0.21252195609E+04  0.23496614577E+04  0.25500000920E-02 0.  1.
</event>
<event>
 5   0  0.2466076E-06  0.3208777E+04  0.7818609E-02  0.8186503E-01
        2   -1    0    0  501    0  0.00000000000E+00  0.00000000000E+00  0.26373626580E+04  0.26373626580E+04  0.25500000920E-02 0.  1.
       -2   -1    0    0    0  501  0.00000000000E+00  0.00000000000E+00 -0.97599890825E+03  0.97599890825E+03  0.25500000920E-02 0. -1.
    10030    2    1    2    0    0  0.00000000000E+00  0.00000000000E+00  0.16613637497E+04  0.36133615662E+04  0.32087773839E+04 0.  0.
        3    1    3    3  502    0  0.99214171984E+03  0.72626808950E+03  0.19912903053E+04  0.23403093001E+04  0.10100000352E+00 0.  1.
       -3    1    3    3    0  502 -0.99214171984E+03 -0.72626808950E+03 -0.32992655553E+03  0.12730522661E+04  0.10100000352E+00 0. -1.
</event>
<event>
 5   0  0.8512855E-07  0.3140037E+04  0.7818609E-02  0.8204835E-01
        1   -1    0    0  501    0  0.00000000000E+00  0.00000000000E+00  0.15116662702E+04  0.15116662703E+04  0.50400001928E-02 0. -1.
       -1   -1    0    0    0  501  0.00000000000E+00  0.00000000000E+00 -0.16306230898E+04  0.16306230898E+04  0.50400001928E-02 0.  1.
    10030    2    1    2    0    0  0.00000000000E+00  0.00000000000E+00 -0.11895681959E+03  0.31422893601E+04  0.31400368943E+04 0.  0.
        5    1    3    3  502    0 -0.10022058960E+04  0.10849732202E+04 -0.59216870632E+03  0.15913105961E+04  0.46999998093E+01 0.  1.
       -5    1    3    3    0  502  0.10022058960E+04 -0.10849732202E+04  0.47321188674E+03  0.15509787640E+04  0.46999998093E+01 0. -1.
</event>
<event>
 5   0  0.7934375E-07  0.3180982E+04  0.7818609E-02  0.8193858E-01
       -4   -1    0    0    0  501  0.00000000000E+00  0.00000000000E+00  0.18755381776E+04  0.18755386076E+04  0.12699999809E+01 0.  1.
        4   -1    0    0  501    0  0.00000000000E+00  0.00000000000E+00 -0.13487644979E+04  0.13487650958E+04  0.12699999809E+01 0. -1.
    10030    2    1    2    0    0  0.00000000000E+00  0.00000000000E+00  0.52677367975E+03  0.32243037034E+04  0.31809815878E+04 0.  0.
        5    1    3    3  502    0 -0.13885949095E+04  0.48829493153E+03 -0.34732275990E+03  0.15123765908E+04  0.46999998093E+01 0. -1.
       -5    1    3    3    0  502  0.13885949095E+04 -0.48829493153E+03  0.87409643965E+03  0.17119271126E+04  0.46999998093E+01 0.  1.
</event>
<event>
 5   0  0.2337504E-06  0.3186885E+04  0.7818609E-02  0.8192290E-01
        2   -1    0    0  501    0  0.00000000000E+00  0.00000000000E+00  0.17402676791E+04  0.17402676791E+04  0.25500000920E-02 0. -1.
       -2   -1    0    0    0  501  0.00000000000E+00  0.00000000000E+00 -0.14590044522E+04  0.14590044522E+04  0.25500000920E-02 0.  1.
    10030    2    1    2    0    0  0.00000000000E+00  0.00000000000E+00  0.28126322691E+03  0.31992721314E+04  0.31868845551E+04 0.  0.
        1    1    3    3  502    0 -0.10607010982E+04  0.94185385594E+03  0.86932001424E+03  0.16636985282E+04  0.50400001928E-02 0. -1.
       -1    1    3    3    0  502  0.10607010982E+04 -0.94185385594E+03 -0.58805678734E+03  0.15355736032E+04  0.50400001928E-02 0.  1.
</event>
<event>
 5   0  0.2621528E-06  0.3182550E+04  0.7818609E-02  0.8193441E-01
       -2   -1    0    0    0  501  0.00000000000E+00  0.00000000000E+00  0.97699607359E+03  0.97699607359E+03  0.25500000920E-02 0.  1.
        2   -1    0    0  501    0  0.00000000000E+00  0.00000000000E+00 -0.25917770235E+04  0.25917770235E+04  0.25500000920E-02 0. -1.
    10030    2    1    2    0    0  0.00000000000E+00  0.00000000000E+00 -0.16147809499E+04  0.35687730971E+04  0.31825499057E+04 0.  0.
        2    1    3    3  502    0 -0.69286567403E+03  0.92035653919E+03  0.42356940963E+03  0.12274078565E+04  0.25500000920E-02 0.  1.
       -2    1    3    3    0  502  0.69286567403E+03 -0.92035653919E+03 -0.20383503596E+04  0.23413652406E+04  0.25500000920E-02 0. -1.
</event>
<event>
 5   0  0.8487944E-07  0.3243589E+04  0.7818609E-02  0.8177399E-01
        1   -1    0    0  501    0  0.00000000000E+00  0.00000000000E+00  0.19052931231E+04  0.19052931231E+04  0.50400001928E-02 0.  1.
       -1   -1    0    0    0  501  0.00000000000E+00  0.00000000000E+00 -0.13804792089E+04  0.13804792089E+04  0.50400001928E-02 0. -1.
    10030    2    1    2    0    0  0.00000000000E+00  0.00000000000E+00  0.52481391420E+03  0.32857723320E+04  0.32435890882E+04 0.  0.
        2    1    3    3  502    0 -0.15183390885E+04  0.54705399436E+03  0.42447474182E+03  0.16687721435E+04  0.25500000920E-02 0.  1.
       -2    1    3    3    0  502  0.15183390885E+04 -0.54705399436E+03  0.10033917238E+03  0.16170001886E+04  0.25500000920E-02 0. -1.
</event>
<event>
 5   0  0.2404430E-06  0.3135042E+04  0.7818609E-02  0.8206186E-01
        2   -1    0    0  501    0  0.00000000000E+00  0.00000000000E+00  0.20027636994E+04  0.20027636994E+04  0.25500000920E-02 0. -1.
       -2   -1    0    0    0  501  0.00000000000E+00  0.00000000000E+00 -0.12268658955E+04  0.12268658955E+04  0.25500000920E-02 0.  1.
    10030    2    1    2    0    0  0.00000000000E+00  0.00000000000E+00  0.77589780399E+03  0.32296295949E+04  0.31350422514E+04 0.  0.
        4    1    3    3  502    0  0.11989619632E+04 -0.82052610603E+03 -0.21832050197E+03  0.14691624601E+04  0.12699999809E+01 0.  1.
       -4    1    3    3    0  502 -0.11989619632E+04  0.82052610603E+03  0.99421830596E+03  0.17604671348E+04  0.12699999809E+01 0. -1.
</event>
<event>
 5   0  0.2401139E-06  0.3188487E+04  0.7818609E-02  0.8191864E-01
       -2   -1    0    0    0  501  0.00000000000E+00  0.00000000000E+00  0.12991900206E+04  0.12991900206E+04  0.25500000920E-02 0.  1.
        2   -1    0    0  501    0  0.00000000000E+00  0.00000000000E+00 -0.19563053127E+04  0.19563053127E+04  0.25500000920E-02 0. -1.
    10030    2    1    2    0    0  0.00000000000E+00  0.00000000000E+00 -0.65711529207E+03  0.32554953333E+04  0.31884870014E+04 0.  0.
        5    1    3    3  502    0  0.24040109604E+03 -0.49015224488E+03 -0.18578838923E+04  0.19364391437E+04  0.46999998093E+01 0. -1.
       -5    1    3    3    0  502 -0.24040109604E+03  0.49015224488E+03  0.12007686002E+04  0.13190561896E+04  0.46999998093E+01 0.  1.
</event>
<event>
 5   0  0.2404430E-06  0.3220115E+04  0.7818609E-02  0.8183525E-01
       -2   -1    0    0    0  501  0.00000000000E+00  0.00000000000E+00  0.13640492108E+04  0.13640492108E+04  0.25500000920E-02 0.  1.
        2   -1    0    0  501    0  0.00000000000E+00  0.00000000000E+00 -0.19004338794E+04  0.19004338794E+04  0.25500000920E-02 0. -1.
    10030    2    1    2    0    0  0.00000000000E+00  0.00000000000E+00 -0.53638466858E+03  0.32644830902E+04  0.32201151119E+04 0.  0.
        4    1    3    3  502    0  0.15952566872E+03 -0.88628791558E+03  0.10848615642E+04  0.14099223151E+04  0.12699999809E+01 0.  1.
       -4    1    3    3    0  502 -0.15952566872E+03  0.88628791558E+03 -0.16212462328E+04  0.18545607751E+04  0.12699999809E+01 0. -1.
</event>
<event>
 5   0  0.2621528E-06  0.3212112E+04  0.7818609E-02  0.8185626E-01
       -2   -1    0    0    0  501  0.00000000000E+00  0.00000000000E+00  0.16066889972E+04  0.16066889972E+04  0.25500000920E-02 0. -1.
        2   -1    0    0  501    0  0.00000000000E+00  0.00000000000E+00 -0.16054234319E+04  0.16054234319E+04  0.25500000920E-02 0.  1.
    10030    2    1    2    0    0  0.00000000000E+00  0.00000000000E+00  0.12655653548E+01  0.32121124291E+04  0.32121121798E+04 0.  0.
        2    1    3    3  502    0 -0.11352771652E+04  0.85161085886E+03 -0.75124550203E+03  0.16057599761E+04  0.25500000920E-02 0.  1.
       -2    1    3    3    0  502  0.11352771652E+04 -0.85161085886E+03  0.75251106738E+03  0.16063524530E+04  0.25500000920E-02 0. -1.
</event>
<event>
 5   0  0.2401139E-06  0.3212536E+04  0.7818609E-02  0.8185514E-01
       -2   -1    0    0    0  501  0.00000000000E+00  0.00000000000E+00  0.12724670091E+04  0.12724670091E+04  0.25500000920E-02 0. -1.
        2   -1    0    0  501    0  0.00000000000E+00  0.00000000000E+00 -0.20276337441E+04  0.20276337441E+04  0.25500000920E-02 0.  1.
    10030    2    1    2    0    0  0.00000000000E+00  0.00000000000E+00 -0.75516673504E+03  0.33001007532E+04  0.32125360984E+04 0.  0.
        5    1    3    3  502    0 -0.14688393778E+04 -0.23405303561E+03  0.24541657401E+03  0.15074884165E+04  0.46999998093E+01 0.  1.
       -5    1    3    3    0  502  0.14688393778E+04  0.23405303561E+03 -0.10005833091E+04  0.17926123366E+04  0.46999998093E+01 0. -1.
</event>
<event>
 5   0  0.8681172E-07  0.3190141E+04  0.7818609E-02  0.8191426E-01
       -1   -1    0    0    0  501  0.00000000000E+00  0.00000000000E+00  0.18134909582E+04  0.18134909582E+04  0.50400001928E-02 0.  1.
        1   -1    0    0  501    0  0.00000000000E+00  0.00000000000E+00 -0.14029573593E+04  0.14029573593E+04  0.50400001928E-02 0. -1.
    10030    2    1    2    0    0  0.00000000000E+00  0.00000000000E+00  0.41053359895E+03  0.32164483175E+04  0.31901413673E+04 0.  0.
        1    1    3    3  502    0  0.76791856586E+03 -0.57068604891E+03  0.14920628734E+04  0.17724652630E+04  0.50400001928E-02 0.  1.
       -1    1    3    3    0  502 -0.76791856586E+03  0.57068604891E+03 -0.10815292745E+04  0.14439830545E+04  0.50400001928E-02 0. -1.
</event>
<event>
 5   0  0.2466076E-06  0.3171432E+04  0.7818609E-02  0.8196403E-01
        2   -1    0    0  501    0  0.00000000000E+00  0.00000000000E+00  0.15340396301E+04  0.15340396301E+04  0.25500000920E-02 0.  1.
       -2   -1    0    0    0  501  0.00000000000E+00  0.00000000000E+00 -0.16391330580E+04  0.16391330580E+04  0.25500000920E-02 0. -1.
    10030    2    1    2    0    0  0.00000000000E+00  0.00000000000E+00 -0.10509342787E+03  0.31731726881E+04  0.31714318974E+04 0.  0.
        3    1    3    3  502    0  0.11806230555E+04 -0.46839214557E+03  0.89730732703E+03  0.15551277923E+04  0.10100000352E+00 0.  1.
       -3    1    3    3    0  502 -0.11806230555E+04  0.46839214557E+03 -0.10024007549E+04  0.16180448958E+04  0.10100000352E+00 0. -1.
</event>
<event>
 5   0  0.8681172E-07  0.3176116E+04  0.7818609E-02  0.8195153E-01
        1   -1    0    0  501    0  0.00000000000E+00  0.00000000000E+00  0.15257255764E+04  0.15257255764E+04  0.50400001928E-02 0. -1.
       -1   -1    0    0    0  501  0.00000000000E+00  0.00000000000E+00 -0.16529369605E+04  0.16529369605E+04  0.50400001928E-02 0.  1.
    10030    2    1    2    0    0  0.00000000000E+00  0.00000000000E+00 -0.12721138407E+03  0.31786625369E+04  0.31761159909E+04 0.  0.
        1    1    3    3  502    0  0.11462906024E+03  0.15839081456E+04 -0.58768430604E+02  0.15891376793E+04  0.50400001928E-02 0.  1.
       -1    1    3    3    0  502 -0.11462906024E+03 -0.15839081456E+04 -0.68442953470E+02  0.15895248577E+04  0.50400001928E-02 0. -1.
</event>
<event>
 5   0  0.2621528E-06  0.3203439E+04  0.7818609E-02  0.8187909E-01
        2   -1    0    0  501    0  0.00000000000E+00  0.00000000000E+00  0.16412952832E+04  0.16412952832E+04  0.25500000920E-02 0. -1.
       -2   -1    0    0    0  501  0.00000000000E+00  0.00000000000E+00 -0.15630981726E+04  0.15630981726E+04  0.25500000920E-02 0.  1.
    10030    2    1    2    0    0  0.00000000000E+00  0.00000000000E+00  0.78197110669E+02  0.32043934558E+04  0.32034391880E+04 0.  0.
        2    1    3    3  502    0 -0.78826799053E+03  0.92382401190E+03  0.10837699543E+04  0.16276899409E+04  0.25500000920E-02 0. -1.
       -2    1    3    3    0  502  0.78826799053E+03 -0.92382401190E+03 -0.10055728437E+04  0.15767035149E+04  0.25500000920E-02 0.  1.
</event>
<event>
 5   0  0.2401139E-06  0.3182505E+04  0.7818609E-02  0.8193453E-01
        2   -1    0    0  501    0  0.00000000000E+00  0.00000000000E+00  0.30654669635E+04  0.30654669635E+04  0.25500000920E-02 0.  1.
       -2   -1    0    0    0  501  0.00000000000E+00  0.00000000000E+00 -0.82600301795E+03  0.82600301796E+03  0.25500000920E-02 0. -1.
    10030    2    1    2    0    0  0.00000000000E+00  0.00000000000E+00  0.22394639456E+04  0.38914699815E+04  0.31825052794E+04 0.  0.
        5    1    3    3  502    0  0.46211576658E+03  0.15214296959E+04  0.11947463779E+04  0.19889042960E+04  0.46999998093E+01 0. -1.
       -5    1    3    3    0  502 -0.46211576658E+03 -0.15214296959E+04  0.10447175676E+04  0.19025656854E+04  0.46999998093E+01 0.  1.
</event>
<event>
 5   0  0.8545153E-07  0.3185801E+04  0.7818609E-02  0.8192577E-01
       -1   -1    0    0    0  501  0.00000000000E+00  0.00000000000E+00  0.15477400698E+04  0.15477400699E+04  0.50400001928E-02 0.  1.
        1   -1    0    0  501    0  0.00000000000E+00  0.00000000000E+00 -0.16393785612E+04  0.16393785612E+04  0.50400001928E-02 0. -1.
    10030    2    1    2    0    0  0.00000000000E+00  0.00000000000E+00 -0.91638491365E+02  0.31871186311E+04  0.31858009284E+04 0.  0.
        3    1    3    3  502    0  0.12601017236E+04  0.96923919245E+03 -0.14611495247E+03  0.15964430950E+04  0.10100000352E+00 0. -1.
       -3    1    3    3    0  502 -0.12601017236E+04 -0.96923919245E+03  0.54476461104E+02  0.15906755361E+04  0.10100000352E+00 0.  1.
</event>
<event>
 5   0  0.8681172E-07  0.3190725E+04  0.7818609E-02  0.8191271E-01
        1   -1    0    0  501    0  0.00000000000E+00  0.00000000000E+00  0.10404969905E+04  0.10404969905E+04  0.50400001928E-02 0.  1.
       -1   -1    0    0    0  501  0.00000000000E+00  0.00000000000E+00 -0.24461210378E+04  0.24461210378E+04  0.50400001928E-02 0. -1.
    10030    2    1    2    0    0  0.00000000000E+00  0.00000000000E+00 -0.14056240473E+04  0.34866180283E+04  0.31907250451E+04 0.  0.
        1    1    3    3  502    0 -0.41603897933E+03 -0.12924762278E+04  0.21247913779E+03  0.13743109604E+04  0.50400001928E-02 0.  1.
       -1    1    3    3    0  502  0.41603897933E+03  0.12924762278E+04 -0.16181031851E+04  0.21123070680E+04  0.50400001928E-02 0. -1.
</event>
<event>
 5   0  0.8512855E-07  0.3188215E+04  0.7818609E-02  0.8191937E-01
       -1   -1    0    0    0  501  0.00000000000E+00  0.00000000000E+00  0.14052515180E+04  0.14052515180E+04  0.50400001928E-02 0. -1.
        1   -1    0    0  501    0  0.00000000000E+00  0.00000000000E+00 -0.18083443117E+04  0.18083443117E+04  0.50400001928E-02 0.  1.
    10030    2    1    2    0    0  0.00000000000E+00  0.00000000000E+00 -0.40309279366E+03  0.32135958297E+04  0.31882149169E+04 0.  0.
        5    1    3    3  502    0 -0.14045209444E+04  0.58013585609E+03  0.28386792268E+03  0.15459106644E+04  0.46999998093E+01 0. -1.
       -5    1    3    3    0  502  0.14045209444E+04 -0.58013585609E+03 -0.68696071634E+03  0.16676851653E+04  0.46999998093E+01 0.  1.
</event>
<event>
 5   0  0.7934375E-07  0.3146617E+04  0.7818609E-02  0.8203059E-01
        3   -1    0    0  501    0  0.00000000000E+00  0.00000000000E+00  0.16535437888E+04  0.16535437919E+04  0.10100000352E+00 0.  1.
       -3   -1    0    0    0  501  0.00000000000E+00  0.00000000000E+00 -0.14969664772E+04  0.14969664806E+04  0.10100000352E+00 0. -1.
    10030    2    1    2    0    0  0.00000000000E+00  0.00000000000E+00  0.15657731158E+03  0.31505102725E+04  0.31466169965E+04 0.  0.
        3    1    3    3  502    0  0.89997257394E+03  0.56987842827E+03 -0.10809813756E+04  0.15176405376E+04  0.10100000352E+00 0. -1.
       -3    1    3    3    0  502 -0.89997257394E+03 -0.56987842827E+03  0.12375586872E+04  0.16328697349E+04  0.10100000352E+00 0.  1.
</event>
<event>
 5   0  0.8545153E-07  0.3246281E+04  0.7818609E-02  0.8176700E-01
       -1   -1    0    0    0  501  0.00000000000E+00  0.00000000000E+00  0.12081407292E+04  0.12081407292E+04  0.50400001928E-02 0.  1.
        1   -1    0    0  501    0  0.00000000000E+00  0.00000000000E+00 -0.21806937966E+04  0.21806937967E+04  0.50400001928E-02 0. -1.
    10030    2    1    2    0    0  0.00000000000E+00  0.00000000000E+00 -0.97255306746E+03  0.33888345259E+04  0.32462809451E+04 0.  0.
        3    1    3    3  502    0  0.44100133339E+03  0.24591000090E+03 -0.20966220808E+04  0.21565662671E+04  0.10100000352E+00 0. -1.
       -3    1    3    3    0  502 -0.44100133339E+03 -0.24591000090E+03  0.11240690133E+04  0.12322682587E+04  0.10100000352E+00 0.  1.
</event>
<event>
 5   0  0.2401139E-06  0.3207584E+04  0.7818609E-02  0.8186817E-01
       -2   -1    0    0    0  501  0.00000000000E+00  0.00000000000E+00  0.10986888723E+04  0.10986888723E+04  0.25500000920E-02 0. -1.
        2   -1    0    0  501    0  0.00000000000E+00  0.00000000000E+00 -0.23411075637E+04  0.23411075637E+04  0.25500000920E-02 0.  1.
    10030    2    1    2    0    0  0.00000000000E+00  0.00000000000E+00 -0.12424186914E+04  0.34397964360E+04  0.32075840311E+04 0.  0.
        5    1    3    3  502    0  0.95796496615E+03  0.26886774171E+03  0.72768257936E+03  0.12326924861E+04  0.46999998093E+01 0. -1.
       -5    1    3    3    0  502 -0.95796496615E+03 -0.26886774171E+03 -0.19701012708E+04  0.22071039500E+04  0.46999998093E+01 0.  1.
</event>
<event>
 5   0  0.7934375E-07  0.3245481E+04  0.7818609E-02  0.8176908E-01
       -3   -1    0    0    0  501  0.00000000000E+00  0.00000000000E+00  0.15652853154E+04  0.15652853187E+04  0.10100000352E+00 0. -1.
        3   -1    0    0  501    0  0.00000000000E+00  0.00000000000E+00 -0.16823043970E+04  0.16823044000E+04  0.10100000352E+00 0.  1.
    10030    2    1    2    0    0  0.00000000000E+00  0.00000000000E+00 -0.11701908156E+03  0.32475897187E+04  0.32454807835E+04 0.  0.
        3    1    3    3  502    0  0.45883869116E+03 -0.23684722172E+03 -0.15979034333E+04  0.16792632144E+04  0.10100000352E+00 0.  1.
       -3    1    3    3    0  502 -0.45883869116E+03  0.23684722172E+03  0.14808843517E+04  0.15683265044E+04  0.10100000352E+00 0. -1.
</event>
<event>
 5   0  0.2401139E-06  0.3095393E+04  0.7818609E-02  0.8217003E-01
        2   -1    0    0  501    0  0.00000000000E+00  0.00000000000E+00  0.14816908552E+04  0.14816908552E+04  0.25500000920E-02 0.  1.
       -2   -1    0    0    0  501  0.00000000000E+00  0.00000000000E+00 -0.16166421293E+04  0.16166421293E+04  0.25500000920E-02 0. -1.
    10030    2    1    2    0    0  0.00000000000E+00  0.00000000000E+00 -0.13495127411E+03  0.30983329845E+04  0.30953926143E+04 0.  0.
        5    1    3    3  502    0  0.91208904841E+03 -0.12436943638E+04  0.61719301259E+02  0.15435392657E+04  0.46999998093E+01 0.  1.
       -5    1    3    3    0  502 -0.91208904841E+03  0.12436943638E+04 -0.19667057537E+03  0.15547937188E+04  0.46999998093E+01 0. -1.
</event>
<event>
 5   0  0.8681172E-07  0.3212198E+04  0.7818609E-02  0.8185603E-01
       -1   -1    0    0    0  501  0.00000000000E+00  0.00000000000E+00  0.12659823936E+04  0.12659823936E+04  0.50400001928E-02 0.  1.
        1   -1    0    0  501    0  0.00000000000E+00  0.00000000000E+00 -0.20375907232E+04  0.20375907232E+04  0.50400001928E-02 0. -1.
    10030    2    1    2    0    0  0.00000000000E+00  0.00000000000E+00 -0.77160832958E+03  0.33035731169E+04  0.32121979896E+04 0.  0.
        1    1    3    3  502    0  0.79557483409E+03  0.10475445999E+04  0.56196641694E+03  0.14304178617E+04  0.50400001928E-02 0.  1.
       -1    1    3    3    0  502 -0.79557483409E+03 -0.10475445999E+04 -0.13335747465E+04  0.18731552552E+04  0.50400001928E-02 0. -1.
</event>
<event>
 5   0  0.8512855E-07  0.3123971E+04  0.7818609E-02  0.8209190E-01
        1   -1    0    0  501    0  0.00000000000E+00  0.00000000000E+00  0.20065253049E+04  0.20065253049E+04  0.50400001928E-02 0. -1.
       -1   -1    0    0    0  501  0.00000000000E+00  0.00000000000E+00 -0.12159325551E+04  0.12159325551E+04  0.50400001928E-02 0.  1.
    10030    2    1    2    0    0  0.00000000000E+00  0.00000000000E+00  0.79059274984E+03  0.32224578600E+04  0.31239714729E+04 0.  0.
        5    1    3    3  502    0  0.93517085232E+03 -0.10599785279E+04 -0.29024432322E+03  0.14430394519E+04  0.46999998093E+01 0.  1.
       -5    1    3    3    0  502 -0.93517085232E+03  0.10599785279E+04  0.10808370731E+04  0.17794184081E+04  0.46999998093E+01 0. -1.
</event>
<event>
 5   0  0.2466076E-06  0.3213297E+04  0.7818609E-02  0.8185314E-01
       -2   -1    0    0    0  501  0.00000000000E+00  0.00000000000E+00  0.92014314457E+03  0.92014314457E+03  0.25500000920E-02 0. -1.
        2   -1    0    0  501    0  0.00000000000E+00  0.00000000000E+00 -0.28053460790E+04  0.28053460790E+04  0.25500000920E-02 0.  1.
    10030    2    1    2    0    0  0.00000000000E+00  0.00000000000E+00 -0.18852029344E+04  0.37254892236E+04  0.32132973487E+04 0.  0.
        3    1    3    3  502    0  0.49208696874E+03 -0.11294023724E+03 -0.27109830305E+04  0.27575957071E+04  0.10100000352E+00 0.  1.
       -3    1    3    3    0  502 -0.49208696874E+03  0.11294023724E+03  0.82578009606E+03  0.96789351647E+03  0.10100000352E+00 0. -1.
</event>
<event>
 5   0  0.2401139E-06  0.3203014E+04  0.7818609E-02  0.8188022E-01
        2   -1    0    0  501    0  0.00000000000E+00  0.00000000000E+00  0.25578277807E+04  0.25578277807E+04  0.25500000920E-02 0. -1.
       -2   -1    0    0    0  501  0.00000000000E+00  0.00000000000E+00 -0.10027357933E+04  0.10027357933E+04  0.25500000920E-02 0.  1.
    10030    2    1    2    0    0  0.00000000000E+00  0.00000000000E+00  0.15550919873E+04  0.35605635740E+04  0.32030144981E+04 0.  0.
        5    1    3    3  502    0  0.10220337691E+03  0.76031939823E+03  0.23402733960E+04  0.24628099349E+04  0.46999998093E+01 0. -1.
       -5    1    3    3    0  502 -0.10220337691E+03 -0.76031939823E+03 -0.78518140865E+03  0.10977536391E+04  0.46999998093E+01 0.  1.
</event>
<event>
 5   0  0.2404430E-06  0.3179428E+04  0.7818609E-02  0.8194271E-01
       -2   -1    0    0    0  501  0.00000000000E+00  0.00000000000E+00  0.15031295920E+04  0.15031295920E+04  0.25500000920E-02 0.  1.
        2   -1    0    0  501    0  0.00000000000E+00  0.00000000000E+00 -0.16812859648E+04  0.16812859648E+04  0.25500000920E-02 0. -1.
    10030    2    1    2    0    0  0.00000000000E+00  0.00000000000E+00 -0.17815637285E+03  0.31844155568E+04  0.31794280531E+04 0.  0.
        4    1    3    3  502    0 -0.41595324522E+03  0.84231151953E+03  0.11953856256E+04  0.15203467384E+04  0.12699999809E+01 0.  1.
       -4    1    3    3    0  502  0.41595324522E+03 -0.84231151953E+03 -0.13735419984E+04  0.16640688184E+04  0.12699999809E+01 0. -1.
</event>
<event>
 5   0  0.8545153E-07  0.3229408E+04  0.7818609E-02  0.8181094E-01
       -1   -1    0    0    0  501  0.00000000000E+00  0.00000000000E+00  0.19531676372E+04  0.19531676372E+04  0.50400001928E-02 0.  1.
        1   -1    0    0  501    0  0.00000000000E+00  0.00000000000E+00 -0.13348922205E+04  0.13348922205E+04  0.50400001928E-02 0. -1.
    10030    2    1    2    0    0  0.00000000000E+00  0.00000000000E+00  0.61827541671E+03  0.32880598576E+04  0.32294075519E+04 0.  0.
        3    1    3    3  502    0 -0.10674956755E+04  0.61870549803E+03  0.13696523518E+04  0.18434454387E+04  0.10100000352E+00 0.  1.
       -3    1    3    3    0  502  0.10674956755E+04 -0.61870549803E+03 -0.75137693512E+03  0.14446144189E+04  0.10100000352E+00 0. -1.
</event>
<event>
 5   0  0.8383008E-07  0.3176548E+04  0.7818609E-02  0.8195038E-01
       -1   -1    0    0    0  501  0.00000000000E+00  0.00000000000E+00  0.13269429611E+04  0.13269429611E+04  0.50400001928E-02 0. -1.
        1   -1    0    0  501    0  0.00000000000E+00  0.00000000000E+00 -0.19010722414E+04  0.19010722414E+04  0.50400001928E-02 0.  1.
    10030    2    1    2    0    0  0.00000000000E+00  0.00000000000E+00 -0.57412928033E+03  0.32280152025E+04  0.31765480819E+04 0.  0.
        4    1    3    3  502    0 -0.10818432128E+04 -0.10694718586E+04  0.17690487367E+03  0.15314867746E+04  0.12699999809E+01 0. -1.
       -4    1    3    3    0  502  0.10818432128E+04  0.10694718586E+04 -0.75103415400E+03  0.16965284279E+04  0.12699999809E+01 0.  1.
</event>
<event>
 5   0  0.8383008E-07  0.3184015E+04  0.7818609E-02  0.8193051E-01
       -1   -1    0    0    0  501  0.00000000000E+00  0.00000000000E+00  0.18114537180E+04  0.18114537180E+04  0.50400001928E-02 0. -1.
        1   -1    0    0  501    0  0.00000000000E+00  0.00000000000E+00 -0.13991461932E+04  0.13991461932E+04  0.50400001928E-02 0.  1.
    10030    2    1    2    0    0  0.00000000000E+00  0.00000000000E+00  0.41230752481E+03  0.32105999112E+04  0.31840154357E+04 0.  0.
        4    1    3    3  502    0 -0.12104293781E+04  0.65426668715E+03 -0.60133375059E+03  0.15016018347E+04  0.12699999809E+01 0.  1.
       -4    1    3    3    0  502  0.12104293781E+04 -0.65426668715E+03  0.10136412754E+04  0.17089980765E+04  0.12699999809E+01 0. -1.
</event>
<event>
 5   0  0.8383008E-07  0.3156786E+04  0.7818609E-02  0.8200324E-01
       -1   -1    0    0    0  501  0.00000000000E+00  0.00000000000E+00  0.18929793560E+04  0.18929793560E+04  0.50400001928E-02 0.  1.
        1   -1    0    0  501    0  0.00000000000E+00  0.00000000000E+00 -0.13160866127E+04  0.13160866127E+04  0.50400001928E-02 0. -1.
    10030    2    1    2    0    0  0.00000000000E+00  0.00000000000E+00  0.57689274324E+03  0.32090659687E+04  0.31567862066E+04 0.  0.
        4    1    3    3  502    0 -0.14346309377E+04 -0.22659797362E+03  0.91658784542E+03  0.17174537724E+04  0.12699999809E+01 0.  1.
       -4    1    3    3    0  502  0.14346309377E+04  0.22659797362E+03 -0.33969510218E+03  0.14916121963E+04  0.12699999809E+01 0. -1.
</event>
<event>
 5   0  0.8681172E-07  0.3195262E+04  0.7818609E-02  0.8190070E-01
       -1   -1    0    0    0  501  0.00000000000E+00  0.00000000000E+00  0.24316380795E+04  0.24316380795E+04  0.50400001928E-02 0. -1.
        1   -1    0    0  501    0  0.00000000000E+00  0.00000000000E+00 -0.10496727426E+04  0.10496727427E+04  0.50400001928E-02 0.  1.
    10030    2    1    2    0    0  0.00000000000E+00  0.00000000000E+00  0.13819653368E+04  0.34813108221E+04  0.31952616244E+04 0.  0.
        1    1    3    3  502    0 -0.14403100856E+04  0.62201591925E+03  0.36226569845E+03  0.16101656383E+04  0.50400001928E-02 0.  1.
       -1    1    3    3    0  502  0.14403100856E+04 -0.62201591925E+03  0.10196996384E+04  0.18711451838E+04  0.50400001928E-02 0. -1.
</event>
<event>
 5   0  0.8512855E-07  0.3139897E+04  0.7818609E-02  0.8204873E-01
        1   -1    0    0  501    0  0.00000000000E+00  0.00000000000E+00  0.14522072656E+04  0.14522072656E+04  0.50400001928E-02 0.  1.
       -1   -1    0    0    0  501  0.00000000000E+00  0.00000000000E+00 -0.16972354514E+04  0.16972354514E+04  0.50400001928E-02 0. -1.
    10030    2    1    2    0    0  0.00000000000E+00  0.00000000000E+00 -0.24502818581E+03  0.31494427169E+04  0.31398965931E+04 0.  0.
        5    1    3    3  502    0 -0.18212552767E+03  0.85368487049E+03  0.11863546841E+04  0.14728907266E+04  0.46999998093E+01 0.  1.
       -5    1    3    3    0  502  0.18212552767E+03 -0.85368487049E+03 -0.14313828700E+04  0.16765519903E+04  0.46999998093E+01 0. -1.
</event>
<event>
 5   0  0.2404430E-06  0.3206148E+04  0.7818609E-02  0.8187195E-01
        2   -1    0    0  501    0  0.00000000000E+00  0.00000000000E+00  0.20830847589E+04  0.20830847589E+04  0.25500000920E-02 0.  1.
       -2   -1    0    0    0  501  0.00000000000E+00  0.00000000000E+00 -0.12336731641E+04  0.12336731641E+04  0.25500000920E-02 0. -1.
    10030    2    1    2    0    0  0.00000000000E+00  0.00000000000E+00  0.84941159479E+03  0.33167579229E+04  0.32061476981E+04 0.  0.
        4    1    3    3  502    0 -0.41095488096E+03 -0.14575786783E+04  0.96860525079E+03  0.17976699537E+04  0.12699999809E+01 0. -1.
       -4    1    3    3    0  502  0.41095488096E+03  0.14575786783E+04 -0.11919365600E+03  0.15190879692E+04  0.12699999809E+01 0.  1.
</event>
<event>
 5   0  0.8512855E-07  0.3107009E+04  0.7818609E-02  0.8213817E-01
       -1   -1    0    0    0  501  0.00000000000E+00  0.00000000000E+00  0.92483813660E+03  0.92483813662E+03  0.50400001928E-02 0. -1.
        1   -1    0    0  501    0  0.00000000000E+00  0.00000000000E+00 -0.26095119004E+04  0.26095119005E+04  0.50400001928E-02 0.  1.
    10030    2    1    2    0    0  0.00000000000E+00  0.00000000000E+00 -0.16846737638E+04  0.35343500371E+04  0.31070089305E+04 0.  0.
        5    1    3    3  502    0  0.56079107191E+03 -0.74094445028E+03  0.57383026625E+03  0.10921486022E+04  0.46999998093E+01 0. -1.
       -5    1    3    3    0  502 -0.56079107191E+03  0.74094445028E+03 -0.22585040301E+04  0.24422014349E+04  0.46999998093E+01 0.  1.
</event>
<event>
 5   0  0.2404430E-06  0.3205451E+04  0.7818609E-02  0.8187379E-01
       -2   -1    0    0    0  501  0.00000000000E+00  0.00000000000E+00  0.23856936567E+04  0.23856936567E+04  0.25500000920E-02 0.  1.
        2   -1    0    0  501    0  0.00000000000E+00  0.00000000000E+00 -0.10767218438E+04  0.10767218438E+04  0.25500000920E-02 0. -1.
    10030    2    1    2    0    0  0.00000000000E+00  0.00000000000E+00  0.13089718129E+04  0.34624155006E+04  0.32054506534E+04 0.  0.
        4    1    3    3  502    0 -0.19609912316E+02  0.14511337833E+04 -0.80147823004E+02  0.14534782737E+04  0.12699999809E+01 0. -1.
       -4    1    3    3    0  502  0.19609912316E+02 -0.14511337833E+04  0.13891196359E+04  0.20089372269E+04  0.12699999809E+01 0.  1.
</event>
<event>
 5   0  0.8681172E-07  0.3199476E+04  0.7818609E-02  0.8188956E-01
        1   -1    0    0  501    0  0.00000000000E+00  0.00000000000E+00  0.30480072100E+04  0.30480072100E+04  0.50400001928E-02 0.  1.
       -1   -1    0    0    0  501  0.00000000000E+00  0.00000000000E+00 -0.83961775768E+03  0.83961775770E+03  0.50400001928E-02 0. -1.
    10030    2    1    2    0    0  0.00000000000E+00  0.00000000000E+00  0.22083894523E+04  0.38876249677E+04  0.31994755690E+04 0.  0.
        1    1    3    3  502    0 -0.17744593890E+03 -0.15764900225E+04  0.13542570736E+04  0.20858619498E+04  0.50400001928E-02 0.  1.
       -1    1    3    3    0  502  0.17744593890E+03  0.15764900225E+04  0.85413237871E+03  0.18017630179E+04  0.50400001928E-02 0. -1.
</event>
<event>
 5   0  0.2337504E-06  0.3195622E+04  0.7818609E-02  0.8189974E-01
        2   -1    0    0  501    0  0.00000000000E+00  0.00000000000E+00  0.15045235994E+04  0.15045235994E+04  0.25500000920E-02 0. -1.
       -2   -1    0    0    0  501  0.00000000000E+00  0.00000000000E+00 -0.16968829273E+04  0.16968829273E+04  0.25500000920E-02 0.  1.
    10030    2    1    2    0    0  0.00000000000E+00  0.00000000000E+00 -0.19235932782E+03  0.32014065267E+04  0.31956222615E+04 0.  0.
        1    1    3    3  502    0 -0.65003317728E+03 -0.24449377226E+03 -0.15377700926E+04  0.16873224926E+04  0.50400001928E-02 0.  1.
       -1    1    3    3    0  502  0.65003317728E+03  0.24449377226E+03  0.13454107648E+04  0.15140840341E+04  0.50400001928E-02 0. -1.
</event>
<event>
 5   0  0.8545153E-07  0.3196643E+04  0.7818609E-02  0.8189704E-01
        1   -1    0    0  501    0  0.00000000000E+00  0.00000000000E+00  0.22219448042E+04  0.22219448042E+04  0.50400001928E-02 0.  1.
       -1   -1    0    0    0  501  0.00000000000E+00  0.00000000000E+00 -0.11497274179E+04  0.11497274179E+04  0.50400001928E-02 0. -1.
    10030    2    1    2    0    0  0.00000000000E+00  0.00000000000E+00  0.10722173863E+04  0.33716722220E+04  0.31966425276E+04 0.  0.
        3    1    3    3  502    0  0.22053097782E+03 -0.14777169789E+04 -0.62736758703E+02  0.14953987070E+04  0.10100000352E+00 0. -1.
       -3    1    3    3    0  502 -0.22053097782E+03  0.14777169789E+04  0.11349541450E+04  0.18762735150E+04  0.10100000352E+00 0.  1.
</event>
<event>
 5   0  0.2621528E-06  0.3134463E+04  0.7818609E-02  0.8206343E-01
        2   -1    0    0  501    0  0.00000000000E+00  0.00000000000E+00  0.18860382848E+04  0.18860382848E+04  0.25500000920E-02 0.  1.
       -2   -1    0    0    0  501  0.00000000000E+00  0.00000000000E+00 -0.13023139253E+04  0.13023139253E+04  0.25500000920E-02 0. -1.
    10030    2    1    2    0    0  0.00000000000E+00  0.00000000000E+00  0.58372435959E+03  0.31883522101E+04  0.31344625835E+04 0.  0.
        2    1    3    3  502    0 -0.33201975675E+03 -0.15188711931E+04  0.90964443673E+02  0.15573956948E+04  0.25500000920E-02 0. -1.
       -2    1    3    3    0  502  0.33201975675E+03  0.15188711931E+04  0.49275991591E+03  0.16309565153E+04  0.25500000920E-02 0.  1.
</event>
<event>
 5   0  0.8681172E-07  0.3232052E+04  0.7818609E-02  0.8180403E-01
        1   -1    0    0  501    0  0.00000000000E+00  0.00000000000E+00  0.21532307841E+04  0.21532307841E+04  0.50400001928E-02 0.  1.
       -1   -1    0    0    0  501  0.00000000000E+00  0.00000000000E+00 -0.12128475526E+04  0.12128475526E+04  0.50400001928E-02 0. -1.
    10030    2    1    2    0    0  0.00000000000E+00  0.00000000000E+00  0.94038323150E+03  0.33660783368E+04  0.32320524048E+04 0.  0.
        1    1    3    3  502    0 -0.12181805704E+04 -0.10526778081E+04  0.61542397329E+03  0.17236128152E+04  0.50400001928E-02 0.  1.
       -1    1    3    3    0  502  0.12181805704E+04  0.10526778081E+04  0.32495925821E+03  0.16424655215E+04  0.50400001928E-02 0. -1.
</event>
<event>
 5   0  0.8545153E-07  0.3219452E+04  0.7818609E-02  0.8183699E-01
       -1   -1    0    0    0  501  0.00000000000E+00  0.00000000000E+00  0.11243948077E+04  0.11243948077E+04  0.50400001928E-02 0.  1.
        1   -1    0    0  501    0  0.00000000000E+00  0.00000000000E+00 -0.23045439595E+04  0.23045439595E+04  0.50400001928E-02 0. -1.
    10030    2    1    2    0    0  0.00000000000E+00  0.00000000000E+00 -0.11801491519E+04  0.34289387672E+04  0.32194516689E+04 0.  0.
        3    1    3    3  502    0  0.11590257705E+04  0.38401438674E+03 -0.17073364496E+04  0.20990010834E+04  0.10100000352E+00 0. -1.
       -3    1    3    3    0  502 -0.11590257705E+04 -0.38401438674E+03  0.52718729769E+03  0.13299376838E+04  0.10100000352E+00 0.  1.
</event>
<event>
 5   0  0.8681172E-07  0.3202546E+04  0.7818609E-02  0.8188145E-01
       -1   -1    0    0    0  501  0.00000000000E+00  0.00000000000E+00  0.10423581210E+04  0.10423581210E+04  0.50400001928E-02 0. -1.
        1   -1    0    0  501    0  0.00000000000E+00  0.00000000000E+00 -0.24598799512E+04  0.24598799512E+04  0.50400001928E-02 0.  1.
    10030    2    1    2    0    0  0.00000000000E+00  0.00000000000E+00 -0.14175218302E+04  0.35022380722E+04  0.32025463893E+04 0.  0.
        1    1    3    3  502    0 -0.46229225231E+03  0.60072114402E+03 -0.22512487642E+04  0.23754370161E+04  0.50400001928E-02 0.  1.
       -1    1    3    3    0  502  0.46229225231E+03 -0.60072114402E+03  0.83372693402E+03  0.11268010561E+04  0.50400001928E-02 0. -1.
</event>
<event>
 5   0  0.2401139E-06  0.3133686E+04  0.7818609E-02  0.8206554E-01
       -2   -1    0    0    0  501  0.00000000000E+00  0.00000000000E+00  0.12308363779E+04  0.12308363779E+04  0.25500000920E-02 0.  1.
        2   -1    0    0  501    0  0.00000000000E+00  0.00000000000E+00 -0.19945757457E+04  0.19945757457E+04  0.25500000920E-02 0. -1.
    10030    2    1    2    0    0  0.00000000000E+00  0.00000000000E+00 -0.76373936779E+03  0.32254121237E+04  0.31336856169E+04 0.  0.
        5    1    3    3  502    0  0.81648045693E+03 -0.47407920244E+03  0.90516497306E+03  0.13079515072E+04  0.46999998093E+01 0.  1.
       -5    1    3    3    0  502 -0.81648045693E+03  0.47407920244E+03 -0.16689043409E+04  0.19174606165E+04  0.46999998093E+01 0. -1.
</event>
<event>
 5   0  0.2466076E-06  0.3329081E+04  0.7818609E-02  0.8155535E-01
        2   -1    0    0  501    0  0.00000000000E+00  0.00000000000E+00  0.23957913518E+04  0.23957913518E+04  0.25500000920E-02 0.  1.
       -2   -1    0    0    0  501  0.00000000000E+00  0.00000000000E+00 -0.11564841173E+04  0.11564841173E+04  0.25500000920E-02 0. -1.
    10030    2    1    2    0    0  0.00000000000E+00  0.00000000000E+00  0.12393072345E+04  0.35522754691E+04  0.33290807420E+04 0.  0.
        3    1    3    3  502    0 -0.94528049064E+03  0.76511989890E+03 -0.59308817628E+03  0.13530400071E+04  0.10100000352E+00 0. -1.
       -3    1    3    3    0  502  0.94528049064E+03 -0.76511989890E+03  0.18323954108E+04  0.21992354620E+04  0.10100000352E+00 0.  1.
</event>
<event>
 5   0  0.2337504E-06  0.3187127E+04  0.7818609E-02  0.8192225E-01
       -2   -1    0    0    0  501  0.00000000000E+00  0.00000000000E+00  0.15701832017E+04  0.15701832017E+04  0.25500000920E-02 0. -1.
        2   -1    0    0  501    0  0.00000000000E+00  0.00000000000E+00 -0.16172920679E+04  0.16172920679E+04  0.25500000920E-02 0.  1.
    10030    2    1    2    0    0  0.00000000000E+00  0.00000000000E+00 -0.47108866201E+02  0.31874752696E+04  0.31871271310E+04 0.  0.
        1    1    3    3  502    0 -0.14670706475E+04 -0.15911518334E+03 -0.62514396311E+03  0.16026287471E+04  0.50400001928E-02 0.  1.
       -1    1    3    3    0  502  0.14670706475E+04  0.15911518334E+03  0.57803509691E+03  0.15848465225E+04  0.50400001928E-02 0. -1.
</event>
<event>
 5   0  0.8487944E-07  0.3193727E+04  0.7818609E-02  0.8190476E-01
       -1   -1    0    0    0  501  0.00000000000E+00  0.00000000000E+00  0.15198898208E+04  0.15198898208E+04  0.50400001928E-02 0.  1.
        1   -1    0    0  501    0  0.00000000000E+00  0.00000000000E+00 -0.16777351349E+04  0.16777351349E+04  0.50400001928E-02 0. -1.
    10030    2    1    2    0    0  0.00000000000E+00  0.00000000000E+00 -0.15784531412E+03  0.31976249557E+04  0.31937266968E+04 0.  0.
        2    1    3    3  502    0  0.15966651633E+04 -0.45806120347E+01 -0.54155287672E+02  0.15975898788E+04  0.25500000920E-02 0.  1.
       -2    1    3    3    0  502 -0.15966651633E+04  0.45806120347E+01 -0.10369002645E+03  0.16000350769E+04  0.25500000920E-02 0. -1.
</event>
<event>
 5   0  0.8681172E-07  0.3170190E+04  0.7818609E-02  0.8196734E-01
       -1   -1    0    0    0  501  0.00000000000E+00  0.00000000000E+00  0.17080744008E+04  0.17080744008E+04  0.50400001928E-02 0. -1.
        1   -1    0    0  501    0  0.00000000000E+00  0.00000000000E+00 -0.14709703126E+04  0.14709703126E+04  0.50400001928E-02 0.  1.
    10030    2    1    2    0    0  0.00000000000E+00  0.00000000000E+00  0.23710408820E+03  0.31790447133E+04  0.31701903635E+04 0.  0.
        1    1    3    3  502    0  0.21851377749E+03 -0.15699182121E+04  0.13021515547E+03  0.15903922316E+04  0.50400001928E-02 0.  1.
       -1    1    3    3    0  502 -0.21851377749E+03  0.15699182121E+04  0.10688893273E+03  0.15886524817E+04  0.50400001928E-02 0. -1.
</event>
<event>
 5   0  0.2401139E-06  0.3204731E+04  0.7818609E-02  0.8187569E-01
       -2   -1    0    0    0  501  0.00000000000E+00  0.00000000000E+00  0.14949594671E+04  0.14949594671E+04  0.25500000920E-02 0. -1.
        2   -1    0    0  501    0  0.00000000000E+00  0.00000000000E+00 -0.17174878397E+04  0.17174878397E+04  0.25500000920E-02 0.  1.
    10030    2    1    2    0    0  0.00000000000E+00  0.00000000000E+00 -0.22252837252E+03  0.32124473068E+04  0.32047306942E+04 0.  0.
        5    1    3    3  502    0 -0.21069356417E+03  0.14449652088E+04  0.55004882725E+03  0.15604140589E+04  0.46999998093E+01 0. -1.
       -5    1    3    3    0  502  0.21069356417E+03 -0.14449652088E+04 -0.77257719977E+03  0.16520332479E+04  0.46999998093E+01 0.  1.
</event>
<event>
 5   0  0.8512855E-07  0.3057585E+04  0.7818609E-02  0.8227476E-01
       -1   -1    0    0    0  501  0.00000000000E+00  0.00000000000E+00  0.10916755167E+04  0.10916755167E+04  0.50400001928E-02 0.  1.
        1   -1    0    0  501    0  0.00000000000E+00  0.00000000000E+00 -0.21409350096E+04  0.21409350096E+04  0.50400001928E-02 0. -1.
    10030    2    1    2    0    0  0.00000000000E+00  0.00000000000E+00 -0.10492594930E+04  0.32326105263E+04  0.30575848854E+04 0.  0.
        5    1    3    3  502    0  0.50927491758E+03 -0.89174412675E+03  0.67272582133E+03  0.12276606412E+04  0.46999998093E+01 0.  1.
       -5    1    3    3    0  502 -0.50927491758E+03  0.89174412675E+03 -0.17219853143E+04  0.20049498851E+04  0.46999998093E+01 0. -1.
</event>
<event>
 5   0  0.8383008E-07  0.3261020E+04  0.7818609E-02  0.8172885E-01
       -1   -1    0    0    0  501  0.00000000000E+00  0.00000000000E+00  0.14788194701E+04  0.14788194701E+04  0.50400001928E-02 0.  1.
        1   -1    0    0  501    0  0.00000000000E+00  0.00000000000E+00 -0.17977598760E+04  0.17977598760E+04  0.50400001928E-02 0. -1.
    10030    2    1    2    0    0  0.00000000000E+00  0.00000000000E+00 -0.31894040585E+03  0.32765793461E+04  0.32610196609E+04 0.  0.
        4    1    3    3  502    0  0.20865718930E+03 -0.28423933216E+03 -0.17589927299E+04  0.17939863036E+04  0.12699999809E+01 0. -1.
       -4    1    3    3    0  502 -0.20865718930E+03  0.28423933216E+03  0.14400523241E+04  0.14825930425E+04  0.12699999809E+01 0.  1.
</event>
<event>
 5   0  0.2401139E-06  0.3157628E+04  0.7818609E-02  0.8200098E-01
        2   -1    0    0  501    0  0.00000000000E+00  0.00000000000E+00  0.17473525921E+04  0.17473525921E+04  0.25500000920E-02 0. -1.
       -2   -1    0    0    0  501  0.00000000000E+00  0.00000000000E+00 -0.14265313890E+04  0.14265313890E+04  0.25500000920E-02 0.  1.
    10030    2    1    2    0    0  0.00000000000E+00  0.00000000000E+00  0.32082120317E+03  0.31738839811E+04  0.31576277933E+04 0.  0.
        5    1    3    3  502    0  0.63648291828E+03  0.10230067616E+04 -0.86512528966E+03  0.14832792037E+04  0.46999998093E+01 0.  1.
       -5    1    3    3    0  502 -0.63648291828E+03 -0.10230067616E+04  0.11859464928E+04  0.16906047774E+04  0.46999998093E+01 0. -1.
</event>
<event>
 5   0  0.7934375E-07  0.3090498E+04  0.7818609E-02  0.8218351E-01
        3   -1    0    0  501    0  0.00000000000E+00  0.00000000000E+00  0.23634115341E+04  0.23634115362E+04  0.10100000352E+00 0.  1.
       -3   -1    0    0    0  501  0.00000000000E+00  0.00000000000E+00 -0.10103165803E+04  0.10103165854E+04  0.10100000352E+00 0. -1.
    10030    2    1    2    0    0  0.00000000000E+00  0.00000000000E+00  0.13530949537E+04  0.33737281216E+04  0.30904976112E+04 0.  0.
        4    1    3    3  502    0  0.14504889309E+04  0.49321100417E+03  0.45654086923E+03  0.15986264140E+04  0.12699999809E+01 0.  1.
       -4    1    3    3    0  502 -0.14504889309E+04 -0.49321100417E+03  0.89655408451E+03  0.17751017077E+04  0.12699999809E+01 0. -1.
</event>
<event>
 5   0  0.2401139E-06  0.3194568E+04  0.7818609E-02  0.8190253E-01
        2   -1    0    0  501    0  0.00000000000E+00  0.00000000000E+00  0.18249379166E+04  0.18249379166E+04  0.25500000920E-02 0. -1.
       -2   -1    0    0    0  501  0.00000000000E+00  0.00000000000E+00 -0.13980289167E+04  0.13980289167E+04  0.25500000920E-02 0.  1.
    10030    2    1    2    0    0  0.00000000000E+00  0.00000000000E+00  0.42690899988E+03  0.32229668333E+04  0.31945678760E+04 0.  0.
        5    1    3    3  502    0  0.54261903823E+02 -0.15499239061E+04 -0.17215449193E+03  0.15604062702E+04  0.46999998093E+01 0.  1.
       -5    1    3    3    0  502 -0.54261903823E+02  0.15499239061E+04  0.59906349181E+03  0.16625605631E+04  0.46999998093E+01 0. -1.
</event>
<event>
 5   0  0.2404430E-06  0.3223029E+04  0.7818609E-02  0.8182762E-01
        2   -1    0    0  501    0  0.00000000000E+00  0.00000000000E+00  0.15556322107E+04  0.15556322107E+04  0.25500000920E-02 0.  1.
       -2   -1    0    0    0  501  0.00000000000E+00  0.00000000000E+00 -0.16694045569E+04  0.16694045569E+04  0.25500000920E-02 0. -1.
    10030    2    1    2    0    0  0.00000000000E+00  0.00000000000E+00 -0.11377234621E+03  0.32250367676E+04  0.32230293213E+04 0.  0.
        4    1    3    3  502    0 -0.15078698768E+04 -0.46540323790E+03  0.26997635678E+03  0.16009873782E+04  0.12699999809E+01 0. -1.
       -4    1    3    3    0  502  0.15078698768E+04  0.46540323790E+03 -0.38374870299E+03  0.16240493894E+04  0.12699999809E+01 0.  1.
</event>
<event>
 5   0  0.2337504E-06  0.3268400E+04  0.7818609E-02  0.8170983E-01
        2   -1    0    0  501    0  0.00000000000E+00  0.00000000000E+00  0.28293653052E+04  0.28293653052E+04  0.25500000920E-02 0. -1.
       -2   -1    0    0    0  501  0.00000000000E+00  0.00000000000E+00 -0.94389022150E+03  0.94389022150E+03  0.25500000920E-02 0.  1.
    10030    2    1    2    0    0  0.00000000000E+00  0.00000000000E+00  0.18854750837E+04  0.37732555267E+04  0.32684003700E+04 0.  0.
        1    1    3    3  502    0  0.18164594012E+03  0.14012188583E+04  0.18906660140E+04  0.23603024198E+04  0.50400001928E-02 0. -1.
       -1    1    3    3    0  502 -0.18164594012E+03 -0.14012188583E+04 -0.51909303236E+01  0.14129531069E+04  0.50400001928E-02 0.  1.
</event>
<event>
 5   0  0.2337504E-06  0.3237425E+04  0.7818609E-02  0.8179003E-01
       -2   -1    0    0    0  501  0.00000000000E+00  0.00000000000E+00  0.17172855070E+04  0.17172855070E+04  0.25500000920E-02 0. -1.
        2   -1    0    0  501    0  0.00000000000E+00  0.00000000000E+00 -0.15257978924E+04  0.15257978924E+04  0.25500000920E-02 0.  1.
    10030    2    1    2    0    0  0.00000000000E+00  0.00000000000E+00  0.19148761453E+03  0.32430833994E+04  0.32374252778E+04 0.  0.
        1    1    3    3  502    0 -0.12433210527E+04  0.14969847868E+03  0.11231940798E+04  0.16822074235E+04  0.50400001928E-02 0.  1.
       -1    1    3    3    0  502  0.12433210527E+04 -0.14969847868E+03 -0.93170646530E+03  0.15608759759E+04  0.50400001928E-02 0. -1.
</event>
<event>
 5   0  0.8487944E-07  0.3116768E+04  0.7818609E-02  0.8211151E-01
        1   -1    0    0  501    0  0.00000000000E+00  0.00000000000E+00  0.76280516495E+03  0.76280516496E+03  0.50400001928E-02 0. -1.
       -1   -1    0    0    0  501  0.00000000000E+00  0.00000000000E+00 -0.31837241598E+04  0.31837241598E+04  0.50400001928E-02 0.  1.
    10030    2    1    2    0    0  0.00000000000E+00  0.00000000000E+00 -0.24209189948E+04  0.39465293248E+04  0.31167683474E+04 0.  0.
        2    1    3    3  502    0 -0.15064372424E+04 -0.39811554640E+03 -0.11766705247E+04  0.19525374970E+04  0.25500000920E-02 0. -1.
       -2    1    3    3    0  502  0.15064372424E+04  0.39811554640E+03 -0.12442484702E+04  0.19939918277E+04  0.25500000920E-02 0.  1.
</event>
<event>
 5   0  0.2337504E-06  0.3138440E+04  0.7818609E-02  0.8205267E-01
        2   -1    0    0  501    0  0.00000000000E+00  0.00000000000E+00  0.80561990201E+03  0.80561990202E+03  0.25500000920E-02 0. -1.
       -2   -1    0    0    0  501  0.00000000000E+00  0.00000000000E+00 -0.30565911394E+04  0.30565911394E+04  0.25500000920E-02 0.  1.
    10030    2    1    2    0    0  0.00000000000E+00  0.00000000000E+00 -0.22509712374E+04  0.38622110414E+04  0.31384395194E+04 0.  0.
        1    1    3    3  502    0  0.30254576617E+03 -0.89684231347E+03 -0.26657667399E+04  0.28288111261E+04  0.50400001928E-02 0.  1.
       -1    1    3    3    0  502 -0.30254576617E+03  0.89684231347E+03  0.41479550254E+03  0.10333999152E+04  0.50400001928E-02 0. -1.
</event>
<event>
 5   0  0.8512855E-07  0.3200597E+04  0.7818609E-02  0.8188659E-01
        1   -1    0    0  501    0  0.00000000000E+00  0.00000000000E+00  0.18683016193E+04  0.18683016193E+04  0.50400001928E-02 0. -1.
       -1   -1    0    0    0  501  0.00000000000E+00  0.00000000000E+00 -0.13707398979E+04  0.13707398979E+04  0.50400001928E-02 0.  1.
    10030    2    1    2    0    0  0.00000000000E+00  0.00000000000E+00  0.49756172144E+03  0.32390415172E+04  0.32005971761E+04 0.  0.
        5    1    3    3  502    0 -0.83736774824E+03  0.35307170254E+02 -0.11308631172E+04  0.14075882999E+04  0.46999998093E+01 0.  1.
       -5    1    3    3    0  502  0.83736774824E+03 -0.35307170254E+02  0.16284248387E+04  0.18314532173E+04  0.46999998093E+01 0. -1.
</event>
<event>
 5   0  0.8545153E-07  0.3231928E+04  0.7818609E-02  0.8180436E-01
        1   -1    0    0  501    0  0.00000000000E+00  0.00000000000E+00  0.10159699192E+04  0.10159699192E+04  0.50400001928E-02 0. -1.
       -1   -1    0    0    0  501  0.00000000000E+00  0.00000000000E+00 -0.25702927778E+04  0.25702927778E+04  0.50400001928E-02 0.  1.
    10030    2    1    2    0    0  0.00000000000E+00  0.00000000000E+00 -0.15543228586E+04  0.35862626970E+04  0.32319283072E+04 0.  0.
        3    1    3    3  502    0 -0.91734688374E+03  0.12780005064E+04 -0.11871707104E+04  0.19708335560E+04  0.10100000352E+00 0.  1.
       -3    1    3    3    0  502  0.91734688374E+03 -0.12780005064E+04 -0.36715214826E+03  0.16154291410E+04  0.10100000352E+00 0. -1.
</event>
<event>
 5   0  0.2404430E-06  0.3201043E+04  0.7818609E-02  0.8188542E-01
       -2   -1    0    0    0  501  0.00000000000E+00  0.00000000000E+00  0.25545468769E+04  0.25545468769E+04  0.25500000920E-02 0. -1.
        2   -1    0    0  501    0  0.00000000000E+00  0.00000000000E+00 -0.10027878352E+04  0.10027878352E+04  0.25500000920E-02 0.  1.
    10030    2    1    2    0    0  0.00000000000E+00  0.00000000000E+00  0.15517590418E+04  0.35573347121E+04  0.32010426630E+04 0.  0.
        4    1    3    3  502    0  0.12851163509E+04 -0.21813116711E+03 -0.25623609157E+03  0.13284441234E+04  0.12699999809E+01 0.  1.
       -4    1    3    3    0  502 -0.12851163509E+04  0.21813116711E+03  0.18079951334E+04  0.22288905887E+04  0.12699999809E+01 0. -1.
</event>
<event>
 5   0  0.8681172E-07  0.3200553E+04  0.7818609E-02  0.8188671E-01
        1   -1    0    0  501    0  0.00000000000E+00  0.00000000000E+00  0.24724145416E+04  0.24724145416E+04  0.50400001928E-02 0. -1.
       -1   -1    0    0    0  501  0.00000000000E+00  0.00000000000E+00 -0.10357830713E+04  0.10357830713E+04  0.50400001928E-02 0.  1.
    10030    2    1    2    0    0  0.00000000000E+00  0.00000000000E+00  0.14366314703E+04  0.35081976130E+04  0.32005531569E+04 0.  0.
        1    1    3    3  502    0  0.15487327637E+04 -0.72654048910E+02  0.11526808542E+04  0.19319743621E+04  0.50400001928E-02 0. -1.
       -1    1    3    3    0  502 -0.15487327637E+04  0.72654048910E+02  0.28395061615E+03  0.15762232509E+04  0.50400001928E-02 0.  1.
</event>
<event>
 5   0  0.2466076E-06  0.3184215E+04  0.7818609E-02  0.8192998E-01
       -2   -1    0    0    0  501  0.00000000000E+00  0.00000000000E+00  0.19626489243E+04  0.19626489243E+04  0.25500000920E-02 0. -1.
        2   -1    0    0  501    0  0.00000000000E+00  0.00000000000E+00 -0.12915228152E+04  0.12915228152E+04  0.25500000920E-02 0.  1.
    10030    2    1    2    0    0  0.00000000000E+00  0.00000000000E+00  0.67112610910E+03  0.32541717394E+04  0.31842147313E+04 0.  0.
        3    1    3    3  502    0  0.45626823660E+03  0.11967748321E+04 -0.63091751737E+03  0.14277631548E+04  0.10100000352E+00 0.  1.
       -3    1    3    3    0  502 -0.45626823660E+03 -0.11967748321E+04  0.13020436265E+04  0.18264085846E+04  0.10100000352E+00 0. -1.
</event>
<event>
 5   0  0.2466076E-06  0.3374049E+04  0.7818609E-02  0.8144305E-01
       -2   -1    0    0    0  501  0.00000000000E+00  0.00000000000E+00  0.14593461514E+04  0.14593461514E+04  0.25500000920E-02 0. -1.
        2   -1    0    0  501    0  0.00000000000E+00  0.00000000000E+00 -0.19502235255E+04  0.19502235255E+04  0.25500000920E-02 0.  1.
    10030    2    1    2    0    0  0.00000000000E+00  0.00000000000E+00 -0.49087737406E+03  0.34095696769E+04  0.33740487230E+04 0.  0.
        3    1    3    3  502    0 -0.10533051213E+04  0.11688956280E+04  0.36947594118E+03  0.16162552859E+04  0.10100000352E+00 0. -1.
       -3    1    3    3    0  502  0.10533051213E+04 -0.11688956280E+04 -0.86035331524E+03  0.17933143910E+04  0.10100000352E+00 0.  1.
</event>
<event>
 5   0  0.2466076E-06  0.3298999E+04  0.7818609E-02  0.8163150E-01
       -2   -1    0    0    0  501  0.00000000000E+00  0.00000000000E+00  0.13431793090E+04  0.13431793090E+04  0.25500000920E-02 0. -1.
        2   -1    0    0  501    0  0.00000000000E+00  0.00000000000E+00 -0.20256777772E+04  0.20256777772E+04  0.25500000920E-02 0.  1.
    10030    2    1    2    0    0  0.00000000000E+00  0.00000000000E+00 -0.68249846813E+03  0.33688570862E+04  0.32989989252E+04 0.  0.
        3    1    3    3  502    0  0.10481227006E+04 -0.10679312359E+04 -0.10500731862E+04  0.18280295476E+04  0.10100000352E+00 0.  1.
       -3    1    3    3    0  502 -0.10481227006E+04  0.10679312359E+04  0.36757471811E+03  0.15408275386E+04  0.10100000352E+00 0. -1.
</event>
<event>
 5   0  0.8487944E-07  0.2578183E+04  0.7818609E-02  0.8375650E-01
       -1   -1    0    0    0  501  0.00000000000E+00  0.00000000000E+00  0.68859765104E+03  0.68859765106E+03  0.50400001928E-02 0.  1.
        1   -1    0    0  501    0  0.00000000000E+00  0.00000000000E+00 -0.24132486800E+04  0.24132486800E+04  0.50400001928E-02 0. -1.
    10030    2    1    2    0    0  0.00000000000E+00  0.00000000000E+00 -0.17246510289E+04  0.31018463310E+04  0.25781833701E+04 0.  0.
        2    1    3    3  502    0 -0.15766345202E+03 -0.70158207132E+03 -0.21495341409E+04  0.22666213160E+04  0.25500000920E-02 0. -1.
       -2    1    3    3    0  502  0.15766345202E+03  0.70158207132E+03  0.42488311202E+03  0.83522501506E+03  0.25500000920E-02 0.  1.
</event>
<event>
 5   0  0.2401139E-06  0.3206286E+04  0.7818609E-02  0.8187159E-01
        2   -1    0    0  501    0  0.00000000000E+00  0.00000000000E+00  0.13235089192E+04  0.13235089192E+04  0.25500000920E-02 0.  1.
       -2   -1    0    0    0  501  0.00000000000E+00  0.00000000000E+00 -0.19418593998E+04  0.19418593998E+04  0.25500000920E-02 0. -1.
    10030    2    1    2    0    0  0.00000000000E+00  0.00000000000E+00 -0.61835048062E+03  0.32653683189E+04  0.32062864721E+04 0.  0.
        5    1    3    3  502    0 -0.11166897744E+04 -0.77340182726E+02 -0.14779586769E+04  0.18540122699E+04  0.46999998093E+01 0. -1.
       -5    1    3    3    0  502  0.11166897744E+04  0.77340182726E+02  0.85960819627E+03  0.14113560491E+04  0.46999998093E+01 0.  1.
</event>
<event>
 5   0  0.2401139E-06  0.3134585E+04  0.7818609E-02  0.8206310E-01
       -2   -1    0    0    0  501  0.00000000000E+00  0.00000000000E+00  0.11600006909E+04  0.11600006909E+04  0.25500000920E-02 0.  1.
        2   -1    0    0  501    0  0.00000000000E+00  0.00000000000E+00 -0.21175899763E+04  0.21175899763E+04  0.25500000920E-02 0. -1.
    10030    2    1    2    0    0  0.00000000000E+00  0.00000000000E+00 -0.95758928537E+03  0.32775906673E+04  0.31345850352E+04 0.  0.
        5    1    3    3  502    0  0.56141482492E+03 -0.12882072223E+04 -0.12045189647E+04  0.18508248106E+04  0.46999998093E+01 0. -1.
       -5    1    3    3    0  502 -0.56141482492E+03  0.12882072223E+04  0.24692967932E+03  0.14267658567E+04  0.46999998093E+01 0.  1.
</event>
<event>
 5   0  0.2404430E-06  0.3156181E+04  0.7818609E-02  0.8200487E-01
       -2   -1    0    0    0  501  0.00000000000E+00  0.00000000000E+00  0.14786636730E+04  0.14786636730E+04  0.25500000920E-02 0.  1.
        2   -1    0    0  501    0  0.00000000000E+00  0.00000000000E+00 -0.16842026190E+04  0.16842026190E+04  0.25500000920E-02 0. -1.
    10030    2    1    2    0    0  0.00000000000E+00  0.00000000000E+00 -0.20553894606E+03  0.31628662920E+04  0.31561807494E+04 0.  0.
        4    1    3    3  502    0  0.89730924655E+03 -0.12012180896E+04  0.39049144236E+03  0.15493785729E+04  0.12699999809E+01 0.  1.
       -4    1    3    3    0  502 -0.89730924655E+03  0.12012180896E+04 -0.59603038842E+03  0.16134877191E+04  0.12699999809E+01 0. -1.
</event>
<event>
 5   0  0.2404430E-06  0.3232263E+04  0.7818609E-02  0.8180348E-01
        2   -1    0    0  501    0  0.00000000000E+00  0.00000000000E+00  0.15430307571E+04  0.15430307571E+04  0.25500000920E-02 0.  1.
       -2   -1    0    0    0  501  0.00000000000E+00  0.00000000000E+00 -0.16926955811E+04  0.16926955811E+04  0.25500000920E-02 0. -1.
    10030    2    1    2    0    0  0.00000000000E+00  0.00000000000E+00 -0.14966482398E+03  0.32357263382E+04  0.32322631972E+04 0.  0.
        4    1    3    3  502    0 -0.14811205952E+04  0.63587260992E+03 -0.19254895215E+03  0.16233080131E+04  0.12699999809E+01 0.  1.
       -4    1    3    3    0  502  0.14811205952E+04 -0.63587260992E+03  0.42884128167E+02  0.16124183251E+04  0.12699999809E+01 0. -1.
</event>
<event>
 5   0  0.8383008E-07  0.3018863E+04  0.7818609E-02  0.8238365E-01
       -1   -1    0    0    0  501  0.00000000000E+00  0.00000000000E+00  0.91416232495E+03  0.91416232497E+03  0.50400001928E-02 0. -1.
        1   -1    0    0  501    0  0.00000000000E+00  0.00000000000E+00 -0.24923190731E+04  0.24923190731E+04  0.50400001928E-02 0.  1.
    10030    2    1    2    0    0  0.00000000000E+00  0.00000000000E+00 -0.15781567482E+04  0.34064813981E+04  0.30188634937E+04 0.  0.
        4    1    3    3  502    0 -0.93514373469E+03  0.49918676196E+02  0.54672680626E+03  0.10843880728E+04  0.12699999809E+01 0. -1.
       -4    1    3    3    0  502  0.93514373469E+03 -0.49918676196E+02 -0.21248835544E+04  0.23220933253E+04  0.12699999809E+01 0.  1.
</event>
<event>
 5   0  0.2466076E-06  0.2572241E+04  0.7818609E-02  0.8377692E-01
        2   -1    0    0  501    0  0.00000000000E+00  0.00000000000E+00  0.31507336015E+04  0.31507336015E+04  0.25500000920E-02 0.  1.
       -2   -1    0    0    0  501  0.00000000000E+00  0.00000000000E+00 -0.52499067006E+03  0.52499067007E+03  0.25500000920E-02 0. -1.
    10030    2    1    2    0    0  0.00000000000E+00  0.00000000000E+00  0.26257429315E+04  0.36757242716E+04  0.25722408477E+04 0.  0.
        3    1    3    3  502    0 -0.54219928099E+03  0.29401456827E+02  0.29789012456E+04  0.30279856584E+04  0.10100000352E+00 0.  1.
       -3    1    3    3    0  502  0.54219928099E+03 -0.29401456827E+02 -0.35315831417E+03  0.64773861320E+03  0.10100000352E+00 0. -1.
</event>
<event>
 5   0  0.8383008E-07  0.3201575E+04  0.7818609E-02  0.8188401E-01
        1   -1    0    0  501    0  0.00000000000E+00  0.00000000000E+00  0.22689720893E+04  0.22689720893E+04  0.50400001928E-02 0. -1.
       -1   -1    0    0    0  501  0.00000000000E+00  0.00000000000E+00 -0.11293751674E+04  0.11293751674E+04  0.50400001928E-02 0.  1.
    10030    2    1    2    0    0  0.00000000000E+00  0.00000000000E+00  0.11395969219E+04  0.33983472567E+04  0.32015750706E+04 0.  0.
        4    1    3    3  502    0 -0.72495110870E+03 -0.98806968822E+03  0.16629916846E+04  0.20657634847E+04  0.12699999809E+01 0. -1.
       -4    1    3    3    0  502  0.72495110870E+03  0.98806968822E+03 -0.52339476276E+03  0.13325837720E+04  0.12699999809E+01 0.  1.
</event>
<event>
 5   0  0.2337504E-06  0.3227378E+04  0.7818609E-02  0.8181624E-01
       -2   -1    0    0    0  501  0.00000000000E+00  0.00000000000E+00  0.15399388770E+04  0.15399388770E+04  0.25500000920E-02 0. -1.
        2   -1    0    0  501    0  0.00000000000E+00  0.00000000000E+00 -0.16909711397E+04  0.16909711397E+04  0.25500000920E-02 0.  1.
    10030    2    1    2    0    0  0.00000000000E+00  0.00000000000E+00 -0.15103226269E+03  0.32309100166E+04  0.32273780056E+04 0.  0.
        1    1    3    3  502    0  0.84057363154E+03  0.10631662485E+04  0.80128808883E+03  0.15744678794E+04  0.50400001928E-02 0. -1.
       -1    1    3    3    0  502 -0.84057363154E+03 -0.10631662485E+04 -0.95232035152E+03  0.16564421372E+04  0.50400001928E-02 0.  1.
</event>
<event>
 5   0  0.2621528E-06  0.3193636E+04  0.7818609E-02  0.8190500E-01
       -2   -1    0    0    0  501  0.00000000000E+00  0.00000000000E+00  0.98921741311E+03  0.98921741311E+03  0.25500000920E-02 0.  1.
        2   -1    0    0  501    0  0.00000000000E+00  0.00000000000E+00 -0.25776204348E+04  0.25776204348E+04  0.25500000920E-02 0. -1.
    10030    2    1    2    0    0  0.00000000000E+00  0.00000000000E+00 -0.15884030217E+04  0.35668378479E+04  0.31936355575E+04 0.  0.
        2    1    3    3  502    0 -0.51833121822E+02 -0.12918960719E+04  0.25239937834E+03  0.13173411021E+04  0.25500000920E-02 0.  1.
       -2    1    3    3    0  502  0.51833121822E+02  0.12918960719E+04 -0.18408024000E+04  0.22494967458E+04  0.25500000920E-02 0. -1.
</event>
<event>
 5   0  0.8383008E-07  0.3252219E+04  0.7818609E-02  0.8175161E-01
       -1   -1    0    0    0  501  0.00000000000E+00  0.00000000000E+00  0.24947156141E+04  0.24947156141E+04  0.50400001928E-02 0.  1.
        1   -1    0    0  501    0  0.00000000000E+00  0.00000000000E+00 -0.10599329869E+04  0.10599329869E+04  0.50400001928E-02 0. -1.
    10030    2    1    2    0    0  0.00000000000E+00  0.00000000000E+00  0.14347826273E+04  0.35546486010E+04  0.32522185488E+04 0.  0.
        4    1    3    3  502    0 -0.11331902248E+04 -0.11718631959E+03  0.19856279669E+04  0.22892297296E+04  0.12699999809E+01 0.  1.
       -4    1    3    3    0  502  0.11331902248E+04  0.11718631959E+03 -0.55084533963E+03  0.12654188714E+04  0.12699999809E+01 0. -1.
</event>
<event>
 5   0  0.8487944E-07  0.3172131E+04  0.7818609E-02  0.8196216E-01
        1   -1    0    0  501    0  0.00000000000E+00  0.00000000000E+00  0.28753544717E+04  0.28753544717E+04  0.50400001928E-02 0.  1.
       -1   -1    0    0    0  501  0.00000000000E+00  0.00000000000E+00 -0.87488455689E+03  0.87488455690E+03  0.50400001928E-02 0. -1.
    10030    2    1    2    0    0  0.00000000000E+00  0.00000000000E+00  0.20004699149E+04  0.37502390286E+04  0.31721306549E+04 0.  0.
        2    1    3    3  502    0  0.49993282711E+03  0.52740804698E+03 -0.66648512555E+03  0.98604994915E+03  0.25500000920E-02 0. -1.
       -2    1    3    3    0  502 -0.49993282711E+03 -0.52740804698E+03  0.26669550404E+04  0.27641890795E+04  0.25500000920E-02 0.  1.
</event>
<event>
 5   0  0.2404430E-06  0.3155671E+04  0.7818609E-02  0.8200623E-01
        2   -1    0    0  501    0  0.00000000000E+00  0.00000000000E+00  0.13479852965E+04  0.13479852965E+04  0.25500000920E-02 0.  1.
       -2   -1    0    0    0  501  0.00000000000E+00  0.00000000000E+00 -0.18468783474E+04  0.18468783474E+04  0.25500000920E-02 0. -1.
    10030    2    1    2    0    0  0.00000000000E+00  0.00000000000E+00 -0.49889305092E+03  0.31948636440E+04  0.31556709948E+04 0.  0.
        4    1    3    3  502    0 -0.95345440700E+03 -0.52690001135E+03 -0.14050536320E+04  0.17778853309E+04  0.12699999809E+01 0. -1.
       -4    1    3    3    0  502  0.95345440700E+03  0.52690001135E+03  0.90616058104E+03  0.14169783131E+04  0.12699999809E+01 0.  1.
</event>
<event>
 5   0  0.2404430E-06  0.3209998E+04  0.7818609E-02  0.8186182E-01
       -2   -1    0    0    0  501  0.00000000000E+00  0.00000000000E+00  0.15495598795E+04  0.15495598795E+04  0.25500000920E-02 0.  1.
        2   -1    0    0  501    0  0.00000000000E+00  0.00000000000E+00 -0.16624216458E+04  0.16624216458E+04  0.25500000920E-02 0. -1.
    10030    2    1    2    0    0  0.00000000000E+00  0.00000000000E+00 -0.11286176623E+03  0.32119815253E+04  0.32099980593E+04 0.  0.
        4    1    3    3  502    0  0.10971477375E+04 -0.10568600120E+04 -0.56204898998E+03  0.16237570394E+04  0.12699999809E+01 0. -1.
       -4    1    3    3    0  502 -0.10971477375E+04  0.10568600120E+04  0.44918722375E+03  0.15882244859E+04  0.12699999809E+01 0.  1.
</event>
<event>
 5   0  0.8383008E-07  0.3186621E+04  0.7818609E-02  0.8192360E-01
        1   -1    0    0  501    0  0.00000000000E+00  0.00000000000E+00  0.20951187098E+04  0.20951187098E+04  0.50400001928E-02 0.  1.
       -1   -1    0    0    0  501  0.00000000000E+00  0.00000000000E+00 -0.12116916094E+04  0.12116916094E+04  0.50400001928E-02 0. -1.
    10030    2    1    2    0    0  0.00000000000E+00  0.00000000000E+00  0.88342710035E+03  0.33068103192E+04  0.31866206310E+04 0.  0.
        4    1    3    3  502    0 -0.35540482073E+03 -0.13693104141E+04  0.12023767633E+04  0.18566192638E+04  0.12699999809E+01 0.  1.
       -4    1    3    3    0  502  0.35540482073E+03  0.13693104141E+04 -0.31894966297E+03  0.14501910554E+04  0.12699999809E+01 0. -1.
</event>
<event>
 5   0  0.8487944E-07  0.3200729E+04  0.7818609E-02  0.8188625E-01
        1   -1    0    0  501    0  0.00000000000E+00  0.00000000000E+00  0.15305629169E+04  0.15305629169E+04  0.50400001928E-02 0. -1.
       -1   -1    0    0    0  501  0.00000000000E+00  0.00000000000E+00 -0.16733490796E+04  0.16733490796E+04  0.50400001928E-02 0.  1.
    10030    2    1    2    0    0  0.00000000000E+00  0.00000000000E+00 -0.14278616275E+03  0.32039119965E+04  0.32007286972E+04 0.  0.
        2    1    3    3  502    0 -0.11297904858E+04  0.36078602847E+03  0.10041861401E+04  0.15540215263E+04  0.25500000920E-02 0. -1.
       -2    1    3    3    0  502  0.11297904858E+04 -0.36078602847E+03 -0.11469723029E+04  0.16498904702E+04  0.25500000920E-02 0.  1.
</event>
<event>
 5   0  0.2401139E-06  0.3265122E+04  0.7818609E-02  0.8171827E-01
        2   -1    0    0  501    0  0.00000000000E+00  0.00000000000E+00  0.14574333747E+04  0.14574333747E+04  0.25500000920E-02 0.  1.
       -2   -1    0    0    0  501  0.00000000000E+00  0.00000000000E+00 -0.18287323854E+04  0.18287323854E+04  0.25500000920E-02 0. -1.
    10030    2    1    2    0    0  0.00000000000E+00  0.00000000000E+00 -0.37129901068E+03  0.32861657600E+04  0.32651221183E+04 0.  0.
        5    1    3    3  502    0 -0.98823477694E+03 -0.58368439417E+03  0.98284051580E+03  0.15110569201E+04  0.46999998093E+01 0.  1.
       -5    1    3    3    0  502  0.98823477694E+03  0.58368439417E+03 -0.13541395265E+04  0.17751088399E+04  0.46999998093E+01 0. -1.
</event>
<event>
 5   0  0.2401139E-06  0.3211801E+04  0.7818609E-02  0.8185707E-01
       -2   -1    0    0    0  501  0.00000000000E+00  0.00000000000E+00  0.20996704826E+04  0.20996704826E+04  0.25500000920E-02 0. -1.
        2   -1    0    0  501    0  0.00000000000E+00  0.00000000000E+00 -0.12282481717E+04  0.12282481717E+04  0.25500000920E-02 0.  1.
    10030    2    1    2    0    0  0.00000000000E+00  0.00000000000E+00  0.87142231093E+03  0.33279186543E+04  0.32118010096E+04 0.  0.
        5    1    3    3  502    0 -0.88895328129E+03  0.46726585096E+01 -0.95003882823E+03  0.13010978577E+04  0.46999998093E+01 0.  1.
       -5    1    3    3    0  502  0.88895328129E+03 -0.46726585096E+01  0.18214611392E+04  0.20268207966E+04  0.46999998093E+01 0. -1.
</event>
<event>
 5   0  0.8512855E-07  0.3241206E+04  0.7818609E-02  0.8178019E-01
        1   -1    0    0  501    0  0.00000000000E+00  0.00000000000E+00  0.22802005040E+04  0.22802005041E+04  0.50400001928E-02 0. -1.
       -1   -1    0    0    0  501  0.00000000000E+00  0.00000000000E+00 -0.11518087431E+04  0.11518087431E+04  0.50400001928E-02 0.  1.
    10030    2    1    2    0    0  0.00000000000E+00  0.00000000000E+00  0.11283917610E+04  0.34320092472E+04  0.32412064893E+04 0.  0.
        5    1    3    3  502    0  0.10841828016E+04 -0.11448072693E+04  0.16758414271E+03  0.15856047951E+04  0.46999998093E+01 0.  1.
       -5    1    3    3    0  502 -0.10841828016E+04  0.11448072693E+04  0.96080761824E+03  0.18464044521E+04  0.46999998093E+01 0. -1.
</event>
<event>
 5   0  0.2621528E-06  0.2679806E+04  0.7818609E-02  0.8341587E-01
        2   -1    0    0  501    0  0.00000000000E+00  0.00000000000E+00  0.11239349662E+04  0.11239349662E+04  0.25500000920E-02 0.  1.
       -2   -1    0    0    0  501  0.00000000000E+00  0.00000000000E+00 -0.15973703369E+04  0.15973703369E+04  0.25500000920E-02 0. -1.
    10030    2    1    2    0    0  0.00000000000E+00  0.00000000000E+00 -0.47343537077E+03  0.27213053031E+04  0.26798062435E+04 0.  0.
        2    1    3    3  502    0  0.33925204663E+03  0.54086236632E+02  0.10784533568E+04  0.11318475670E+04  0.25500000920E-02 0.  1.
       -2    1    3    3    0  502 -0.33925204663E+03 -0.54086236632E+02 -0.15518887276E+04  0.15894577361E+04  0.25500000920E-02 0. -1.
</event>
<event>
 5   0  0.8383008E-07  0.3232608E+04  0.7818609E-02  0.8180258E-01
        1   -1    0    0  501    0  0.00000000000E+00  0.00000000000E+00  0.18364180025E+04  0.18364180025E+04  0.50400001928E-02 0. -1.
       -1   -1    0    0    0  501  0.00000000000E+00  0.00000000000E+00 -0.14225730814E+04  0.14225730814E+04  0.50400001928E-02 0.  1.
    10030    2    1    2    0    0  0.00000000000E+00  0.00000000000E+00  0.41384492108E+03  0.32589910839E+04  0.32326081213E+04 0.  0.
        4    1    3    3  502    0  0.90522980220E+03  0.11137522916E+04 -0.54248274699E+03  0.15343318759E+04  0.12699999809E+01 0. -1.
       -4    1    3    3    0  502 -0.90522980220E+03 -0.11137522916E+04  0.95632766806E+03  0.17246592079E+04  0.12699999809E+01 0.  1.
</event>
<event>
 5   0  0.2466076E-06  0.3165411E+04  0.7818609E-02  0.8198012E-01
       -2   -1    0    0    0  501  0.00000000000E+00  0.00000000000E+00  0.13705629747E+04  0.13705629747E+04  0.25500000920E-02 0.  1.
        2   -1    0    0  501    0  0.00000000000E+00  0.00000000000E+00 -0.18276847086E+04  0.18276847086E+04  0.25500000920E-02 0. -1.
    10030    2    1    2    0    0  0.00000000000E+00  0.00000000000E+00 -0.45712173386E+03  0.31982476833E+04  0.31654111841E+04 0.  0.
        3    1    3    3  502    0 -0.12086624428E+04 -0.96250081281E+03  0.11804919212E+03  0.15495832786E+04  0.10100000352E+00 0.  1.
       -3    1    3    3    0  502  0.12086624428E+04  0.96250081281E+03 -0.57517092598E+03  0.16486644048E+04  0.10100000352E+00 0. -1.
</event>
<event>
 5   0  0.7934375E-07  0.3182193E+04  0.7818609E-02  0.8193536E-01
       -4   -1    0    0    0  501  0.00000000000E+00  0.00000000000E+00  0.14335488137E+04  0.14335493762E+04  0.12699999809E+01 0.  1.
        4   -1    0    0  501    0  0.00000000000E+00  0.00000000000E+00 -0.17659573032E+04  0.17659577598E+04  0.12699999809E+01 0. -1.
    10030    2    1    2    0    0  0.00000000000E+00  0.00000000000E+00 -0.33240848950E+03  0.31995071361E+04  0.31821927204E+04 0.  0.
        4    1    3    3  502    0  0.11273338218E+04  0.95580713060E+03  0.42618502315E+03  0.15382080820E+04  0.12699999809E+01 0.  1.
       -4    1    3    3    0  502 -0.11273338218E+04 -0.95580713060E+03 -0.75859351266E+03  0.16612990541E+04  0.12699999809E+01 0. -1.
</event>
<event>
 5   0  0.2621528E-06  0.2991324E+04  0.7818609E-02  0.8246213E-01
        2   -1    0    0  501    0  0.00000000000E+00  0.00000000000E+00  0.15479796581E+04  0.15479796581E+04  0.25500000920E-02 0. -1.
       -2   -1    0    0    0  501  0.00000000000E+00  0.00000000000E+00 -0.14451123989E+04  0.14451123989E+04  0.25500000920E-02 0.  1.
    10030    2    1    2    0    0  0.00000000000E+00  0.00000000000E+00  0.10286725920E+03  0.29930920569E+04  0.29913238521E+04 0.  0.
        2    1    3    3  502    0 -0.36152546592E+03 -0.13217837924E+04 -0.54824654383E+03  0.14759360858E+04  0.25500000920E-02 0. -1.
       -2    1    3    3    0  502  0.36152546592E+03  0.13217837924E+04  0.65111380303E+03  0.15171559712E+04  0.25500000920E-02 0.  1.
</event>
<event>
 5   0  0.8545153E-07  0.3183122E+04  0.7818609E-02  0.8193289E-01
       -1   -1    0    0    0  501  0.00000000000E+00  0.00000000000E+00  0.86931780444E+03  0.86931780445E+03  0.50400001928E-02 0.  1.
        1   -1    0    0  501    0  0.00000000000E+00  0.00000000000E+00 -0.29138560441E+04  0.29138560441E+04  0.50400001928E-02 0. -1.
    10030    2    1    2    0    0  0.00000000000E+00  0.00000000000E+00 -0.20445382396E+04  0.37831738485E+04  0.31831223280E+04 0.  0.
        3    1    3    3  502    0  0.43830707377E+03  0.35209093520E+03  0.74736884466E+03  0.93522260331E+03  0.10100000352E+00 0.  1.
       -3    1    3    3    0  502 -0.43830707377E+03 -0.35209093520E+03 -0.27919070843E+04  0.28479512452E+04  0.10100000352E+00 0. -1.
</event>
<event>
 5   0  0.2621528E-06  0.3179567E+04  0.7818609E-02  0.8194234E-01
        2   -1    0    0  501    0  0.00000000000E+00  0.00000000000E+00  0.14166870701E+04  0.14166870701E+04  0.25500000920E-02 0. -1.
       -2   -1    0    0    0  501  0.00000000000E+00  0.00000000000E+00 -0.17840292153E+04  0.17840292153E+04  0.25500000920E-02 0.  1.
    10030    2    1    2    0    0  0.00000000000E+00  0.00000000000E+00 -0.36734214522E+03  0.32007162854E+04  0.31795667139E+04 0.  0.
        2    1    3    3  502    0  0.10701541978E+04  0.11196779923E+04  0.17718556859E+03  0.15589430840E+04  0.25500000920E-02 0. -1.
       -2    1    3    3    0  502 -0.10701541978E+04 -0.11196779923E+04 -0.54452771382E+03  0.16417732013E+04  0.25500000920E-02 0.  1.
</event>
<event>
 5   0  0.8512855E-07  0.3150005E+04  0.7818609E-02  0.8202147E-01
       -1   -1    0    0    0  501  0.00000000000E+00  0.00000000000E+00  0.12301668815E+04  0.12301668815E+04  0.50400001928E-02 0. -1.
        1   -1    0    0  501    0  0.00000000000E+00  0.00000000000E+00 -0.20165011604E+04  0.20165011604E+04  0.50400001928E-02 0.  1.
    10030    2    1    2    0    0  0.00000000000E+00  0.00000000000E+00 -0.78633427898E+03  0.32466680419E+04  0.31500050438E+04 0.  0.
        5    1    3    3  502    0  0.45122799775E+03  0.13262893146E+04  0.34861280011E+03  0.14436769121E+04  0.46999998093E+01 0. -1.
       -5    1    3    3    0  502 -0.45122799775E+03 -0.13262893146E+04 -0.11349470791E+04  0.18029911299E+04  0.46999998093E+01 0.  1.
</event>
<event>
 5   0  0.8383008E-07  0.3207210E+04  0.7818609E-02  0.8186916E-01
        1   -1    0    0  501    0  0.00000000000E+00  0.00000000000E+00  0.11120565773E+04  0.11120565774E+04  0.50400001928E-02 0.  1.
       -1   -1    0    0    0  501  0.00000000000E+00  0.00000000000E+00 -0.23124264664E+04  0.23124264664E+04  0.50400001928E-02 0. -1.
    10030    2    1    2    0    0  0.00000000000E+00  0.00000000000E+00 -0.12003698890E+04  0.34244830437E+04  0.32072100409E+04 0.  0.
        4    1    3    3  502    0  0.14998575306E+04 -0.26944413180E+03 -0.11333894488E+04  0.18991434932E+04  0.12699999809E+01 0.  1.
       -4    1    3    3    0  502 -0.14998575306E+04  0.26944413180E+03 -0.66980440208E+02  0.15253395505E+04  0.12699999809E+01 0. -1.
</event>
<event>
 5   0  0.2466076E-06  0.3203929E+04  0.7818609E-02  0.8187780E-01
       -2   -1    0    0    0  501  0.00000000000E+00  0.00000000000E+00  0.14024938030E+04  0.14024938030E+04  0.25500000920E-02 0. -1.
        2   -1    0    0  501    0  0.00000000000E+00  0.00000000000E+00 -0.18298054643E+04  0.18298054643E+04  0.25500000920E-02 0.  1.
    10030    2    1    2    0    0  0.00000000000E+00  0.00000000000E+00 -0.42731166132E+03  0.32322992674E+04  0.32039293528E+04 0.  0.
        3    1    3    3  502    0 -0.13696015600E+04  0.69776599344E+03  0.24156575936E+03  0.15559691003E+04  0.10100000352E+00 0.  1.
       -3    1    3    3    0  502  0.13696015600E+04 -0.69776599344E+03 -0.66887742068E+03  0.16763301670E+04  0.10100000352E+00 0. -1.
</event>
<event>
 5   0  0.8545153E-07  0.3194196E+04  0.7818609E-02  0.8190352E-01
       -1   -1    0    0    0  501  0.00000000000E+00  0.00000000000E+00  0.11113082146E+04  0.11113082146E+04  0.50400001928E-02 0. -1.
        1   -1    0    0  501    0  0.00000000000E+00  0.00000000000E+00 -0.22952429858E+04  0.22952429858E+04  0.50400001928E-02 0.  1.
    10030    2    1    2    0    0  0.00000000000E+00  0.00000000000E+00 -0.11839347713E+04  0.34065512004E+04  0.31941962273E+04 0.  0.
        3    1    3    3  502    0 -0.14103742345E+04  0.64401023938E+03 -0.10006089549E+04  0.18452975263E+04  0.10100000352E+00 0.  1.
       -3    1    3    3    0  502  0.14103742345E+04 -0.64401023938E+03 -0.18332581633E+03  0.15612536741E+04  0.10100000352E+00 0. -1.
</event>
<event>
 5   0  0.8487944E-07  0.3210033E+04  0.7818609E-02  0.8186173E-01
       -1   -1    0    0    0  501  0.00000000000E+00  0.00000000000E+00  0.10340576417E+04  0.10340576417E+04  0.50400001928E-02 0. -1.
        1   -1    0    0  501    0  0.00000000000E+00  0.00000000000E+00 -0.24912323346E+04  0.24912323346E+04  0.50400001928E-02 0.  1.
    10030    2    1    2    0    0  0.00000000000E+00  0.00000000000E+00 -0.14571746928E+04  0.35252899763E+04  0.32100329175E+04 0.  0.
        2    1    3    3  502    0 -0.11691955180E+04 -0.87740038998E+03 -0.75645834958E+00  0.14617968997E+04  0.25500000920E-02 0.  1.
       -2    1    3    3    0  502  0.11691955180E+04  0.87740038998E+03 -0.14564182345E+04  0.20634930767E+04  0.25500000920E-02 0. -1.
</event>
<event>
 5   0  0.8487944E-07  0.2989765E+04  0.7818609E-02  0.8246660E-01
        1   -1    0    0  501    0  0.00000000000E+00  0.00000000000E+00  0.13346441839E+04  0.13346441840E+04  0.50400001928E-02 0. -1.
       -1   -1    0    0    0  501  0.00000000000E+00  0.00000000000E+00 -0.16743591319E+04  0.16743591319E+04  0.50400001928E-02 0.  1.
    10030    2    1    2    0    0  0.00000000000E+00  0.00000000000E+00 -0.33971494794E+03  0.30090033158E+04  0.29897649922E+04 0.  0.
        2    1    3    3  502    0 -0.39368336624E+03  0.52621959399E+03  0.11814587236E+04  0.13519387447E+04  0.25500000920E-02 0. -1.
       -2    1    3    3    0  502  0.39368336624E+03 -0.52621959399E+03 -0.15211736715E+04  0.16570645711E+04  0.25500000920E-02 0.  1.
</event>
<event>
 5   0  0.2404430E-06  0.2617298E+04  0.7818609E-02  0.8362349E-01
        2   -1    0    0  501    0  0.00000000000E+00  0.00000000000E+00  0.12328443457E+04  0.12328443457E+04  0.25500000920E-02 0.  1.
       -2   -1    0    0    0  501  0.00000000000E+00  0.00000000000E+00 -0.13891147995E+04  0.13891147995E+04  0.25500000920E-02 0. -1.
    10030    2    1    2    0    0  0.00000000000E+00  0.00000000000E+00 -0.15627045374E+03  0.26219591452E+04  0.26172980924E+04 0.  0.
        4    1    3    3  502    0  0.26726922912E+02 -0.12675909387E+04  0.24657098467E+03  0.12916268733E+04  0.12699999809E+01 0.  1.
       -4    1    3    3    0  502 -0.26726922912E+02  0.12675909387E+04 -0.40284143841E+03  0.13303322719E+04  0.12699999809E+01 0. -1.
</event>
<event>
 5   0  0.8681172E-07  0.2796899E+04  0.7818609E-02  0.8304232E-01
        1   -1    0    0  501    0  0.00000000000E+00  0.00000000000E+00  0.10950006802E+04  0.10950006802E+04  0.50400001928E-02 0.  1.
       -1   -1    0    0    0  501  0.00000000000E+00  0.00000000000E+00 -0.17859908410E+04  0.17859908410E+04  0.50400001928E-02 0. -1.
    10030    2    1    2    0    0  0.00000000000E+00  0.00000000000E+00 -0.69099016088E+03  0.28809915212E+04  0.27968991299E+04 0.  0.
        1    1    3    3  502    0  0.95310405591E+03  0.88439328692E+03 -0.87585655807E+03  0.15677000790E+04  0.50400001928E-02 0. -1.
       -1    1    3    3    0  502 -0.95310405591E+03 -0.88439328692E+03  0.18486639719E+03  0.13132914422E+04  0.50400001928E-02 0.  1.
</event>
<event>
 5   0  0.8681172E-07  0.3193043E+04  0.7818609E-02  0.8190657E-01
       -1   -1    0    0    0  501  0.00000000000E+00  0.00000000000E+00  0.17786084560E+04  0.17786084560E+04  0.50400001928E-02 0.  1.
        1   -1    0    0  501    0  0.00000000000E+00  0.00000000000E+00 -0.14330759416E+04  0.14330759416E+04  0.50400001928E-02 0. -1.
    10030    2    1    2    0    0  0.00000000000E+00  0.00000000000E+00  0.34553251440E+03  0.32116843976E+04  0.31930430550E+04 0.  0.
        1    1    3    3  502    0  0.10607904636E+04  0.89474741053E+03  0.96669795667E+03  0.16912581931E+04  0.50400001928E-02 0.  1.
       -1    1    3    3    0  502 -0.10607904636E+04 -0.89474741053E+03 -0.62116544228E+03  0.15204262044E+04  0.50400001928E-02 0. -1.
</event>
<event>
 5   0  0.2401139E-06  0.3193435E+04  0.7818609E-02  0.8190553E-01
        2   -1    0    0  501    0  0.00000000000E+00  0.00000000000E+00  0.12390569182E+04  0.12390569182E+04  0.25500000920E-02 0.  1.
       -2   -1    0    0    0  501  0.00000000000E+00  0.00000000000E+00 -0.20576183418E+04  0.20576183418E+04  0.25500000920E-02 0. -1.
    10030    2    1    2    0    0  0.00000000000E+00  0.00000000000E+00 -0.81856142367E+03  0.32966752600E+04  0.31934346660E+04 0.  0.
        5    1    3    3  502    0  0.69308805753E+03  0.10406797043E+04  0.61584791041E+03  0.13937991395E+04  0.46999998093E+01 0.  1.
       -5    1    3    3    0  502 -0.69308805753E+03 -0.10406797043E+04 -0.14344093341E+04  0.19028761205E+04  0.46999998093E+01 0. -1.
</event>
<event>
 5   0  0.2337504E-06  0.3000561E+04  0.7818609E-02  0.8243571E-01
        2   -1    0    0  501    0  0.00000000000E+00  0.00000000000E+00  0.18724326331E+04  0.18724326331E+04  0.25500000920E-02 0.  1.
       -2   -1    0    0    0  501  0.00000000000E+00  0.00000000000E+00 -0.12020948398E+04  0.12020948398E+04  0.25500000920E-02 0. -1.
    10030    2    1    2    0    0  0.00000000000E+00  0.00000000000E+00  0.67033779327E+03  0.30745274729E+04  0.30005610183E+04 0.  0.
        1    1    3    3  502    0  0.51635439480E+02  0.47221857099E+03 -0.11230014669E+04  0.12193395311E+04  0.50400001928E-02 0. -1.
       -1    1    3    3    0  502 -0.51635439480E+02 -0.47221857099E+03  0.17933392602E+04  0.18551879418E+04  0.50400001928E-02 0.  1.
</event>
<event>
 5   0  0.2337504E-06  0.3076921E+04  0.7818609E-02  0.8222100E-01
       -2   -1    0    0    0  501  0.00000000000E+00  0.00000000000E+00  0.76218625915E+03  0.76218625915E+03  0.25500000920E-02 0. -1.
        2   -1    0    0  501    0  0.00000000000E+00  0.00000000000E+00 -0.31053579707E+04  0.31053579707E+04  0.25500000920E-02 0.  1.
    10030    2    1    2    0    0  0.00000000000E+00  0.00000000000E+00 -0.23431717115E+04  0.38675442298E+04  0.30769213022E+04 0.  0.
        1    1    3    3  502    0  0.55820287936E+02 -0.12113807121E+04 -0.23615834768E+04  0.26547383397E+04  0.50400001928E-02 0.  1.
       -1    1    3    3    0  502 -0.55820287936E+02  0.12113807121E+04  0.18411765266E+02  0.12128058902E+04  0.50400001928E-02 0. -1.
</event>
<event>
 5   0  0.8545153E-07  0.3214050E+04  0.7818609E-02  0.8185116E-01
       -1   -1    0    0    0  501  0.00000000000E+00  0.00000000000E+00  0.16124223199E+04  0.16124223200E+04  0.50400001928E-02 0. -1.
        1   -1    0    0  501    0  0.00000000000E+00  0.00000000000E+00 -0.16016455890E+04  0.16016455890E+04  0.50400001928E-02 0.  1.
    10030    2    1    2    0    0  0.00000000000E+00  0.00000000000E+00  0.10776730972E+02  0.32140679089E+04  0.32140498418E+04 0.  0.
        3    1    3    3  502    0 -0.62848281429E+03  0.13877209297E+04  0.51702495778E+03  0.16087494658E+04  0.10100000352E+00 0. -1.
       -3    1    3    3    0  502  0.62848281429E+03 -0.13877209297E+04 -0.50624822680E+03  0.16053184431E+04  0.10100000352E+00 0.  1.
</event>
<event>
 5   0  0.2401139E-06  0.3183239E+04  0.7818609E-02  0.8193258E-01
       -2   -1    0    0    0  501  0.00000000000E+00  0.00000000000E+00  0.10034391707E+04  0.10034391707E+04  0.25500000920E-02 0.  1.
        2   -1    0    0  501    0  0.00000000000E+00  0.00000000000E+00 -0.25245694807E+04  0.25245694807E+04  0.25500000920E-02 0. -1.
    10030    2    1    2    0    0  0.00000000000E+00  0.00000000000E+00 -0.15211303100E+04  0.35280086514E+04  0.31832385434E+04 0.  0.
        5    1    3    3  502    0  0.29538409967E+03  0.86903058617E+02 -0.24912390332E+04  0.25101987807E+04  0.46999998093E+01 0. -1.
       -5    1    3    3    0  502 -0.29538409967E+03 -0.86903058617E+02  0.97010872324E+03  0.10178098707E+04  0.46999998093E+01 0.  1.
</event>
<event>
 5   0  0.2621528E-06  0.3193399E+04  0.7818609E-02  0.8190563E-01
       -2   -1    0    0    0  501  0.00000000000E+00  0.00000000000E+00  0.12632817799E+04  0.12632817799E+04  0.25500000920E-02 0. -1.
        2   -1    0    0  501    0  0.00000000000E+00  0.00000000000E+00 -0.20181165060E+04  0.20181165060E+04  0.25500000920E-02 0.  1.
    10030    2    1    2    0    0  0.00000000000E+00  0.00000000000E+00 -0.75483472611E+03  0.32813982858E+04  0.31933993246E+04 0.  0.
        2    1    3    3  502    0 -0.27990481977E+03 -0.15581427027E+04 -0.59122424926E+03  0.16898820973E+04  0.25500000920E-02 0. -1.
       -2    1    3    3    0  502  0.27990481977E+03  0.15581427027E+04 -0.16361047685E+03  0.15915161885E+04  0.25500000920E-02 0.  1.
</event>
<event>
 5   0  0.8512855E-07  0.3232942E+04  0.7818609E-02  0.8180171E-01
        1   -1    0    0  501    0  0.00000000000E+00  0.00000000000E+00  0.25371055435E+04  0.25371055435E+04  0.50400001928E-02 0. -1.
       -1   -1    0    0    0  501  0.00000000000E+00  0.00000000000E+00 -0.10299050479E+04  0.10299050479E+04  0.50400001928E-02 0.  1.
    10030    2    1    2    0    0  0.00000000000E+00  0.00000000000E+00  0.15072004956E+04  0.35670105914E+04  0.32329415747E+04 0.  0.
        5    1    3    3  502    0 -0.12927086599E+04  0.17411540170E+03  0.18070051345E+04  0.22286097681E+04  0.46999998093E+01 0. -1.
       -5    1    3    3    0  502  0.12927086599E+04 -0.17411540170E+03 -0.29980463891E+03  0.13384008233E+04  0.46999998093E+01 0.  1.
</event>
<event>
 5   0  0.2337504E-06  0.3199572E+04  0.7818609E-02  0.8188930E-01
        2   -1    0    0  501    0  0.00000000000E+00  0.00000000000E+00  0.21397450029E+04  0.21397450030E+04  0.25500000920E-02 0. -1.
       -2   -1    0    0    0  501  0.00000000000E+00  0.00000000000E+00 -0.11960839266E+04  0.11960839266E+04  0.25500000920E-02 0.  1.
    10030    2    1    2    0    0  0.00000000000E+00  0.00000000000E+00  0.94366107639E+03  0.33358289295E+04  0.31995715994E+04 0.  0.
        1    1    3    3  502    0  0.15797817482E+03 -0.15302093817E+04  0.14021548703E+02  0.15384064675E+04  0.50400001928E-02 0. -1.
       -1    1    3    3    0  502 -0.15797817482E+03  0.15302093817E+04  0.92963952768E+03  0.17974224620E+04  0.50400001928E-02 0.  1.
</event>
<event>
 5   0  0.2404430E-06  0.3221558E+04  0.7818609E-02  0.8183147E-01
       -2   -1    0    0    0  501  0.00000000000E+00  0.00000000000E+00  0.13547352621E+04  0.13547352621E+04  0.25500000920E-02 0. -1.
        2   -1    0    0  501    0  0.00000000000E+00  0.00000000000E+00 -0.19152145391E+04  0.19152145391E+04  0.25500000920E-02 0.  1.
    10030    2    1    2    0    0  0.00000000000E+00  0.00000000000E+00 -0.56047927700E+03  0.32699498012E+04  0.32215578037E+04 0.  0.
        4    1    3    3  502    0 -0.75889043659E+03  0.31615178545E+03 -0.16862329953E+04  0.18759664106E+04  0.12699999809E+01 0.  1.
       -4    1    3    3    0  502  0.75889043659E+03 -0.31615178545E+03  0.11257537183E+04  0.13939833906E+04  0.12699999809E+01 0. -1.
</event>
<event>
 5   0  0.2337504E-06  0.3147516E+04  0.7818609E-02  0.8202817E-01
       -2   -1    0    0    0  501  0.00000000000E+00  0.00000000000E+00  0.13374136560E+04  0.13374136560E+04  0.25500000920E-02 0.  1.
        2   -1    0    0  501    0  0.00000000000E+00  0.00000000000E+00 -0.18518687984E+04  0.18518687984E+04  0.25500000920E-02 0. -1.
    10030    2    1    2    0    0  0.00000000000E+00  0.00000000000E+00 -0.51445514240E+03  0.31892824543E+04  0.31475162398E+04 0.  0.
        1    1    3    3  502    0  0.42917442928E+03 -0.10137254059E+04 -0.13968224241E+04  0.17784664106E+04  0.50400001928E-02 0. -1.
       -1    1    3    3    0  502 -0.42917442928E+03  0.10137254059E+04  0.88236728168E+03  0.14108160437E+04  0.50400001928E-02 0.  1.
</event>
<event>
 5   0  0.2621528E-06  0.3049709E+04  0.7818609E-02  0.8229677E-01
        2   -1    0    0  501    0  0.00000000000E+00  0.00000000000E+00  0.19225110155E+04  0.19225110155E+04  0.25500000920E-02 0.  1.
       -2   -1    0    0    0  501  0.00000000000E+00  0.00000000000E+00 -0.12094503312E+04  0.12094503312E+04  0.25500000920E-02 0. -1.
    10030    2    1    2    0    0  0.00000000000E+00  0.00000000000E+00  0.71306068428E+03  0.31319613467E+04  0.30497092219E+04 0.  0.
        2    1    3    3  502    0  0.72842507047E+03  0.10922948255E+04  0.11529924739E+04  0.17473129983E+04  0.25500000920E-02 0.  1.
       -2    1    3    3    0  502 -0.72842507047E+03 -0.10922948255E+04 -0.43993178966E+03  0.13846483484E+04  0.25500000920E-02 0. -1.
</event>
<event>
 5   0  0.8487944E-07  0.3072038E+04  0.7818609E-02  0.8223454E-01
        1   -1    0    0  501    0  0.00000000000E+00  0.00000000000E+00  0.14224137277E+04  0.14224137277E+04  0.50400001928E-02 0. -1.
       -1   -1    0    0    0  501  0.00000000000E+00  0.00000000000E+00 -0.16586982307E+04  0.16586982307E+04  0.50400001928E-02 0.  1.
    10030    2    1    2    0    0  0.00000000000E+00  0.00000000000E+00 -0.23628450295E+03  0.30811119584E+04  0.30720384981E+04 0.  0.
        2    1    3    3  502    0  0.30157998015E+03 -0.12604847943E+03 -0.16234136488E+04  0.16559923245E+04  0.25500000920E-02 0.  1.
       -2    1    3    3    0  502 -0.30157998015E+03  0.12604847943E+03  0.13871291459E+04  0.14251196339E+04  0.25500000920E-02 0. -1.
</event>
<event>
 5   0  0.8487944E-07  0.3222550E+04  0.7818609E-02  0.8182887E-01
       -1   -1    0    0    0  501  0.00000000000E+00  0.00000000000E+00  0.12586367564E+04  0.12586367564E+04  0.50400001928E-02 0.  1.
        1   -1    0    0  501    0  0.00000000000E+00  0.00000000000E+00 -0.20627131470E+04  0.20627131470E+04  0.50400001928E-02 0. -1.
    10030    2    1    2    0    0  0.00000000000E+00  0.00000000000E+00 -0.80407639053E+03  0.33213499034E+04  0.32225496643E+04 0.  0.
        2    1    3    3  502    0  0.14495400837E+04 -0.42261604000E+03 -0.98181098167E+03  0.18010340295E+04  0.25500000920E-02 0. -1.
       -2    1    3    3    0  502 -0.14495400837E+04  0.42261604000E+03  0.17773459114E+03  0.15203158739E+04  0.25500000920E-02 0.  1.
</event>
<event>
 5   0  0.2337504E-06  0.3189594E+04  0.7818609E-02  0.8191571E-01
        2   -1    0    0  501    0  0.00000000000E+00  0.00000000000E+00  0.16356297311E+04  0.16356297311E+04  0.25500000920E-02 0. -1.
       -2   -1    0    0    0  501  0.00000000000E+00  0.00000000000E+00 -0.15549833404E+04  0.15549833404E+04  0.25500000920E-02 0.  1.
    10030    2    1    2    0    0  0.00000000000E+00  0.00000000000E+00  0.80646390620E+02  0.31906130715E+04  0.31895936938E+04 0.  0.
        1    1    3    3  502    0 -0.13994793289E+04 -0.75491725464E+03  0.16256916451E+03  0.15983964423E+04  0.50400001928E-02 0. -1.
       -1    1    3    3    0  502  0.13994793289E+04  0.75491725464E+03 -0.81922773894E+02  0.15922166292E+04  0.50400001928E-02 0.  1.
</event>
<event>
 5   0  0.8681172E-07  0.3508873E+04  0.7818609E-02  0.8111690E-01
        1   -1    0    0  501    0  0.00000000000E+00  0.00000000000E+00  0.23976080984E+04  0.23976080984E+04  0.50400001928E-02 0. -1.
       -1   -1    0    0    0  501  0.00000000000E+00  0.00000000000E+00 -0.12837995075E+04  0.12837995075E+04  0.50400001928E-02 0.  1.
    10030    2    1    2    0    0  0.00000000000E+00  0.00000000000E+00  0.11138085909E+04  0.36814076059E+04  0.35088733781E+04 0.  0.
        1    1    3    3  502    0 -0.64821325623E+03 -0.53526516300E+03 -0.10587366491E+04  0.13518921970E+04  0.50400001928E-02 0.  1.
       -1    1    3    3    0  502  0.64821325623E+03  0.53526516300E+03  0.21725452400E+04  0.23295154088E+04  0.50400001928E-02 0. -1.
</event>
<event>
 5   0  0.8512855E-07  0.3187849E+04  0.7818609E-02  0.8192033E-01
       -1   -1    0    0    0  501  0.00000000000E+00  0.00000000000E+00  0.14064203675E+04  0.14064203675E+04  0.50400001928E-02 0.  1.
        1   -1    0    0  501    0  0.00000000000E+00  0.00000000000E+00 -0.18064271783E+04  0.18064271783E+04  0.50400001928E-02 0. -1.
    10030    2    1    2    0    0  0.00000000000E+00  0.00000000000E+00 -0.40000681083E+03  0.32128475458E+04  0.31878494168E+04 0.  0.
        5    1    3    3  502    0  0.90075135930E+03 -0.24788930221E+03 -0.15015527222E+04  0.17684696166E+04  0.46999998093E+01 0. -1.
       -5    1    3    3    0  502 -0.90075135930E+03  0.24788930221E+03  0.11015459114E+04  0.14443779292E+04  0.46999998093E+01 0.  1.
</event>
<event>
 5   0  0.2337504E-06  0.3204682E+04  0.7818609E-02  0.8187582E-01
       -2   -1    0    0    0  501  0.00000000000E+00  0.00000000000E+00  0.15773939768E+04  0.15773939768E+04  0.25500000920E-02 0. -1.
        2   -1    0    0  501    0  0.00000000000E+00  0.00000000000E+00 -0.16276821563E+04  0.16276821563E+04  0.25500000920E-02 0.  1.
    10030    2    1    2    0    0  0.00000000000E+00  0.00000000000E+00 -0.50288179455E+02  0.32050761332E+04  0.32046815939E+04 0.  0.
        1    1    3    3  502    0 -0.47746512708E+03 -0.35079850846E+02  0.15041918027E+04  0.15785425312E+04  0.50400001928E-02 0. -1.
       -1    1    3    3    0  502  0.47746512708E+03  0.35079850846E+02 -0.15544799821E+04  0.16265336020E+04  0.50400001928E-02 0.  1.
</event>
<event>
 5   0  0.8383008E-07  0.3219648E+04  0.7818609E-02  0.8183647E-01
        1   -1    0    0  501    0  0.00000000000E+00  0.00000000000E+00  0.19697111602E+04  0.19697111602E+04  0.50400001928E-02 0.  1.
       -1   -1    0    0    0  501  0.00000000000E+00  0.00000000000E+00 -0.13156918368E+04  0.13156918368E+04  0.50400001928E-02 0. -1.
    10030    2    1    2    0    0  0.00000000000E+00  0.00000000000E+00  0.65401932345E+03  0.32854029970E+04  0.32196477412E+04 0.  0.
        4    1    3    3  502    0 -0.51786480869E+03 -0.11584056886E+04 -0.68390142651E+03  0.14414612286E+04  0.12699999809E+01 0. -1.
       -4    1    3    3    0  502  0.51786480869E+03  0.11584056886E+04  0.13379207500E+04  0.18439417685E+04  0.12699999809E+01 0.  1.
</event>
<event>
 5   0  0.2621528E-06  0.3195072E+04  0.7818609E-02  0.8190120E-01
        2   -1    0    0  501    0  0.00000000000E+00  0.00000000000E+00  0.16600511144E+04  0.16600511144E+04  0.25500000920E-02 0.  1.
       -2   -1    0    0    0  501  0.00000000000E+00  0.00000000000E+00 -0.15373755846E+04  0.15373755846E+04  0.25500000920E-02 0. -1.
    10030    2    1    2    0    0  0.00000000000E+00  0.00000000000E+00  0.12267552981E+03  0.31974266991E+04  0.31950724891E+04 0.  0.
        2    1    3    3  502    0  0.71433918520E+03 -0.36956660439E+03 -0.13199916059E+04  0.15457159462E+04  0.25500000920E-02 0. -1.
       -2    1    3    3    0  502 -0.71433918520E+03  0.36956660439E+03  0.14426671357E+04  0.16517107529E+04  0.25500000920E-02 0.  1.
</event>
<event>
 5   0  0.8383008E-07  0.3182122E+04  0.7818609E-02  0.8193555E-01
        1   -1    0    0  501    0  0.00000000000E+00  0.00000000000E+00  0.18052797504E+04  0.18052797504E+04  0.50400001928E-02 0.  1.
       -1   -1    0    0    0  501  0.00000000000E+00  0.00000000000E+00 -0.14022620463E+04  0.14022620463E+04  0.50400001928E-02 0. -1.
    10030    2    1    2    0    0  0.00000000000E+00  0.00000000000E+00  0.40301770410E+03  0.32075417967E+04  0.31821221076E+04 0.  0.
        4    1    3    3  502    0 -0.12684785375E+04  0.55630228887E+03  0.99068297401E+03  0.17029281854E+04  0.12699999809E+01 0.  1.
       -4    1    3    3    0  502  0.12684785375E+04 -0.55630228887E+03 -0.58766526991E+03  0.15046136112E+04  0.12699999809E+01 0. -1.
</event>
<event>
 5   0  0.8681172E-07  0.3162160E+04  0.7818609E-02  0.8198883E-01
       -1   -1    0    0    0  501  0.00000000000E+00  0.00000000000E+00  0.14424998524E+04  0.14424998524E+04  0.50400001928E-02 0. -1.
        1   -1    0    0  501    0  0.00000000000E+00  0.00000000000E+00 -0.17329734133E+04  0.17329734133E+04  0.50400001928E-02 0.  1.
    10030    2    1    2    0    0  0.00000000000E+00  0.00000000000E+00 -0.29047356091E+03  0.31754732657E+04  0.31621599535E+04 0.  0.
        1    1    3    3  502    0 -0.40747988089E+03  0.74692836664E+03  0.11929922997E+04  0.14653233314E+04  0.50400001928E-02 0. -1.
       -1    1    3    3    0  502  0.40747988089E+03 -0.74692836664E+03 -0.14834658606E+04  0.17101499343E+04  0.50400001928E-02 0.  1.
</event>
<event>
 5   0  0.2401139E-06  0.3066552E+04  0.7818609E-02  0.8224978E-01
        2   -1    0    0  501    0  0.00000000000E+00  0.00000000000E+00  0.18506929046E+04  0.18506929046E+04  0.25500000920E-02 0. -1.
       -2   -1    0    0    0  501  0.00000000000E+00  0.00000000000E+00 -0.12702996809E+04  0.12702996809E+04  0.25500000920E-02 0.  1.
    10030    2    1    2    0    0  0.00000000000E+00  0.00000000000E+00  0.58039322367E+03  0.31209925855E+04  0.30665515526E+04 0.  0.
        5    1    3    3  502    0  0.36190666967E+03  0.62440722287E+03  0.16670070381E+04  0.18165338897E+04  0.46999998093E+01 0. -1.
       -5    1    3    3    0  502 -0.36190666967E+03 -0.62440722287E+03 -0.10866138144E+04  0.13044586958E+04  0.46999998093E+01 0.  1.
</event>
<event>
 5   0  0.8545153E-07  0.3201494E+04  0.7818609E-02  0.8188423E-01
        1   -1    0    0  501    0  0.00000000000E+00  0.00000000000E+00  0.17550478989E+04  0.17550478989E+04  0.50400001928E-02 0.  1.
       -1   -1    0    0    0  501  0.00000000000E+00  0.00000000000E+00 -0.14600120073E+04  0.14600120073E+04  0.50400001928E-02 0. -1.
    10030    2    1    2    0    0  0.00000000000E+00  0.00000000000E+00  0.29503589154E+03  0.32150599062E+04  0.32014940298E+04 0.  0.
        3    1    3    3  502    0 -0.61114605784E+03  0.56555424074E+03  0.15204392959E+04  0.17335186085E+04  0.10100000352E+00 0. -1.
       -3    1    3    3    0  502  0.61114605784E+03 -0.56555424074E+03 -0.12254034044E+04  0.14815412977E+04  0.10100000352E+00 0.  1.
</event>
<event>
 5   0  0.8512855E-07  0.2607609E+04  0.7818609E-02  0.8365621E-01
       -1   -1    0    0    0  501  0.00000000000E+00  0.00000000000E+00  0.12432597807E+04  0.12432597807E+04  0.50400001928E-02 0. -1.
        1   -1    0    0  501    0  0.00000000000E+00  0.00000000000E+00 -0.13672971380E+04  0.13672971380E+04  0.50400001928E-02 0.  1.
    10030    2    1    2    0    0  0.00000000000E+00  0.00000000000E+00 -0.12403735729E+03  0.26105569187E+04  0.26076085135E+04 0.  0.
        5    1    3    3  502    0 -0.46747682996E+03 -0.10395944017E+04 -0.69565796846E+03  0.13353850402E+04  0.46999998093E+01 0.  1.
       -5    1    3    3    0  502  0.46747682996E+03  0.10395944017E+04  0.57162061117E+03  0.12751718785E+04  0.46999998093E+01 0. -1.
</event>
<event>
 5   0  0.2621528E-06  0.3215778E+04  0.7818609E-02  0.8184663E-01
       -2   -1    0    0    0  501  0.00000000000E+00  0.00000000000E+00  0.20083863816E+04  0.20083863816E+04  0.25500000920E-02 0.  1.
        2   -1    0    0  501    0  0.00000000000E+00  0.00000000000E+00 -0.12872554393E+04  0.12872554393E+04  0.25500000920E-02 0. -1.
    10030    2    1    2    0    0  0.00000000000E+00  0.00000000000E+00  0.72113094227E+03  0.32956418209E+04  0.32157775383E+04 0.  0.
        2    1    3    3  502    0 -0.14027403443E+04  0.77653927850E+03  0.48445006428E+03  0.16749285326E+04  0.25500000920E-02 0. -1.
       -2    1    3    3    0  502  0.14027403443E+04 -0.77653927850E+03  0.23668087799E+03  0.16207132882E+04  0.25500000920E-02 0.  1.
</event>
<event>
 5   0  0.2404430E-06  0.3220835E+04  0.7818609E-02  0.8183336E-01
       -2   -1    0    0    0  501  0.00000000000E+00  0.00000000000E+00  0.22495136867E+04  0.22495136867E+04  0.25500000920E-02 0. -1.
        2   -1    0    0  501    0  0.00000000000E+00  0.00000000000E+00 -0.11528908566E+04  0.11528908566E+04  0.25500000920E-02 0.  1.
    10030    2    1    2    0    0  0.00000000000E+00  0.00000000000E+00  0.10966228302E+04  0.34024045433E+04  0.32208345261E+04 0.  0.
        4    1    3    3  502    0 -0.14692786789E+04 -0.65904893303E+03  0.56711414596E+03  0.17072625457E+04  0.12699999809E+01 0.  1.
       -4    1    3    3    0  502  0.14692786789E+04  0.65904893303E+03  0.52950868419E+03  0.16951419976E+04  0.12699999809E+01 0. -1.
</event>
<event>
 5   0  0.8545153E-07  0.3191666E+04  0.7818609E-02  0.8191022E-01
        1   -1    0    0  501    0  0.00000000000E+00  0.00000000000E+00  0.21629434145E+04  0.21629434145E+04  0.50400001928E-02 0. -1.
       -1   -1    0    0    0  501  0.00000000000E+00  0.00000000000E+00 -0.11774152689E+04  0.11774152689E+04  0.50400001928E-02 0.  1.
    10030    2    1    2    0    0  0.00000000000E+00  0.00000000000E+00  0.98552814560E+03  0.33403586834E+04  0.31916657732E+04 0.  0.
        3    1    3    3  502    0 -0.80548498904E+03  0.22471401263E+03 -0.92974102620E+03  0.12504882411E+04  0.10100000352E+00 0.  1.
       -3    1    3    3    0  502  0.80548498904E+03 -0.22471401263E+03  0.19152691718E+04  0.20898704423E+04  0.10100000352E+00 0. -1.
</event>
<event>
 5   0  0.2621528E-06  0.3208206E+04  0.7818609E-02  0.8186653E-01
       -2   -1    0    0    0  501  0.00000000000E+00  0.00000000000E+00  0.99989806919E+03  0.99989806920E+03  0.25500000920E-02 0.  1.
        2   -1    0    0  501    0  0.00000000000E+00  0.00000000000E+00 -0.25734092641E+04  0.25734092641E+04  0.25500000920E-02 0. -1.
    10030    2    1    2    0    0  0.00000000000E+00  0.00000000000E+00 -0.15735111950E+04  0.35733073333E+04  0.32082063241E+04 0.  0.
        2    1    3    3  502    0 -0.12727691570E+04 -0.92481760012E+03 -0.43822619454E+03  0.16331782261E+04  0.25500000920E-02 0.  1.
       -2    1    3    3    0  502  0.12727691570E+04  0.92481760012E+03 -0.11352850004E+04  0.19401291072E+04  0.25500000920E-02 0. -1.
</event>
<event>
 5   0  0.2404430E-06  0.2967507E+04  0.7818609E-02  0.8253071E-01
       -2   -1    0    0    0  501  0.00000000000E+00  0.00000000000E+00  0.25864285627E+04  0.25864285627E+04  0.25500000920E-02 0.  1.
        2   -1    0    0  501    0  0.00000000000E+00  0.00000000000E+00 -0.85118297482E+03  0.85118297482E+03  0.25500000920E-02 0. -1.
    10030    2    1    2    0    0  0.00000000000E+00  0.00000000000E+00  0.17352455879E+04  0.34376115375E+04  0.29675066693E+04 0.  0.
        4    1    3    3  502    0 -0.38855020867E+03 -0.47980826095E+03 -0.69531167009E+03  0.92986405640E+03  0.12699999809E+01 0. -1.
       -4    1    3    3    0  502  0.38855020867E+03  0.47980826095E+03  0.24305572580E+04  0.25077474811E+04  0.12699999809E+01 0.  1.
</event>
<event>
 5   0  0.2466076E-06  0.2788448E+04  0.7818609E-02  0.8306864E-01
        2   -1    0    0  501    0  0.00000000000E+00  0.00000000000E+00  0.17572955577E+04  0.17572955577E+04  0.25500000920E-02 0. -1.
       -2   -1    0    0    0  501  0.00000000000E+00  0.00000000000E+00 -0.11061657634E+04  0.11061657634E+04  0.25500000920E-02 0.  1.
    10030    2    1    2    0    0  0.00000000000E+00  0.00000000000E+00  0.65112979435E+03  0.28634613211E+04  0.27884477273E+04 0.  0.
        3    1    3    3  502    0  0.13072094196E+04 -0.48477025978E+03  0.31751170343E+03  0.14298994242E+04  0.10100000352E+00 0.  1.
       -3    1    3    3    0  502 -0.13072094196E+04  0.48477025978E+03  0.33361809092E+03  0.14335618969E+04  0.10100000352E+00 0. -1.
</event>
<event>
 5   0  0.8512855E-07  0.3214577E+04  0.7818609E-02  0.8184978E-01
       -1   -1    0    0    0  501  0.00000000000E+00  0.00000000000E+00  0.13848569210E+04  0.13848569210E+04  0.50400001928E-02 0.  1.
        1   -1    0    0  501    0  0.00000000000E+00  0.00000000000E+00 -0.18654462969E+04  0.18654462969E+04  0.50400001928E-02 0. -1.
    10030    2    1    2    0    0  0.00000000000E+00  0.00000000000E+00 -0.48058937587E+03  0.32503032179E+04  0.32145769333E+04 0.  0.
        5    1    3    3  502    0  0.12675968022E+04  0.40504113480E+03  0.67110772796E+03  0.14903917762E+04  0.46999998093E+01 0.  1.
       -5    1    3    3    0  502 -0.12675968022E+04 -0.40504113480E+03 -0.11516971038E+04  0.17599114418E+04  0.46999998093E+01 0. -1.
</event>
<event>
 5   0  0.2621528E-06  0.3208843E+04  0.7818609E-02  0.8186486E-01
       -2   -1    0    0    0  501  0.00000000000E+00  0.00000000000E+00  0.11887513367E+04  0.11887513367E+04  0.25500000920E-02 0. -1.
        2   -1    0    0  501    0  0.00000000000E+00  0.00000000000E+00 -0.21654382891E+04  0.21654382891E+04  0.25500000920E-02 0.  1.
    10030    2    1    2    0    0  0.00000000000E+00  0.00000000000E+00 -0.97668695236E+03  0.33541896258E+04  0.32088425706E+04 0.  0.
        2    1    3    3  502    0 -0.18963563140E+03  0.37819819543E+03 -0.21060791554E+04  0.21481538485E+04  0.25500000920E-02 0.  1.
       -2    1    3    3    0  502  0.18963563140E+03 -0.37819819543E+03  0.11293922031E+04  0.12060357773E+04  0.25500000920E-02 0. -1.
</event>
<event>
 5   0  0.7934375E-07  0.3226375E+04  0.7818609E-02  0.8181886E-01
       -3   -1    0    0    0  501  0.00000000000E+00  0.00000000000E+00  0.17200545990E+04  0.17200546020E+04  0.10100000352E+00 0.  1.
        3   -1    0    0  501    0  0.00000000000E+00  0.00000000000E+00 -0.15129598947E+04  0.15129598981E+04  0.10100000352E+00 0. -1.
    10030    2    1    2    0    0  0.00000000000E+00  0.00000000000E+00  0.20709470430E+03  0.32330145001E+04  0.32263748297E+04 0.  0.
        1    1    3    3  502    0 -0.75441003321E+03  0.89168654686E+03  0.12185520531E+04  0.16879302421E+04  0.50400001928E-02 0.  1.
       -1    1    3    3    0  502  0.75441003321E+03 -0.89168654686E+03 -0.10114573488E+04  0.15450842580E+04  0.50400001928E-02 0. -1.
</event>
<event>
 5   0  0.8383008E-07  0.3173557E+04  0.7818609E-02  0.8195836E-01
        1   -1    0    0  501    0  0.00000000000E+00  0.00000000000E+00  0.21029070378E+04  0.21029070378E+04  0.50400001928E-02 0. -1.
       -1   -1    0    0    0  501  0.00000000000E+00  0.00000000000E+00 -0.11973262924E+04  0.11973262925E+04  0.50400001928E-02 0.  1.
    10030    2    1    2    0    0  0.00000000000E+00  0.00000000000E+00  0.90558074537E+03  0.33002333303E+04  0.31735569237E+04 0.  0.
        4    1    3    3  502    0  0.11627973663E+04  0.10252022801E+04  0.80502404972E+03  0.17467692360E+04  0.12699999809E+01 0. -1.
       -4    1    3    3    0  502 -0.11627973663E+04 -0.10252022801E+04  0.10055669566E+03  0.15534640943E+04  0.12699999809E+01 0.  1.
</event>
<event>
 5   0  0.2621528E-06  0.3216437E+04  0.7818609E-02  0.8184490E-01
        2   -1    0    0  501    0  0.00000000000E+00  0.00000000000E+00  0.17625345846E+04  0.17625345846E+04  0.25500000920E-02 0.  1.
       -2   -1    0    0    0  501  0.00000000000E+00  0.00000000000E+00 -0.14674137674E+04  0.14674137674E+04  0.25500000920E-02 0. -1.
    10030    2    1    2    0    0  0.00000000000E+00  0.00000000000E+00  0.29512081722E+03  0.32299483520E+04  0.32164374795E+04 0.  0.
        2    1    3    3  502    0  0.10775232869E+04  0.31784979615E+01  0.13464349983E+04  0.17245155092E+04  0.25500000920E-02 0.  1.
       -2    1    3    3    0  502 -0.10775232869E+04 -0.31784979615E+01 -0.10513141811E+04  0.15054328428E+04  0.25500000920E-02 0. -1.
</event>
<event>
 5   0  0.8512855E-07  0.3197021E+04  0.7818609E-02  0.8189604E-01
        1   -1    0    0  501    0  0.00000000000E+00  0.00000000000E+00  0.20824039550E+04  0.20824039550E+04  0.50400001928E-02 0. -1.
       -1   -1    0    0    0  501  0.00000000000E+00  0.00000000000E+00 -0.12270609554E+04  0.12270609554E+04  0.50400001928E-02 0.  1.
    10030    2    1    2    0    0  0.00000000000E+00  0.00000000000E+00  0.85534299958E+03  0.33094649104E+04  0.31970214805E+04 0.  0.
        5    1    3    3  502    0  0.93993583394E+03 -0.11912529323E+04  0.94799474992E+03  0.17892118534E+04  0.46999998093E+01 0.  1.
       -5    1    3    3    0  502 -0.93993583394E+03  0.11912529323E+04 -0.92651750335E+02  0.15202530570E+04  0.46999998093E+01 0. -1.
</event>
<event>
 5   0  0.8512855E-07  0.3197943E+04  0.7818609E-02  0.8189361E-01
       -1   -1    0    0    0  501  0.00000000000E+00  0.00000000000E+00  0.11565579157E+04  0.11565579157E+04  0.50400001928E-02 0. -1.
        1   -1    0    0  501    0  0.00000000000E+00  0.00000000000E+00 -0.22106202566E+04  0.22106202566E+04  0.50400001928E-02 0.  1.
    10030    2    1    2    0    0  0.00000000000E+00  0.00000000000E+00 -0.10540623409E+04  0.33671781723E+04  0.31979433118E+04 0.  0.
        5    1    3    3  502    0 -0.12596003719E+03 -0.15561255865E+04 -0.16336127037E+03  0.15697457650E+04  0.46999998093E+01 0. -1.
       -5    1    3    3    0  502  0.12596003719E+03  0.15561255865E+04 -0.89070107049E+03  0.17974324073E+04  0.46999998093E+01 0.  1.
</event>
<event>
 5   0  0.8545153E-07  0.3237255E+04  0.7818609E-02  0.8179047E-01
       -1   -1    0    0    0  501  0.00000000000E+00  0.00000000000E+00  0.14658992256E+04  0.14658992256E+04  0.50400001928E-02 0. -1.
        1   -1    0    0  501    0  0.00000000000E+00  0.00000000000E+00 -0.17872681544E+04  0.17872681544E+04  0.50400001928E-02 0.  1.
    10030    2    1    2    0    0  0.00000000000E+00  0.00000000000E+00 -0.32136892883E+03  0.32531673800E+04  0.32372550122E+04 0.  0.
        3    1    3    3  502    0  0.77438467653E+03  0.99625088231E+03 -0.11794563388E+04  0.17272245694E+04  0.10100000352E+00 0.  1.
       -3    1    3    3    0  502 -0.77438467653E+03 -0.99625088231E+03  0.85808741002E+03  0.15259428106E+04  0.10100000352E+00 0. -1.
</event>
<event>
 5   0  0.8487944E-07  0.3194033E+04  0.7818609E-02  0.8190395E-01
       -1   -1    0    0    0  501  0.00000000000E+00  0.00000000000E+00  0.87301232070E+03  0.87301232072E+03  0.50400001928E-02 0.  1.
        1   -1    0    0  501    0  0.00000000000E+00  0.00000000000E+00 -0.29214491580E+04  0.29214491580E+04  0.50400001928E-02 0. -1.
    10030    2    1    2    0    0  0.00000000000E+00  0.00000000000E+00 -0.20484368373E+04  0.37944614787E+04  0.31940326293E+04 0.  0.
        2    1    3    3  502    0  0.64448008704E+03  0.11070523945E+04 -0.21571979528E+04  0.25088687878E+04  0.25500000920E-02 0. -1.
       -2    1    3    3    0  502 -0.64448008704E+03 -0.11070523945E+04  0.10876111554E+03  0.12855926909E+04  0.25500000920E-02 0.  1.
</event>
<event>
 5   0  0.2401139E-06  0.3218233E+04  0.7818609E-02  0.8184019E-01
        2   -1    0    0  501    0  0.00000000000E+00  0.00000000000E+00  0.23977194196E+04  0.23977194196E+04  0.25500000920E-02 0. -1.
       -2   -1    0    0    0  501  0.00000000000E+00  0.00000000000E+00 -0.10798825250E+04  0.10798825250E+04  0.25500000920E-02 0.  1.
    10030    2    1    2    0    0  0.00000000000E+00  0.00000000000E+00  0.13178368946E+04  0.34776019445E+04  0.32182326212E+04 0.  0.
        5    1    3    3  502    0  0.14419598812E+04  0.65260647891E+03  0.34556546859E+03  0.16200558936E+04  0.46999998093E+01 0.  1.
       -5    1    3    3    0  502 -0.14419598812E+04 -0.65260647891E+03  0.97227142599E+03  0.18575460509E+04  0.46999998093E+01 0. -1.
</event>
<event>
 5   0  0.8383008E-07  0.3172394E+04  0.7818609E-02  0.8196146E-01
        1   -1    0    0  501    0  0.00000000000E+00  0.00000000000E+00  0.20513189513E+04  0.20513189513E+04  0.50400001928E-02 0.  1.
       -1   -1    0    0    0  501  0.00000000000E+00  0.00000000000E+00 -0.12265385020E+04  0.12265385020E+04  0.50400001928E-02 0. -1.
    10030    2    1    2    0    0  0.00000000000E+00  0.00000000000E+00  0.82478044924E+03  0.32778574533E+04  0.31723944733E+04 0.  0.
        4    1    3    3  502    0 -0.63294831003E+03  0.27760731508E+03 -0.10627734136E+04  0.12677453712E+04  0.12699999809E+01 0. -1.
       -4    1    3    3    0  502  0.63294831003E+03 -0.27760731508E+03  0.18875538628E+04  0.20101120821E+04  0.12699999809E+01 0.  1.
</event>
<event>
 5   0  0.8512855E-07  0.3005077E+04  0.7818609E-02  0.8242283E-01
       -1   -1    0    0    0  501  0.00000000000E+00  0.00000000000E+00  0.14574026934E+04  0.14574026934E+04  0.50400001928E-02 0.  1.
        1   -1    0    0  501    0  0.00000000000E+00  0.00000000000E+00 -0.15490722672E+04  0.15490722672E+04  0.50400001928E-02 0. -1.
    10030    2    1    2    0    0  0.00000000000E+00  0.00000000000E+00 -0.91669573812E+02  0.30064749606E+04  0.30050771001E+04 0.  0.
        5    1    3    3  502    0  0.78776149228E+03 -0.78458997210E+02 -0.13234863949E+04  0.15421939924E+04  0.46999998093E+01 0. -1.
       -5    1    3    3    0  502 -0.78776149228E+03  0.78458997210E+02  0.12318168210E+04  0.14642809681E+04  0.46999998093E+01 0.  1.
</event>
<event>
 5   0  0.2621528E-06  0.3135512E+04  0.7818609E-02  0.8206059E-01
        2   -1    0    0  501    0  0.00000000000E+00  0.00000000000E+00  0.21279477701E+04  0.21279477701E+04  0.25500000920E-02 0.  1.
       -2   -1    0    0    0  501  0.00000000000E+00  0.00000000000E+00 -0.11550370515E+04  0.11550370515E+04  0.25500000920E-02 0. -1.
    10030    2    1    2    0    0  0.00000000000E+00  0.00000000000E+00  0.97291071864E+03  0.32829848216E+04  0.31355117720E+04 0.  0.
        2    1    3    3  502    0 -0.46835288496E+03  0.36553840832E+03  0.20055145784E+04  0.20916647621E+04  0.25500000920E-02 0.  1.
       -2    1    3    3    0  502  0.46835288496E+03 -0.36553840832E+03 -0.10326038598E+04  0.11913200595E+04  0.25500000920E-02 0. -1.
</event>
<event>
 5   0  0.8487944E-07  0.3164328E+04  0.7818609E-02  0.8198302E-01
        1   -1    0    0  501    0  0.00000000000E+00  0.00000000000E+00  0.27718909492E+04  0.27718909492E+04  0.50400001928E-02 0.  1.
       -1   -1    0    0    0  501  0.00000000000E+00  0.00000000000E+00 -0.90308129337E+03  0.90308129338E+03  0.50400001928E-02 0. -1.
    10030    2    1    2    0    0  0.00000000000E+00  0.00000000000E+00  0.18688096558E+04  0.36749722426E+04  0.31643279625E+04 0.  0.
        2    1    3    3  502    0 -0.78389599569E+03 -0.60523535107E+03  0.23673932501E+04  0.25661943736E+04  0.25500000920E-02 0.  1.
       -2    1    3    3    0  502  0.78389599569E+03  0.60523535107E+03 -0.49858359431E+03  0.11087778690E+04  0.25500000920E-02 0. -1.
</event>
<event>
 5   0  0.2401139E-06  0.3202168E+04  0.7818609E-02  0.8188245E-01
       -2   -1    0    0    0  501  0.00000000000E+00  0.00000000000E+00  0.96918262751E+03  0.96918262752E+03  0.25500000920E-02 0. -1.
        2   -1    0    0  501    0  0.00000000000E+00  0.00000000000E+00 -0.26449813929E+04  0.26449813929E+04  0.25500000920E-02 0.  1.
    10030    2    1    2    0    0  0.00000000000E+00  0.00000000000E+00 -0.16757987654E+04  0.36141640204E+04  0.32021680256E+04 0.  0.
        5    1    3    3  502    0  0.13327451552E+02  0.19693543253E+03  0.95538963335E+03  0.97557809890E+03  0.46999998093E+01 0. -1.
       -5    1    3    3    0  502 -0.13327451552E+02 -0.19693543253E+03 -0.26311883987E+04  0.26385859215E+04  0.46999998093E+01 0.  1.
</event>
<event>
 5   0  0.8681172E-07  0.3190668E+04  0.7818609E-02  0.8191286E-01
        1   -1    0    0  501    0  0.00000000000E+00  0.00000000000E+00  0.17369028515E+04  0.17369028515E+04  0.50400001928E-02 0. -1.
       -1   -1    0    0    0  501  0.00000000000E+00  0.00000000000E+00 -0.14653036025E+04  0.14653036025E+04  0.50400001928E-02 0.  1.
    10030    2    1    2    0    0  0.00000000000E+00  0.00000000000E+00  0.27159924897E+03  0.32022064540E+04  0.31906676452E+04 0.  0.
        1    1    3    3  502    0 -0.73468621685E+02 -0.14433671191E+04 -0.54220527970E+03  0.15435973711E+04  0.50400001928E-02 0.  1.
       -1    1    3    3    0  502  0.73468621685E+02  0.14433671191E+04  0.81380452867E+03  0.16586090828E+04  0.50400001928E-02 0. -1.
</event>
<event>
 5   0  0.2466076E-06  0.3118537E+04  0.7818609E-02  0.8210669E-01
        2   -1    0    0  501    0  0.00000000000E+00  0.00000000000E+00  0.21629282152E+04  0.21629282152E+04  0.25500000920E-02 0.  1.
       -2   -1    0    0    0  501  0.00000000000E+00  0.00000000000E+00 -0.11240861599E+04  0.11240861599E+04  0.25500000920E-02 0. -1.
    10030    2    1    2    0    0  0.00000000000E+00  0.00000000000E+00  0.10388420553E+04  0.32870143751E+04  0.31185366258E+04 0.  0.
        3    1    3    3  502    0  0.43041270942E+03 -0.69039215784E+03  0.19214802912E+04  0.20866199826E+04  0.10100000352E+00 0.  1.
       -3    1    3    3    0  502 -0.43041270942E+03  0.69039215784E+03 -0.88263823587E+03  0.12003943925E+04  0.10100000352E+00 0. -1.
</event>
<event>
 5   0  0.2401139E-06  0.3219903E+04  0.7818609E-02  0.8183581E-01
       -2   -1    0    0    0  501  0.00000000000E+00  0.00000000000E+00  0.10750896025E+04  0.10750896025E+04  0.25500000920E-02 0.  1.
        2   -1    0    0  501    0  0.00000000000E+00  0.00000000000E+00 -0.24109092394E+04  0.24109092394E+04  0.25500000920E-02 0. -1.
    10030    2    1    2    0    0  0.00000000000E+00  0.00000000000E+00 -0.13358196368E+04  0.34859988419E+04  0.32199027662E+04 0.  0.
        5    1    3    3  502    0  0.10483034153E+04 -0.12218032799E+04 -0.68235651257E+03  0.17485353315E+04  0.46999998093E+01 0.  1.
       -5    1    3    3    0  502 -0.10483034153E+04  0.12218032799E+04 -0.65346312424E+03  0.17374635104E+04  0.46999998093E+01 0. -1.
</event>
<event>
 5   0  0.8681172E-07  0.3194391E+04  0.7818609E-02  0.8190300E-01
        1   -1    0    0  501    0  0.00000000000E+00  0.00000000000E+00  0.13866130555E+04  0.13866130555E+04  0.50400001928E-02 0. -1.
       -1   -1    0    0    0  501  0.00000000000E+00  0.00000000000E+00 -0.18397592645E+04  0.18397592645E+04  0.50400001928E-02 0.  1.
    10030    2    1    2    0    0  0.00000000000E+00  0.00000000000E+00 -0.45314620904E+03  0.32263723201E+04  0.31943914696E+04 0.  0.
        1    1    3    3  502    0 -0.11608311372E+04  0.52615192695E+03  0.74570110348E+03  0.14766295795E+04  0.50400001928E-02 0. -1.
       -1    1    3    3    0  502  0.11608311372E+04 -0.52615192695E+03 -0.11988473125E+04  0.17497427405E+04  0.50400001928E-02 0.  1.
</event>
<event>
 5   0  0.2621528E-06  0.3420359E+04  0.7818609E-02  0.8132928E-01
       -2   -1    0    0    0  501  0.00000000000E+00  0.00000000000E+00  0.14780746292E+04  0.14780746292E+04  0.25500000920E-02 0.  1.
        2   -1    0    0  501    0  0.00000000000E+00  0.00000000000E+00 -0.19787318858E+04  0.19787318858E+04  0.25500000920E-02 0. -1.
    10030    2    1    2    0    0  0.00000000000E+00  0.00000000000E+00 -0.50065725654E+03  0.34568065150E+04  0.34203586937E+04 0.  0.
        2    1    3    3  502    0 -0.16206869167E+04 -0.52629363767E+03 -0.39714299500E+03  0.17496667207E+04  0.25500000920E-02 0. -1.
       -2    1    3    3    0  502  0.16206869167E+04  0.52629363767E+03 -0.10351426154E+03  0.17071397943E+04  0.25500000920E-02 0.  1.
</event>
<event>
 5   0  0.2401139E-06  0.3121772E+04  0.7818609E-02  0.8209788E-01
       -2   -1    0    0    0  501  0.00000000000E+00  0.00000000000E+00  0.82628824509E+03  0.82628824510E+03  0.25500000920E-02 0.  1.
        2   -1    0    0  501    0  0.00000000000E+00  0.00000000000E+00 -0.29485664703E+04  0.29485664703E+04  0.25500000920E-02 0. -1.
    10030    2    1    2    0    0  0.00000000000E+00  0.00000000000E+00 -0.21222782252E+04  0.37748547154E+04  0.31217724544E+04 0.  0.
        5    1    3    3  502    0 -0.92247833840E+03 -0.92609970818E+03 -0.20926651358E+04  0.24673662912E+04  0.46999998093E+01 0. -1.
       -5    1    3    3    0  502  0.92247833840E+03  0.92609970818E+03 -0.29613089376E+02  0.13074884242E+04  0.46999998093E+01 0.  1.
</event>
<event>
 5   0  0.8487944E-07  0.3219540E+04  0.7818609E-02  0.8183676E-01
        1   -1    0    0  501    0  0.00000000000E+00  0.00000000000E+00  0.15009089295E+04  0.15009089295E+04  0.50400001928E-02 0. -1.
       -1   -1    0    0    0  501  0.00000000000E+00  0.00000000000E+00 -0.17265272986E+04  0.17265272987E+04  0.50400001928E-02 0.  1.
    10030    2    1    2    0    0  0.00000000000E+00  0.00000000000E+00 -0.22561836911E+03  0.32274362282E+04  0.32195404887E+04 0.  0.
        2    1    3    3  502    0 -0.29847085696E+03  0.12431324334E+04  0.86780101668E+03  0.15451672091E+04  0.25500000920E-02 0. -1.
       -2    1    3    3    0  502  0.29847085696E+03 -0.12431324334E+04 -0.10934193858E+04  0.16822690191E+04  0.25500000920E-02 0.  1.
</event>
<event>
 5   0  0.2401139E-06  0.3154917E+04  0.7818609E-02  0.8200826E-01
       -2   -1    0    0    0  501  0.00000000000E+00  0.00000000000E+00  0.16246807530E+04  0.16246807530E+04  0.25500000920E-02 0.  1.
        2   -1    0    0  501    0  0.00000000000E+00  0.00000000000E+00 -0.15316086028E+04  0.15316086028E+04  0.25500000920E-02 0. -1.
    10030    2    1    2    0    0  0.00000000000E+00  0.00000000000E+00  0.93072150268E+02  0.31562893558E+04  0.31549168091E+04 0.  0.
        5    1    3    3  502    0 -0.17565948621E+03 -0.14541763149E+04  0.63234006323E+03  0.15954187712E+04  0.46999998093E+01 0. -1.
       -5    1    3    3    0  502  0.17565948621E+03  0.14541763149E+04 -0.53926791297E+03  0.15608705846E+04  0.46999998093E+01 0.  1.
</event>
<event>
 5   0  0.8383008E-07  0.3214433E+04  0.7818609E-02  0.8185016E-01
       -1   -1    0    0    0  501  0.00000000000E+00  0.00000000000E+00  0.11626446740E+04  0.11626446740E+04  0.50400001928E-02 0.  1.
        1   -1    0    0  501    0  0.00000000000E+00  0.00000000000E+00 -0.22217842129E+04  0.22217842129E+04  0.50400001928E-02 0. -1.
    10030    2    1    2    0    0  0.00000000000E+00  0.00000000000E+00 -0.10591395390E+04  0.33844288869E+04  0.32144334380E+04 0.  0.
        4    1    3    3  502    0  0.54618742683E+03 -0.14647387672E+04 -0.13651266903E+03  0.15692092541E+04  0.12699999809E+01 0. -1.
       -4    1    3    3    0  502 -0.54618742683E+03  0.14647387672E+04 -0.92262686993E+03  0.18152196328E+04  0.12699999809E+01 0.  1.
</event>
<event>
 5   0  0.8512855E-07  0.3277019E+04  0.7818609E-02  0.8168768E-01
        1   -1    0    0  501    0  0.00000000000E+00  0.00000000000E+00  0.16843070906E+04  0.16843070906E+04  0.50400001928E-02 0.  1.
       -1   -1    0    0    0  501  0.00000000000E+00  0.00000000000E+00 -0.15939575510E+04  0.15939575510E+04  0.50400001928E-02 0. -1.
    10030    2    1    2    0    0  0.00000000000E+00  0.00000000000E+00  0.90349539660E+02  0.32782646416E+04  0.32770193806E+04 0.  0.
        5    1    3    3  502    0 -0.14109173836E+04 -0.58958464899E+03 -0.54360133515E+03  0.16229055497E+04  0.46999998093E+01 0. -1.
       -5    1    3    3    0  502  0.14109173836E+04  0.58958464899E+03  0.63395087482E+03  0.16553590919E+04  0.46999998093E+01 0.  1.
</event>
<event>
 5   0  0.8512855E-07  0.3191560E+04  0.7818609E-02  0.8191050E-01
        1   -1    0    0  501    0  0.00000000000E+00  0.00000000000E+00  0.12354959721E+04  0.12354959721E+04  0.50400001928E-02 0. -1.
       -1   -1    0    0    0  501  0.00000000000E+00  0.00000000000E+00 -0.20611264803E+04  0.20611264803E+04  0.50400001928E-02 0.  1.
    10030    2    1    2    0    0  0.00000000000E+00  0.00000000000E+00 -0.82563050812E+03  0.32966224524E+04  0.31915597845E+04 0.  0.
        5    1    3    3  502    0  0.10949214275E+04 -0.82947282051E+03  0.42608615550E+03  0.14382105528E+04  0.46999998093E+01 0. -1.
       -5    1    3    3    0  502 -0.10949214275E+04  0.82947282051E+03 -0.12517166636E+04  0.18584118996E+04  0.46999998093E+01 0.  1.
</event>
<event>
 5   0  0.7934375E-07  0.3225945E+04  0.7818609E-02  0.8181998E-01
        3   -1    0    0  501    0  0.00000000000E+00  0.00000000000E+00  0.14203176649E+04  0.14203176685E+04  0.10100000352E+00 0. -1.
       -3   -1    0    0    0  501  0.00000000000E+00  0.00000000000E+00 -0.18317599139E+04  0.18317599167E+04  0.10100000352E+00 0.  1.
    10030    2    1    2    0    0  0.00000000000E+00  0.00000000000E+00 -0.41144224895E+03  0.32520775852E+04  0.32259454267E+04 0.  0.
        3    1    3    3  502    0 -0.17176811427E+03  0.28190440008E+03  0.13858991499E+04  0.14246721868E+04  0.10100000352E+00 0. -1.
       -3    1    3    3    0  502  0.17176811427E+03 -0.28190440008E+03 -0.17973413989E+04  0.18274053984E+04  0.10100000352E+00 0.  1.
</event>
<event>
 5   0  0.2466076E-06  0.3142717E+04  0.7818609E-02  0.8204111E-01
        2   -1    0    0  501    0  0.00000000000E+00  0.00000000000E+00  0.28161890869E+04  0.28161890869E+04  0.25500000920E-02 0.  1.
       -2   -1    0    0    0  501  0.00000000000E+00  0.00000000000E+00 -0.87677620151E+03  0.87677620151E+03  0.25500000920E-02 0. -1.
    10030    2    1    2    0    0  0.00000000000E+00  0.00000000000E+00  0.19394128854E+04  0.36929652884E+04  0.31427170222E+04 0.  0.
        3    1    3    3  502    0 -0.15122297675E+04 -0.80496624026E+02  0.14624714726E+04  0.21052651601E+04  0.10100000352E+00 0.  1.
       -3    1    3    3    0  502  0.15122297675E+04  0.80496624026E+02  0.47694141284E+03  0.15877001283E+04  0.10100000352E+00 0. -1.
</event>
<event>
 5   0  0.8512855E-07  0.3147878E+04  0.7818609E-02  0.8202720E-01
        1   -1    0    0  501    0  0.00000000000E+00  0.00000000000E+00  0.15717289483E+04  0.15717289483E+04  0.50400001928E-02 0.  1.
       -1   -1    0    0    0  501  0.00000000000E+00  0.00000000000E+00 -0.15761522501E+04  0.15761522501E+04  0.50400001928E-02 0. -1.
    10030    2    1    2    0    0  0.00000000000E+00  0.00000000000E+00 -0.44233018606E+01  0.31478811984E+04  0.31478780906E+04 0.  0.
        5    1    3    3  502    0  0.95054965238E+02  0.13787962593E+04 -0.75530432599E+03  0.15749988209E+04  0.46999998093E+01 0. -1.
       -5    1    3    3    0  502 -0.95054965238E+02 -0.13787962593E+04  0.75088102413E+03  0.15728823775E+04  0.46999998093E+01 0.  1.
</event>
<event>
 5   0  0.8512855E-07  0.3234756E+04  0.7818609E-02  0.8179698E-01
       -1   -1    0    0    0  501  0.00000000000E+00  0.00000000000E+00  0.15949718272E+04  0.15949718272E+04  0.50400001928E-02 0.  1.
        1   -1    0    0  501    0  0.00000000000E+00  0.00000000000E+00 -0.16400990519E+04  0.16400990519E+04  0.50400001928E-02 0. -1.
    10030    2    1    2    0    0  0.00000000000E+00  0.00000000000E+00 -0.45127224707E+02  0.32350708791E+04  0.32347561155E+04 0.  0.
        5    1    3    3  502    0 -0.49002850325E+03  0.11581475362E+04 -0.10397447029E+04  0.16317244825E+04  0.46999998093E+01 0. -1.
       -5    1    3    3    0  502  0.49002850325E+03 -0.11581475362E+04  0.99461747824E+03  0.16033463966E+04  0.46999998093E+01 0.  1.
</event>
<event>
 5   0  0.2466076E-06  0.3189020E+04  0.7818609E-02  0.8191723E-01
       -2   -1    0    0    0  501  0.00000000000E+00  0.00000000000E+00  0.12194166428E+04  0.12194166428E+04  0.25500000920E-02 0.  1.
        2   -1    0    0  501    0  0.00000000000E+00  0.00000000000E+00 -0.20849817349E+04  0.20849817349E+04  0.25500000920E-02 0. -1.
    10030    2    1    2    0    0  0.00000000000E+00  0.00000000000E+00 -0.86556509208E+03  0.33043983778E+04  0.31890195532E+04 0.  0.
        3    1    3    3  502    0  0.14765437017E+04 -0.55887245960E+03 -0.20122079344E+03  0.15915431339E+04  0.10100000352E+00 0.  1.
       -3    1    3    3    0  502 -0.14765437017E+04  0.55887245960E+03 -0.66434429864E+03  0.17128552439E+04  0.10100000352E+00 0. -1.
</event>
<event>
 5   0  0.2337504E-06  0.3239640E+04  0.7818609E-02  0.8178426E-01
       -2   -1    0    0    0  501  0.00000000000E+00  0.00000000000E+00  0.17584157304E+04  0.17584157304E+04  0.25500000920E-02 0. -1.
        2   -1    0    0  501    0  0.00000000000E+00  0.00000000000E+00 -0.14921479023E+04  0.14921479023E+04  0.25500000920E-02 0.  1.
    10030    2    1    2    0    0  0.00000000000E+00  0.00000000000E+00  0.26626782807E+03  0.32505636327E+04  0.32396396982E+04 0.  0.
        1    1    3    3  502    0  0.26297407750E+03 -0.15962798120E+04  0.51918159287E+02  0.16186290801E+04  0.50400001928E-02 0.  1.
       -1    1    3    3    0  502 -0.26297407750E+03  0.15962798120E+04  0.21434966878E+03  0.16319345526E+04  0.50400001928E-02 0. -1.
</event>
<event>
 5   0  0.2404430E-06  0.3228994E+04  0.7818609E-02  0.8181202E-01
       -2   -1    0    0    0  501  0.00000000000E+00  0.00000000000E+00  0.16197510729E+04  0.16197510729E+04  0.25500000920E-02 0. -1.
        2   -1    0    0  501    0  0.00000000000E+00  0.00000000000E+00 -0.16092595668E+04  0.16092595668E+04  0.25500000920E-02 0.  1.
    10030    2    1    2    0    0  0.00000000000E+00  0.00000000000E+00  0.10491506041E+02  0.32290106397E+04  0.32289935955E+04 0.  0.
        4    1    3    3  502    0 -0.55937407059E+03  0.97937780508E+03  0.11604652775E+04  0.16182587893E+04  0.12699999809E+01 0. -1.
       -4    1    3    3    0  502  0.55937407059E+03 -0.97937780508E+03 -0.11499737714E+04  0.16107518505E+04  0.12699999809E+01 0.  1.
</event>
<event>
 5   0  0.8487944E-07  0.3226577E+04  0.7818609E-02  0.8181833E-01
       -1   -1    0    0    0  501  0.00000000000E+00  0.00000000000E+00  0.16557267304E+04  0.16557267304E+04  0.50400001928E-02 0. -1.
        1   -1    0    0  501    0  0.00000000000E+00  0.00000000000E+00 -0.15719380147E+04  0.15719380148E+04  0.50400001928E-02 0.  1.
    10030    2    1    2    0    0  0.00000000000E+00  0.00000000000E+00  0.83788715603E+02  0.32276647451E+04  0.32265770033E+04 0.  0.
        2    1    3    3  502    0  0.10021952160E+04  0.11617955675E+04  0.54059587021E+03  0.16267784381E+04  0.25500000920E-02 0.  1.
       -2    1    3    3    0  502 -0.10021952160E+04 -0.11617955675E+04 -0.45680715461E+03  0.16008863071E+04  0.25500000920E-02 0. -1.
</event>
<event>
 5   0  0.2401139E-06  0.3171188E+04  0.7818609E-02  0.8196468E-01
       -2   -1    0    0    0  501  0.00000000000E+00  0.00000000000E+00  0.13105493567E+04  0.13105493567E+04  0.25500000920E-02 0. -1.
        2   -1    0    0  501    0  0.00000000000E+00  0.00000000000E+00 -0.19183620595E+04  0.19183620595E+04  0.25500000920E-02 0.  1.
    10030    2    1    2    0    0  0.00000000000E+00  0.00000000000E+00 -0.60781270276E+03  0.32289114162E+04  0.31711878929E+04 0.  0.
        5    1    3    3  502    0 -0.36198429454E+03  0.12102377856E+04 -0.12796705482E+04  0.17981342912E+04  0.46999998093E+01 0.  1.
       -5    1    3    3    0  502  0.36198429454E+03 -0.12102377856E+04  0.67185784547E+03  0.14307771251E+04  0.46999998093E+01 0. -1.
</event>
<event>
 5   0  0.8383008E-07  0.3182001E+04  0.7818609E-02  0.8193587E-01
        1   -1    0    0  501    0  0.00000000000E+00  0.00000000000E+00  0.16999629223E+04  0.16999629224E+04  0.50400001928E-02 0.  1.
       -1   -1    0    0    0  501  0.00000000000E+00  0.00000000000E+00 -0.14890221492E+04  0.14890221492E+04  0.50400001928E-02 0. -1.
    10030    2    1    2    0    0  0.00000000000E+00  0.00000000000E+00  0.21094077314E+03  0.31889850716E+04  0.31820009078E+04 0.  0.
        4    1    3    3  502    0 -0.19811390148E+03  0.92669855485E+03  0.13862666433E+04  0.16792129552E+04  0.12699999809E+01 0.  1.
       -4    1    3    3    0  502  0.19811390148E+03 -0.92669855485E+03 -0.11753258702E+04  0.15097721164E+04  0.12699999809E+01 0. -1.
</event>
<event>
 5   0  0.2337504E-06  0.3523600E+04  0.7818609E-02  0.8108220E-01
        2   -1    0    0  501    0  0.00000000000E+00  0.00000000000E+00  0.19108671336E+04  0.19108671336E+04  0.25500000920E-02 0.  1.
       -2   -1    0    0    0  501  0.00000000000E+00  0.00000000000E+00 -0.16243619117E+04  0.16243619117E+04  0.25500000920E-02 0. -1.
    10030    2    1    2    0    0  0.00000000000E+00  0.00000000000E+00  0.28650522188E+03  0.35352290452E+04  0.35236003122E+04 0.  0.
        1    1    3    3  502    0 -0.12770316628E+04  0.12121089022E+04  0.80420605734E+02  0.17625224346E+04  0.50400001928E-02 0. -1.
       -1    1    3    3    0  502  0.12770316628E+04 -0.12121089022E+04  0.20608461614E+03  0.17727066107E+04  0.50400001928E-02 0.  1.
</event>
<event>
 5   0  0.2401139E-06  0.3175259E+04  0.7818609E-02  0.8195382E-01
        2   -1    0    0  501    0  0.00000000000E+00  0.00000000000E+00  0.13940752502E+04  0.13940752502E+04  0.25500000920E-02 0.  1.
       -2   -1    0    0    0  501  0.00000000000E+00  0.00000000000E+00 -0.18080574347E+04  0.18080574347E+04  0.25500000920E-02 0. -1.
    10030    2    1    2    0    0  0.00000000000E+00  0.00000000000E+00 -0.41398218452E+03  0.32021326849E+04  0.31752594354E+04 0.  0.
        5    1    3    3  502    0  0.68181842611E+03  0.13522236126E+04  0.27365671081E+03  0.15389266227E+04  0.46999998093E+01 0.  1.
       -5    1    3    3    0  502 -0.68181842611E+03 -0.13522236126E+04 -0.68763889533E+03  0.16632060621E+04  0.46999998093E+01 0. -1.
</event>
<event>
 5   0  0.2621528E-06  0.3201855E+04  0.7818609E-02  0.8188328E-01
       -2   -1    0    0    0  501  0.00000000000E+00  0.00000000000E+00  0.10730128862E+04  0.10730128862E+04  0.25500000920E-02 0.  1.
        2   -1    0    0  501    0  0.00000000000E+00  0.00000000000E+00 -0.23885715948E+04  0.23885715948E+04  0.25500000920E-02 0. -1.
    10030    2    1    2    0    0  0.00000000000E+00  0.00000000000E+00 -0.13155587086E+04  0.34615844810E+04  0.32018545256E+04 0.  0.
        2    1    3    3  502    0 -0.30482558170E+02  0.15646536785E+04 -0.29291539217E+03  0.15921274280E+04  0.25500000920E-02 0.  1.
       -2    1    3    3    0  502  0.30482558170E+02 -0.15646536785E+04 -0.10226433164E+04  0.18694570529E+04  0.25500000920E-02 0. -1.
</event>
<event>
 5   0  0.8681172E-07  0.3183949E+04  0.7818609E-02  0.8193069E-01
       -1   -1    0    0    0  501  0.00000000000E+00  0.00000000000E+00  0.20065943312E+04  0.20065943312E+04  0.50400001928E-02 0. -1.
        1   -1    0    0  501    0  0.00000000000E+00  0.00000000000E+00 -0.12630270965E+04  0.12630270965E+04  0.50400001928E-02 0.  1.
    10030    2    1    2    0    0  0.00000000000E+00  0.00000000000E+00  0.74356723472E+03  0.32696214278E+04  0.31839491278E+04 0.  0.
        1    1    3    3  502    0 -0.13713000447E+03  0.10731465846E+04 -0.82751726465E+03  0.13620694011E+04  0.50400001928E-02 0.  1.
       -1    1    3    3    0  502  0.13713000447E+03 -0.10731465846E+04  0.15710844994E+04  0.19075520266E+04  0.50400001928E-02 0. -1.
</event>
<event>
 5   0  0.8383008E-07  0.3187098E+04  0.7818609E-02  0.8192233E-01
       -1   -1    0    0    0  501  0.00000000000E+00  0.00000000000E+00  0.17557419804E+04  0.17557419804E+04  0.50400001928E-02 0.  1.
        1   -1    0    0  501    0  0.00000000000E+00  0.00000000000E+00 -0.14463394972E+04  0.14463394972E+04  0.50400001928E-02 0. -1.
    10030    2    1    2    0    0  0.00000000000E+00  0.00000000000E+00  0.30940248318E+03  0.32020814776E+04  0.31870983500E+04 0.  0.
        4    1    3    3  502    0 -0.11724647265E+04  0.49176084640E+02  0.12378723475E+04  0.17057026071E+04  0.12699999809E+01 0.  1.
       -4    1    3    3    0  502  0.11724647265E+04 -0.49176084640E+02 -0.92846986432E+03  0.14963788705E+04  0.12699999809E+01 0. -1.
</event>
<event>
 5   0  0.2621528E-06  0.3160034E+04  0.7818609E-02  0.8199453E-01
       -2   -1    0    0    0  501  0.00000000000E+00  0.00000000000E+00  0.12622702426E+04  0.12622702426E+04  0.25500000920E-02 0.  1.
        2   -1    0    0  501    0  0.00000000000E+00  0.00000000000E+00 -0.19777489164E+04  0.19777489164E+04  0.25500000920E-02 0. -1.
    10030    2    1    2    0    0  0.00000000000E+00  0.00000000000E+00 -0.71547867382E+03  0.32400191590E+04  0.31600339267E+04 0.  0.
        2    1    3    3  502    0 -0.15555569032E+04 -0.87586358339E+02 -0.62711533682E+03  0.16794946546E+04  0.25500000920E-02 0.  1.
       -2    1    3    3    0  502  0.15555569032E+04  0.87586358339E+02 -0.88363336993E+02  0.15605245043E+04  0.25500000920E-02 0. -1.
</event>
<event>
 5   0  0.2401139E-06  0.3179056E+04  0.7818609E-02  0.8194370E-01
        2   -1    0    0  501    0  0.00000000000E+00  0.00000000000E+00  0.23329356691E+04  0.23329356691E+04  0.25500000920E-02 0. -1.
       -2   -1    0    0    0  501  0.00000000000E+00  0.00000000000E+00 -0.10830130194E+04  0.10830130195E+04  0.25500000920E-02 0.  1.
    10030    2    1    2    0    0  0.00000000000E+00  0.00000000000E+00  0.12499226497E+04  0.34159486886E+04  0.31790562771E+04 0.  0.
        5    1    3    3  502    0 -0.11678714700E+04 -0.88608373387E+03 -0.35240988112E+02  0.14664010949E+04  0.46999998093E+01 0.  1.
       -5    1    3    3    0  502  0.11678714700E+04  0.88608373387E+03  0.12851636378E+04  0.19495475936E+04  0.46999998093E+01 0. -1.
</event>
<event>
 5   0  0.8383008E-07  0.3241073E+04  0.7818609E-02  0.8178053E-01
       -1   -1    0    0    0  501  0.00000000000E+00  0.00000000000E+00  0.24261181699E+04  0.24261181699E+04  0.50400001928E-02 0. -1.
        1   -1    0    0  501    0  0.00000000000E+00  0.00000000000E+00 -0.10824447498E+04  0.10824447499E+04  0.50400001928E-02 0.  1.
    10030    2    1    2    0    0  0.00000000000E+00  0.00000000000E+00  0.13436734201E+04  0.35085629198E+04  0.32410732022E+04 0.  0.
        4    1    3    3  502    0  0.81534635518E+03  0.14694719025E+03 -0.83585924346E+03  0.11768795365E+04  0.12699999809E+01 0.  1.
       -4    1    3    3    0  502 -0.81534635518E+03 -0.14694719025E+03  0.21795326635E+04  0.23316833833E+04  0.12699999809E+01 0. -1.
</event>
<event>
 5   0  0.8487944E-07  0.3143313E+04  0.7818609E-02  0.8203951E-01
        1   -1    0    0  501    0  0.00000000000E+00  0.00000000000E+00  0.17096611626E+04  0.17096611626E+04  0.50400001928E-02 0. -1.
       -1   -1    0    0    0  501  0.00000000000E+00  0.00000000000E+00 -0.14447916359E+04  0.14447916360E+04  0.50400001928E-02 0.  1.
    10030    2    1    2    0    0  0.00000000000E+00  0.00000000000E+00  0.26486952664E+03  0.31544527985E+04  0.31433129962E+04 0.  0.
        2    1    3    3  502    0 -0.20012318135E+03 -0.10189511613E+04 -0.10514891429E+04  0.14778160151E+04  0.25500000920E-02 0.  1.
       -2    1    3    3    0  502  0.20012318135E+03  0.10189511613E+04  0.13163586695E+04  0.16766367835E+04  0.25500000920E-02 0. -1.
</event>
<event>
 5   0  0.2404430E-06  0.3164190E+04  0.7818609E-02  0.8198339E-01
       -2   -1    0    0    0  501  0.00000000000E+00  0.00000000000E+00  0.22042657259E+04  0.22042657259E+04  0.25500000920E-02 0. -1.
        2   -1    0    0  501    0  0.00000000000E+00  0.00000000000E+00 -0.11355365554E+04  0.11355365554E+04  0.25500000920E-02 0.  1.
    10030    2    1    2    0    0  0.00000000000E+00  0.00000000000E+00  0.10687291704E+04  0.33398022813E+04  0.31641898234E+04 0.  0.
        4    1    3    3  502    0 -0.17368933940E+03 -0.60146530315E+03  0.20679643519E+04  0.21606495947E+04  0.12699999809E+01 0. -1.
       -4    1    3    3    0  502  0.17368933940E+03  0.60146530315E+03 -0.99923518147E+03  0.11791526866E+04  0.12699999809E+01 0.  1.
</event>
<event>
 5   0  0.7934375E-07  0.3207377E+04  0.7818609E-02  0.8186872E-01
       -3   -1    0    0    0  501  0.00000000000E+00  0.00000000000E+00  0.11015280803E+04  0.11015280849E+04  0.10100000352E+00 0. -1.
        3   -1    0    0  501    0  0.00000000000E+00  0.00000000000E+00 -0.23347723947E+04  0.23347723969E+04  0.10100000352E+00 0.  1.
    10030    2    1    2    0    0  0.00000000000E+00  0.00000000000E+00 -0.12332443144E+04  0.34363004818E+04  0.32073773495E+04 0.  0.
        4    1    3    3  502    0  0.50881271763E+03  0.54805164470E+03 -0.21365256313E+04  0.22636241678E+04  0.12699999809E+01 0.  1.
       -4    1    3    3    0  502 -0.50881271763E+03 -0.54805164470E+03  0.90328131693E+03  0.11726763139E+04  0.12699999809E+01 0. -1.
</event>
<event>
 5   0  0.2404430E-06  0.3097550E+04  0.7818609E-02  0.8216411E-01
        2   -1    0    0  501    0  0.00000000000E+00  0.00000000000E+00  0.16200810104E+04  0.16200810104E+04  0.25500000920E-02 0.  1.
       -2   -1    0    0    0  501  0.00000000000E+00  0.00000000000E+00 -0.14806069900E+04  0.14806069900E+04  0.25500000920E-02 0. -1.
    10030    2    1    2    0    0  0.00000000000E+00  0.00000000000E+00  0.13947402042E+03  0.31006880005E+04  0.30975495273E+04 0.  0.
        4    1    3    3  502    0 -0.13484052242E+04 -0.55848173373E+03 -0.44905749573E+03  0.15270077744E+04  0.12699999809E+01 0. -1.
       -4    1    3    3    0  502  0.13484052242E+04  0.55848173373E+03  0.58853151615E+03  0.15736802261E+04  0.12699999809E+01 0.  1.
</event>
<event>
 5   0  0.2404430E-06  0.3071414E+04  0.7818609E-02  0.8223627E-01
        2   -1    0    0  501    0  0.00000000000E+00  0.00000000000E+00  0.14248097296E+04  0.14248097296E+04  0.25500000920E-02 0. -1.
       -2   -1    0    0    0  501  0.00000000000E+00  0.00000000000E+00 -0.16552355700E+04  0.16552355700E+04  0.25500000920E-02 0.  1.
    10030    2    1    2    0    0  0.00000000000E+00  0.00000000000E+00 -0.23042584034E+03  0.30800452996E+04  0.30714138405E+04 0.  0.
        4    1    3    3  502    0  0.62269212481E+03  0.46308623374E+03 -0.14441540029E+04  0.16394440336E+04  0.12699999809E+01 0.  1.
       -4    1    3    3    0  502 -0.62269212481E+03 -0.46308623374E+03  0.12137281626E+04  0.14406012660E+04  0.12699999809E+01 0. -1.
</event>
<event>
 5   0  0.2466076E-06  0.3086039E+04  0.7818609E-02  0.8219580E-01
       -2   -1    0    0    0  501  0.00000000000E+00  0.00000000000E+00  0.22387117716E+04  0.22387117716E+04  0.25500000920E-02 0.  1.
        2   -1    0    0  501    0  0.00000000000E+00  0.00000000000E+00 -0.10635173270E+04  0.10635173270E+04  0.25500000920E-02 0. -1.
    10030    2    1    2    0    0  0.00000000000E+00  0.00000000000E+00  0.11751944446E+04  0.33022290986E+04  0.30860387291E+04 0.  0.
        3    1    3    3  502    0 -0.82452777029E+03 -0.31134219440E+03 -0.76767157100E+03  0.11688026596E+04  0.10100000352E+00 0. -1.
       -3    1    3    3    0  502  0.82452777029E+03  0.31134219440E+03  0.19428660156E+04  0.21334264390E+04  0.10100000352E+00 0.  1.
</event>
<event>
 5   0  0.8487944E-07  0.3210579E+04  0.7818609E-02  0.8186029E-01
        1   -1    0    0  501    0  0.00000000000E+00  0.00000000000E+00  0.17369745800E+04  0.17369745800E+04  0.50400001928E-02 0.  1.
       -1   -1    0    0    0  501  0.00000000000E+00  0.00000000000E+00 -0.14835880123E+04  0.14835880123E+04  0.50400001928E-02 0. -1.
    10030    2    1    2    0    0  0.00000000000E+00  0.00000000000E+00  0.25338656768E+03  0.32205625924E+04  0.32105791781E+04 0.  0.
        2    1    3    3  502    0  0.99776662710E+03  0.11926614957E+04 -0.27326320577E+03  0.15788136258E+04  0.25500000920E-02 0. -1.
       -2    1    3    3    0  502 -0.99776662710E+03 -0.11926614957E+04  0.52664977345E+03  0.16417489666E+04  0.25500000920E-02 0.  1.
</event>
<event>
 5   0  0.8681172E-07  0.3138807E+04  0.7818609E-02  0.8205168E-01
        1   -1    0    0  501    0  0.00000000000E+00  0.00000000000E+00  0.15286489670E+04  0.15286489671E+04  0.50400001928E-02 0. -1.
       -1   -1    0    0    0  501  0.00000000000E+00  0.00000000000E+00 -0.16112449848E+04  0.16112449848E+04  0.50400001928E-02 0.  1.
    10030    2    1    2    0    0  0.00000000000E+00  0.00000000000E+00 -0.82596017774E+02  0.31398939519E+04  0.31388074052E+04 0.  0.
        1    1    3    3  502    0  0.25989010986E+03 -0.82788526936E+03 -0.13494552040E+04  0.16043585123E+04  0.50400001928E-02 0.  1.
       -1    1    3    3    0  502 -0.25989010986E+03  0.82788526936E+03  0.12668591862E+04  0.15355354396E+04  0.50400001928E-02 0. -1.
</event>
<event>
 5   0  0.8512855E-07  0.3195521E+04  0.7818609E-02  0.8190001E-01
       -1   -1    0    0    0  501  0.00000000000E+00  0.00000000000E+00  0.20772889364E+04  0.20772889365E+04  0.50400001928E-02 0.  1.
        1   -1    0    0  501    0  0.00000000000E+00  0.00000000000E+00 -0.12289277803E+04  0.12289277803E+04  0.50400001928E-02 0. -1.
    10030    2    1    2    0    0  0.00000000000E+00  0.00000000000E+00  0.84836115616E+03  0.33062167168E+04  0.31955206660E+04 0.  0.
        5    1    3    3  502    0 -0.28710906041E+02  0.11662222407E+04 -0.70538840786E+03  0.13632657579E+04  0.46999998093E+01 0. -1.
       -5    1    3    3    0  502  0.28710906041E+02 -0.11662222407E+04  0.15537495640E+04  0.19429509588E+04  0.46999998093E+01 0.  1.
</event>
<event>
 5   0  0.2337504E-06  0.3215513E+04  0.7818609E-02  0.8184732E-01
       -2   -1    0    0    0  501  0.00000000000E+00  0.00000000000E+00  0.13658962579E+04  0.13658962579E+04  0.25500000920E-02 0.  1.
        2   -1    0    0  501    0  0.00000000000E+00  0.00000000000E+00 -0.18924431687E+04  0.18924431687E+04  0.25500000920E-02 0. -1.
    10030    2    1    2    0    0  0.00000000000E+00  0.00000000000E+00 -0.52654691083E+03  0.32583394267E+04  0.32155130493E+04 0.  0.
        1    1    3    3  502    0  0.76661536096E+03 -0.14103040975E+04 -0.35516913161E+03  0.16440200337E+04  0.50400001928E-02 0. -1.
       -1    1    3    3    0  502 -0.76661536096E+03  0.14103040975E+04 -0.17137777922E+03  0.16143193929E+04  0.50400001928E-02 0.  1.
</event>
<event>
 5   0  0.2401139E-06  0.3209547E+04  0.7818609E-02  0.8186300E-01
        2   -1    0    0  501    0  0.00000000000E+00  0.00000000000E+00  0.18801066709E+04  0.18801066709E+04  0.25500000920E-02 0. -1.
       -2   -1    0    0    0  501  0.00000000000E+00  0.00000000000E+00 -0.13697617997E+04  0.13697617997E+04  0.25500000920E-02 0.  1.
    10030    2    1    2    0    0  0.00000000000E+00  0.00000000000E+00  0.51034487118E+03  0.32498684706E+04  0.32095471937E+04 0.  0.
        5    1    3    3  502    0 -0.39382777094E+03 -0.27050277758E+03 -0.12960673914E+04  0.13813344414E+04  0.46999998093E+01 0.  1.
       -5    1    3    3    0  502  0.39382777094E+03  0.27050277758E+03  0.18064122626E+04  0.18685340292E+04  0.46999998093E+01 0. -1.
</event>
<event>
 5   0  0.2404430E-06  0.3399482E+04  0.7818609E-02  0.8138033E-01
       -2   -1    0    0    0  501  0.00000000000E+00  0.00000000000E+00  0.24967416537E+04  0.24967416537E+04  0.25500000920E-02 0. -1.
        2   -1    0    0  501    0  0.00000000000E+00  0.00000000000E+00 -0.11571561831E+04  0.11571561831E+04  0.25500000920E-02 0.  1.
    10030    2    1    2    0    0  0.00000000000E+00  0.00000000000E+00  0.13395854705E+04  0.36538978368E+04  0.33994823384E+04 0.  0.
        4    1    3    3  502    0 -0.46394808643E+01 -0.12297038679E+04 -0.59145035888E+03  0.13645542377E+04  0.12699999809E+01 0.  1.
       -4    1    3    3    0  502  0.46394808643E+01  0.12297038679E+04  0.19310358294E+04  0.22893435991E+04  0.12699999809E+01 0. -1.
</event>
<event>
 5   0  0.8512855E-07  0.3211951E+04  0.7818609E-02  0.8185668E-01
       -1   -1    0    0    0  501  0.00000000000E+00  0.00000000000E+00  0.22552225958E+04  0.22552225958E+04  0.50400001928E-02 0. -1.
        1   -1    0    0  501    0  0.00000000000E+00  0.00000000000E+00 -0.11436374626E+04  0.11436374626E+04  0.50400001928E-02 0.  1.
    10030    2    1    2    0    0  0.00000000000E+00  0.00000000000E+00  0.11115851332E+04  0.33988600584E+04  0.32119508384E+04 0.  0.
        5    1    3    3  502    0  0.61545297516E+03 -0.71138420058E+03  0.19331848372E+04  0.21499012884E+04  0.46999998093E+01 0. -1.
       -5    1    3    3    0  502 -0.61545297516E+03  0.71138420058E+03 -0.82159970396E+03  0.12489587699E+04  0.46999998093E+01 0.  1.
</event>
<event>
 5   0  0.8681172E-07  0.3229772E+04  0.7818609E-02  0.8180998E-01
       -1   -1    0    0    0  501  0.00000000000E+00  0.00000000000E+00  0.20363281274E+04  0.20363281274E+04  0.50400001928E-02 0. -1.
        1   -1    0    0  501    0  0.00000000000E+00  0.00000000000E+00 -0.12806663648E+04  0.12806663649E+04  0.50400001928E-02 0.  1.
    10030    2    1    2    0    0  0.00000000000E+00  0.00000000000E+00  0.75566176256E+03  0.33169944923E+04  0.32297720914E+04 0.  0.
        1    1    3    3  502    0  0.82665176742E+02 -0.15193656178E+04  0.93331808489E+03  0.17850456743E+04  0.50400001928E-02 0. -1.
       -1    1    3    3    0  502 -0.82665176742E+02  0.15193656178E+04 -0.17765632232E+03  0.15319488179E+04  0.50400001928E-02 0.  1.
</event>
<event>
 5   0  0.8487944E-07  0.2955814E+04  0.7818609E-02  0.8256462E-01
       -1   -1    0    0    0  501  0.00000000000E+00  0.00000000000E+00  0.11336255379E+04  0.11336255379E+04  0.50400001928E-02 0. -1.
        1   -1    0    0  501    0  0.00000000000E+00  0.00000000000E+00 -0.19267467413E+04  0.19267467413E+04  0.50400001928E-02 0.  1.
    10030    2    1    2    0    0  0.00000000000E+00  0.00000000000E+00 -0.79312120339E+03  0.30603722792E+04  0.29558141424E+04 0.  0.
        2    1    3    3  502    0  0.50048367434E+03  0.69526393050E+03  0.85033780923E+03  0.12070419343E+04  0.25500000920E-02 0. -1.
       -2    1    3    3    0  502 -0.50048367434E+03 -0.69526393050E+03 -0.16434590126E+04  0.18533303450E+04  0.25500000920E-02 0.  1.
</event>
<event>
 5   0  0.8487944E-07  0.3197213E+04  0.7818609E-02  0.8189554E-01
       -1   -1    0    0    0  501  0.00000000000E+00  0.00000000000E+00  0.15122585228E+04  0.15122585228E+04  0.50400001928E-02 0. -1.
        1   -1    0    0  501    0  0.00000000000E+00  0.00000000000E+00 -0.16898844375E+04  0.16898844375E+04  0.50400001928E-02 0.  1.
    10030    2    1    2    0    0  0.00000000000E+00  0.00000000000E+00 -0.17762591472E+03  0.32021429603E+04  0.31972126255E+04 0.  0.
        2    1    3    3  502    0  0.54115396351E+03 -0.85844548334E+03 -0.13259367166E+04  0.16696959114E+04  0.25500000920E-02 0.  1.
       -2    1    3    3    0  502 -0.54115396351E+03  0.85844548334E+03  0.11483108018E+04  0.15324470489E+04  0.25500000920E-02 0. -1.
</event>
<event>
 5   0  0.8512855E-07  0.3201326E+04  0.7818609E-02  0.8188467E-01
        1   -1    0    0  501    0  0.00000000000E+00  0.00000000000E+00  0.23937344105E+04  0.23937344105E+04  0.50400001928E-02 0.  1.
       -1   -1    0    0    0  501  0.00000000000E+00  0.00000000000E+00 -0.10703452655E+04  0.10703452655E+04  0.50400001928E-02 0. -1.
    10030    2    1    2    0    0  0.00000000000E+00  0.00000000000E+00  0.13233891449E+04  0.34640796760E+04  0.32013261585E+04 0.  0.
        5    1    3    3  502    0 -0.33370335361E+03  0.15261665719E+04  0.28442698966E+03  0.15879115643E+04  0.46999998093E+01 0. -1.
       -5    1    3    3    0  502  0.33370335361E+03 -0.15261665719E+04  0.10389621553E+04  0.18761681118E+04  0.46999998093E+01 0.  1.
</event>
<event>
 5   0  0.2337504E-06  0.3258879E+04  0.7818609E-02  0.8173438E-01
        2   -1    0    0  501    0  0.00000000000E+00  0.00000000000E+00  0.17053149268E+04  0.17053149268E+04  0.25500000920E-02 0.  1.
       -2   -1    0    0    0  501  0.00000000000E+00  0.00000000000E+00 -0.15569398535E+04  0.15569398535E+04  0.25500000920E-02 0. -1.
    10030    2    1    2    0    0  0.00000000000E+00  0.00000000000E+00  0.14837507332E+03  0.32622547804E+04  0.32588788087E+04 0.  0.
        1    1    3    3  502    0 -0.13516874490E+04 -0.52815188938E+03  0.81594732188E+03  0.16648643819E+04  0.50400001928E-02 0. -1.
       -1    1    3    3    0  502  0.13516874490E+04  0.52815188938E+03 -0.66757224856E+03  0.15973903985E+04  0.50400001928E-02 0.  1.
</event>
<event>
 5   0  0.8383008E-07  0.3183574E+04  0.7818609E-02  0.8193169E-01
       -1   -1    0    0    0  501  0.00000000000E+00  0.00000000000E+00  0.16786031488E+04  0.16786031488E+04  0.50400001928E-02 0. -1.
        1   -1    0    0  501    0  0.00000000000E+00  0.00000000000E+00 -0.15094605621E+04  0.15094605621E+04  0.50400001928E-02 0.  1.
    10030    2    1    2    0    0  0.00000000000E+00  0.00000000000E+00  0.16914258669E+03  0.31880637109E+04  0.31835736225E+04 0.  0.
        4    1    3    3  502    0 -0.12061701263E+03 -0.13040318967E+03 -0.14995036464E+04  0.15099888258E+04  0.12699999809E+01 0.  1.
       -4    1    3    3    0  502  0.12061701263E+03  0.13040318967E+03  0.16686462331E+04  0.16780748851E+04  0.12699999809E+01 0. -1.
</event>
<event>
 5   0  0.8681172E-07  0.3195639E+04  0.7818609E-02  0.8189970E-01
       -1   -1    0    0    0  501  0.00000000000E+00  0.00000000000E+00  0.13666369195E+04  0.13666369195E+04  0.50400001928E-02 0. -1.
        1   -1    0    0  501    0  0.00000000000E+00  0.00000000000E+00 -0.18681090004E+04  0.18681090004E+04  0.50400001928E-02 0.  1.
    10030    2    1    2    0    0  0.00000000000E+00  0.00000000000E+00 -0.50147208090E+03  0.32347459198E+04  0.31956387340E+04 0.  0.
        1    1    3    3  502    0 -0.83056191552E+03  0.12180739925E+04  0.37282979423E+03  0.15207035879E+04  0.50400001928E-02 0. -1.
       -1    1    3    3    0  502  0.83056191552E+03 -0.12180739925E+04 -0.87430187513E+03  0.17140423319E+04  0.50400001928E-02 0.  1.
</event>
<event>
 5   0  0.2404430E-06  0.3123433E+04  0.7818609E-02  0.8209336E-01
        2   -1    0    0  501    0  0.00000000000E+00  0.00000000000E+00  0.16998979158E+04  0.16998979158E+04  0.25500000920E-02 0.  1.
       -2   -1    0    0    0  501  0.00000000000E+00  0.00000000000E+00 -0.14347675790E+04  0.14347675790E+04  0.25500000920E-02 0. -1.
    10030    2    1    2    0    0  0.00000000000E+00  0.00000000000E+00  0.26513033682E+03  0.31346654948E+04  0.31234329941E+04 0.  0.
        4    1    3    3  502    0  0.10809581787E+04 -0.40711353369E+03  0.11874134288E+04  0.16565519241E+04  0.12699999809E+01 0.  1.
       -4    1    3    3    0  502 -0.10809581787E+04  0.40711353369E+03 -0.92228309194E+03  0.14781135707E+04  0.12699999809E+01 0. -1.
</event>
<event>
 5   0  0.8512855E-07  0.3296815E+04  0.7818609E-02  0.8163706E-01
       -1   -1    0    0    0  501  0.00000000000E+00  0.00000000000E+00  0.14516919066E+04  0.14516919066E+04  0.50400001928E-02 0.  1.
        1   -1    0    0  501    0  0.00000000000E+00  0.00000000000E+00 -0.18717791002E+04  0.18717791002E+04  0.50400001928E-02 0. -1.
    10030    2    1    2    0    0  0.00000000000E+00  0.00000000000E+00 -0.42008719363E+03  0.33234710068E+04  0.32968145660E+04 0.  0.
        5    1    3    3  502    0 -0.59256377205E+03 -0.12531201163E+04 -0.11093229077E+04  0.17754045323E+04  0.46999998093E+01 0. -1.
       -5    1    3    3    0  502  0.59256377205E+03  0.12531201163E+04  0.68923571406E+03  0.15480664745E+04  0.46999998093E+01 0.  1.
</event>
<event>
 5   0  0.8512855E-07  0.3204926E+04  0.7818609E-02  0.8187517E-01
       -1   -1    0    0    0  501  0.00000000000E+00  0.00000000000E+00  0.12421280160E+04  0.12421280160E+04  0.50400001928E-02 0.  1.
        1   -1    0    0  501    0  0.00000000000E+00  0.00000000000E+00 -0.20673298661E+04  0.20673298661E+04  0.50400001928E-02 0. -1.
    10030    2    1    2    0    0  0.00000000000E+00  0.00000000000E+00 -0.82520185011E+03  0.33094578821E+04  0.32049264235E+04 0.  0.
        5    1    3    3  502    0  0.82034899777E+03 -0.13346981571E+04 -0.76044782492E+03  0.17414633597E+04  0.46999998093E+01 0. -1.
       -5    1    3    3    0  502 -0.82034899777E+03  0.13346981571E+04 -0.64754025191E+02  0.15679945225E+04  0.46999998093E+01 0.  1.
</event>
<event>
 5   0  0.8487944E-07  0.3179370E+04  0.7818609E-02  0.8194287E-01
       -1   -1    0    0    0  501  0.00000000000E+00  0.00000000000E+00  0.16092372329E+04  0.16092372329E+04  0.50400001928E-02 0.  1.
        1   -1    0    0  501    0  0.00000000000E+00  0.00000000000E+00 -0.15703706938E+04  0.15703706939E+04  0.50400001928E-02 0. -1.
    10030    2    1    2    0    0  0.00000000000E+00  0.00000000000E+00  0.38866539038E+02  0.31796079267E+04  0.31793703716E+04 0.  0.
        2    1    3    3  502    0 -0.50470749726E+03 -0.30018892890E+03  0.14967897118E+04  0.16078627093E+04  0.25500000920E-02 0.  1.
       -2    1    3    3    0  502  0.50470749726E+03  0.30018892890E+03 -0.14579231727E+04  0.15717452174E+04  0.25500000920E-02 0. -1.
</event>
<event>
 5   0  0.2337504E-06  0.3201399E+04  0.7818609E-02  0.8188448E-01
       -2   -1    0    0    0  501  0.00000000000E+00  0.00000000000E+00  0.23896104559E+04  0.23896104559E+04  0.25500000920E-02 0.  1.
        2   -1    0    0  501    0  0.00000000000E+00  0.00000000000E+00 -0.10722413677E+04  0.10722413677E+04  0.25500000920E-02 0. -1.
    10030    2    1    2    0    0  0.00000000000E+00  0.00000000000E+00  0.13173690882E+04  0.34618518237E+04  0.32013991838E+04 0.  0.
        1    1    3    3  502    0  0.64671270168E+03  0.67941883558E+03  0.20612793649E+04  0.22646677224E+04  0.50400001928E-02 0.  1.
       -1    1    3    3    0  502 -0.64671270168E+03 -0.67941883558E+03 -0.74391027663E+03  0.11971841013E+04  0.50400001928E-02 0. -1.
</event>
<event>
 5   0  0.8383008E-07  0.3208806E+04  0.7818609E-02  0.8186495E-01
       -1   -1    0    0    0  501  0.00000000000E+00  0.00000000000E+00  0.11810236825E+04  0.11810236825E+04  0.50400001928E-02 0.  1.
        1   -1    0    0  501    0  0.00000000000E+00  0.00000000000E+00 -0.21795577133E+04  0.21795577133E+04  0.50400001928E-02 0. -1.
    10030    2    1    2    0    0  0.00000000000E+00  0.00000000000E+00 -0.99853403078E+03  0.33605813958E+04  0.32088061810E+04 0.  0.
        4    1    3    3  502    0  0.83263743864E+03 -0.54737609794E+03  0.81766879194E+03  0.12889878056E+04  0.12699999809E+01 0.  1.
       -4    1    3    3    0  502 -0.83263743864E+03  0.54737609794E+03 -0.18162028227E+04  0.20715935902E+04  0.12699999809E+01 0. -1.
</event>
<event>
 5   0  0.2337504E-06  0.3240675E+04  0.7818609E-02  0.8178157E-01
        2   -1    0    0  501    0  0.00000000000E+00  0.00000000000E+00  0.22515422052E+04  0.22515422052E+04  0.25500000920E-02 0. -1.
       -2   -1    0    0    0  501  0.00000000000E+00  0.00000000000E+00 -0.11660869607E+04  0.11660869607E+04  0.25500000920E-02 0.  1.
    10030    2    1    2    0    0  0.00000000000E+00  0.00000000000E+00  0.10854552445E+04  0.34176291658E+04  0.32406752425E+04 0.  0.
        1    1    3    3  502    0 -0.24095667024E+03  0.19932485805E+03  0.22194165255E+04  0.22413389368E+04  0.50400001928E-02 0. -1.
       -1    1    3    3    0  502  0.24095667024E+03 -0.19932485805E+03 -0.11339612810E+04  0.11762902290E+04  0.50400001928E-02 0.  1.
</event>
<event>
 5   0  0.2466076E-06  0.3177410E+04  0.7818609E-02  0.8194809E-01
       -2   -1    0    0    0  501  0.00000000000E+00  0.00000000000E+00  0.92311628514E+03  0.92311628514E+03  0.25500000920E-02 0. -1.
        2   -1    0    0  501    0  0.00000000000E+00  0.00000000000E+00 -0.27341987619E+04  0.27341987619E+04  0.25500000920E-02 0.  1.
    10030    2    1    2    0    0  0.00000000000E+00  0.00000000000E+00 -0.18110824768E+04  0.36573150470E+04  0.31774098910E+04 0.  0.
        3    1    3    3  502    0 -0.80978424975E+03 -0.86162438412E+03  0.31577111546E+03  0.12238703028E+04  0.10100000352E+00 0. -1.
       -3    1    3    3    0  502  0.80978424975E+03  0.86162438412E+03 -0.21268535922E+04  0.24334447443E+04  0.10100000352E+00 0.  1.
</event>
<event>
 5   0  0.2466076E-06  0.3167430E+04  0.7818609E-02  0.8197472E-01
       -2   -1    0    0    0  501  0.00000000000E+00  0.00000000000E+00  0.12622751455E+04  0.12622751455E+04  0.25500000920E-02 0.  1.
        2   -1    0    0  501    0  0.00000000000E+00  0.00000000000E+00 -0.19870096516E+04  0.19870096516E+04  0.25500000920E-02 0. -1.
    10030    2    1    2    0    0  0.00000000000E+00  0.00000000000E+00 -0.72473450615E+03  0.32492847971E+04  0.31674298080E+04 0.  0.
        3    1    3    3  502    0  0.96177158171E+03 -0.73158282965E+03  0.68777449965E+03  0.13904142493E+04  0.10100000352E+00 0.  1.
       -3    1    3    3    0  502 -0.96177158171E+03  0.73158282965E+03 -0.14125090058E+04  0.18588705479E+04  0.10100000352E+00 0. -1.
</event>
<event>
 5   0  0.8681172E-07  0.3197911E+04  0.7818609E-02  0.8189369E-01
       -1   -1    0    0    0  501  0.00000000000E+00  0.00000000000E+00  0.11073039359E+04  0.11073039359E+04  0.50400001928E-02 0. -1.
        1   -1    0    0  501    0  0.00000000000E+00  0.00000000000E+00 -0.23089038816E+04  0.23089038816E+04  0.50400001928E-02 0.  1.
    10030    2    1    2    0    0  0.00000000000E+00  0.00000000000E+00 -0.12015999457E+04  0.34162078175E+04  0.31979107903E+04 0.  0.
        1    1    3    3  502    0  0.12205053804E+04  0.10000195900E+04 -0.32431643067E+03  0.16108549628E+04  0.50400001928E-02 0. -1.
       -1    1    3    3    0  502 -0.12205053804E+04 -0.10000195900E+04 -0.87728351507E+03  0.18053528547E+04  0.50400001928E-02 0.  1.
</event>
<event>
 5   0  0.8512855E-07  0.3205390E+04  0.7818609E-02  0.8187395E-01
       -1   -1    0    0    0  501  0.00000000000E+00  0.00000000000E+00  0.15147927620E+04  0.15147927620E+04  0.50400001928E-02 0. -1.
        1   -1    0    0  501    0  0.00000000000E+00  0.00000000000E+00 -0.16956976869E+04  0.16956976869E+04  0.50400001928E-02 0.  1.
    10030    2    1    2    0    0  0.00000000000E+00  0.00000000000E+00 -0.18090492493E+03  0.32104904489E+04  0.32053895755E+04 0.  0.
        5    1    3    3  502    0  0.12985089803E+04 -0.36588420565E+03 -0.95705280867E+03  0.16540764772E+04  0.46999998093E+01 0.  1.
       -5    1    3    3    0  502 -0.12985089803E+04  0.36588420565E+03  0.77614788374E+03  0.15564139717E+04  0.46999998093E+01 0. -1.
</event>
<event>
 5   0  0.2466076E-06  0.3191568E+04  0.7818609E-02  0.8191047E-01
       -2   -1    0    0    0  501  0.00000000000E+00  0.00000000000E+00  0.13525626033E+04  0.13525626033E+04  0.25500000920E-02 0. -1.
        2   -1    0    0  501    0  0.00000000000E+00  0.00000000000E+00 -0.18827426100E+04  0.18827426100E+04  0.25500000920E-02 0.  1.
    10030    2    1    2    0    0  0.00000000000E+00  0.00000000000E+00 -0.53018000678E+03  0.32353052133E+04  0.31915684207E+04 0.  0.
        3    1    3    3  502    0  0.13602033180E+04 -0.50546958534E+03 -0.93817307965E+03  0.17279529234E+04  0.10100000352E+00 0.  1.
       -3    1    3    3    0  502 -0.13602033180E+04  0.50546958534E+03  0.40799307287E+03  0.15073522899E+04  0.10100000352E+00 0. -1.
</event>
<event>
 5   0  0.8512855E-07  0.3220878E+04  0.7818609E-02  0.8183325E-01
       -1   -1    0    0    0  501  0.00000000000E+00  0.00000000000E+00  0.10806381786E+04  0.10806381786E+04  0.50400001928E-02 0.  1.
        1   -1    0    0  501    0  0.00000000000E+00  0.00000000000E+00 -0.23999834205E+04  0.23999834206E+04  0.50400001928E-02 0. -1.
    10030    2    1    2    0    0  0.00000000000E+00  0.00000000000E+00 -0.13193452420E+04  0.34806215991E+04  0.32208779624E+04 0.  0.
        5    1    3    3  502    0  0.13251614470E+03 -0.13090496356E+04 -0.16631713043E+04  0.21206914803E+04  0.46999998093E+01 0. -1.
       -5    1    3    3    0  502 -0.13251614470E+03  0.13090496356E+04  0.34382606231E+03  0.13599301189E+04  0.46999998093E+01 0.  1.
</event>
<event>
 5   0  0.2621528E-06  0.3213076E+04  0.7818609E-02  0.8185372E-01
        2   -1    0    0  501    0  0.00000000000E+00  0.00000000000E+00  0.25871999814E+04  0.25871999814E+04  0.25500000920E-02 0.  1.
       -2   -1    0    0    0  501  0.00000000000E+00  0.00000000000E+00 -0.99758963264E+03  0.99758963265E+03  0.25500000920E-02 0. -1.
    10030    2    1    2    0    0  0.00000000000E+00  0.00000000000E+00  0.15896103488E+04  0.35847896141E+04  0.32130757097E+04 0.  0.
        2    1    3    3  502    0 -0.54960961217E+03  0.79719756899E+03  0.22250496662E+04  0.24266109508E+04  0.25500000920E-02 0.  1.
       -2    1    3    3    0  502  0.54960961217E+03 -0.79719756899E+03 -0.63543931741E+03  0.11581786632E+04  0.25500000920E-02 0. -1.
</event>
<event>
 5   0  0.8545153E-07  0.3205180E+04  0.7818609E-02  0.8187451E-01
       -1   -1    0    0    0  501  0.00000000000E+00  0.00000000000E+00  0.17521746818E+04  0.17521746818E+04  0.50400001928E-02 0. -1.
        1   -1    0    0  501    0  0.00000000000E+00  0.00000000000E+00 -0.14657752714E+04  0.14657752714E+04  0.50400001928E-02 0.  1.
    10030    2    1    2    0    0  0.00000000000E+00  0.00000000000E+00  0.28639941037E+03  0.32179499532E+04  0.32051797576E+04 0.  0.
        3    1    3    3  502    0 -0.19513607021E+03 -0.13947302339E+03 -0.14476523649E+04  0.14673882206E+04  0.10100000352E+00 0.  1.
       -3    1    3    3    0  502  0.19513607021E+03  0.13947302339E+03  0.17340517753E+04  0.17505617326E+04  0.10100000352E+00 0. -1.
</event>
<event>
 5   0  0.8681172E-07  0.3205544E+04  0.7818609E-02  0.8187355E-01
       -1   -1    0    0    0  501  0.00000000000E+00  0.00000000000E+00  0.18686124830E+04  0.18686124830E+04  0.50400001928E-02 0.  1.
        1   -1    0    0  501    0  0.00000000000E+00  0.00000000000E+00 -0.13747516846E+04  0.13747516846E+04  0.50400001928E-02 0. -1.
    10030    2    1    2    0    0  0.00000000000E+00  0.00000000000E+00  0.49386079840E+03  0.32433641677E+04  0.32055440468E+04 0.  0.
        1    1    3    3  502    0 -0.26401435793E+03 -0.39282062895E+03 -0.13024320622E+04  0.13857636539E+04  0.50400001928E-02 0. -1.
       -1    1    3    3    0  502  0.26401435793E+03  0.39282062895E+03  0.17962928606E+04  0.18576005138E+04  0.50400001928E-02 0.  1.
</event>
<event>
 5   0  0.8383008E-07  0.3166360E+04  0.7818609E-02  0.8197758E-01
       -1   -1    0    0    0  501  0.00000000000E+00  0.00000000000E+00  0.20479809237E+04  0.20479809237E+04  0.50400001928E-02 0.  1.
        1   -1    0    0  501    0  0.00000000000E+00  0.00000000000E+00 -0.12238682639E+04  0.12238682639E+04  0.50400001928E-02 0. -1.
    10030    2    1    2    0    0  0.00000000000E+00  0.00000000000E+00  0.82411265975E+03  0.32718491876E+04  0.31663599654E+04 0.  0.
        4    1    3    3  502    0 -0.82772587629E+03 -0.11193638356E+04 -0.36695106696E+03  0.14397083806E+04  0.12699999809E+01 0. -1.
       -4    1    3    3    0  502  0.82772587629E+03  0.11193638356E+04  0.11910637267E+04  0.18321408070E+04  0.12699999809E+01 0.  1.
</event>
<event>
 5   0  0.2404430E-06  0.3202995E+04  0.7818609E-02  0.8188027E-01
       -2   -1    0    0    0  501  0.00000000000E+00  0.00000000000E+00  0.21049866573E+04  0.21049866573E+04  0.25500000920E-02 0.  1.
        2   -1    0    0  501    0  0.00000000000E+00  0.00000000000E+00 -0.12184374898E+04  0.12184374898E+04  0.25500000920E-02 0. -1.
    10030    2    1    2    0    0  0.00000000000E+00  0.00000000000E+00  0.88654916757E+03  0.33234241471E+04  0.32029952599E+04 0.  0.
        4    1    3    3  502    0  0.10228027287E+04 -0.11227428739E+04  0.97042795878E+03  0.18023343249E+04  0.12699999809E+01 0.  1.
       -4    1    3    3    0  502 -0.10228027287E+04  0.11227428739E+04 -0.83878791205E+02  0.15210898222E+04  0.12699999809E+01 0. -1.
</event>
<event>
 5   0  0.8545153E-07  0.3221165E+04  0.7818609E-02  0.8183250E-01
        1   -1    0    0  501    0  0.00000000000E+00  0.00000000000E+00  0.22697665627E+04  0.22697665627E+04  0.50400001928E-02 0.  1.
       -1   -1    0    0    0  501  0.00000000000E+00  0.00000000000E+00 -0.11428379138E+04  0.11428379138E+04  0.50400001928E-02 0. -1.
    10030    2    1    2    0    0  0.00000000000E+00  0.00000000000E+00  0.11269286489E+04  0.34126044765E+04  0.32211645617E+04 0.  0.
        3    1    3    3  502    0 -0.13518738995E+04 -0.85972070868E+03  0.73848727083E+03  0.17640992592E+04  0.10100000352E+00 0.  1.
       -3    1    3    3    0  502  0.13518738995E+04  0.85972070868E+03  0.38844137806E+03  0.16485052173E+04  0.10100000352E+00 0. -1.
</event>
<event>
 5   0  0.8512855E-07  0.3197317E+04  0.7818609E-02  0.8189526E-01
        1   -1    0    0  501    0  0.00000000000E+00  0.00000000000E+00  0.16314800502E+04  0.16314800502E+04  0.50400001928E-02 0. -1.
       -1   -1    0    0    0  501  0.00000000000E+00  0.00000000000E+00 -0.15664967791E+04  0.15664967791E+04  0.50400001928E-02 0.  1.
    10030    2    1    2    0    0  0.00000000000E+00  0.00000000000E+00  0.64983271089E+02  0.31979768293E+04  0.31973165272E+04 0.  0.
        5    1    3    3  502    0  0.97185310215E+03  0.83678674941E+03  0.98713918387E+03  0.16183869669E+04  0.46999998093E+01 0.  1.
       -5    1    3    3    0  502 -0.97185310215E+03 -0.83678674941E+03 -0.92215591278E+03  0.15795898625E+04  0.46999998093E+01 0. -1.
</event>
<event>
 5   0  0.8383008E-07  0.3088470E+04  0.7818609E-02  0.8218909E-01
        1   -1    0    0  501    0  0.00000000000E+00  0.00000000000E+00  0.93956998550E+03  0.93956998551E+03  0.50400001928E-02 0. -1.
       -1   -1    0    0    0  501  0.00000000000E+00  0.00000000000E+00 -0.25380355227E+04  0.25380355227E+04  0.50400001928E-02 0.  1.
    10030    2    1    2    0    0  0.00000000000E+00  0.00000000000E+00 -0.15984655372E+04  0.34776055082E+04  0.30884701710E+04 0.  0.
        4    1    3    3  502    0 -0.77259601427E+02 -0.51804902490E+02  0.93641188918E+03  0.94102159010E+03  0.12699999809E+01 0. -1.
       -4    1    3    3    0  502  0.77259601427E+02  0.51804902490E+02 -0.25348774264E+04  0.25365839181E+04  0.12699999809E+01 0.  1.
</event>
<event>
 5   0  0.2621528E-06  0.3198800E+04  0.7818609E-02  0.8189134E-01
       -2   -1    0    0    0  501  0.00000000000E+00  0.00000000000E+00  0.16682496256E+04  0.16682496256E+04  0.25500000920E-02 0. -1.
        2   -1    0    0  501    0  0.00000000000E+00  0.00000000000E+00 -0.15333922578E+04  0.15333922578E+04  0.25500000920E-02 0.  1.
    10030    2    1    2    0    0  0.00000000000E+00  0.00000000000E+00  0.13485736776E+03  0.32016418834E+04  0.31988004377E+04 0.  0.
        2    1    3    3  502    0  0.15813073425E+03 -0.72886476958E+03  0.14835465645E+04  0.16604696897E+04  0.25500000920E-02 0. -1.
       -2    1    3    3    0  502 -0.15813073425E+03  0.72886476958E+03 -0.13486891967E+04  0.15411721937E+04  0.25500000920E-02 0.  1.
</event>
<event>
 5   0  0.2404430E-06  0.3161926E+04  0.7818609E-02  0.8198945E-01
        2   -1    0    0  501    0  0.00000000000E+00  0.00000000000E+00  0.22463784001E+04  0.22463784001E+04  0.25500000920E-02 0.  1.
       -2   -1    0    0    0  501  0.00000000000E+00  0.00000000000E+00 -0.11126547188E+04  0.11126547188E+04  0.25500000920E-02 0. -1.
    10030    2    1    2    0    0  0.00000000000E+00  0.00000000000E+00  0.11337236813E+04  0.33590331188E+04  0.31619256961E+04 0.  0.
        4    1    3    3  502    0 -0.57816706325E+03 -0.10088017206E+04  0.17048452139E+04  0.20636028883E+04  0.12699999809E+01 0.  1.
       -4    1    3    3    0  502  0.57816706325E+03  0.10088017206E+04 -0.57112153255E+03  0.12954302306E+04  0.12699999809E+01 0. -1.
</event>
<event>
 5   0  0.2404430E-06  0.3143737E+04  0.7818609E-02  0.8203836E-01
       -2   -1    0    0    0  501  0.00000000000E+00  0.00000000000E+00  0.14228548904E+04  0.14228548904E+04  0.25500000920E-02 0.  1.
        2   -1    0    0  501    0  0.00000000000E+00  0.00000000000E+00 -0.17364876312E+04  0.17364876312E+04  0.25500000920E-02 0. -1.
    10030    2    1    2    0    0  0.00000000000E+00  0.00000000000E+00 -0.31363274082E+03  0.31593425216E+04  0.31437365782E+04 0.  0.
        4    1    3    3  502    0  0.87385714132E+03  0.12313779849E+04 -0.59584914539E+03  0.16232547126E+04  0.12699999809E+01 0. -1.
       -4    1    3    3    0  502 -0.87385714132E+03 -0.12313779849E+04  0.28221640457E+03  0.15360878090E+04  0.12699999809E+01 0.  1.
</event>
<event>
 5   0  0.8383008E-07  0.3163350E+04  0.7818609E-02  0.8198564E-01
        1   -1    0    0  501    0  0.00000000000E+00  0.00000000000E+00  0.12272029005E+04  0.12272029005E+04  0.50400001928E-02 0.  1.
       -1   -1    0    0    0  501  0.00000000000E+00  0.00000000000E+00 -0.20385351332E+04  0.20385351332E+04  0.50400001928E-02 0. -1.
    10030    2    1    2    0    0  0.00000000000E+00  0.00000000000E+00 -0.81133223269E+03  0.32657380337E+04  0.31633502672E+04 0.  0.
        4    1    3    3  502    0  0.51339594545E+03 -0.52863757148E+03 -0.18504861640E+04  0.19918166921E+04  0.12699999809E+01 0. -1.
       -4    1    3    3    0  502 -0.51339594545E+03  0.52863757148E+03  0.10391539313E+04  0.12739213416E+04  0.12699999809E+01 0.  1.
</event>
<event>
 5   0  0.2621528E-06  0.3129088E+04  0.7818609E-02  0.8207800E-01
        2   -1    0    0  501    0  0.00000000000E+00  0.00000000000E+00  0.20015284397E+04  0.20015284397E+04  0.25500000920E-02 0.  1.
       -2   -1    0    0    0  501  0.00000000000E+00  0.00000000000E+00 -0.12229644260E+04  0.12229644260E+04  0.25500000920E-02 0. -1.
    10030    2    1    2    0    0  0.00000000000E+00  0.00000000000E+00  0.77856401363E+03  0.32244928657E+04  0.31290880968E+04 0.  0.
        2    1    3    3  502    0  0.23422947717E+02 -0.15211133782E+04  0.76574729848E+03  0.17031451697E+04  0.25500000920E-02 0. -1.
       -2    1    3    3    0  502 -0.23422947717E+02  0.15211133782E+04  0.12816715154E+02  0.15213476960E+04  0.25500000920E-02 0.  1.
</event>
<event>
 5   0  0.2404430E-06  0.3237035E+04  0.7818609E-02  0.8179104E-01
        2   -1    0    0  501    0  0.00000000000E+00  0.00000000000E+00  0.23641921383E+04  0.23641921383E+04  0.25500000920E-02 0.  1.
       -2   -1    0    0    0  501  0.00000000000E+00  0.00000000000E+00 -0.11080314502E+04  0.11080314502E+04  0.25500000920E-02 0. -1.
    10030    2    1    2    0    0  0.00000000000E+00  0.00000000000E+00  0.12561606881E+04  0.34722235885E+04  0.32370352136E+04 0.  0.
        4    1    3    3  502    0 -0.10304470951E+04  0.18915006218E+03 -0.69524733250E+03  0.12573660677E+04  0.12699999809E+01 0. -1.
       -4    1    3    3    0  502  0.10304470951E+04 -0.18915006218E+03  0.19514080206E+04  0.22148575209E+04  0.12699999809E+01 0.  1.
</event>
<event>
 5   0  0.2401139E-06  0.3195952E+04  0.7818609E-02  0.8189887E-01
       -2   -1    0    0    0  501  0.00000000000E+00  0.00000000000E+00  0.24072144995E+04  0.24072144995E+04  0.25500000920E-02 0.  1.
        2   -1    0    0  501    0  0.00000000000E+00  0.00000000000E+00 -0.10607808940E+04  0.10607808940E+04  0.25500000920E-02 0. -1.
    10030    2    1    2    0    0  0.00000000000E+00  0.00000000000E+00  0.13464336055E+04  0.34679953935E+04  0.31959519075E+04 0.  0.
        5    1    3    3  502    0  0.85368764113E+03  0.13486022245E+04  0.58920213103E+03  0.17013793785E+04  0.46999998093E+01 0. -1.
       -5    1    3    3    0  502 -0.85368764113E+03 -0.13486022245E+04  0.75723147445E+03  0.17666160150E+04  0.46999998093E+01 0.  1.
</event>
<event>
 5   0  0.8487944E-07  0.3217437E+04  0.7818609E-02  0.8184227E-01
        1   -1    0    0  501    0  0.00000000000E+00  0.00000000000E+00  0.13549157454E+04  0.13549157454E+04  0.50400001928E-02 0. -1.
       -1   -1    0    0    0  501  0.00000000000E+00  0.00000000000E+00 -0.19100640501E+04  0.19100640501E+04  0.50400001928E-02 0.  1.
    10030    2    1    2    0    0  0.00000000000E+00  0.00000000000E+00 -0.55514830464E+03  0.32649797955E+04  0.32174374003E+04 0.  0.
        2    1    3    3  502    0 -0.35960903665E+03  0.15074284561E+04  0.16044814825E+03  0.15580124575E+04  0.25500000920E-02 0. -1.
       -2    1    3    3    0  502  0.35960903665E+03 -0.15074284561E+04 -0.71559645289E+03  0.17069673380E+04  0.25500000920E-02 0.  1.
</event>
<event>
 5   0  0.2401139E-06  0.3180097E+04  0.7818609E-02  0.8194093E-01
        2   -1    0    0  501    0  0.00000000000E+00  0.00000000000E+00  0.19203500391E+04  0.19203500391E+04  0.25500000920E-02 0. -1.
       -2   -1    0    0    0  501  0.00000000000E+00  0.00000000000E+00 -0.13165593504E+04  0.13165593504E+04  0.25500000920E-02 0.  1.
    10030    2    1    2    0    0  0.00000000000E+00  0.00000000000E+00  0.60379068873E+03  0.32369093895E+04  0.31800973570E+04 0.  0.
        5    1    3    3  502    0 -0.45869902551E+02  0.11430963187E+04 -0.82212406732E+03  0.14087878882E+04  0.46999998093E+01 0.  1.
       -5    1    3    3    0  502  0.45869902551E+02 -0.11430963187E+04  0.14259147561E+04  0.18281215013E+04  0.46999998093E+01 0. -1.
</event>
<event>
 5   0  0.7934375E-07  0.3203351E+04  0.7818609E-02  0.8187933E-01
       -3   -1    0    0    0  501  0.00000000000E+00  0.00000000000E+00  0.13143248973E+04  0.13143249012E+04  0.10100000352E+00 0.  1.
        3   -1    0    0  501    0  0.00000000000E+00  0.00000000000E+00 -0.19518490148E+04  0.19518490174E+04  0.10100000352E+00 0. -1.
    10030    2    1    2    0    0  0.00000000000E+00  0.00000000000E+00 -0.63752411748E+03  0.32661739186E+04  0.32033506000E+04 0.  0.
        2    1    3    3  502    0 -0.14978698767E+04  0.34265297931E+03 -0.77966552070E+03  0.17230506539E+04  0.25500000920E-02 0.  1.
       -2    1    3    3    0  502  0.14978698767E+04 -0.34265297931E+03  0.14214140322E+03  0.15431232647E+04  0.25500000920E-02 0. -1.
</event>
<event>
 5   0  0.8487944E-07  0.3202791E+04  0.7818609E-02  0.8188080E-01
        1   -1    0    0  501    0  0.00000000000E+00  0.00000000000E+00  0.14142137888E+04  0.14142137888E+04  0.50400001928E-02 0.  1.
       -1   -1    0    0    0  501  0.00000000000E+00  0.00000000000E+00 -0.18133525555E+04  0.18133525556E+04  0.50400001928E-02 0. -1.
    10030    2    1    2    0    0  0.00000000000E+00  0.00000000000E+00 -0.39913876679E+03  0.32275663443E+04  0.32027914000E+04 0.  0.
        2    1    3    3  502    0  0.15376885450E+04 -0.24019417820E+03  0.18056049785E+03  0.15667742014E+04  0.25500000920E-02 0.  1.
       -2    1    3    3    0  502 -0.15376885450E+04  0.24019417820E+03 -0.57969926464E+03  0.16607921430E+04  0.25500000920E-02 0. -1.
</event>
<event>
 5   0  0.2337504E-06  0.3195708E+04  0.7818609E-02  0.8189952E-01
        2   -1    0    0  501    0  0.00000000000E+00  0.00000000000E+00  0.26093995135E+04  0.26093995135E+04  0.25500000920E-02 0. -1.
       -2   -1    0    0    0  501  0.00000000000E+00  0.00000000000E+00 -0.97843867243E+03  0.97843867243E+03  0.25500000920E-02 0.  1.
    10030    2    1    2    0    0  0.00000000000E+00  0.00000000000E+00  0.16309608410E+04  0.35878381859E+04  0.31957079940E+04 0.  0.
        1    1    3    3  502    0  0.11930581503E+04  0.57534001787E+03 -0.18790251627E+03  0.13378008976E+04  0.50400001928E-02 0.  1.
       -1    1    3    3    0  502 -0.11930581503E+04 -0.57534001787E+03  0.18188633573E+04  0.22500372883E+04  0.50400001928E-02 0. -1.
</event>
<event>
 5   0  0.8383008E-07  0.3174255E+04  0.7818609E-02  0.8195650E-01
       -1   -1    0    0    0  501  0.00000000000E+00  0.00000000000E+00  0.17250817616E+04  0.17250817616E+04  0.50400001928E-02 0. -1.
        1   -1    0    0  501    0  0.00000000000E+00  0.00000000000E+00 -0.14602052914E+04  0.14602052914E+04  0.50400001928E-02 0.  1.
    10030    2    1    2    0    0  0.00000000000E+00  0.00000000000E+00  0.26487647022E+03  0.31852870531E+04  0.31742548836E+04 0.  0.
        4    1    3    3  502    0  0.64638667894E+03  0.14841334003E+03 -0.13144919121E+04  0.14723222670E+04  0.12699999809E+01 0.  1.
       -4    1    3    3    0  502 -0.64638667894E+03 -0.14841334003E+03  0.15793683823E+04  0.17129647860E+04  0.12699999809E+01 0. -1.
</event>
<event>
 5   0  0.2466076E-06  0.3185630E+04  0.7818609E-02  0.8192623E-01
        2   -1    0    0  501    0  0.00000000000E+00  0.00000000000E+00  0.17738122819E+04  0.17738122819E+04  0.25500000920E-02 0.  1.
       -2   -1    0    0    0  501  0.00000000000E+00  0.00000000000E+00 -0.14302861461E+04  0.14302861461E+04  0.25500000920E-02 0. -1.
    10030    2    1    2    0    0  0.00000000000E+00  0.00000000000E+00  0.34352613581E+03  0.32040984281E+04  0.31856296914E+04 0.  0.
        3    1    3    3  502    0 -0.29179024726E+03 -0.74425897388E+03  0.15574279881E+04  0.17506127261E+04  0.10100000352E+00 0.  1.
       -3    1    3    3    0  502  0.29179024726E+03  0.74425897388E+03 -0.12139018523E+04  0.14534857019E+04  0.10100000352E+00 0. -1.
</event>
<event>
 5   0  0.8512855E-07  0.3213080E+04  0.7818609E-02  0.8185371E-01
        1   -1    0    0  501    0  0.00000000000E+00  0.00000000000E+00  0.12746690031E+04  0.12746690031E+04  0.50400001928E-02 0. -1.
       -1   -1    0    0    0  501  0.00000000000E+00  0.00000000000E+00 -0.20248162517E+04  0.20248162517E+04  0.50400001928E-02 0.  1.
    10030    2    1    2    0    0  0.00000000000E+00  0.00000000000E+00 -0.75014724863E+03  0.32994852549E+04  0.32130798391E+04 0.  0.
        5    1    3    3  502    0  0.13575933496E+04  0.42462667297E+03  0.39172022838E+03  0.14754098893E+04  0.46999998093E+01 0. -1.
       -5    1    3    3    0  502 -0.13575933496E+04 -0.42462667297E+03 -0.11418674770E+04  0.18240753656E+04  0.46999998093E+01 0.  1.
</event>
<event>
 5   0  0.8545153E-07  0.2970697E+04  0.7818609E-02  0.8252148E-01
       -1   -1    0    0    0  501  0.00000000000E+00  0.00000000000E+00  0.10754290918E+04  0.10754290919E+04  0.50400001928E-02 0. -1.
        1   -1    0    0  501    0  0.00000000000E+00  0.00000000000E+00 -0.20515162850E+04  0.20515162850E+04  0.50400001928E-02 0.  1.
    10030    2    1    2    0    0  0.00000000000E+00  0.00000000000E+00 -0.97608719311E+03  0.31269453768E+04  0.29706970867E+04 0.  0.
        3    1    3    3  502    0 -0.12249648610E+04 -0.83859192196E+03 -0.54051490313E+03  0.15798517946E+04  0.10100000352E+00 0. -1.
       -3    1    3    3    0  502  0.12249648610E+04  0.83859192196E+03 -0.43557228998E+03  0.15470935822E+04  0.10100000352E+00 0.  1.
</event>
<event>
 5   0  0.7934375E-07  0.3435249E+04  0.7818609E-02  0.8129309E-01
        3   -1    0    0  501    0  0.00000000000E+00  0.00000000000E+00  0.16853811624E+04  0.16853811654E+04  0.10100000352E+00 0. -1.
       -3   -1    0    0    0  501  0.00000000000E+00  0.00000000000E+00 -0.17504842437E+04  0.17504842466E+04  0.10100000352E+00 0.  1.
    10030    2    1    2    0    0  0.00000000000E+00  0.00000000000E+00 -0.65103081301E+02  0.34358654119E+04  0.34352485671E+04 0.  0.
        5    1    3    3  502    0 -0.46916376016E+03 -0.16479019741E+04  0.87950545122E+02  0.17156494218E+04  0.46999998093E+01 0. -1.
       -5    1    3    3    0  502  0.46916376016E+03  0.16479019741E+04 -0.15305362642E+03  0.17202159901E+04  0.46999998093E+01 0.  1.
</event>
<event>
 5   0  0.2621528E-06  0.3183778E+04  0.7818609E-02  0.8193115E-01
       -2   -1    0    0    0  501  0.00000000000E+00  0.00000000000E+00  0.11868796727E+04  0.11868796727E+04  0.25500000920E-02 0. -1.
        2   -1    0    0  501    0  0.00000000000E+00  0.00000000000E+00 -0.21351028376E+04  0.21351028376E+04  0.25500000920E-02 0.  1.
    10030    2    1    2    0    0  0.00000000000E+00  0.00000000000E+00 -0.94822316488E+03  0.33219825102E+04  0.31837777290E+04 0.  0.
        2    1    3    3  502    0 -0.31145100973E+03  0.14332578467E+04 -0.11197452241E+04  0.18452802371E+04  0.25500000920E-02 0.  1.
       -2    1    3    3    0  502  0.31145100973E+03 -0.14332578467E+04  0.17152205918E+03  0.14767022731E+04  0.25500000920E-02 0. -1.
</event>
<event>
 5   0  0.2401139E-06  0.3149838E+04  0.7818609E-02  0.8202192E-01
        2   -1    0    0  501    0  0.00000000000E+00  0.00000000000E+00  0.13231300059E+04  0.13231300059E+04  0.25500000920E-02 0. -1.
       -2   -1    0    0    0  501  0.00000000000E+00  0.00000000000E+00 -0.18746224838E+04  0.18746224838E+04  0.25500000920E-02 0.  1.
    10030    2    1    2    0    0  0.00000000000E+00  0.00000000000E+00 -0.55149247790E+03  0.31977524898E+04  0.31498376201E+04 0.  0.
        5    1    3    3  502    0  0.10197830552E+04  0.14876431925E+03 -0.14847688794E+04  0.18073873457E+04  0.46999998093E+01 0.  1.
       -5    1    3    3    0  502 -0.10197830552E+04 -0.14876431925E+03  0.93327640147E+03  0.13903651441E+04  0.46999998093E+01 0. -1.
</event>
<event>
 5   0  0.8383008E-07  0.3201402E+04  0.7818609E-02  0.8188447E-01
       -1   -1    0    0    0  501  0.00000000000E+00  0.00000000000E+00  0.11122651815E+04  0.11122651815E+04  0.50400001928E-02 0. -1.
        1   -1    0    0  501    0  0.00000000000E+00  0.00000000000E+00 -0.23036270495E+04  0.23036270495E+04  0.50400001928E-02 0.  1.
    10030    2    1    2    0    0  0.00000000000E+00  0.00000000000E+00 -0.11913618680E+04  0.34158922310E+04  0.32014022917E+04 0.  0.
        4    1    3    3  502    0  0.47910994470E+03 -0.15224682040E+04 -0.72542892099E+03  0.17531983640E+04  0.12699999809E+01 0. -1.
       -4    1    3    3    0  502 -0.47910994470E+03  0.15224682040E+04 -0.46593294702E+03  0.16626938670E+04  0.12699999809E+01 0.  1.
</event>
<event>
 5   0  0.2404430E-06  0.3249215E+04  0.7818609E-02  0.8175939E-01
       -2   -1    0    0    0  501  0.00000000000E+00  0.00000000000E+00  0.12478624942E+04  0.12478624942E+04  0.25500000920E-02 0.  1.
        2   -1    0    0  501    0  0.00000000000E+00  0.00000000000E+00 -0.21150967611E+04  0.21150967611E+04  0.25500000920E-02 0. -1.
    10030    2    1    2    0    0  0.00000000000E+00  0.00000000000E+00 -0.86723426690E+03  0.33629592554E+04  0.32492152406E+04 0.  0.
        4    1    3    3  502    0  0.14070826645E+04  0.36942520362E+03 -0.11821149239E+04  0.18745009768E+04  0.12699999809E+01 0. -1.
       -4    1    3    3    0  502 -0.14070826645E+04 -0.36942520362E+03  0.31488065703E+03  0.14884582786E+04  0.12699999809E+01 0.  1.
</event>
<event>
 5   0  0.8512855E-07  0.2940480E+04  0.7818609E-02  0.8260934E-01
       -1   -1    0    0    0  501  0.00000000000E+00  0.00000000000E+00  0.12083286776E+04  0.12083286776E+04  0.50400001928E-02 0.  1.
        1   -1    0    0  501    0  0.00000000000E+00  0.00000000000E+00 -0.17889222369E+04  0.17889222369E+04  0.50400001928E-02 0. -1.
    10030    2    1    2    0    0  0.00000000000E+00  0.00000000000E+00 -0.58059355938E+03  0.29972509145E+04  0.29404802607E+04 0.  0.
        5    1    3    3  502    0  0.21736945958E+03 -0.29150991838E+03  0.11617613400E+04  0.12173491757E+04  0.46999998093E+01 0.  1.
       -5    1    3    3    0  502 -0.21736945958E+03  0.29150991838E+03 -0.17423548994E+04  0.17799017388E+04  0.46999998093E+01 0. -1.
</event>
<event>
 5   0  0.2621528E-06  0.3246100E+04  0.7818609E-02  0.8176747E-01
       -2   -1    0    0    0  501  0.00000000000E+00  0.00000000000E+00  0.17355053869E+04  0.17355053869E+04  0.25500000920E-02 0.  1.
        2   -1    0    0  501    0  0.00000000000E+00  0.00000000000E+00 -0.15178816707E+04  0.15178816707E+04  0.25500000920E-02 0. -1.
    10030    2    1    2    0    0  0.00000000000E+00  0.00000000000E+00  0.21762371621E+03  0.32533870575E+04  0.32461003164E+04 0.  0.
        2    1    3    3  502    0 -0.31010108571E+03 -0.96530853630E+03  0.13790591709E+04  0.17116621894E+04  0.25500000920E-02 0.  1.
       -2    1    3    3    0  502  0.31010108571E+03  0.96530853630E+03 -0.11614354547E+04  0.15417248682E+04  0.25500000920E-02 0. -1.
</event>
<event>
 5   0  0.2466076E-06  0.3403220E+04  0.7818609E-02  0.8137116E-01
        2   -1    0    0  501    0  0.00000000000E+00  0.00000000000E+00  0.24182027517E+04  0.24182027517E+04  0.25500000920E-02 0. -1.
       -2   -1    0    0    0  501  0.00000000000E+00  0.00000000000E+00 -0.11973673629E+04  0.11973673629E+04  0.25500000920E-02 0.  1.
    10030    2    1    2    0    0  0.00000000000E+00  0.00000000000E+00  0.12208353888E+04  0.36155701146E+04  0.34032202702E+04 0.  0.
        3    1    3    3  502    0  0.82802552076E+03  0.12448574173E+04  0.14736310873E+04  0.20992581652E+04  0.10100000352E+00 0. -1.
       -3    1    3    3    0  502 -0.82802552076E+03 -0.12448574173E+04 -0.25279569857E+03  0.15163119494E+04  0.10100000352E+00 0.  1.
</event>
<event>
 5   0  0.8487944E-07  0.2600782E+04  0.7818609E-02  0.8367936E-01
       -1   -1    0    0    0  501  0.00000000000E+00  0.00000000000E+00  0.18395091234E+04  0.18395091234E+04  0.50400001928E-02 0. -1.
        1   -1    0    0  501    0  0.00000000000E+00  0.00000000000E+00 -0.91927587425E+03  0.91927587427E+03  0.50400001928E-02 0.  1.
    10030    2    1    2    0    0  0.00000000000E+00  0.00000000000E+00  0.92023324917E+03  0.27587849977E+04  0.26007816961E+04 0.  0.
        2    1    3    3  502    0  0.43580414822E+03 -0.68330608395E+03 -0.61861358539E+03  0.10195661960E+04  0.25500000920E-02 0.  1.
       -2    1    3    3    0  502 -0.43580414822E+03  0.68330608395E+03  0.15388468346E+04  0.17392188017E+04  0.25500000920E-02 0. -1.
</event>
<event>
 5   0  0.8512855E-07  0.3143654E+04  0.7818609E-02  0.8203859E-01
       -1   -1    0    0    0  501  0.00000000000E+00  0.00000000000E+00  0.14120502557E+04  0.14120502557E+04  0.50400001928E-02 0.  1.
        1   -1    0    0  501    0  0.00000000000E+00  0.00000000000E+00 -0.17496826558E+04  0.17496826558E+04  0.50400001928E-02 0. -1.
    10030    2    1    2    0    0  0.00000000000E+00  0.00000000000E+00 -0.33763240009E+03  0.31617329114E+04  0.31436538241E+04 0.  0.
        5    1    3    3  502    0  0.22960171281E+02 -0.57447057990E+03  0.13024961251E+04  0.14237492274E+04  0.46999998093E+01 0.  1.
       -5    1    3    3    0  502 -0.22960171281E+02  0.57447057990E+03 -0.16401285252E+04  0.17379836840E+04  0.46999998093E+01 0. -1.
</event>
<event>
 5   0  0.2466076E-06  0.3233197E+04  0.7818609E-02  0.8180105E-01
        2   -1    0    0  501    0  0.00000000000E+00  0.00000000000E+00  0.16578727875E+04  0.16578727875E+04  0.25500000920E-02 0. -1.
       -2   -1    0    0    0  501  0.00000000000E+00  0.00000000000E+00 -0.15763516214E+04  0.15763516214E+04  0.25500000920E-02 0.  1.
    10030    2    1    2    0    0  0.00000000000E+00  0.00000000000E+00  0.81521166087E+02  0.32342244089E+04  0.32331968431E+04 0.  0.
        3    1    3    3  502    0  0.95405723442E+03  0.24423151231E+03 -0.12416438188E+04  0.15847881944E+04  0.10100000352E+00 0.  1.
       -3    1    3    3    0  502 -0.95405723442E+03 -0.24423151231E+03  0.13231649849E+04  0.16494362145E+04  0.10100000352E+00 0. -1.
</event>
<event>
 5   0  0.2466076E-06  0.3269494E+04  0.7818609E-02  0.8170701E-01
       -2   -1    0    0    0  501  0.00000000000E+00  0.00000000000E+00  0.19169014470E+04  0.19169014470E+04  0.25500000920E-02 0. -1.
        2   -1    0    0  501    0  0.00000000000E+00  0.00000000000E+00 -0.13941240095E+04  0.13941240095E+04  0.25500000920E-02 0.  1.
    10030    2    1    2    0    0  0.00000000000E+00  0.00000000000E+00  0.52277743748E+03  0.33110254566E+04  0.32694943531E+04 0.  0.
        3    1    3    3  502    0 -0.59378475889E+02 -0.69975526596E+03 -0.12335795562E+04  0.14194723552E+04  0.10100000352E+00 0.  1.
       -3    1    3    3    0  502  0.59378475889E+02  0.69975526596E+03  0.17563569937E+04  0.18915531013E+04  0.10100000352E+00 0. -1.
</event>
<event>
 5   0  0.2621528E-06  0.3220569E+04  0.7818609E-02  0.8183406E-01
       -2   -1    0    0    0  501  0.00000000000E+00  0.00000000000E+00  0.17173520628E+04  0.17173520628E+04  0.25500000920E-02 0.  1.
        2   -1    0    0  501    0  0.00000000000E+00  0.00000000000E+00 -0.15098919269E+04  0.15098919269E+04  0.25500000920E-02 0. -1.
    10030    2    1    2    0    0  0.00000000000E+00  0.00000000000E+00  0.20746013594E+03  0.32272439897E+04  0.32205689033E+04 0.  0.
        2    1    3    3  502    0 -0.11699703916E+04  0.88724168616E+03  0.76615048039E+03  0.16562050252E+04  0.25500000920E-02 0.  1.
       -2    1    3    3    0  502  0.11699703916E+04 -0.88724168616E+03 -0.55869034446E+03  0.15710389645E+04  0.25500000920E-02 0. -1.
</event>
<event>
 5   0  0.8681172E-07  0.3106675E+04  0.7818609E-02  0.8213908E-01
       -1   -1    0    0    0  501  0.00000000000E+00  0.00000000000E+00  0.14439330294E+04  0.14439330294E+04  0.50400001928E-02 0. -1.
        1   -1    0    0  501    0  0.00000000000E+00  0.00000000000E+00 -0.16710318840E+04  0.16710318840E+04  0.50400001928E-02 0.  1.
    10030    2    1    2    0    0  0.00000000000E+00  0.00000000000E+00 -0.22709885465E+03  0.31149649134E+04  0.31066754774E+04 0.  0.
        1    1    3    3  502    0 -0.41893488595E+03 -0.31302402259E+03 -0.15801099231E+04  0.16644031502E+04  0.50400001928E-02 0.  1.
       -1    1    3    3    0  502  0.41893488595E+03  0.31302402259E+03  0.13530110684E+04  0.14505617632E+04  0.50400001928E-02 0. -1.
</event>
<event>
 5   0  0.2404430E-06  0.3196786E+04  0.7818609E-02  0.8189667E-01
        2   -1    0    0  501    0  0.00000000000E+00  0.00000000000E+00  0.17824886182E+04  0.17824886182E+04  0.25500000920E-02 0.  1.
       -2   -1    0    0    0  501  0.00000000000E+00  0.00000000000E+00 -0.14333104601E+04  0.14333104601E+04  0.25500000920E-02 0. -1.
    10030    2    1    2    0    0  0.00000000000E+00  0.00000000000E+00  0.34917815810E+03  0.32157990782E+04  0.31967856240E+04 0.  0.
        4    1    3    3  502    0  0.10000482488E+04  0.67477358558E+03 -0.88019015196E+03  0.14933694145E+04  0.12699999809E+01 0. -1.
       -4    1    3    3    0  502 -0.10000482488E+04 -0.67477358558E+03  0.12293683101E+04  0.17224296637E+04  0.12699999809E+01 0.  1.
</event>
<event>
 5   0  0.2466076E-06  0.3219682E+04  0.7818609E-02  0.8183638E-01
        2   -1    0    0  501    0  0.00000000000E+00  0.00000000000E+00  0.19349066113E+04  0.19349066113E+04  0.25500000920E-02 0. -1.
       -2   -1    0    0    0  501  0.00000000000E+00  0.00000000000E+00 -0.13393869296E+04  0.13393869296E+04  0.25500000920E-02 0.  1.
    10030    2    1    2    0    0  0.00000000000E+00  0.00000000000E+00  0.59551968172E+03  0.32742935410E+04  0.32196823603E+04 0.  0.
        3    1    3    3  502    0 -0.80813431787E+03 -0.10468998336E+04  0.12312111550E+04  0.18069203789E+04  0.10100000352E+00 0. -1.
       -3    1    3    3    0  502  0.80813431787E+03  0.10468998336E+04 -0.63569147331E+03  0.14673731621E+04  0.10100000352E+00 0.  1.
</event>
<event>
 5   0  0.8487944E-07  0.3187510E+04  0.7818609E-02  0.8192124E-01
       -1   -1    0    0    0  501  0.00000000000E+00  0.00000000000E+00  0.12066497871E+04  0.12066497871E+04  0.50400001928E-02 0.  1.
        1   -1    0    0  501    0  0.00000000000E+00  0.00000000000E+00 -0.21050476124E+04  0.21050476124E+04  0.50400001928E-02 0. -1.
    10030    2    1    2    0    0  0.00000000000E+00  0.00000000000E+00 -0.89839782525E+03  0.33116973995E+04  0.31875101590E+04 0.  0.
        2    1    3    3  502    0 -0.62567545272E+03 -0.15919170333E+03 -0.19631051186E+04  0.20665414289E+04  0.25500000920E-02 0. -1.
       -2    1    3    3    0  502  0.62567545272E+03  0.15919170333E+03  0.10647072934E+04  0.12451559706E+04  0.25500000920E-02 0.  1.
</event>
<event>
 5   0  0.8681172E-07  0.3238657E+04  0.7818609E-02  0.8178682E-01
        1   -1    0    0  501    0  0.00000000000E+00  0.00000000000E+00  0.26261529357E+04  0.26261529357E+04  0.50400001928E-02 0.  1.
       -1   -1    0    0    0  501  0.00000000000E+00  0.00000000000E+00 -0.99850447988E+03  0.99850447989E+03  0.50400001928E-02 0. -1.
    10030    2    1    2    0    0  0.00000000000E+00  0.00000000000E+00  0.16276484558E+04  0.36246574156E+04  0.32386574201E+04 0.  0.
        1    1    3    3  502    0 -0.10674915115E+04  0.44777305048E+03 -0.45347035242E+03  0.12432514599E+04  0.50400001928E-02 0.  1.
       -1    1    3    3    0  502  0.10674915115E+04 -0.44777305048E+03  0.20811188082E+04  0.23814059557E+04  0.50400001928E-02 0. -1.
</event>
<event>
 5   0  0.2337504E-06  0.3171889E+04  0.7818609E-02  0.8196281E-01
       -2   -1    0    0    0  501  0.00000000000E+00  0.00000000000E+00  0.14090872048E+04  0.14090872048E+04  0.25500000920E-02 0. -1.
        2   -1    0    0  501    0  0.00000000000E+00  0.00000000000E+00 -0.17849996355E+04  0.17849996355E+04  0.25500000920E-02 0.  1.
    10030    2    1    2    0    0  0.00000000000E+00  0.00000000000E+00 -0.37591243074E+03  0.31940868403E+04  0.31718891198E+04 0.  0.
        1    1    3    3  502    0  0.12218144815E+04  0.99934750285E+03 -0.34296229198E+03  0.16152861023E+04  0.50400001928E-02 0.  1.
       -1    1    3    3    0  502 -0.12218144815E+04 -0.99934750285E+03 -0.32950138752E+02  0.15788007380E+04  0.50400001928E-02 0. -1.
</event>
<event>
 5   0  0.8512855E-07  0.3190139E+04  0.7818609E-02  0.8191426E-01
       -1   -1    0    0    0  501  0.00000000000E+00  0.00000000000E+00  0.29010747708E+04  0.29010747708E+04  0.50400001928E-02 0. -1.
        1   -1    0    0  501    0  0.00000000000E+00  0.00000000000E+00 -0.87700128610E+03  0.87700128612E+03  0.50400001928E-02 0.  1.
    10030    2    1    2    0    0  0.00000000000E+00  0.00000000000E+00  0.20240734847E+04  0.37780760569E+04  0.31901387463E+04 0.  0.
        5    1    3    3  502    0  0.79284645374E+03 -0.11321057872E+04  0.19549905308E+04  0.23942178427E+04  0.46999998093E+01 0. -1.
       -5    1    3    3    0  502 -0.79284645374E+03  0.11321057872E+04  0.69082953940E+02  0.13838582143E+04  0.46999998093E+01 0.  1.
</event>
<event>
 5   0  0.8681172E-07  0.3181246E+04  0.7818609E-02  0.8193788E-01
       -1   -1    0    0    0  501  0.00000000000E+00  0.00000000000E+00  0.17502000266E+04  0.17502000266E+04  0.50400001928E-02 0. -1.
        1   -1    0    0  501    0  0.00000000000E+00  0.00000000000E+00 -0.14455956996E+04  0.14455956996E+04  0.50400001928E-02 0.  1.
    10030    2    1    2    0    0  0.00000000000E+00  0.00000000000E+00  0.30460432706E+03  0.31957957262E+04  0.31812460653E+04 0.  0.
        1    1    3    3  502    0 -0.98807413800E+03 -0.27349790188E+03  0.13740015954E+04  0.17143430196E+04  0.50400001928E-02 0. -1.
       -1    1    3    3    0  502  0.98807413800E+03  0.27349790188E+03 -0.10693972683E+04  0.14814527067E+04  0.50400001928E-02 0.  1.
</event>
<event>
 5   0  0.2466076E-06  0.3380789E+04  0.7818609E-02  0.8142637E-01
       -2   -1    0    0    0  501  0.00000000000E+00  0.00000000000E+00  0.14248673127E+04  0.14248673127E+04  0.25500000920E-02 0. -1.
        2   -1    0    0  501    0  0.00000000000E+00  0.00000000000E+00 -0.20054037829E+04  0.20054037829E+04  0.25500000920E-02 0.  1.
    10030    2    1    2    0    0  0.00000000000E+00  0.00000000000E+00 -0.58053647025E+03  0.34302710956E+04  0.33807894339E+04 0.  0.
        3    1    3    3  502    0  0.67164952911E+03  0.12366292965E+04  0.65995850376E+03  0.15543198975E+04  0.10100000352E+00 0. -1.
       -3    1    3    3    0  502 -0.67164952911E+03 -0.12366292965E+04 -0.12404949740E+04  0.18759511981E+04  0.10100000352E+00 0.  1.
</event>
<event>
 5   0  0.8681172E-07  0.3294424E+04  0.7818609E-02  0.8164316E-01
       -1   -1    0    0    0  501  0.00000000000E+00  0.00000000000E+00  0.95983036667E+03  0.95983036669E+03  0.50400001928E-02 0.  1.
        1   -1    0    0  501    0  0.00000000000E+00  0.00000000000E+00 -0.28268619876E+04  0.28268619876E+04  0.50400001928E-02 0. -1.
    10030    2    1    2    0    0  0.00000000000E+00  0.00000000000E+00 -0.18670316209E+04  0.37866923543E+04  0.32944243674E+04 0.  0.
        1    1    3    3  502    0  0.54952028104E+03  0.15496223696E+04 -0.10484924620E+04  0.19500355049E+04  0.50400001928E-02 0. -1.
       -1    1    3    3    0  502 -0.54952028104E+03 -0.15496223696E+04 -0.81853915891E+03  0.18366568494E+04  0.50400001928E-02 0.  1.
</event>
<event>
 5   0  0.8681172E-07  0.3127276E+04  0.7818609E-02  0.8208292E-01
        1   -1    0    0  501    0  0.00000000000E+00  0.00000000000E+00  0.13280712831E+04  0.13280712832E+04  0.50400001928E-02 0. -1.
       -1   -1    0    0    0  501  0.00000000000E+00  0.00000000000E+00 -0.18409880619E+04  0.18409880619E+04  0.50400001928E-02 0.  1.
    10030    2    1    2    0    0  0.00000000000E+00  0.00000000000E+00 -0.51291677876E+03  0.31690593451E+04  0.31272757331E+04 0.  0.
        1    1    3    3  502    0  0.58103345885E+03  0.11347344971E+04 -0.11739509619E+04  0.17330271551E+04  0.50400001928E-02 0.  1.
       -1    1    3    3    0  502 -0.58103345885E+03 -0.11347344971E+04  0.66103418315E+03  0.14360321900E+04  0.50400001928E-02 0. -1.
</event>
<event>
 5   0  0.8487944E-07  0.3229905E+04  0.7818609E-02  0.8180964E-01
       -1   -1    0    0    0  501  0.00000000000E+00  0.00000000000E+00  0.15969087450E+04  0.15969087450E+04  0.50400001928E-02 0. -1.
        1   -1    0    0  501    0  0.00000000000E+00  0.00000000000E+00 -0.16332002689E+04  0.16332002689E+04  0.50400001928E-02 0.  1.
    10030    2    1    2    0    0  0.00000000000E+00  0.00000000000E+00 -0.36291523862E+02  0.32301090139E+04  0.32299051328E+04 0.  0.
        2    1    3    3  502    0 -0.68094432097E+03 -0.13542464886E+04 -0.57531921771E+03  0.16213145662E+04  0.25500000920E-02 0.  1.
       -2    1    3    3    0  502  0.68094432097E+03  0.13542464886E+04  0.53902769385E+03  0.16087944477E+04  0.25500000920E-02 0. -1.
</event>
<event>
 5   0  0.2337504E-06  0.3269697E+04  0.7818609E-02  0.8170649E-01
       -2   -1    0    0    0  501  0.00000000000E+00  0.00000000000E+00  0.10279376183E+04  0.10279376183E+04  0.25500000920E-02 0. -1.
        2   -1    0    0  501    0  0.00000000000E+00  0.00000000000E+00 -0.26000894348E+04  0.26000894348E+04  0.25500000920E-02 0.  1.
    10030    2    1    2    0    0  0.00000000000E+00  0.00000000000E+00 -0.15721518165E+04  0.36280270530E+04  0.32696970752E+04 0.  0.
        1    1    3    3  502    0  0.62145919278E+03 -0.60872810885E+03  0.74980364178E+03  0.11484628597E+04  0.50400001928E-02 0. -1.
       -1    1    3    3    0  502 -0.62145919278E+03  0.60872810885E+03 -0.23219554583E+04  0.24795641934E+04  0.50400001928E-02 0.  1.
</event>
<event>
 5   0  0.7934375E-07  0.3178309E+04  0.7818609E-02  0.8194569E-01
       -3   -1    0    0    0  501  0.00000000000E+00  0.00000000000E+00  0.18335229805E+04  0.18335229833E+04  0.10100000352E+00 0.  1.
        3   -1    0    0  501    0  0.00000000000E+00  0.00000000000E+00 -0.13773549643E+04  0.13773549680E+04  0.10100000352E+00 0. -1.
    10030    2    1    2    0    0  0.00000000000E+00  0.00000000000E+00  0.45616801622E+03  0.32108779512E+04  0.31783089778E+04 0.  0.
        5    1    3    3  502    0 -0.57113782043E+03 -0.12178216531E+04  0.10829835799E+04  0.17268941812E+04  0.46999998093E+01 0.  1.
       -5    1    3    3    0  502  0.57113782043E+03  0.12178216531E+04 -0.62681556373E+03  0.14839837700E+04  0.46999998093E+01 0. -1.
</event>
<event>
 5   0  0.2466076E-06  0.3197204E+04  0.7818609E-02  0.8189556E-01
        2   -1    0    0  501    0  0.00000000000E+00  0.00000000000E+00  0.21001704177E+04  0.21001704177E+04  0.25500000920E-02 0. -1.
       -2   -1    0    0    0  501  0.00000000000E+00  0.00000000000E+00 -0.12168191552E+04  0.12168191552E+04  0.25500000920E-02 0.  1.
    10030    2    1    2    0    0  0.00000000000E+00  0.00000000000E+00  0.88335126249E+03  0.33169895730E+04  0.31972035240E+04 0.  0.
        3    1    3    3  502    0 -0.44063918895E+03 -0.26902090451E+03 -0.11279497133E+04  0.12404860773E+04  0.10100000352E+00 0.  1.
       -3    1    3    3    0  502  0.44063918895E+03  0.26902090451E+03  0.20113009758E+04  0.20765034957E+04  0.10100000352E+00 0. -1.
</event>
<event>
 5   0  0.2621528E-06  0.3162952E+04  0.7818609E-02  0.8198671E-01
        2   -1    0    0  501    0  0.00000000000E+00  0.00000000000E+00  0.22534539232E+04  0.22534539232E+04  0.25500000920E-02 0.  1.
       -2   -1    0    0    0  501  0.00000000000E+00  0.00000000000E+00 -0.11098811536E+04  0.11098811536E+04  0.25500000920E-02 0. -1.
    10030    2    1    2    0    0  0.00000000000E+00  0.00000000000E+00  0.11435727696E+04  0.33633350768E+04  0.31629518111E+04 0.  0.
        2    1    3    3  502    0  0.37775075414E+03  0.49005244932E+03  0.21194016023E+04  0.22078745859E+04  0.25500000920E-02 0.  1.
       -2    1    3    3    0  502 -0.37775075414E+03 -0.49005244932E+03 -0.97582883267E+03  0.11554604909E+04  0.25500000920E-02 0. -1.
</event>
<event>
 5   0  0.2337504E-06  0.3125555E+04  0.7818609E-02  0.8208759E-01
        2   -1    0    0  501    0  0.00000000000E+00  0.00000000000E+00  0.27878050909E+04  0.27878050909E+04  0.25500000920E-02 0.  1.
       -2   -1    0    0    0  501  0.00000000000E+00  0.00000000000E+00 -0.87605588269E+03  0.87605588269E+03  0.25500000920E-02 0. -1.
    10030    2    1    2    0    0  0.00000000000E+00  0.00000000000E+00  0.19117492082E+04  0.36638609736E+04  0.31255547026E+04 0.  0.
        1    1    3    3  502    0 -0.29311040776E+03 -0.10170329781E+04 -0.39193375246E+03  0.11286637479E+04  0.50400001928E-02 0. -1.
       -1    1    3    3    0  502  0.29311040776E+03  0.10170329781E+04  0.23036829607E+04  0.25351972256E+04  0.50400001928E-02 0.  1.
</event>
<event>
 5   0  0.2466076E-06  0.3222103E+04  0.7818609E-02  0.8183004E-01
        2   -1    0    0  501    0  0.00000000000E+00  0.00000000000E+00  0.14281329216E+04  0.14281329216E+04  0.25500000920E-02 0. -1.
       -2   -1    0    0    0  501  0.00000000000E+00  0.00000000000E+00 -0.18173992674E+04  0.18173992674E+04  0.25500000920E-02 0.  1.
    10030    2    1    2    0    0  0.00000000000E+00  0.00000000000E+00 -0.38926634575E+03  0.32455321890E+04  0.32221034902E+04 0.  0.
        3    1    3    3  502    0 -0.14597770757E+04 -0.10019679669E+03 -0.87370075793E+03  0.17042128779E+04  0.10100000352E+00 0.  1.
       -3    1    3    3    0  502  0.14597770757E+04  0.10019679669E+03  0.48443441218E+03  0.15413193110E+04  0.10100000352E+00 0. -1.
</event>
<event>
 5   0  0.8681172E-07  0.2820272E+04  0.7818609E-02  0.8297002E-01
        1   -1    0    0  501    0  0.00000000000E+00  0.00000000000E+00  0.21298918155E+04  0.21298918155E+04  0.50400001928E-02 0. -1.
       -1   -1    0    0    0  501  0.00000000000E+00  0.00000000000E+00 -0.93360756388E+03  0.93360756389E+03  0.50400001928E-02 0.  1.
    10030    2    1    2    0    0  0.00000000000E+00  0.00000000000E+00  0.11962842516E+04  0.30634993794E+04  0.28202716956E+04 0.  0.
        1    1    3    3  502    0 -0.11142221064E+04  0.20370341139E+03 -0.31423517661E+03  0.11754700032E+04  0.50400001928E-02 0.  1.
       -1    1    3    3    0  502  0.11142221064E+04 -0.20370341139E+03  0.15105194282E+04  0.18880293762E+04  0.50400001928E-02 0. -1.
</event>
<event>
 5   0  0.7934375E-07  0.3245911E+04  0.7818609E-02  0.8176796E-01
       -3   -1    0    0    0  501  0.00000000000E+00  0.00000000000E+00  0.25347998766E+04  0.25347998786E+04  0.10100000352E+00 0. -1.
        3   -1    0    0  501    0  0.00000000000E+00  0.00000000000E+00 -0.10391292528E+04  0.10391292577E+04  0.10100000352E+00 0.  1.
    10030    2    1    2    0    0  0.00000000000E+00  0.00000000000E+00  0.14956706238E+04  0.35739291363E+04  0.32459110981E+04 0.  0.
        3    1    3    3  502    0  0.73684413553E+03  0.13651174153E+04  0.12730052874E+04  0.20067454522E+04  0.10100000352E+00 0. -1.
       -3    1    3    3    0  502 -0.73684413553E+03 -0.13651174153E+04  0.22266533640E+03  0.15671836842E+04  0.10100000352E+00 0.  1.
</event>
<event>
 5   0  0.2404430E-06  0.3195603E+04  0.7818609E-02  0.8189979E-01
       -2   -1    0    0    0  501  0.00000000000E+00  0.00000000000E+00  0.16132910899E+04  0.16132910899E+04  0.25500000920E-02 0. -1.
        2   -1    0    0  501    0  0.00000000000E+00  0.00000000000E+00 -0.15824604844E+04  0.15824604844E+04  0.25500000920E-02 0.  1.
    10030    2    1    2    0    0  0.00000000000E+00  0.00000000000E+00  0.30830605522E+02  0.31957515743E+04  0.31956028536E+04 0.  0.
        4    1    3    3  502    0  0.93257268020E+03  0.46177534213E+03 -0.11970929851E+04  0.15861782681E+04  0.12699999809E+01 0.  1.
       -4    1    3    3    0  502 -0.93257268020E+03 -0.46177534213E+03  0.12279235906E+04  0.16095733061E+04  0.12699999809E+01 0. -1.
</event>
<event>
 5   0  0.2621528E-06  0.3208310E+04  0.7818609E-02  0.8186626E-01
        2   -1    0    0  501    0  0.00000000000E+00  0.00000000000E+00  0.20024234121E+04  0.20024234121E+04  0.25500000920E-02 0. -1.
       -2   -1    0    0    0  501  0.00000000000E+00  0.00000000000E+00 -0.12850991433E+04  0.12850991433E+04  0.25500000920E-02 0.  1.
    10030    2    1    2    0    0  0.00000000000E+00  0.00000000000E+00  0.71732426885E+03  0.32875225554E+04  0.32083095932E+04 0.  0.
        2    1    3    3  502    0 -0.12063162863E+04  0.36339170145E+03 -0.65886070032E+03  0.14217418661E+04  0.25500000920E-02 0.  1.
       -2    1    3    3    0  502  0.12063162863E+04 -0.36339170145E+03  0.13761849692E+04  0.18657806893E+04  0.25500000920E-02 0. -1.
</event>
<event>
 5   0  0.8487944E-07  0.3182110E+04  0.7818609E-02  0.8193558E-01
       -1   -1    0    0    0  501  0.00000000000E+00  0.00000000000E+00  0.95444949540E+03  0.95444949541E+03  0.50400001928E-02 0.  1.
        1   -1    0    0  501    0  0.00000000000E+00  0.00000000000E+00 -0.26522686366E+04  0.26522686366E+04  0.50400001928E-02 0. -1.
    10030    2    1    2    0    0  0.00000000000E+00  0.00000000000E+00 -0.16978191412E+04  0.36067181320E+04  0.31821102821E+04 0.  0.
        2    1    3    3  502    0 -0.15591535393E+04 -0.58517463139E+02 -0.12020479183E+04  0.19695946919E+04  0.25500000920E-02 0. -1.
       -2    1    3    3    0  502  0.15591535393E+04  0.58517463139E+02 -0.49577122284E+03  0.16371234400E+04  0.25500000920E-02 0.  1.
</event>
<event>
 5   0  0.8487944E-07  0.3200225E+04  0.7818609E-02  0.8188758E-01
       -1   -1    0    0    0  501  0.00000000000E+00  0.00000000000E+00  0.11284897915E+04  0.11284897915E+04  0.50400001928E-02 0.  1.
        1   -1    0    0  501    0  0.00000000000E+00  0.00000000000E+00 -0.22688375106E+04  0.22688375106E+04  0.50400001928E-02 0. -1.
    10030    2    1    2    0    0  0.00000000000E+00  0.00000000000E+00 -0.11403477190E+04  0.33973273021E+04  0.32002249729E+04 0.  0.
        2    1    3    3  502    0 -0.20028908751E+03 -0.12609785680E+04 -0.15940319071E+04  0.20423320955E+04  0.25500000920E-02 0. -1.
       -2    1    3    3    0  502  0.20028908751E+03  0.12609785680E+04  0.45368418805E+03  0.13549952066E+04  0.25500000920E-02 0.  1.
</event>
<event>
 5   0  0.2337504E-06  0.3187272E+04  0.7818609E-02  0.8192187E-01
       -2   -1    0    0    0  501  0.00000000000E+00  0.00000000000E+00  0.11055067272E+04  0.11055067272E+04  0.25500000920E-02 0.  1.
        2   -1    0    0  501    0  0.00000000000E+00  0.00000000000E+00 -0.22972954849E+04  0.22972954849E+04  0.25500000920E-02 0. -1.
    10030    2    1    2    0    0  0.00000000000E+00  0.00000000000E+00 -0.11917887578E+04  0.34028022121E+04  0.31872719450E+04 0.  0.
        1    1    3    3  502    0  0.95817317101E+03 -0.24443527906E+03  0.73834769343E+03  0.12340995696E+04  0.50400001928E-02 0.  1.
       -1    1    3    3    0  502 -0.95817317101E+03  0.24443527906E+03 -0.19301364512E+04  0.21687026425E+04  0.50400001928E-02 0. -1.
</event>
<event>
 5   0  0.8681172E-07  0.3150078E+04  0.7818609E-02  0.8202127E-01
       -1   -1    0    0    0  501  0.00000000000E+00  0.00000000000E+00  0.15326696207E+04  0.15326696207E+04  0.50400001928E-02 0. -1.
        1   -1    0    0  501    0  0.00000000000E+00  0.00000000000E+00 -0.16185791762E+04  0.16185791762E+04  0.50400001928E-02 0.  1.
    10030    2    1    2    0    0  0.00000000000E+00  0.00000000000E+00 -0.85909555556E+02  0.31512487969E+04  0.31500775432E+04 0.  0.
        1    1    3    3  502    0  0.11961516707E+04 -0.87027188115E+03 -0.58407656626E+03  0.15903764969E+04  0.50400001928E-02 0.  1.
       -1    1    3    3    0  502 -0.11961516707E+04  0.87027188115E+03  0.49816701070E+03  0.15608723000E+04  0.50400001928E-02 0. -1.
</event>
<event>
 5   0  0.8512855E-07  0.3192216E+04  0.7818609E-02  0.8190876E-01
        1   -1    0    0  501    0  0.00000000000E+00  0.00000000000E+00  0.12820221334E+04  0.12820221334E+04  0.50400001928E-02 0. -1.
       -1   -1    0    0    0  501  0.00000000000E+00  0.00000000000E+00 -0.19871424983E+04  0.19871424983E+04  0.50400001928E-02 0.  1.
    10030    2    1    2    0    0  0.00000000000E+00  0.00000000000E+00 -0.70512036492E+03  0.32691646317E+04  0.31922159482E+04 0.  0.
        5    1    3    3  502    0  0.12223078530E+04  0.76399565125E+03 -0.10545113811E+04  0.17859849343E+04  0.46999998093E+01 0.  1.
       -5    1    3    3    0  502 -0.12223078530E+04 -0.76399565125E+03  0.34939101613E+03  0.14831796974E+04  0.46999998093E+01 0. -1.
</event>
<event>
 5   0  0.8681172E-07  0.3140758E+04  0.7818609E-02  0.8204640E-01
        1   -1    0    0  501    0  0.00000000000E+00  0.00000000000E+00  0.17131676267E+04  0.17131676267E+04  0.50400001928E-02 0.  1.
       -1   -1    0    0    0  501  0.00000000000E+00  0.00000000000E+00 -0.14394914527E+04  0.14394914527E+04  0.50400001928E-02 0. -1.
    10030    2    1    2    0    0  0.00000000000E+00  0.00000000000E+00  0.27367617396E+03  0.31526590794E+04  0.31407579694E+04 0.  0.
        1    1    3    3  502    0 -0.68964474033E+03  0.94269693080E+03 -0.91680730494E+03  0.14848646422E+04  0.50400001928E-02 0. -1.
       -1    1    3    3    0  502  0.68964474033E+03 -0.94269693080E+03  0.11904834789E+04  0.16677944372E+04  0.50400001928E-02 0.  1.
</event>
<event>
 5   0  0.8545153E-07  0.3202134E+04  0.7818609E-02  0.8188254E-01
        1   -1    0    0  501    0  0.00000000000E+00  0.00000000000E+00  0.21076313813E+04  0.21076313813E+04  0.50400001928E-02 0. -1.
       -1   -1    0    0    0  501  0.00000000000E+00  0.00000000000E+00 -0.12162538302E+04  0.12162538302E+04  0.50400001928E-02 0.  1.
    10030    2    1    2    0    0  0.00000000000E+00  0.00000000000E+00  0.89137755104E+03  0.33238852115E+04  0.32021335014E+04 0.  0.
        3    1    3    3  502    0 -0.23137813071E+03  0.13183829904E+04 -0.46620351957E+03  0.14173973615E+04  0.10100000352E+00 0.  1.
       -3    1    3    3    0  502  0.23137813071E+03 -0.13183829904E+04  0.13575810706E+04  0.19064878500E+04  0.10100000352E+00 0. -1.
</event>
<event>
 5   0  0.2466076E-06  0.3197053E+04  0.7818609E-02  0.8189596E-01
       -2   -1    0    0    0  501  0.00000000000E+00  0.00000000000E+00  0.16774720231E+04  0.16774720231E+04  0.25500000920E-02 0. -1.
        2   -1    0    0  501    0  0.00000000000E+00  0.00000000000E+00 -0.15232961327E+04  0.15232961327E+04  0.25500000920E-02 0.  1.
    10030    2    1    2    0    0  0.00000000000E+00  0.00000000000E+00  0.15417589041E+03  0.32007681559E+04  0.31970527963E+04 0.  0.
        3    1    3    3  502    0 -0.30487748932E+03  0.14539516079E+04  0.66799506066E+03  0.16288471300E+04  0.10100000352E+00 0. -1.
       -3    1    3    3    0  502  0.30487748932E+03 -0.14539516079E+04 -0.51381917025E+03  0.15719210259E+04  0.10100000352E+00 0.  1.
</event>
<event>
 5   0  0.2337504E-06  0.3228736E+04  0.7818609E-02  0.8181269E-01
        2   -1    0    0  501    0  0.00000000000E+00  0.00000000000E+00  0.20419629447E+04  0.20419629447E+04  0.25500000920E-02 0. -1.
       -2   -1    0    0    0  501  0.00000000000E+00  0.00000000000E+00 -0.12763134835E+04  0.12763134835E+04  0.25500000920E-02 0.  1.
    10030    2    1    2    0    0  0.00000000000E+00  0.00000000000E+00  0.76564946119E+03  0.33182764281E+04  0.32287364953E+04 0.  0.
        1    1    3    3  502    0 -0.10176241991E+04 -0.12529061567E+04  0.35282637454E+03  0.16522164806E+04  0.50400001928E-02 0. -1.
       -1    1    3    3    0  502  0.10176241991E+04  0.12529061567E+04  0.41282308665E+03  0.16660599476E+04  0.50400001928E-02 0.  1.
</event>
<event>
 5   0  0.2404430E-06  0.3202983E+04  0.7818609E-02  0.8188030E-01
        2   -1    0    0  501    0  0.00000000000E+00  0.00000000000E+00  0.19179164245E+04  0.19179164245E+04  0.25500000920E-02 0.  1.
       -2   -1    0    0    0  501  0.00000000000E+00  0.00000000000E+00 -0.13372716682E+04  0.13372716682E+04  0.25500000920E-02 0. -1.
    10030    2    1    2    0    0  0.00000000000E+00  0.00000000000E+00  0.58064475627E+03  0.32551880928E+04  0.32029831698E+04 0.  0.
        4    1    3    3  502    0  0.12271032169E+04 -0.46047280401E+03 -0.64497970379E+03  0.14607593708E+04  0.12699999809E+01 0. -1.
       -4    1    3    3    0  502 -0.12271032169E+04  0.46047280401E+03  0.12256244601E+04  0.17944287220E+04  0.12699999809E+01 0.  1.
</event>
<event>
 5   0  0.8487944E-07  0.3215806E+04  0.7818609E-02  0.8184655E-01
       -1   -1    0    0    0  501  0.00000000000E+00  0.00000000000E+00  0.11755004650E+04  0.11755004650E+04  0.50400001928E-02 0.  1.
        1   -1    0    0  501    0  0.00000000000E+00  0.00000000000E+00 -0.21993623255E+04  0.21993623255E+04  0.50400001928E-02 0. -1.
    10030    2    1    2    0    0  0.00000000000E+00  0.00000000000E+00 -0.10238618605E+04  0.33748627905E+04  0.32158056138E+04 0.  0.
        2    1    3    3  502    0 -0.21705935139E+03  0.15319425371E+04 -0.97104914207E+03  0.18267181325E+04  0.25500000920E-02 0. -1.
       -2    1    3    3    0  502  0.21705935139E+03 -0.15319425371E+04 -0.52812718380E+02  0.15481446581E+04  0.25500000920E-02 0.  1.
</event>
<event>
 5   0  0.2401139E-06  0.3199334E+04  0.7818609E-02  0.8188993E-01
       -2   -1    0    0    0  501  0.00000000000E+00  0.00000000000E+00  0.89935563557E+03  0.89935563557E+03  0.25500000920E-02 0.  1.
        2   -1    0    0  501    0  0.00000000000E+00  0.00000000000E+00 -0.28452971192E+04  0.28452971192E+04  0.25500000920E-02 0. -1.
    10030    2    1    2    0    0  0.00000000000E+00  0.00000000000E+00 -0.19459414836E+04  0.37446527548E+04  0.31993336800E+04 0.  0.
        5    1    3    3  502    0  0.71522499464E+02  0.17153253411E+02  0.89736740723E+03  0.90038883578E+03  0.46999998093E+01 0.  1.
       -5    1    3    3    0  502 -0.71522499464E+02 -0.17153253411E+02 -0.28433088909E+04  0.28442639190E+04  0.46999998093E+01 0. -1.
</event>
<event>
 5   0  0.2401139E-06  0.3191240E+04  0.7818609E-02  0.8191134E-01
       -2   -1    0    0    0  501  0.00000000000E+00  0.00000000000E+00  0.14322328663E+04  0.14322328663E+04  0.25500000920E-02 0. -1.
        2   -1    0    0  501    0  0.00000000000E+00  0.00000000000E+00 -0.17776463797E+04  0.17776463797E+04  0.25500000920E-02 0.  1.
    10030    2    1    2    0    0  0.00000000000E+00  0.00000000000E+00 -0.34541351337E+03  0.32098792461E+04  0.31912402415E+04 0.  0.
        5    1    3    3  502    0  0.81364957024E+03  0.79210603823E+03  0.95478809756E+03  0.14836104611E+04  0.46999998093E+01 0. -1.
       -5    1    3    3    0  502 -0.81364957024E+03 -0.79210603823E+03 -0.13002016109E+04  0.17262687850E+04  0.46999998093E+01 0.  1.
</event>
<event>
 5   0  0.2466076E-06  0.3236619E+04  0.7818609E-02  0.8179213E-01
        2   -1    0    0  501    0  0.00000000000E+00  0.00000000000E+00  0.18576646897E+04  0.18576646897E+04  0.25500000920E-02 0. -1.
       -2   -1    0    0    0  501  0.00000000000E+00  0.00000000000E+00 -0.14097943540E+04  0.14097943540E+04  0.25500000920E-02 0.  1.
    10030    2    1    2    0    0  0.00000000000E+00  0.00000000000E+00  0.44787033564E+03  0.32674590437E+04  0.32366187240E+04 0.  0.
        3    1    3    3  502    0 -0.56129458814E+03 -0.57395961151E+03  0.16424732946E+04  0.18281684233E+04  0.10100000352E+00 0. -1.
       -3    1    3    3    0  502  0.56129458814E+03  0.57395961151E+03 -0.11946029589E+04  0.14392906204E+04  0.10100000352E+00 0.  1.
</event>
<event>
 5   0  0.2401139E-06  0.3234545E+04  0.7818609E-02  0.8179753E-01
       -2   -1    0    0    0  501  0.00000000000E+00  0.00000000000E+00  0.15178647641E+04  0.15178647641E+04  0.25500000920E-02 0.  1.
        2   -1    0    0  501    0  0.00000000000E+00  0.00000000000E+00 -0.17231904690E+04  0.17231904690E+04  0.25500000920E-02 0. -1.
    10030    2    1    2    0    0  0.00000000000E+00  0.00000000000E+00 -0.20532570484E+03  0.32410552331E+04  0.32345448488E+04 0.  0.
        5    1    3    3  502    0 -0.61362280371E+02 -0.77441414645E+03  0.13186651157E+04  0.15304843603E+04  0.46999998093E+01 0.  1.
       -5    1    3    3    0  502  0.61362280371E+02  0.77441414645E+03 -0.15239908206E+04  0.17105708728E+04  0.46999998093E+01 0. -1.
</event>
<event>
 5   0  0.2621528E-06  0.3081136E+04  0.7818609E-02  0.8220934E-01
        2   -1    0    0  501    0  0.00000000000E+00  0.00000000000E+00  0.24331213470E+04  0.24331213470E+04  0.25500000920E-02 0.  1.
       -2   -1    0    0    0  501  0.00000000000E+00  0.00000000000E+00 -0.97543418469E+03  0.97543418470E+03  0.25500000920E-02 0. -1.
    10030    2    1    2    0    0  0.00000000000E+00  0.00000000000E+00  0.14576871623E+04  0.34085555317E+04  0.30811359836E+04 0.  0.
        2    1    3    3  502    0  0.88849974951E+02  0.11575744748E+04 -0.39142567581E+03  0.12251885743E+04  0.25500000920E-02 0. -1.
       -2    1    3    3    0  502 -0.88849974951E+02 -0.11575744748E+04  0.18491128381E+04  0.21833669575E+04  0.25500000920E-02 0.  1.
</event>
<event>
 5   0  0.2401139E-06  0.3154849E+04  0.7818609E-02  0.8200844E-01
       -2   -1    0    0    0  501  0.00000000000E+00  0.00000000000E+00  0.14428688102E+04  0.14428688102E+04  0.25500000920E-02 0.  1.
        2   -1    0    0  501    0  0.00000000000E+00  0.00000000000E+00 -0.17245282393E+04  0.17245282393E+04  0.25500000920E-02 0. -1.
    10030    2    1    2    0    0  0.00000000000E+00  0.00000000000E+00 -0.28165942912E+03  0.31673970495E+04  0.31548489718E+04 0.  0.
        5    1    3    3  502    0 -0.80554956788E+03 -0.42500161258E+03  0.11522017484E+04  0.14687162544E+04  0.46999998093E+01 0.  1.
       -5    1    3    3    0  502  0.80554956788E+03  0.42500161258E+03 -0.14338611775E+04  0.16986807950E+04  0.46999998093E+01 0. -1.
</event>
<event>
 5   0  0.2621528E-06  0.3212373E+04  0.7818609E-02  0.8185557E-01
       -2   -1    0    0    0  501  0.00000000000E+00  0.00000000000E+00  0.11772663851E+04  0.11772663851E+04  0.25500000920E-02 0.  1.
        2   -1    0    0  501    0  0.00000000000E+00  0.00000000000E+00 -0.21913774221E+04  0.21913774221E+04  0.25500000920E-02 0. -1.
    10030    2    1    2    0    0  0.00000000000E+00  0.00000000000E+00 -0.10141110370E+04  0.33686438073E+04  0.32123729399E+04 0.  0.
        2    1    3    3  502    0  0.13465018076E+03  0.11657610195E+04 -0.16570845155E+04  0.20305315849E+04  0.25500000920E-02 0. -1.
       -2    1    3    3    0  502 -0.13465018076E+03 -0.11657610195E+04  0.64297347849E+03  0.13381122224E+04  0.25500000920E-02 0.  1.
</event>
<event>
 5   0  0.2404430E-06  0.3169352E+04  0.7818609E-02  0.8196958E-01
        2   -1    0    0  501    0  0.00000000000E+00  0.00000000000E+00  0.22061471858E+04  0.22061471858E+04  0.25500000920E-02 0. -1.
       -2   -1    0    0    0  501  0.00000000000E+00  0.00000000000E+00 -0.11382730097E+04  0.11382730097E+04  0.25500000920E-02 0.  1.
    10030    2    1    2    0    0  0.00000000000E+00  0.00000000000E+00  0.10678741761E+04  0.33444201956E+04  0.31693518562E+04 0.  0.
        4    1    3    3  502    0  0.14683705415E+04  0.59447934292E+03  0.49070518726E+03  0.16584061414E+04  0.12699999809E+01 0.  1.
       -4    1    3    3    0  502 -0.14683705415E+04 -0.59447934292E+03  0.57716898885E+03  0.16860140541E+04  0.12699999809E+01 0. -1.
</event>
<event>
 5   0  0.2337504E-06  0.3198456E+04  0.7818609E-02  0.8189225E-01
       -2   -1    0    0    0  501  0.00000000000E+00  0.00000000000E+00  0.15794802245E+04  0.15794802245E+04  0.25500000920E-02 0. -1.
        2   -1    0    0  501    0  0.00000000000E+00  0.00000000000E+00 -0.16192226795E+04  0.16192226795E+04  0.25500000920E-02 0.  1.
    10030    2    1    2    0    0  0.00000000000E+00  0.00000000000E+00 -0.39742454972E+02  0.31987029039E+04  0.31984560033E+04 0.  0.
        1    1    3    3  502    0 -0.12721064551E+04  0.73643809673E+03 -0.64994708150E+03  0.16071798630E+04  0.50400001928E-02 0.  1.
       -1    1    3    3    0  502  0.12721064551E+04 -0.73643809673E+03  0.61020462653E+03  0.15915230409E+04  0.50400001928E-02 0. -1.
</event>
<event>
 5   0  0.8681172E-07  0.3188614E+04  0.7818609E-02  0.8191831E-01
        1   -1    0    0  501    0  0.00000000000E+00  0.00000000000E+00  0.24545410586E+04  0.24545410586E+04  0.50400001928E-02 0. -1.
       -1   -1    0    0    0  501  0.00000000000E+00  0.00000000000E+00 -0.10355563543E+04  0.10355563543E+04  0.50400001928E-02 0.  1.
    10030    2    1    2    0    0  0.00000000000E+00  0.00000000000E+00  0.14189847043E+04  0.34900974130E+04  0.31886144892E+04 0.  0.
        1    1    3    3  502    0  0.98323912901E+03 -0.10661123732E+04 -0.15278845204E+02  0.14503751998E+04  0.50400001928E-02 0.  1.
       -1    1    3    3    0  502 -0.98323912901E+03  0.10661123732E+04  0.14342635495E+04  0.20397222131E+04  0.50400001928E-02 0. -1.
</event>
<event>
 5   0  0.8512855E-07  0.3163039E+04  0.7818609E-02  0.8198647E-01
        1   -1    0    0  501    0  0.00000000000E+00  0.00000000000E+00  0.13247798122E+04  0.13247798122E+04  0.50400001928E-02 0. -1.
       -1   -1    0    0    0  501  0.00000000000E+00  0.00000000000E+00 -0.18880146913E+04  0.18880146913E+04  0.50400001928E-02 0.  1.
    10030    2    1    2    0    0  0.00000000000E+00  0.00000000000E+00 -0.56323487908E+03  0.32127945035E+04  0.31630388858E+04 0.  0.
        5    1    3    3  502    0 -0.91673665979E+03 -0.17966354453E+03 -0.15778169126E+04  0.18336339308E+04  0.46999998093E+01 0.  1.
       -5    1    3    3    0  502  0.91673665979E+03  0.17966354453E+03  0.10145820335E+04  0.13791605727E+04  0.46999998093E+01 0. -1.
</event>
<event>
 5   0  0.8487944E-07  0.3205140E+04  0.7818609E-02  0.8187461E-01
        1   -1    0    0  501    0  0.00000000000E+00  0.00000000000E+00  0.18976781496E+04  0.18976781496E+04  0.50400001928E-02 0.  1.
       -1   -1    0    0    0  501  0.00000000000E+00  0.00000000000E+00 -0.13533544432E+04  0.13533544432E+04  0.50400001928E-02 0. -1.
    10030    2    1    2    0    0  0.00000000000E+00  0.00000000000E+00  0.54432370640E+03  0.32510325929E+04  0.32051403436E+04 0.  0.
        2    1    3    3  502    0 -0.55105602064E+03 -0.13353596396E+04  0.97591389875E+03  0.17433462200E+04  0.25500000920E-02 0.  1.
       -2    1    3    3    0  502  0.55105602064E+03  0.13353596396E+04 -0.43159019235E+03  0.15076863729E+04  0.25500000920E-02 0. -1.
</event>
<event>
 5   0  0.8512855E-07  0.3183146E+04  0.7818609E-02  0.8193282E-01
       -1   -1    0    0    0  501  0.00000000000E+00  0.00000000000E+00  0.17220415293E+04  0.17220415293E+04  0.50400001928E-02 0.  1.
        1   -1    0    0  501    0  0.00000000000E+00  0.00000000000E+00 -0.14709896361E+04  0.14709896361E+04  0.50400001928E-02 0. -1.
    10030    2    1    2    0    0  0.00000000000E+00  0.00000000000E+00  0.25105189319E+03  0.31930311653E+04  0.31831463946E+04 0.  0.
        5    1    3    3  502    0  0.13884845032E+04 -0.60593440941E+03  0.61493181189E+03  0.16349950909E+04  0.46999998093E+01 0.  1.
       -5    1    3    3    0  502 -0.13884845032E+04  0.60593440941E+03 -0.36387991870E+03  0.15580360744E+04  0.46999998093E+01 0. -1.
</event>
<event>
 5   0  0.2337504E-06  0.2818098E+04  0.7818609E-02  0.8297672E-01
       -2   -1    0    0    0  501  0.00000000000E+00  0.00000000000E+00  0.10996913627E+04  0.10996913627E+04  0.25500000920E-02 0. -1.
        2   -1    0    0  501    0  0.00000000000E+00  0.00000000000E+00 -0.18054325245E+04  0.18054325245E+04  0.25500000920E-02 0.  1.
    10030    2    1    2    0    0  0.00000000000E+00  0.00000000000E+00 -0.70574116182E+03  0.29051238873E+04  0.28180976230E+04 0.  0.
        1    1    3    3  502    0 -0.24418988509E+03  0.13862344751E+04 -0.28651006411E+03  0.14364409966E+04  0.50400001928E-02 0. -1.
       -1    1    3    3    0  502  0.24418988509E+03 -0.13862344751E+04 -0.41923109771E+03  0.14686828906E+04  0.50400001928E-02 0.  1.
</event>
<event>
 5   0  0.2404430E-06  0.3180959E+04  0.7818609E-02  0.8193864E-01
        2   -1    0    0  501    0  0.00000000000E+00  0.00000000000E+00  0.23543501019E+04  0.23543501019E+04  0.25500000920E-02 0.  1.
       -2   -1    0    0    0  501  0.00000000000E+00  0.00000000000E+00 -0.10744474193E+04  0.10744474193E+04  0.25500000920E-02 0. -1.
    10030    2    1    2    0    0  0.00000000000E+00  0.00000000000E+00  0.12799026826E+04  0.34287975212E+04  0.31809592208E+04 0.  0.
        4    1    3    3  502    0 -0.76609874079E+03  0.98844690879E+03  0.16992109853E+04  0.21097995539E+04  0.12699999809E+01 0.  1.
       -4    1    3    3    0  502  0.76609874079E+03 -0.98844690879E+03 -0.41930830271E+03  0.13189979673E+04  0.12699999809E+01 0. -1.
</event>
<event>
 5   0  0.8383008E-07  0.3184523E+04  0.7818609E-02  0.8192917E-01
       -1   -1    0    0    0  501  0.00000000000E+00  0.00000000000E+00  0.13186025000E+04  0.13186025000E+04  0.50400001928E-02 0. -1.
        1   -1    0    0  501    0  0.00000000000E+00  0.00000000000E+00 -0.19227152012E+04  0.19227152012E+04  0.50400001928E-02 0.  1.
    10030    2    1    2    0    0  0.00000000000E+00  0.00000000000E+00 -0.60411270122E+03  0.32413177012E+04  0.31845232429E+04 0.  0.
        4    1    3    3  502    0 -0.97989660225E+03  0.87712397321E+03 -0.12157019731E+04  0.17909429683E+04  0.12699999809E+01 0.  1.
       -4    1    3    3    0  502  0.97989660225E+03 -0.87712397321E+03  0.61158927190E+03  0.14503747329E+04  0.12699999809E+01 0. -1.
</event>
<event>
 5   0  0.8487944E-07  0.3226926E+04  0.7818609E-02  0.8181742E-01
        1   -1    0    0  501    0  0.00000000000E+00  0.00000000000E+00  0.13235019281E+04  0.13235019281E+04  0.50400001928E-02 0.  1.
       -1   -1    0    0    0  501  0.00000000000E+00  0.00000000000E+00 -0.19669501667E+04  0.19669501667E+04  0.50400001928E-02 0. -1.
    10030    2    1    2    0    0  0.00000000000E+00  0.00000000000E+00 -0.64344823864E+03  0.32904520948E+04  0.32269256813E+04 0.  0.
        2    1    3    3  502    0 -0.79791090886E+03 -0.12723458643E+04  0.27957665282E+03  0.15276416208E+04  0.25500000920E-02 0.  1.
       -2    1    3    3    0  502  0.79791090886E+03  0.12723458643E+04 -0.92302489146E+03  0.17628104740E+04  0.25500000920E-02 0. -1.
</event>
<event>
 5   0  0.8487944E-07  0.3287887E+04  0.7818609E-02  0.8165984E-01
       -1   -1    0    0    0  501  0.00000000000E+00  0.00000000000E+00  0.10915417223E+04  0.10915417223E+04  0.50400001928E-02 0.  1.
        1   -1    0    0  501    0  0.00000000000E+00  0.00000000000E+00 -0.24759022476E+04  0.24759022476E+04  0.50400001928E-02 0. -1.
    10030    2    1    2    0    0  0.00000000000E+00  0.00000000000E+00 -0.13843605253E+04  0.35674439699E+04  0.32878872266E+04 0.  0.
        2    1    3    3  502    0 -0.10675462921E+04  0.30926382034E+03  0.62211370704E+03  0.12737050917E+04  0.25500000920E-02 0.  1.
       -2    1    3    3    0  502  0.10675462921E+04 -0.30926382034E+03 -0.20064742323E+04  0.22937388782E+04  0.25500000920E-02 0. -1.
</event>
<event>
 5   0  0.2621528E-06  0.3198015E+04  0.7818609E-02  0.8189342E-01
       -2   -1    0    0    0  501  0.00000000000E+00  0.00000000000E+00  0.20236502059E+04  0.20236502059E+04  0.25500000920E-02 0. -1.
        2   -1    0    0  501    0  0.00000000000E+00  0.00000000000E+00 -0.12634717668E+04  0.12634717668E+04  0.25500000920E-02 0.  1.
    10030    2    1    2    0    0  0.00000000000E+00  0.00000000000E+00  0.76017843906E+03  0.32871219727E+04  0.31980149474E+04 0.  0.
        2    1    3    3  502    0 -0.14002958532E+03 -0.15437449994E+04  0.78354091305E+03  0.17368630546E+04  0.25500000920E-02 0. -1.
       -2    1    3    3    0  502  0.14002958532E+03  0.15437449994E+04 -0.23362473986E+02  0.15502589181E+04  0.25500000920E-02 0.  1.
</event>
<event>
 5   0  0.8681172E-07  0.3190505E+04  0.7818609E-02  0.8191329E-01
       -1   -1    0    0    0  501  0.00000000000E+00  0.00000000000E+00  0.15431143617E+04  0.15431143617E+04  0.50400001928E-02 0.  1.
        1   -1    0    0  501    0  0.00000000000E+00  0.00000000000E+00 -0.16491519205E+04  0.16491519205E+04  0.50400001928E-02 0. -1.
    10030    2    1    2    0    0  0.00000000000E+00  0.00000000000E+00 -0.10603755871E+03  0.31922662822E+04  0.31905046705E+04 0.  0.
        1    1    3    3  502    0  0.46314093861E+03 -0.15193907712E+04  0.94650543662E+02  0.15912280069E+04  0.50400001928E-02 0.  1.
       -1    1    3    3    0  502 -0.46314093861E+03  0.15193907712E+04 -0.20068810238E+03  0.16010382753E+04  0.50400001928E-02 0. -1.
</event>
<event>
 5   0  0.8383008E-07  0.3167431E+04  0.7818609E-02  0.8197472E-01
        1   -1    0    0  501    0  0.00000000000E+00  0.00000000000E+00  0.17295488890E+04  0.17295488890E+04  0.50400001928E-02 0.  1.
       -1   -1    0    0    0  501  0.00000000000E+00  0.00000000000E+00 -0.14501783784E+04  0.14501783784E+04  0.50400001928E-02 0. -1.
    10030    2    1    2    0    0  0.00000000000E+00  0.00000000000E+00  0.27937051066E+03  0.31797272674E+04  0.31674307590E+04 0.  0.
        4    1    3    3  502    0 -0.70564932827E+03 -0.14138597923E+04  0.33386014317E+02  0.15805241933E+04  0.12699999809E+01 0.  1.
       -4    1    3    3    0  502  0.70564932827E+03  0.14138597923E+04  0.24598449634E+03  0.15992030741E+04  0.12699999809E+01 0. -1.
</event>
<event>
 5   0  0.8545153E-07  0.3260166E+04  0.7818609E-02  0.8173106E-01
        1   -1    0    0  501    0  0.00000000000E+00  0.00000000000E+00  0.17457736690E+04  0.17457736690E+04  0.50400001928E-02 0.  1.
       -1   -1    0    0    0  501  0.00000000000E+00  0.00000000000E+00 -0.15220590204E+04  0.15220590204E+04  0.50400001928E-02 0. -1.
    10030    2    1    2    0    0  0.00000000000E+00  0.00000000000E+00  0.22371464858E+03  0.32678326894E+04  0.32601659838E+04 0.  0.
        3    1    3    3  502    0  0.10296353558E+04 -0.11093431248E+04  0.71857358425E+03  0.16754519213E+04  0.10100000352E+00 0.  1.
       -3    1    3    3    0  502 -0.10296353558E+04  0.11093431248E+04 -0.49485893567E+03  0.15923807681E+04  0.10100000352E+00 0. -1.
</event>
<event>
 5   0  0.8383008E-07  0.3198989E+04  0.7818609E-02  0.8189084E-01
       -1   -1    0    0    0  501  0.00000000000E+00  0.00000000000E+00  0.20963928888E+04  0.20963928888E+04  0.50400001928E-02 0.  1.
        1   -1    0    0  501    0  0.00000000000E+00  0.00000000000E+00 -0.12203739101E+04  0.12203739101E+04  0.50400001928E-02 0. -1.
    10030    2    1    2    0    0  0.00000000000E+00  0.00000000000E+00  0.87601897865E+03  0.33167667989E+04  0.31989893322E+04 0.  0.
        4    1    3    3  502    0  0.64473037078E+03  0.98301709905E+03 -0.68653405482E+03  0.13613708126E+04  0.12699999809E+01 0. -1.
       -4    1    3    3    0  502 -0.64473037078E+03 -0.98301709905E+03  0.15625530335E+04  0.19553959863E+04  0.12699999809E+01 0.  1.
</event>
<event>
 5   0  0.2404430E-06  0.3184249E+04  0.7818609E-02  0.8192989E-01
       -2   -1    0    0    0  501  0.00000000000E+00  0.00000000000E+00  0.12090338493E+04  0.12090338493E+04  0.25500000920E-02 0.  1.
        2   -1    0    0  501    0  0.00000000000E+00  0.00000000000E+00 -0.20966005887E+04  0.20966005887E+04  0.25500000920E-02 0. -1.
    10030    2    1    2    0    0  0.00000000000E+00  0.00000000000E+00 -0.88756673943E+03  0.33056344380E+04  0.31842494125E+04 0.  0.
        4    1    3    3  502    0  0.66393922660E+03 -0.14113491531E+04 -0.77555623704E+03  0.17418986246E+04  0.12699999809E+01 0. -1.
       -4    1    3    3    0  502 -0.66393922660E+03  0.14113491531E+04 -0.11201050239E+03  0.15637358134E+04  0.12699999809E+01 0.  1.
</event>
<event>
 5   0  0.2621528E-06  0.3199715E+04  0.7818609E-02  0.8188893E-01
        2   -1    0    0  501    0  0.00000000000E+00  0.00000000000E+00  0.19347675405E+04  0.19347675405E+04  0.25500000920E-02 0. -1.
       -2   -1    0    0    0  501  0.00000000000E+00  0.00000000000E+00 -0.13229204968E+04  0.13229204968E+04  0.25500000920E-02 0.  1.
    10030    2    1    2    0    0  0.00000000000E+00  0.00000000000E+00  0.61184704370E+03  0.32576880373E+04  0.31997147597E+04 0.  0.
        2    1    3    3  502    0 -0.92871698874E+02 -0.97514311586E+03 -0.98191132515E+03  0.13869675913E+04  0.25500000920E-02 0.  1.
       -2    1    3    3    0  502  0.92871698874E+02  0.97514311586E+03  0.15937583688E+04  0.18707204460E+04  0.25500000920E-02 0. -1.
</event>
<event>
 5   0  0.2401139E-06  0.3201423E+04  0.7818609E-02  0.8188441E-01
       -2   -1    0    0    0  501  0.00000000000E+00  0.00000000000E+00  0.14445832603E+04  0.14445832603E+04  0.25500000920E-02 0.  1.
        2   -1    0    0  501    0  0.00000000000E+00  0.00000000000E+00 -0.17737140599E+04  0.17737140599E+04  0.25500000920E-02 0. -1.
    10030    2    1    2    0    0  0.00000000000E+00  0.00000000000E+00 -0.32913079955E+03  0.32182973202E+04  0.32014232082E+04 0.  0.
        5    1    3    3  502    0 -0.79411838214E+03 -0.95691260794E+03  0.84869063824E+03  0.15055243716E+04  0.46999998093E+01 0.  1.
       -5    1    3    3    0  502  0.79411838214E+03  0.95691260794E+03 -0.11778214378E+04  0.17127729486E+04  0.46999998093E+01 0. -1.
</event>
<event>
 5   0  0.2466076E-06  0.3161391E+04  0.7818609E-02  0.8199089E-01
       -2   -1    0    0    0  501  0.00000000000E+00  0.00000000000E+00  0.13198786920E+04  0.13198786920E+04  0.25500000920E-02 0. -1.
        2   -1    0    0  501    0  0.00000000000E+00  0.00000000000E+00 -0.18930517740E+04  0.18930517740E+04  0.25500000920E-02 0.  1.
    10030    2    1    2    0    0  0.00000000000E+00  0.00000000000E+00 -0.57317308199E+03  0.32129304660E+04  0.31613912756E+04 0.  0.
        3    1    3    3  502    0 -0.59891562743E+03 -0.12821314493E+04  0.42919488061E+03  0.14787728824E+04  0.10100000352E+00 0. -1.
       -3    1    3    3    0  502  0.59891562743E+03  0.12821314493E+04 -0.10023679626E+04  0.17341575836E+04  0.10100000352E+00 0.  1.
</event>
<event>
 5   0  0.2337504E-06  0.3218314E+04  0.7818609E-02  0.8183997E-01
       -2   -1    0    0    0  501  0.00000000000E+00  0.00000000000E+00  0.10008788177E+04  0.10008788177E+04  0.25500000920E-02 0. -1.
        2   -1    0    0  501    0  0.00000000000E+00  0.00000000000E+00 -0.25871123331E+04  0.25871123331E+04  0.25500000920E-02 0.  1.
    10030    2    1    2    0    0  0.00000000000E+00  0.00000000000E+00 -0.15862335154E+04  0.35879911507E+04  0.32183138027E+04 0.  0.
        1    1    3    3  502    0  0.80203109052E+03 -0.68895916319E+03 -0.21454953523E+04  0.23918756041E+04  0.50400001928E-02 0.  1.
       -1    1    3    3    0  502 -0.80203109052E+03  0.68895916319E+03  0.55926183693E+03  0.11961155467E+04  0.50400001928E-02 0. -1.
</event>
<event>
 5   0  0.8545153E-07  0.3213512E+04  0.7818609E-02  0.8185258E-01
        1   -1    0    0  501    0  0.00000000000E+00  0.00000000000E+00  0.16853946786E+04  0.16853946786E+04  0.50400001928E-02 0.  1.
       -1   -1    0    0    0  501  0.00000000000E+00  0.00000000000E+00 -0.15317861896E+04  0.15317861896E+04  0.50400001928E-02 0. -1.
    10030    2    1    2    0    0  0.00000000000E+00  0.00000000000E+00  0.15360848905E+03  0.32171808682E+04  0.32135116572E+04 0.  0.
        3    1    3    3  502    0 -0.12160742811E+03 -0.64842836355E+03  0.15435424488E+04  0.16786217592E+04  0.10100000352E+00 0.  1.
       -3    1    3    3    0  502  0.12160742811E+03  0.64842836355E+03 -0.13899339597E+04  0.15385591090E+04  0.10100000352E+00 0. -1.
</event>
<event>
 5   0  0.8545153E-07  0.3280949E+04  0.7818609E-02  0.8167760E-01
        1   -1    0    0  501    0  0.00000000000E+00  0.00000000000E+00  0.22641694040E+04  0.22641694040E+04  0.50400001928E-02 0.  1.
       -1   -1    0    0    0  501  0.00000000000E+00  0.00000000000E+00 -0.11885844360E+04  0.11885844360E+04  0.50400001928E-02 0. -1.
    10030    2    1    2    0    0  0.00000000000E+00  0.00000000000E+00  0.10755849680E+04  0.34527538399E+04  0.32809489566E+04 0.  0.
        3    1    3    3  502    0 -0.46830081030E+03 -0.14205470959E+04  0.12467899860E+04  0.19472403498E+04  0.10100000352E+00 0.  1.
       -3    1    3    3    0  502  0.46830081030E+03  0.14205470959E+04 -0.17120501796E+03  0.15055134901E+04  0.10100000352E+00 0. -1.
</event>
<event>
 5   0  0.2401139E-06  0.3234995E+04  0.7818609E-02  0.8179636E-01
       -2   -1    0    0    0  501  0.00000000000E+00  0.00000000000E+00  0.12634571583E+04  0.12634571583E+04  0.25500000920E-02 0.  1.
        2   -1    0    0  501    0  0.00000000000E+00  0.00000000000E+00 -0.20707455175E+04  0.20707455175E+04  0.25500000920E-02 0. -1.
    10030    2    1    2    0    0  0.00000000000E+00  0.00000000000E+00 -0.80728835911E+03  0.33342026758E+04  0.32349950523E+04 0.  0.
        5    1    3    3  502    0  0.61997230937E+03  0.54705000197E+03 -0.18364740263E+04  0.20140229166E+04  0.46999998093E+01 0. -1.
       -5    1    3    3    0  502 -0.61997230937E+03 -0.54705000197E+03  0.10291856672E+04  0.13201797592E+04  0.46999998093E+01 0.  1.
</event>
<event>
 5   0  0.8383008E-07  0.3170962E+04  0.7818609E-02  0.8196528E-01
        1   -1    0    0  501    0  0.00000000000E+00  0.00000000000E+00  0.17595515593E+04  0.17595515593E+04  0.50400001928E-02 0.  1.
       -1   -1    0    0    0  501  0.00000000000E+00  0.00000000000E+00 -0.14286307174E+04  0.14286307174E+04  0.50400001928E-02 0. -1.
    10030    2    1    2    0    0  0.00000000000E+00  0.00000000000E+00  0.33092084190E+03  0.31881822767E+04  0.31709616248E+04 0.  0.
        4    1    3    3  502    0  0.12367125591E+04  0.21136551113E+03 -0.80914091622E+03  0.14929313341E+04  0.12699999809E+01 0. -1.
       -4    1    3    3    0  502 -0.12367125591E+04 -0.21136551113E+03  0.11400617581E+04  0.16952509426E+04  0.12699999809E+01 0.  1.
</event>
<event>
 5   0  0.2337504E-06  0.3208099E+04  0.7818609E-02  0.8186681E-01
       -2   -1    0    0    0  501  0.00000000000E+00  0.00000000000E+00  0.89647783189E+03  0.89647783189E+03  0.25500000920E-02 0.  1.
        2   -1    0    0  501    0  0.00000000000E+00  0.00000000000E+00 -0.28700939480E+04  0.28700939480E+04  0.25500000920E-02 0. -1.
    10030    2    1    2    0    0  0.00000000000E+00  0.00000000000E+00 -0.19736161161E+04  0.37665717799E+04  0.32080994996E+04 0.  0.
        1    1    3    3  502    0 -0.31463788600E+03 -0.13574391234E+04 -0.19196955184E+04  0.23721022019E+04  0.50400001928E-02 0. -1.
       -1    1    3    3    0  502  0.31463788600E+03  0.13574391234E+04 -0.53920597711E+02  0.13944695780E+04  0.50400001928E-02 0.  1.
</event>
<event>
 5   0  0.2466076E-06  0.3179937E+04  0.7818609E-02  0.8194136E-01
        2   -1    0    0  501    0  0.00000000000E+00  0.00000000000E+00  0.17785886064E+04  0.17785886064E+04  0.25500000920E-02 0.  1.
       -2   -1    0    0    0  501  0.00000000000E+00  0.00000000000E+00 -0.14213518528E+04  0.14213518528E+04  0.25500000920E-02 0. -1.
    10030    2    1    2    0    0  0.00000000000E+00  0.00000000000E+00  0.35723675357E+03  0.31999404592E+04  0.31799372390E+04 0.  0.
        3    1    3    3  502    0  0.11708834760E+04  0.11217720398E+03 -0.89790000475E+03  0.14797892648E+04  0.10100000352E+00 0.  1.
       -3    1    3    3    0  502 -0.11708834760E+04 -0.11217720398E+03  0.12551367583E+04  0.17201511944E+04  0.10100000352E+00 0. -1.
</event>
<event>
 5   0  0.8545153E-07  0.3007438E+04  0.7818609E-02  0.8241610E-01
        1   -1    0    0  501    0  0.00000000000E+00  0.00000000000E+00  0.18505641612E+04  0.18505641613E+04  0.50400001928E-02 0. -1.
       -1   -1    0    0    0  501  0.00000000000E+00  0.00000000000E+00 -0.12218821997E+04  0.12218821997E+04  0.50400001928E-02 0.  1.
    10030    2    1    2    0    0  0.00000000000E+00  0.00000000000E+00  0.62868196153E+03  0.30724463610E+04  0.30074383838E+04 0.  0.
        3    1    3    3  502    0  0.58314156763E+03  0.10935117302E+04  0.11844250183E+04  0.17142592062E+04  0.10100000352E+00 0. -1.
       -3    1    3    3    0  502 -0.58314156763E+03 -0.10935117302E+04 -0.55574305681E+03  0.13581871547E+04  0.10100000352E+00 0.  1.
</event>
<event>
 5   0  0.2466076E-06  0.3229611E+04  0.7818609E-02  0.8181041E-01
        2   -1    0    0  501    0  0.00000000000E+00  0.00000000000E+00  0.23223719676E+04  0.23223719676E+04  0.25500000920E-02 0.  1.
       -2   -1    0    0    0  501  0.00000000000E+00  0.00000000000E+00 -0.11228159704E+04  0.11228159704E+04  0.25500000920E-02 0. -1.
    10030    2    1    2    0    0  0.00000000000E+00  0.00000000000E+00  0.11995559973E+04  0.34451879380E+04  0.32296107099E+04 0.  0.
        3    1    3    3  502    0 -0.83985085982E+03  0.46933088448E+02  0.20702087846E+04  0.22345730249E+04  0.10100000352E+00 0.  1.
       -3    1    3    3    0  502  0.83985085982E+03 -0.46933088448E+02 -0.87065278734E+03  0.12106149131E+04  0.10100000352E+00 0. -1.
</event>
<event>
 5   0  0.2337504E-06  0.3196341E+04  0.7818609E-02  0.8189784E-01
       -2   -1    0    0    0  501  0.00000000000E+00  0.00000000000E+00  0.98108149203E+03  0.98108149203E+03  0.25500000920E-02 0.  1.
        2   -1    0    0  501    0  0.00000000000E+00  0.00000000000E+00 -0.26034009782E+04  0.26034009782E+04  0.25500000920E-02 0. -1.
    10030    2    1    2    0    0  0.00000000000E+00  0.00000000000E+00 -0.16223194861E+04  0.35844824702E+04  0.31963407303E+04 0.  0.
        1    1    3    3  502    0  0.18828014049E+03 -0.13206295009E+04  0.17585232228E+03  0.13455243325E+04  0.50400001928E-02 0.  1.
       -1    1    3    3    0  502 -0.18828014049E+03  0.13206295009E+04 -0.17981718084E+04  0.22389581377E+04  0.50400001928E-02 0. -1.
</event>
<event>
 5   0  0.8487944E-07  0.3162303E+04  0.7818609E-02  0.8198844E-01
        1   -1    0    0  501    0  0.00000000000E+00  0.00000000000E+00  0.15195121202E+04  0.15195121202E+04  0.50400001928E-02 0.  1.
       -1   -1    0    0    0  501  0.00000000000E+00  0.00000000000E+00 -0.16452913101E+04  0.16452913101E+04  0.50400001928E-02 0. -1.
    10030    2    1    2    0    0  0.00000000000E+00  0.00000000000E+00 -0.12577918988E+03  0.31648034303E+04  0.31623030132E+04 0.  0.
        2    1    3    3  502    0 -0.13050489590E+04  0.10369567755E+03 -0.95023292453E+03  0.16176675152E+04  0.25500000920E-02 0. -1.
       -2    1    3    3    0  502  0.13050489590E+04 -0.10369567755E+03  0.82445373465E+03  0.15471359150E+04  0.25500000920E-02 0.  1.
</event>
<event>
 5   0  0.2404430E-06  0.2939128E+04  0.7818609E-02  0.8261330E-01
        2   -1    0    0  501    0  0.00000000000E+00  0.00000000000E+00  0.18520302103E+04  0.18520302103E+04  0.25500000920E-02 0. -1.
       -2   -1    0    0    0  501  0.00000000000E+00  0.00000000000E+00 -0.11660817415E+04  0.11660817415E+04  0.25500000920E-02 0.  1.
    10030    2    1    2    0    0  0.00000000000E+00  0.00000000000E+00  0.68594846878E+03  0.30181119518E+04  0.29391281788E+04 0.  0.
        4    1    3    3  502    0 -0.14315924067E+04 -0.31043511045E+03  0.46356178276E+03  0.15364627936E+04  0.12699999809E+01 0. -1.
       -4    1    3    3    0  502  0.14315924067E+04  0.31043511045E+03  0.22238668601E+03  0.14816491582E+04  0.12699999809E+01 0.  1.
</event>
<event>
 5   0  0.2621528E-06  0.2796410E+04  0.7818609E-02  0.8304384E-01
       -2   -1    0    0    0  501  0.00000000000E+00  0.00000000000E+00  0.10559623772E+04  0.10559623772E+04  0.25500000920E-02 0. -1.
        2   -1    0    0  501    0  0.00000000000E+00  0.00000000000E+00 -0.18513704516E+04  0.18513704516E+04  0.25500000920E-02 0.  1.
    10030    2    1    2    0    0  0.00000000000E+00  0.00000000000E+00 -0.79540807439E+03  0.29073328289E+04  0.27964102298E+04 0.  0.
        2    1    3    3  502    0 -0.59960221315E+03  0.37995029509E+03  0.85469123414E+03  0.11110275183E+04  0.25500000920E-02 0. -1.
       -2    1    3    3    0  502  0.59960221315E+03 -0.37995029509E+03 -0.16500993085E+04  0.17963053106E+04  0.25500000920E-02 0.  1.
</event>
<event>
 5   0  0.8545153E-07  0.3190649E+04  0.7818609E-02  0.8191291E-01
       -1   -1    0    0    0  501  0.00000000000E+00  0.00000000000E+00  0.28795493469E+04  0.28795493469E+04  0.50400001928E-02 0. -1.
        1   -1    0    0  501    0  0.00000000000E+00  0.00000000000E+00 -0.88383995511E+03  0.88383995513E+03  0.50400001928E-02 0.  1.
    10030    2    1    2    0    0  0.00000000000E+00  0.00000000000E+00  0.19957093917E+04  0.37633893020E+04  0.31906493167E+04 0.  0.
        3    1    3    3  502    0  0.63726363695E+03 -0.59429702717E+03 -0.57834939902E+03  0.10458403019E+04  0.10100000352E+00 0.  1.
       -3    1    3    3    0  502 -0.63726363695E+03  0.59429702717E+03  0.25740587908E+04  0.27175490001E+04  0.10100000352E+00 0. -1.
</event>
<event>
 5   0  0.8383008E-07  0.3184826E+04  0.7818609E-02  0.8192836E-01
       -1   -1    0    0    0  501  0.00000000000E+00  0.00000000000E+00  0.90384558235E+03  0.90384558236E+03  0.50400001928E-02 0. -1.
        1   -1    0    0  501    0  0.00000000000E+00  0.00000000000E+00 -0.28055454688E+04  0.28055454688E+04  0.50400001928E-02 0.  1.
    10030    2    1    2    0    0  0.00000000000E+00  0.00000000000E+00 -0.19016998865E+04  0.37093910512E+04  0.31848264493E+04 0.  0.
        4    1    3    3  502    0 -0.10063442858E+04  0.59674306405E+03  0.30732909130E+03  0.12096627172E+04  0.12699999809E+01 0. -1.
       -4    1    3    3    0  502  0.10063442858E+04 -0.59674306405E+03 -0.22090289778E+04  0.24997283340E+04  0.12699999809E+01 0.  1.
</event>
<event>
 5   0  0.8512855E-07  0.3226006E+04  0.7818609E-02  0.8181983E-01
        1   -1    0    0  501    0  0.00000000000E+00  0.00000000000E+00  0.17180609721E+04  0.17180609721E+04  0.50400001928E-02 0.  1.
       -1   -1    0    0    0  501  0.00000000000E+00  0.00000000000E+00 -0.15143693600E+04  0.15143693600E+04  0.50400001928E-02 0. -1.
    10030    2    1    2    0    0  0.00000000000E+00  0.00000000000E+00  0.20369161212E+03  0.32324303321E+04  0.32260061343E+04 0.  0.
        5    1    3    3  502    0 -0.14279024694E+04  0.21737912827E+03  0.82132700917E+03  0.16615532773E+04  0.46999998093E+01 0.  1.
       -5    1    3    3    0  502  0.14279024694E+04 -0.21737912827E+03 -0.61763539705E+03  0.15708770547E+04  0.46999998093E+01 0. -1.
</event>
<event>
 5   0  0.8383008E-07  0.3180877E+04  0.7818609E-02  0.8193886E-01
       -1   -1    0    0    0  501  0.00000000000E+00  0.00000000000E+00  0.15233686376E+04  0.15233686376E+04  0.50400001928E-02 0.  1.
        1   -1    0    0  501    0  0.00000000000E+00  0.00000000000E+00 -0.16604613839E+04  0.16604613839E+04  0.50400001928E-02 0. -1.
    10030    2    1    2    0    0  0.00000000000E+00  0.00000000000E+00 -0.13709274630E+03  0.31838300215E+04  0.31808771093E+04 0.  0.
        4    1    3    3  502    0  0.17100393843E+03  0.51942409816E+03  0.14263089921E+04  0.15275479352E+04  0.12699999809E+01 0.  1.
       -4    1    3    3    0  502 -0.17100393843E+03 -0.51942409816E+03 -0.15634017384E+04  0.16562820862E+04  0.12699999809E+01 0. -1.
</event>
<event>
 5   0  0.8681172E-07  0.3144394E+04  0.7818609E-02  0.8203659E-01
        1   -1    0    0  501    0  0.00000000000E+00  0.00000000000E+00  0.11522784155E+04  0.11522784155E+04  0.50400001928E-02 0.  1.
       -1   -1    0    0    0  501  0.00000000000E+00  0.00000000000E+00 -0.21451441701E+04  0.21451441701E+04  0.50400001928E-02 0. -1.
    10030    2    1    2    0    0  0.00000000000E+00  0.00000000000E+00 -0.99286575461E+03  0.32974225856E+04  0.31443939482E+04 0.  0.
        1    1    3    3  502    0 -0.98769614530E+03  0.12493512759E+02 -0.17791133555E+04  0.20349309804E+04  0.50400001928E-02 0. -1.
       -1    1    3    3    0  502  0.98769614530E+03 -0.12493512759E+02  0.78624760089E+03  0.12624916052E+04  0.50400001928E-02 0.  1.
</event>
<event>
 5   0  0.2401139E-06  0.3229339E+04  0.7818609E-02  0.8181111E-01
        2   -1    0    0  501    0  0.00000000000E+00  0.00000000000E+00  0.21847835671E+04  0.21847835671E+04  0.25500000920E-02 0.  1.
       -2   -1    0    0    0  501  0.00000000000E+00  0.00000000000E+00 -0.11933255094E+04  0.11933255094E+04  0.25500000920E-02 0. -1.
    10030    2    1    2    0    0  0.00000000000E+00  0.00000000000E+00  0.99145805777E+03  0.33781090765E+04  0.32293392284E+04 0.  0.
        5    1    3    3  502    0  0.66260564580E+02  0.12774720856E+04 -0.53495899196E+03  0.13865527776E+04  0.46999998093E+01 0. -1.
       -5    1    3    3    0  502 -0.66260564580E+02 -0.12774720856E+04  0.15264170497E+04  0.19915562989E+04  0.46999998093E+01 0.  1.
</event>
<event>
 5   0  0.8383008E-07  0.3189252E+04  0.7818609E-02  0.8191662E-01
        1   -1    0    0  501    0  0.00000000000E+00  0.00000000000E+00  0.16629567147E+04  0.16629567147E+04  0.50400001928E-02 0. -1.
       -1   -1    0    0    0  501  0.00000000000E+00  0.00000000000E+00 -0.15291027610E+04  0.15291027610E+04  0.50400001928E-02 0.  1.
    10030    2    1    2    0    0  0.00000000000E+00  0.00000000000E+00  0.13385395372E+03  0.31920594757E+04  0.31892517642E+04 0.  0.
        4    1    3    3  502    0  0.32055579753E+03  0.12762644379E+03 -0.14912947923E+04  0.15306881782E+04  0.12699999809E+01 0.  1.
       -4    1    3    3    0  502 -0.32055579753E+03 -0.12762644379E+03  0.16251487460E+04  0.16613712975E+04  0.12699999809E+01 0. -1.
</event>
<event>
 5   0  0.7934375E-07  0.3222647E+04  0.7818609E-02  0.8182862E-01
        4   -1    0    0  501    0  0.00000000000E+00  0.00000000000E+00  0.12462795556E+04  0.12462802027E+04  0.12699999809E+01 0. -1.
       -4   -1    0    0    0  501  0.00000000000E+00  0.00000000000E+00 -0.20832902444E+04  0.20832906315E+04  0.12699999809E+01 0.  1.
    10030    2    1    2    0    0  0.00000000000E+00  0.00000000000E+00 -0.83701068883E+03  0.33295708342E+04  0.32226472110E+04 0.  0.
        1    1    3    3  502    0  0.94536378453E+03 -0.13012558154E+04 -0.31841820631E+03  0.16396248158E+04  0.50400001928E-02 0.  1.
       -1    1    3    3    0  502 -0.94536378453E+03  0.13012558154E+04 -0.51859248252E+03  0.16899460185E+04  0.50400001928E-02 0. -1.
</event>
<event>
 5   0  0.2466076E-06  0.3152891E+04  0.7818609E-02  0.8201370E-01
       -2   -1    0    0    0  501  0.00000000000E+00  0.00000000000E+00  0.11590834335E+04  0.11590834335E+04  0.25500000920E-02 0.  1.
        2   -1    0    0  501    0  0.00000000000E+00  0.00000000000E+00 -0.21440914253E+04  0.21440914253E+04  0.25500000920E-02 0. -1.
    10030    2    1    2    0    0  0.00000000000E+00  0.00000000000E+00 -0.98500799176E+03  0.33031748588E+04  0.31528912769E+04 0.  0.
        3    1    3    3  502    0 -0.92355271718E+02 -0.15006682722E+04 -0.98906429402E+03  0.17996618981E+04  0.10100000352E+00 0.  1.
       -3    1    3    3    0  502  0.92355271718E+02  0.15006682722E+04  0.40563022606E+01  0.15035129608E+04  0.10100000352E+00 0. -1.
</event>
<event>
 5   0  0.2466076E-06  0.3231377E+04  0.7818609E-02  0.8180579E-01
        2   -1    0    0  501    0  0.00000000000E+00  0.00000000000E+00  0.20508430684E+04  0.20508430684E+04  0.25500000920E-02 0. -1.
       -2   -1    0    0    0  501  0.00000000000E+00  0.00000000000E+00 -0.12728662110E+04  0.12728662110E+04  0.25500000920E-02 0.  1.
    10030    2    1    2    0    0  0.00000000000E+00  0.00000000000E+00  0.77797685740E+03  0.33237092794E+04  0.32313767009E+04 0.  0.
        3    1    3    3  502    0  0.50184267926E+03 -0.14320277286E+04  0.95973041604E+03  0.17954475687E+04  0.10100000352E+00 0. -1.
       -3    1    3    3    0  502 -0.50184267926E+03  0.14320277286E+04 -0.18175355865E+03  0.15282617107E+04  0.10100000352E+00 0.  1.
</event>
<event>
 5   0  0.8512855E-07  0.3188166E+04  0.7818609E-02  0.8191950E-01
       -1   -1    0    0    0  501  0.00000000000E+00  0.00000000000E+00  0.16573150318E+04  0.16573150318E+04  0.50400001928E-02 0. -1.
        1   -1    0    0  501    0  0.00000000000E+00  0.00000000000E+00 -0.15332631541E+04  0.15332631542E+04  0.50400001928E-02 0.  1.
    10030    2    1    2    0    0  0.00000000000E+00  0.00000000000E+00  0.12405187764E+03  0.31905781859E+04  0.31881656626E+04 0.  0.
        5    1    3    3  502    0  0.63604770285E+03  0.13145045809E+04 -0.57767526252E+03  0.15704170696E+04  0.46999998093E+01 0.  1.
       -5    1    3    3    0  502 -0.63604770285E+03 -0.13145045809E+04  0.70172714016E+03  0.16201611163E+04  0.46999998093E+01 0. -1.
</event>
<event>
 5   0  0.2401139E-06  0.3118893E+04  0.7818609E-02  0.8210572E-01
       -2   -1    0    0    0  501  0.00000000000E+00  0.00000000000E+00  0.14057185104E+04  0.14057185104E+04  0.25500000920E-02 0. -1.
        2   -1    0    0  501    0  0.00000000000E+00  0.00000000000E+00 -0.17299856984E+04  0.17299856984E+04  0.25500000920E-02 0.  1.
    10030    2    1    2    0    0  0.00000000000E+00  0.00000000000E+00 -0.32426718804E+03  0.31357042088E+04  0.31188927003E+04 0.  0.
        5    1    3    3  502    0 -0.40486385469E+03 -0.13426738028E+04 -0.84783857656E+03  0.16387617348E+04  0.46999998093E+01 0.  1.
       -5    1    3    3    0  502  0.40486385469E+03  0.13426738028E+04  0.52357138852E+03  0.14969424740E+04  0.46999998093E+01 0. -1.
</event>
<event>
 5   0  0.2466076E-06  0.3220775E+04  0.7818609E-02  0.8183352E-01
        2   -1    0    0  501    0  0.00000000000E+00  0.00000000000E+00  0.15228367403E+04  0.15228367403E+04  0.25500000920E-02 0. -1.
       -2   -1    0    0    0  501  0.00000000000E+00  0.00000000000E+00 -0.17029713751E+04  0.17029713751E+04  0.25500000920E-02 0.  1.
    10030    2    1    2    0    0  0.00000000000E+00  0.00000000000E+00 -0.18013463485E+03  0.32258081154E+04  0.32207746755E+04 0.  0.
        3    1    3    3  502    0 -0.34067233661E+03  0.13303426212E+04  0.75236443916E+03  0.15658612295E+04  0.10100000352E+00 0. -1.
       -3    1    3    3    0  502  0.34067233661E+03 -0.13303426212E+04 -0.93249907401E+03  0.16599468859E+04  0.10100000352E+00 0.  1.
</event>
<event>
 5   0  0.8545153E-07  0.3208623E+04  0.7818609E-02  0.8186543E-01
       -1   -1    0    0    0  501  0.00000000000E+00  0.00000000000E+00  0.12907716037E+04  0.12907716037E+04  0.50400001928E-02 0. -1.
        1   -1    0    0  501    0  0.00000000000E+00  0.00000000000E+00 -0.19940134853E+04  0.19940134853E+04  0.50400001928E-02 0.  1.
    10030    2    1    2    0    0  0.00000000000E+00  0.00000000000E+00 -0.70324188162E+03  0.32847850890E+04  0.32086233710E+04 0.  0.
        3    1    3    3  502    0  0.12203370042E+04 -0.54778814259E+03  0.55513561518E+03  0.14482644145E+04  0.10100000352E+00 0. -1.
       -3    1    3    3    0  502 -0.12203370042E+04  0.54778814259E+03 -0.12583774968E+04  0.18365206744E+04  0.10100000352E+00 0.  1.
</event>
<event>
 5   0  0.8545153E-07  0.3195954E+04  0.7818609E-02  0.8189887E-01
       -1   -1    0    0    0  501  0.00000000000E+00  0.00000000000E+00  0.92089114763E+03  0.92089114765E+03  0.50400001928E-02 0. -1.
        1   -1    0    0  501    0  0.00000000000E+00  0.00000000000E+00 -0.27728901565E+04  0.27728901565E+04  0.50400001928E-02 0.  1.
    10030    2    1    2    0    0  0.00000000000E+00  0.00000000000E+00 -0.18519990089E+04  0.36937813042E+04  0.31959536908E+04 0.  0.
        3    1    3    3  502    0  0.11602610994E+04  0.26473419577E+03 -0.21585274064E+04  0.24648591415E+04  0.10100000352E+00 0.  1.
       -3    1    3    3    0  502 -0.11602610994E+04 -0.26473419577E+03  0.30652839753E+03  0.12289221626E+04  0.10100000352E+00 0. -1.
</event>
<event>
 5   0  0.8383008E-07  0.3185735E+04  0.7818609E-02  0.8192595E-01
        1   -1    0    0  501    0  0.00000000000E+00  0.00000000000E+00  0.11335249523E+04  0.11335249523E+04  0.50400001928E-02 0. -1.
       -1   -1    0    0    0  501  0.00000000000E+00  0.00000000000E+00 -0.22383515756E+04  0.22383515756E+04  0.50400001928E-02 0.  1.
    10030    2    1    2    0    0  0.00000000000E+00  0.00000000000E+00 -0.11048266233E+04  0.33718765279E+04  0.31857353079E+04 0.  0.
        4    1    3    3  502    0 -0.15863283626E+04 -0.10651312719E+03 -0.65526647463E+03  0.17196390569E+04  0.12699999809E+01 0.  1.
       -4    1    3    3    0  502  0.15863283626E+04  0.10651312719E+03 -0.44956014866E+03  0.16522374710E+04  0.12699999809E+01 0. -1.
</event>
<event>
 5   0  0.2337504E-06  0.3141951E+04  0.7818609E-02  0.8204318E-01
        2   -1    0    0  501    0  0.00000000000E+00  0.00000000000E+00  0.23405726163E+04  0.23405726163E+04  0.25500000920E-02 0.  1.
       -2   -1    0    0    0  501  0.00000000000E+00  0.00000000000E+00 -0.10544274235E+04  0.10544274235E+04  0.25500000920E-02 0. -1.
    10030    2    1    2    0    0  0.00000000000E+00  0.00000000000E+00  0.12861451928E+04  0.33950000398E+04  0.31419509565E+04 0.  0.
        1    1    3    3  502    0  0.15136256103E+03  0.15558941944E+04  0.47481849279E+03  0.16337594591E+04  0.50400001928E-02 0.  1.
       -1    1    3    3    0  502 -0.15136256103E+03 -0.15558941944E+04  0.81132669999E+03  0.17612405807E+04  0.50400001928E-02 0. -1.
</event>
<event>
 5   0  0.2401139E-06  0.3207855E+04  0.7818609E-02  0.8186746E-01
       -2   -1    0    0    0  501  0.00000000000E+00  0.00000000000E+00  0.17906569000E+04  0.17906569000E+04  0.25500000920E-02 0. -1.
        2   -1    0    0  501    0  0.00000000000E+00  0.00000000000E+00 -0.14366706314E+04  0.14366706314E+04  0.25500000920E-02 0.  1.
    10030    2    1    2    0    0  0.00000000000E+00  0.00000000000E+00  0.35398626856E+03  0.32273275314E+04  0.32078554700E+04 0.  0.
        5    1    3    3  502    0 -0.94256745947E+03 -0.12728531794E+04  0.43145819519E+03  0.16415745174E+04  0.46999998093E+01 0. -1.
       -5    1    3    3    0  502  0.94256745947E+03  0.12728531794E+04 -0.77471926632E+02  0.15857530140E+04  0.46999998093E+01 0.  1.
</event>
<event>
 5   0  0.2621528E-06  0.3270446E+04  0.7818609E-02  0.8170456E-01
        2   -1    0    0  501    0  0.00000000000E+00  0.00000000000E+00  0.15252516017E+04  0.15252516017E+04  0.25500000920E-02 0. -1.
       -2   -1    0    0    0  501  0.00000000000E+00  0.00000000000E+00 -0.17531232103E+04  0.17531232103E+04  0.25500000920E-02 0.  1.
    10030    2    1    2    0    0  0.00000000000E+00  0.00000000000E+00 -0.22787160854E+03  0.32783748120E+04  0.32704458317E+04 0.  0.
        2    1    3    3  502    0 -0.11354569297E+04 -0.11588367974E+04  0.90982951108E+02  0.16249440174E+04  0.25500000920E-02 0. -1.
       -2    1    3    3    0  502  0.11354569297E+04  0.11588367974E+04 -0.31885455965E+03  0.16534307946E+04  0.25500000920E-02 0.  1.
</event>
<event>
 5   0  0.2466076E-06  0.3190822E+04  0.7818609E-02  0.8191245E-01
       -2   -1    0    0    0  501  0.00000000000E+00  0.00000000000E+00  0.91250874305E+03  0.91250874306E+03  0.25500000920E-02 0. -1.
        2   -1    0    0  501    0  0.00000000000E+00  0.00000000000E+00 -0.27893826059E+04  0.27893826059E+04  0.25500000920E-02 0.  1.
    10030    2    1    2    0    0  0.00000000000E+00  0.00000000000E+00 -0.18768738629E+04  0.37018913490E+04  0.31908218475E+04 0.  0.
        3    1    3    3  502    0 -0.14495890502E+04  0.24847242509E+03 -0.22111016345E+03  0.14872581064E+04  0.10100000352E+00 0. -1.
       -3    1    3    3    0  502  0.14495890502E+04 -0.24847242509E+03 -0.16557636994E+04  0.22146332425E+04  0.10100000352E+00 0.  1.
</event>
<event>
 5   0  0.8487944E-07  0.3213293E+04  0.7818609E-02  0.8185315E-01
        1   -1    0    0  501    0  0.00000000000E+00  0.00000000000E+00  0.24132058862E+04  0.24132058862E+04  0.50400001928E-02 0. -1.
       -1   -1    0    0    0  501  0.00000000000E+00  0.00000000000E+00 -0.10696615662E+04  0.10696615662E+04  0.50400001928E-02 0.  1.
    10030    2    1    2    0    0  0.00000000000E+00  0.00000000000E+00  0.13435443200E+04  0.34828674525E+04  0.32132933809E+04 0.  0.
        2    1    3    3  502    0  0.45212370170E+03 -0.20485415378E+03 -0.98446961491E+03  0.11025250513E+04  0.25500000920E-02 0.  1.
       -2    1    3    3    0  502 -0.45212370170E+03  0.20485415378E+03  0.23280139349E+04  0.23803424012E+04  0.25500000920E-02 0. -1.
</event>
<event>
 5   0  0.8681172E-07  0.3192169E+04  0.7818609E-02  0.8190888E-01
        1   -1    0    0  501    0  0.00000000000E+00  0.00000000000E+00  0.82449240966E+03  0.82449240967E+03  0.50400001928E-02 0.  1.
       -1   -1    0    0    0  501  0.00000000000E+00  0.00000000000E+00 -0.30897621048E+04  0.30897621048E+04  0.50400001928E-02 0. -1.
    10030    2    1    2    0    0  0.00000000000E+00  0.00000000000E+00 -0.22652696951E+04  0.39142545145E+04  0.31921687945E+04 0.  0.
        1    1    3    3  502    0  0.66197654213E+03 -0.13710593257E+04 -0.54524691148E+03  0.16171922617E+04  0.50400001928E-02 0.  1.
       -1    1    3    3    0  502 -0.66197654213E+03  0.13710593257E+04 -0.17200227837E+04  0.22970622528E+04  0.50400001928E-02 0. -1.
</event>
<event>
 5   0  0.2466076E-06  0.3202871E+04  0.7818609E-02  0.8188059E-01
       -2   -1    0    0    0  501  0.00000000000E+00  0.00000000000E+00  0.16209585675E+04  0.16209585675E+04  0.25500000920E-02 0.  1.
        2   -1    0    0  501    0  0.00000000000E+00  0.00000000000E+00 -0.15821473502E+04  0.15821473502E+04  0.25500000920E-02 0. -1.
    10030    2    1    2    0    0  0.00000000000E+00  0.00000000000E+00  0.38811217287E+02  0.32031059177E+04  0.32028707763E+04 0.  0.
        3    1    3    3  502    0  0.45048602529E+03 -0.96486471038E+03 -0.11767983049E+04  0.15870588612E+04  0.10100000352E+00 0. -1.
       -3    1    3    3    0  502 -0.45048602529E+03  0.96486471038E+03  0.12156095222E+04  0.16160470565E+04  0.10100000352E+00 0.  1.
</event>
<event>
 5   0  0.2401139E-06  0.3206059E+04  0.7818609E-02  0.8187219E-01
       -2   -1    0    0    0  501  0.00000000000E+00  0.00000000000E+00  0.20134313034E+04  0.20134313034E+04  0.25500000920E-02 0.  1.
        2   -1    0    0  501    0  0.00000000000E+00  0.00000000000E+00 -0.12762808407E+04  0.12762808407E+04  0.25500000920E-02 0. -1.
    10030    2    1    2    0    0  0.00000000000E+00  0.00000000000E+00  0.73715046274E+03  0.32897121441E+04  0.32060591365E+04 0.  0.
        5    1    3    3  502    0 -0.13359813960E+04 -0.26259871651E+03 -0.49959656707E+03  0.14503183086E+04  0.46999998093E+01 0. -1.
       -5    1    3    3    0  502  0.13359813960E+04  0.26259871651E+03  0.12367470298E+04  0.18393938355E+04  0.46999998093E+01 0.  1.
</event>
<event>
 5   0  0.8545153E-07  0.2893518E+04  0.7818609E-02  0.8274809E-01
        1   -1    0    0  501    0  0.00000000000E+00  0.00000000000E+00  0.17528065323E+04  0.17528065323E+04  0.50400001928E-02 0. -1.
       -1   -1    0    0    0  501  0.00000000000E+00  0.00000000000E+00 -0.11941483572E+04  0.11941483573E+04  0.50400001928E-02 0.  1.
    10030    2    1    2    0    0  0.00000000000E+00  0.00000000000E+00  0.55865817503E+03  0.29469548895E+04  0.28935176109E+04 0.  0.
        3    1    3    3  502    0 -0.50621204086E+03  0.12273789697E+04 -0.30609179344E+03  0.13624984263E+04  0.10100000352E+00 0.  1.
       -3    1    3    3    0  502  0.50621204086E+03 -0.12273789697E+04  0.86474996847E+03  0.15844564632E+04  0.10100000352E+00 0. -1.
</event>
<event>
 5   0  0.8383008E-07  0.3214796E+04  0.7818609E-02  0.8184920E-01
       -1   -1    0    0    0  501  0.00000000000E+00  0.00000000000E+00  0.30040926587E+04  0.30040926587E+04  0.50400001928E-02 0.  1.
        1   -1    0    0  501    0  0.00000000000E+00  0.00000000000E+00 -0.86006963039E+03  0.86006963040E+03  0.50400001928E-02 0. -1.
    10030    2    1    2    0    0  0.00000000000E+00  0.00000000000E+00  0.21440230283E+04  0.38641622891E+04  0.32147963311E+04 0.  0.
        4    1    3    3  502    0 -0.70523458476E+03  0.13863270658E+04  0.58454642350E+03  0.16616120748E+04  0.12699999809E+01 0. -1.
       -4    1    3    3    0  502  0.70523458476E+03 -0.13863270658E+04  0.15594766048E+04  0.22025502143E+04  0.12699999809E+01 0.  1.
</event>
<event>
 5   0  0.8487944E-07  0.2750541E+04  0.7818609E-02  0.8318790E-01
        1   -1    0    0  501    0  0.00000000000E+00  0.00000000000E+00  0.16011709512E+04  0.16011709512E+04  0.50400001928E-02 0. -1.
       -1   -1    0    0    0  501  0.00000000000E+00  0.00000000000E+00 -0.11812409208E+04  0.11812409208E+04  0.50400001928E-02 0.  1.
    10030    2    1    2    0    0  0.00000000000E+00  0.00000000000E+00  0.41993003045E+03  0.27824118720E+04  0.27505407822E+04 0.  0.
        2    1    3    3  502    0 -0.13189958725E+04  0.15966194342E+03 -0.14929317250E+03  0.13369856017E+04  0.25500000920E-02 0.  1.
       -2    1    3    3    0  502  0.13189958725E+04 -0.15966194342E+03  0.56922320294E+03  0.14454262702E+04  0.25500000920E-02 0. -1.
</event>
<event>
 5   0  0.2404430E-06  0.3207876E+04  0.7818609E-02  0.8186740E-01
       -2   -1    0    0    0  501  0.00000000000E+00  0.00000000000E+00  0.15750822507E+04  0.15750822507E+04  0.25500000920E-02 0.  1.
        2   -1    0    0  501    0  0.00000000000E+00  0.00000000000E+00 -0.16333221322E+04  0.16333221322E+04  0.25500000920E-02 0. -1.
    10030    2    1    2    0    0  0.00000000000E+00  0.00000000000E+00 -0.58239881589E+02  0.32084043829E+04  0.32078757458E+04 0.  0.
        4    1    3    3  502    0 -0.52769754907E+03  0.12196869536E+04 -0.92732924692E+03  0.16205067458E+04  0.12699999809E+01 0. -1.
       -4    1    3    3    0  502  0.52769754907E+03 -0.12196869536E+04  0.86908936533E+03  0.15878976371E+04  0.12699999809E+01 0.  1.
</event>
<event>
 5   0  0.8512855E-07  0.3182668E+04  0.7818609E-02  0.8193410E-01
        1   -1    0    0  501    0  0.00000000000E+00  0.00000000000E+00  0.16906826482E+04  0.16906826483E+04  0.50400001928E-02 0. -1.
       -1   -1    0    0    0  501  0.00000000000E+00  0.00000000000E+00 -0.14978230880E+04  0.14978230880E+04  0.50400001928E-02 0.  1.
    10030    2    1    2    0    0  0.00000000000E+00  0.00000000000E+00  0.19285956026E+03  0.31885057362E+04  0.31826677521E+04 0.  0.
        5    1    3    3  502    0 -0.85901470438E+03  0.68315997307E+03 -0.10579457711E+04  0.15244294525E+04  0.46999998093E+01 0.  1.
       -5    1    3    3    0  502  0.85901470438E+03 -0.68315997307E+03  0.12508053313E+04  0.16640762837E+04  0.46999998093E+01 0. -1.
</event>
<event>
 5   0  0.2401139E-06  0.3191233E+04  0.7818609E-02  0.8191136E-01
       -2   -1    0    0    0  501  0.00000000000E+00  0.00000000000E+00  0.15231591523E+04  0.15231591524E+04  0.25500000920E-02 0.  1.
        2   -1    0    0  501    0  0.00000000000E+00  0.00000000000E+00 -0.16715206988E+04  0.16715206988E+04  0.25500000920E-02 0. -1.
    10030    2    1    2    0    0  0.00000000000E+00  0.00000000000E+00 -0.14836154649E+03  0.31946798512E+04  0.31912330224E+04 0.  0.
        5    1    3    3  502    0 -0.84879321441E+03  0.57999413758E+03  0.11474351111E+04  0.15406078491E+04  0.46999998093E+01 0.  1.
       -5    1    3    3    0  502  0.84879321441E+03 -0.57999413758E+03 -0.12957966576E+04  0.16540720021E+04  0.46999998093E+01 0. -1.
</event>
<event>
 5   0  0.8487944E-07  0.3202451E+04  0.7818609E-02  0.8188170E-01
       -1   -1    0    0    0  501  0.00000000000E+00  0.00000000000E+00  0.25021334066E+04  0.25021334066E+04  0.50400001928E-02 0. -1.
        1   -1    0    0  501    0  0.00000000000E+00  0.00000000000E+00 -0.10246946597E+04  0.10246946597E+04  0.50400001928E-02 0.  1.
    10030    2    1    2    0    0  0.00000000000E+00  0.00000000000E+00  0.14774387469E+04  0.35268280663E+04  0.32024507738E+04 0.  0.
        2    1    3    3  502    0  0.60211620875E+03 -0.59030823826E+02 -0.89397619613E+03  0.10794544948E+04  0.25500000920E-02 0.  1.
       -2    1    3    3    0  502 -0.60211620875E+03  0.59030823826E+02  0.23714149430E+04  0.24473735716E+04  0.25500000920E-02 0. -1.
</event>
<event>
 5   0  0.2337504E-06  0.3186579E+04  0.7818609E-02  0.8192371E-01
        2   -1    0    0  501    0  0.00000000000E+00  0.00000000000E+00  0.23058783538E+04  0.23058783538E+04  0.25500000920E-02 0. -1.
       -2   -1    0    0    0  501  0.00000000000E+00  0.00000000000E+00 -0.11009131507E+04  0.11009131507E+04  0.25500000920E-02 0.  1.
    10030    2    1    2    0    0  0.00000000000E+00  0.00000000000E+00  0.12049652031E+04  0.34067915044E+04  0.31865792339E+04 0.  0.
        1    1    3    3  502    0 -0.70115891038E+03  0.10078131120E+04 -0.48320548280E+03  0.13193932791E+04  0.50400001928E-02 0.  1.
       -1    1    3    3    0  502  0.70115891038E+03 -0.10078131120E+04  0.16881706859E+04  0.20873982253E+04  0.50400001928E-02 0. -1.
</event>
<event>
 5   0  0.8512855E-07  0.3197700E+04  0.7818609E-02  0.8189425E-01
        1   -1    0    0  501    0  0.00000000000E+00  0.00000000000E+00  0.13787440435E+04  0.13787440436E+04  0.50400001928E-02 0.  1.
       -1   -1    0    0    0  501  0.00000000000E+00  0.00000000000E+00 -0.18540943999E+04  0.18540943999E+04  0.50400001928E-02 0. -1.
    10030    2    1    2    0    0  0.00000000000E+00  0.00000000000E+00 -0.47535035640E+03  0.32328384435E+04  0.31977001799E+04 0.  0.
        5    1    3    3  502    0  0.67536426186E+03 -0.14281994854E+04  0.10848901933E+02  0.15798767183E+04  0.46999998093E+01 0. -1.
       -5    1    3    3    0  502 -0.67536426186E+03  0.14281994854E+04 -0.48619925833E+03  0.16529617252E+04  0.46999998093E+01 0.  1.
</event>
<event>
 5   0  0.8487944E-07  0.3206563E+04  0.7818609E-02  0.8187086E-01
        1   -1    0    0  501    0  0.00000000000E+00  0.00000000000E+00  0.15106476531E+04  0.15106476531E+04  0.50400001928E-02 0. -1.
       -1   -1    0    0    0  501  0.00000000000E+00  0.00000000000E+00 -0.17015958751E+04  0.17015958751E+04  0.50400001928E-02 0.  1.
    10030    2    1    2    0    0  0.00000000000E+00  0.00000000000E+00 -0.19094822203E+03  0.32122435282E+04  0.32065631540E+04 0.  0.
        2    1    3    3  502    0 -0.12924527584E+04  0.32382826857E+03 -0.98880095148E+03  0.16592245785E+04  0.25500000920E-02 0.  1.
       -2    1    3    3    0  502  0.12924527584E+04 -0.32382826857E+03  0.79785272945E+03  0.15530189497E+04  0.25500000920E-02 0. -1.
</event>
<event>
 5   0  0.2621528E-06  0.3219869E+04  0.7818609E-02  0.8183589E-01
        2   -1    0    0  501    0  0.00000000000E+00  0.00000000000E+00  0.15331567351E+04  0.15331567352E+04  0.25500000920E-02 0.  1.
       -2   -1    0    0    0  501  0.00000000000E+00  0.00000000000E+00 -0.16905571868E+04  0.16905571868E+04  0.25500000920E-02 0. -1.
    10030    2    1    2    0    0  0.00000000000E+00  0.00000000000E+00 -0.15740045161E+03  0.32237139219E+04  0.32198690266E+04 0.  0.
        2    1    3    3  502    0  0.31869038138E+03 -0.96300390278E+03  0.11729722445E+04  0.15507430356E+04  0.25500000920E-02 0.  1.
       -2    1    3    3    0  502 -0.31869038138E+03  0.96300390278E+03 -0.13303726961E+04  0.16729708863E+04  0.25500000920E-02 0. -1.
</event>
<event>
 5   0  0.2621528E-06  0.3146744E+04  0.7818609E-02  0.8203025E-01
       -2   -1    0    0    0  501  0.00000000000E+00  0.00000000000E+00  0.12547328880E+04  0.12547328880E+04  0.25500000920E-02 0.  1.
        2   -1    0    0  501    0  0.00000000000E+00  0.00000000000E+00 -0.19729289607E+04  0.19729289607E+04  0.25500000920E-02 0. -1.
    10030    2    1    2    0    0  0.00000000000E+00  0.00000000000E+00 -0.71819607274E+03  0.32276618488E+04  0.31467436202E+04 0.  0.
        2    1    3    3  502    0  0.59811546008E+03 -0.12586525279E+04  0.39013075800E+03  0.14471179281E+04  0.25500000920E-02 0.  1.
       -2    1    3    3    0  502 -0.59811546008E+03  0.12586525279E+04 -0.11083268307E+04  0.17805439206E+04  0.25500000920E-02 0. -1.
</event>
<event>
 5   0  0.2404430E-06  0.3198841E+04  0.7818609E-02  0.8189123E-01
        2   -1    0    0  501    0  0.00000000000E+00  0.00000000000E+00  0.27413387388E+04  0.27413387388E+04  0.25500000920E-02 0.  1.
       -2   -1    0    0    0  501  0.00000000000E+00  0.00000000000E+00 -0.93317386595E+03  0.93317386595E+03  0.25500000920E-02 0. -1.
    10030    2    1    2    0    0  0.00000000000E+00  0.00000000000E+00  0.18081648728E+04  0.36745126047E+04  0.31988408330E+04 0.  0.
        4    1    3    3  502    0 -0.78486568708E+03 -0.13926449566E+04  0.84472742699E+03  0.18080487163E+04  0.12699999809E+01 0.  1.
       -4    1    3    3    0  502  0.78486568708E+03  0.13926449566E+04  0.96343744583E+03  0.18664638884E+04  0.12699999809E+01 0. -1.
</event>
<event>
 5   0  0.2621528E-06  0.3212604E+04  0.7818609E-02  0.8185496E-01
        2   -1    0    0  501    0  0.00000000000E+00  0.00000000000E+00  0.27719156399E+04  0.27719156399E+04  0.25500000920E-02 0.  1.
       -2   -1    0    0    0  501  0.00000000000E+00  0.00000000000E+00 -0.93083862856E+03  0.93083862856E+03  0.25500000920E-02 0. -1.
    10030    2    1    2    0    0  0.00000000000E+00  0.00000000000E+00  0.18410770113E+04  0.37027542685E+04  0.32126040234E+04 0.  0.
        2    1    3    3  502    0  0.13094732336E+04 -0.57679672958E+03  0.79247296678E+02  0.14330717884E+04  0.25500000920E-02 0. -1.
       -2    1    3    3    0  502 -0.13094732336E+04  0.57679672958E+03  0.17618297146E+04  0.22696824800E+04  0.25500000920E-02 0.  1.
</event>
<event>
 5   0  0.2621528E-06  0.2991989E+04  0.7818609E-02  0.8246022E-01
        2   -1    0    0  501    0  0.00000000000E+00  0.00000000000E+00  0.16843085521E+04  0.16843085521E+04  0.25500000920E-02 0.  1.
       -2   -1    0    0    0  501  0.00000000000E+00  0.00000000000E+00 -0.13287350598E+04  0.13287350598E+04  0.25500000920E-02 0. -1.
    10030    2    1    2    0    0  0.00000000000E+00  0.00000000000E+00  0.35557349229E+03  0.30130436119E+04  0.29919891876E+04 0.  0.
        2    1    3    3  502    0 -0.85671543383E+02 -0.11713851568E+04  0.11108688379E+04  0.16166361291E+04  0.25500000920E-02 0.  1.
       -2    1    3    3    0  502  0.85671543383E+02  0.11713851568E+04 -0.75529534559E+03  0.13964074828E+04  0.25500000920E-02 0. -1.
</event>
<event>
 5   0  0.2466076E-06  0.3090104E+04  0.7818609E-02  0.8218459E-01
        2   -1    0    0  501    0  0.00000000000E+00  0.00000000000E+00  0.13137668229E+04  0.13137668229E+04  0.25500000920E-02 0. -1.
       -2   -1    0    0    0  501  0.00000000000E+00  0.00000000000E+00 -0.18170544268E+04  0.18170544268E+04  0.25500000920E-02 0.  1.
    10030    2    1    2    0    0  0.00000000000E+00  0.00000000000E+00 -0.50328760391E+03  0.31308212497E+04  0.30901040897E+04 0.  0.
        3    1    3    3  502    0 -0.74919321647E+03 -0.44348950603E+03 -0.15448685786E+04  0.17732998486E+04  0.10100000352E+00 0.  1.
       -3    1    3    3    0  502  0.74919321647E+03  0.44348950603E+03  0.10415809747E+04  0.13575214012E+04  0.10100000352E+00 0. -1.
</event>
<event>
 5   0  0.8383008E-07  0.3206415E+04  0.7818609E-02  0.8187125E-01
       -1   -1    0    0    0  501  0.00000000000E+00  0.00000000000E+00  0.17654615150E+04  0.17654615150E+04  0.50400001928E-02 0. -1.
        1   -1    0    0  501    0  0.00000000000E+00  0.00000000000E+00 -0.14558651184E+04  0.14558651184E+04  0.50400001928E-02 0.  1.
    10030    2    1    2    0    0  0.00000000000E+00  0.00000000000E+00  0.30959639666E+03  0.32213266334E+04  0.32064147190E+04 0.  0.
        4    1    3    3  502    0  0.35736357171E+03 -0.10996458062E+04 -0.96092621638E+03  0.15034328810E+04  0.12699999809E+01 0.  1.
       -4    1    3    3    0  502 -0.35736357171E+03  0.10996458062E+04  0.12705226130E+04  0.17178937524E+04  0.12699999809E+01 0. -1.
</event>
<event>
 5   0  0.8681172E-07  0.3119257E+04  0.7818609E-02  0.8210473E-01
       -1   -1    0    0    0  501  0.00000000000E+00  0.00000000000E+00  0.11659001174E+04  0.11659001174E+04  0.50400001928E-02 0. -1.
        1   -1    0    0  501    0  0.00000000000E+00  0.00000000000E+00 -0.20863202068E+04  0.20863202068E+04  0.50400001928E-02 0.  1.
    10030    2    1    2    0    0  0.00000000000E+00  0.00000000000E+00 -0.92042008939E+03  0.32522203243E+04  0.31192569462E+04 0.  0.
        1    1    3    3  502    0  0.83030079033E+03 -0.12103191032E+04 -0.10101095903E+04  0.17817387907E+04  0.50400001928E-02 0.  1.
       -1    1    3    3    0  502 -0.83030079033E+03  0.12103191032E+04  0.89689500945E+02  0.14704815335E+04  0.50400001928E-02 0. -1.
</event>
<event>
 5   0  0.8545153E-07  0.3198269E+04  0.7818609E-02  0.8189275E-01
       -1   -1    0    0    0  501  0.00000000000E+00  0.00000000000E+00  0.18946789823E+04  0.18946789823E+04  0.50400001928E-02 0. -1.
        1   -1    0    0  501    0  0.00000000000E+00  0.00000000000E+00 -0.13496906197E+04  0.13496906198E+04  0.50400001928E-02 0.  1.
    10030    2    1    2    0    0  0.00000000000E+00  0.00000000000E+00  0.54498836251E+03  0.32443696020E+04  0.31982685627E+04 0.  0.
        3    1    3    3  502    0  0.44343611215E+03  0.14596755705E+04 -0.21394060518E+03  0.15404736120E+04  0.10100000352E+00 0.  1.
       -3    1    3    3    0  502 -0.44343611215E+03 -0.14596755705E+04  0.75892896769E+03  0.17038959900E+04  0.10100000352E+00 0. -1.
</event>
<event>
 5   0  0.8487944E-07  0.3148536E+04  0.7818609E-02  0.8202542E-01
        1   -1    0    0  501    0  0.00000000000E+00  0.00000000000E+00  0.13559511359E+04  0.13559511359E+04  0.50400001928E-02 0.  1.
       -1   -1    0    0    0  501  0.00000000000E+00  0.00000000000E+00 -0.18277356988E+04  0.18277356988E+04  0.50400001928E-02 0. -1.
    10030    2    1    2    0    0  0.00000000000E+00  0.00000000000E+00 -0.47178456287E+03  0.31836868347E+04  0.31485363564E+04 0.  0.
        2    1    3    3  502    0 -0.87035406362E+03  0.12786621673E+04 -0.53212567042E+03  0.16357416860E+04  0.25500000920E-02 0.  1.
       -2    1    3    3    0  502  0.87035406362E+03 -0.12786621673E+04  0.60341107549E+02  0.15479451487E+04  0.25500000920E-02 0. -1.
</event>
<event>
 5   0  0.8545153E-07  0.3164566E+04  0.7818609E-02  0.8198238E-01
        1   -1    0    0  501    0  0.00000000000E+00  0.00000000000E+00  0.14040553888E+04  0.14040553888E+04  0.50400001928E-02 0. -1.
       -1   -1    0    0    0  501  0.00000000000E+00  0.00000000000E+00 -0.17831339454E+04  0.17831339454E+04  0.50400001928E-02 0.  1.
    10030    2    1    2    0    0  0.00000000000E+00  0.00000000000E+00 -0.37907855665E+03  0.31871893342E+04  0.31645655784E+04 0.  0.
        3    1    3    3  502    0  0.13851225753E+04 -0.55698611650E+03 -0.71752054020E+03  0.16563918071E+04  0.10100000352E+00 0.  1.
       -3    1    3    3    0  502 -0.13851225753E+04  0.55698611650E+03  0.33844198354E+03  0.15307975272E+04  0.10100000352E+00 0. -1.
</event>
<event>
 5   0  0.2404430E-06  0.3193676E+04  0.7818609E-02  0.8190489E-01
       -2   -1    0    0    0  501  0.00000000000E+00  0.00000000000E+00  0.25301619039E+04  0.25301619039E+04  0.25500000920E-02 0.  1.
        2   -1    0    0  501    0  0.00000000000E+00  0.00000000000E+00 -0.10077976442E+04  0.10077976442E+04  0.25500000920E-02 0. -1.
    10030    2    1    2    0    0  0.00000000000E+00  0.00000000000E+00  0.15223642597E+04  0.35379595481E+04  0.31936757545E+04 0.  0.
        4    1    3    3  502    0 -0.10828656954E+03  0.48674745479E+03 -0.91933540627E+03  0.10458624518E+04  0.12699999809E+01 0. -1.
       -4    1    3    3    0  502  0.10828656954E+03 -0.48674745479E+03  0.24416996660E+04  0.24920970964E+04  0.12699999809E+01 0.  1.
</event>
<event>
 5   0  0.2404430E-06  0.3247923E+04  0.7818609E-02  0.8176274E-01
       -2   -1    0    0    0  501  0.00000000000E+00  0.00000000000E+00  0.14692782368E+04  0.14692782368E+04  0.25500000920E-02 0. -1.
        2   -1    0    0  501    0  0.00000000000E+00  0.00000000000E+00 -0.17949301217E+04  0.17949301217E+04  0.25500000920E-02 0.  1.
    10030    2    1    2    0    0  0.00000000000E+00  0.00000000000E+00 -0.32565188497E+03  0.32642083585E+04  0.32479234993E+04 0.  0.
        4    1    3    3  502    0  0.79761926092E+03 -0.11503172702E+04 -0.99025449286E+03  0.17146521166E+04  0.12699999809E+01 0.  1.
       -4    1    3    3    0  502 -0.79761926092E+03  0.11503172702E+04  0.66460260790E+03  0.15495562419E+04  0.12699999809E+01 0. -1.
</event>
<event>
 5   0  0.2621528E-06  0.3191150E+04  0.7818609E-02  0.8191158E-01
       -2   -1    0    0    0  501  0.00000000000E+00  0.00000000000E+00  0.17401659104E+04  0.17401659104E+04  0.25500000920E-02 0.  1.
        2   -1    0    0  501    0  0.00000000000E+00  0.00000000000E+00 -0.14629981207E+04  0.14629981207E+04  0.25500000920E-02 0. -1.
    10030    2    1    2    0    0  0.00000000000E+00  0.00000000000E+00  0.27716778966E+03  0.32031640312E+04  0.31911499223E+04 0.  0.
        2    1    3    3  502    0 -0.67309671346E+03  0.11003242248E+04  0.10813145948E+04  0.16831559162E+04  0.25500000920E-02 0.  1.
       -2    1    3    3    0  502  0.67309671346E+03 -0.11003242248E+04 -0.80414680510E+03  0.15200081150E+04  0.25500000920E-02 0. -1.
</event>
<event>
 5   0  0.7934375E-07  0.3038639E+04  0.7818609E-02  0.8232783E-01
        3   -1    0    0  501    0  0.00000000000E+00  0.00000000000E+00  0.11111919084E+04  0.11111919130E+04  0.10100000352E+00 0.  1.
       -3   -1    0    0    0  501  0.00000000000E+00  0.00000000000E+00 -0.20773474951E+04  0.20773474976E+04  0.10100000352E+00 0. -1.
    10030    2    1    2    0    0  0.00000000000E+00  0.00000000000E+00 -0.96615558670E+03  0.31885394105E+04  0.30386389971E+04 0.  0.
        3    1    3    3  502    0  0.55318924369E+03  0.10974193377E+03 -0.19634423928E+04  0.20428332461E+04  0.10100000352E+00 0. -1.
       -3    1    3    3    0  502 -0.55318924369E+03 -0.10974193377E+03  0.99728680611E+03  0.11457061644E+04  0.10100000352E+00 0.  1.
</event>
<event>
 5   0  0.8383008E-07  0.3205185E+04  0.7818609E-02  0.8187449E-01
       -1   -1    0    0    0  501  0.00000000000E+00  0.00000000000E+00  0.17202283974E+04  0.17202283974E+04  0.50400001928E-02 0.  1.
        1   -1    0    0  501    0  0.00000000000E+00  0.00000000000E+00 -0.14930013632E+04  0.14930013632E+04  0.50400001928E-02 0. -1.
    10030    2    1    2    0    0  0.00000000000E+00  0.00000000000E+00  0.22722703419E+03  0.32132297606E+04  0.32051853877E+04 0.  0.
        4    1    3    3  502    0 -0.11772415203E+04 -0.61175779325E+03  0.10148450341E+04  0.16703464464E+04  0.12699999809E+01 0.  1.
       -4    1    3    3    0  502  0.11772415203E+04  0.61175779325E+03 -0.78761799996E+03  0.15428833143E+04  0.12699999809E+01 0. -1.
</event>
<event>
 5   0  0.8545153E-07  0.3205152E+04  0.7818609E-02  0.8187458E-01
       -1   -1    0    0    0  501  0.00000000000E+00  0.00000000000E+00  0.13145005121E+04  0.13145005121E+04  0.50400001928E-02 0.  1.
        1   -1    0    0  501    0  0.00000000000E+00  0.00000000000E+00 -0.19537839447E+04  0.19537839447E+04  0.50400001928E-02 0. -1.
    10030    2    1    2    0    0  0.00000000000E+00  0.00000000000E+00 -0.63928343266E+03  0.32682844568E+04  0.32051520999E+04 0.  0.
        3    1    3    3  502    0  0.14717066889E+04  0.61283805073E+03 -0.15283805296E+03  0.16015150750E+04  0.10100000352E+00 0.  1.
       -3    1    3    3    0  502 -0.14717066889E+04 -0.61283805073E+03 -0.48644537970E+03  0.16667693819E+04  0.10100000352E+00 0. -1.
</event>
<event>
 5   0  0.8383008E-07  0.3180015E+04  0.7818609E-02  0.8194115E-01
        1   -1    0    0  501    0  0.00000000000E+00  0.00000000000E+00  0.10421091414E+04  0.10421091414E+04  0.50400001928E-02 0. -1.
       -1   -1    0    0    0  501  0.00000000000E+00  0.00000000000E+00 -0.24259682080E+04  0.24259682080E+04  0.50400001928E-02 0.  1.
    10030    2    1    2    0    0  0.00000000000E+00  0.00000000000E+00 -0.13838590666E+04  0.34680773493E+04  0.31800148718E+04 0.  0.
        4    1    3    3  502    0  0.14187612911E+04  0.38756210979E+03 -0.13508398514E+04  0.19969621697E+04  0.12699999809E+01 0. -1.
       -4    1    3    3    0  502 -0.14187612911E+04 -0.38756210979E+03 -0.33019215161E+02  0.14711151796E+04  0.12699999809E+01 0.  1.
</event>
<event>
 5   0  0.8383008E-07  0.3051723E+04  0.7818609E-02  0.8229113E-01
        1   -1    0    0  501    0  0.00000000000E+00  0.00000000000E+00  0.17265182096E+04  0.17265182096E+04  0.50400001928E-02 0.  1.
       -1   -1    0    0    0  501  0.00000000000E+00  0.00000000000E+00 -0.13485254866E+04  0.13485254866E+04  0.50400001928E-02 0. -1.
    10030    2    1    2    0    0  0.00000000000E+00  0.00000000000E+00  0.37799272300E+03  0.30750436961E+04  0.30517233221E+04 0.  0.
        4    1    3    3  502    0 -0.14736942527E+04  0.98477335715E+02 -0.19704965279E+03  0.14900680235E+04  0.12699999809E+01 0. -1.
       -4    1    3    3    0  502  0.14736942527E+04 -0.98477335715E+02  0.57504237579E+03  0.15849756726E+04  0.12699999809E+01 0.  1.
</event>
<event>
 5   0  0.2337504E-06  0.3174773E+04  0.7818609E-02  0.8195512E-01
        2   -1    0    0  501    0  0.00000000000E+00  0.00000000000E+00  0.14688126173E+04  0.14688126173E+04  0.25500000920E-02 0. -1.
       -2   -1    0    0    0  501  0.00000000000E+00  0.00000000000E+00 -0.17155323665E+04  0.17155323665E+04  0.25500000920E-02 0.  1.
    10030    2    1    2    0    0  0.00000000000E+00  0.00000000000E+00 -0.24671974913E+03  0.31843449838E+04  0.31747728015E+04 0.  0.
        1    1    3    3  502    0  0.37260569204E+03 -0.14728080342E+04  0.33824187144E+03  0.15564080670E+04  0.50400001928E-02 0. -1.
       -1    1    3    3    0  502 -0.37260569204E+03  0.14728080342E+04 -0.58496162057E+03  0.16279369168E+04  0.50400001928E-02 0.  1.
</event>
<event>
 5   0  0.2621528E-06  0.3222266E+04  0.7818609E-02  0.8182961E-01
        2   -1    0    0  501    0  0.00000000000E+00  0.00000000000E+00  0.17081379687E+04  0.17081379687E+04  0.25500000920E-02 0.  1.
       -2   -1    0    0    0  501  0.00000000000E+00  0.00000000000E+00 -0.15196372075E+04  0.15196372075E+04  0.25500000920E-02 0. -1.
    10030    2    1    2    0    0  0.00000000000E+00  0.00000000000E+00  0.18850076126E+03  0.32277751762E+04  0.32222662912E+04 0.  0.
        2    1    3    3  502    0  0.14904276807E+04 -0.46116387390E+03 -0.30856049419E+03  0.15903635964E+04  0.25500000920E-02 0. -1.
       -2    1    3    3    0  502 -0.14904276807E+04  0.46116387390E+03  0.49706125545E+03  0.16374115798E+04  0.25500000920E-02 0.  1.
</event>
<event>
 5   0  0.2466076E-06  0.3123422E+04  0.7818609E-02  0.8209339E-01
       -2   -1    0    0    0  501  0.00000000000E+00  0.00000000000E+00  0.23278985004E+04  0.23278985004E+04  0.25500000920E-02 0.  1.
        2   -1    0    0  501    0  0.00000000000E+00  0.00000000000E+00 -0.10477006276E+04  0.10477006276E+04  0.25500000920E-02 0. -1.
    10030    2    1    2    0    0  0.00000000000E+00  0.00000000000E+00  0.12801978728E+04  0.33755991280E+04  0.31234216621E+04 0.  0.
        3    1    3    3  502    0 -0.13856945515E+04 -0.43629502517E+03  0.12594643186E+04  0.19226942345E+04  0.10100000352E+00 0.  1.
       -3    1    3    3    0  502  0.13856945515E+04  0.43629502517E+03  0.20733554174E+02  0.14529048935E+04  0.10100000352E+00 0. -1.
</event>
<event>
 5   0  0.2401139E-06  0.3193525E+04  0.7818609E-02  0.8190529E-01
        2   -1    0    0  501    0  0.00000000000E+00  0.00000000000E+00  0.15023124887E+04  0.15023124887E+04  0.25500000920E-02 0.  1.
       -2   -1    0    0    0  501  0.00000000000E+00  0.00000000000E+00 -0.16971510562E+04  0.16971510562E+04  0.25500000920E-02 0. -1.
    10030    2    1    2    0    0  0.00000000000E+00  0.00000000000E+00 -0.19483856746E+03  0.31994635449E+04  0.31935254669E+04 0.  0.
        5    1    3    3  502    0 -0.67824608911E+03  0.14241622670E+04  0.15077754338E+03  0.15846172654E+04  0.46999998093E+01 0. -1.
       -5    1    3    3    0  502  0.67824608911E+03 -0.14241622670E+04 -0.34561611084E+03  0.16148462795E+04  0.46999998093E+01 0.  1.
</event>
<event>
 5   0  0.8512855E-07  0.3196320E+04  0.7818609E-02  0.8189790E-01
        1   -1    0    0  501    0  0.00000000000E+00  0.00000000000E+00  0.91129968205E+03  0.91129968206E+03  0.50400001928E-02 0.  1.
       -1   -1    0    0    0  501  0.00000000000E+00  0.00000000000E+00 -0.28027168337E+04  0.28027168337E+04  0.50400001928E-02 0. -1.
    10030    2    1    2    0    0  0.00000000000E+00  0.00000000000E+00 -0.18914171517E+04  0.37140165158E+04  0.31963197334E+04 0.  0.
        5    1    3    3  502    0  0.74490194482E+03 -0.13849190545E+04 -0.61457222516E+03  0.16883722353E+04  0.46999998093E+01 0.  1.
       -5    1    3    3    0  502 -0.74490194482E+03  0.13849190545E+04 -0.12768449265E+04  0.20256442805E+04  0.46999998093E+01 0. -1.
</event>
<event>
 5   0  0.8487944E-07  0.3204482E+04  0.7818609E-02  0.8187634E-01
       -1   -1    0    0    0  501  0.00000000000E+00  0.00000000000E+00  0.10128150354E+04  0.10128150354E+04  0.50400001928E-02 0.  1.
        1   -1    0    0  501    0  0.00000000000E+00  0.00000000000E+00 -0.25346940489E+04  0.25346940489E+04  0.50400001928E-02 0. -1.
    10030    2    1    2    0    0  0.00000000000E+00  0.00000000000E+00 -0.15218790135E+04  0.35475090844E+04  0.32044820131E+04 0.  0.
        2    1    3    3  502    0 -0.33505496641E+03  0.73966399460E+03  0.76815179977E+03  0.11177753991E+04  0.25500000920E-02 0.  1.
       -2    1    3    3    0  502  0.33505496641E+03 -0.73966399460E+03 -0.22900308133E+04  0.24297336852E+04  0.25500000920E-02 0. -1.
</event>
<event>
 5   0  0.8512855E-07  0.3193723E+04  0.7818609E-02  0.8190477E-01
       -1   -1    0    0    0  501  0.00000000000E+00  0.00000000000E+00  0.11265360786E+04  0.11265360786E+04  0.50400001928E-02 0.  1.
        1   -1    0    0  501    0  0.00000000000E+00  0.00000000000E+00 -0.22635462453E+04  0.22635462453E+04  0.50400001928E-02 0. -1.
    10030    2    1    2    0    0  0.00000000000E+00  0.00000000000E+00 -0.11370101668E+04  0.33900823239E+04  0.31937229128E+04 0.  0.
        5    1    3    3  502    0 -0.37133168446E+03 -0.10714471016E+04  0.62492385517E+03  0.12947733493E+04  0.46999998093E+01 0.  1.
       -5    1    3    3    0  502  0.37133168446E+03  0.10714471016E+04 -0.17619340219E+04  0.20953089746E+04  0.46999998093E+01 0. -1.
</event>
<event>
 5   0  0.2404430E-06  0.3220832E+04  0.7818609E-02  0.8183337E-01
       -2   -1    0    0    0  501  0.00000000000E+00  0.00000000000E+00  0.95308992989E+03  0.95308992990E+03  0.25500000920E-02 0. -1.
        2   -1    0    0  501    0  0.00000000000E+00  0.00000000000E+00 -0.27210865427E+04  0.27210865427E+04  0.25500000920E-02 0.  1.
    10030    2    1    2    0    0  0.00000000000E+00  0.00000000000E+00 -0.17679966128E+04  0.36741764726E+04  0.32208323038E+04 0.  0.
        4    1    3    3  502    0  0.11033040230E+04 -0.11716891426E+04 -0.81843368636E+03  0.18055388464E+04  0.12699999809E+01 0.  1.
       -4    1    3    3    0  502 -0.11033040230E+04  0.11716891426E+04 -0.94956292645E+03  0.18686376262E+04  0.12699999809E+01 0. -1.
</event>
<event>
 5   0  0.2337504E-06  0.3163947E+04  0.7818609E-02  0.8198404E-01
        2   -1    0    0  501    0  0.00000000000E+00  0.00000000000E+00  0.23433752710E+04  0.23433752710E+04  0.25500000920E-02 0.  1.
       -2   -1    0    0    0  501  0.00000000000E+00  0.00000000000E+00 -0.10679638199E+04  0.10679638199E+04  0.25500000920E-02 0. -1.
    10030    2    1    2    0    0  0.00000000000E+00  0.00000000000E+00  0.12754114511E+04  0.34113390909E+04  0.31639469059E+04 0.  0.
        1    1    3    3  502    0  0.13014175986E+04  0.20317119676E+03 -0.30697278544E+03  0.13524786845E+04  0.50400001928E-02 0. -1.
       -1    1    3    3    0  502 -0.13014175986E+04 -0.20317119676E+03  0.15823842365E+04  0.20588604064E+04  0.50400001928E-02 0.  1.
</event>
<event>
 5   0  0.2337504E-06  0.3176214E+04  0.7818609E-02  0.8195127E-01
        2   -1    0    0  501    0  0.00000000000E+00  0.00000000000E+00  0.21049085301E+04  0.21049085301E+04  0.25500000920E-02 0.  1.
       -2   -1    0    0    0  501  0.00000000000E+00  0.00000000000E+00 -0.11981916846E+04  0.11981916846E+04  0.25500000920E-02 0. -1.
    10030    2    1    2    0    0  0.00000000000E+00  0.00000000000E+00  0.90671684551E+03  0.33031002147E+04  0.31762140341E+04 0.  0.
        1    1    3    3  502    0 -0.68191620514E+03 -0.31820646193E+03 -0.10010162465E+04  0.12523172877E+04  0.50400001928E-02 0. -1.
       -1    1    3    3    0  502  0.68191620514E+03  0.31820646193E+03  0.19077330920E+04  0.20507829270E+04  0.50400001928E-02 0.  1.
</event>
<event>
 5   0  0.2466076E-06  0.3208294E+04  0.7818609E-02  0.8186630E-01
       -2   -1    0    0    0  501  0.00000000000E+00  0.00000000000E+00  0.16403708069E+04  0.16403708069E+04  0.25500000920E-02 0.  1.
        2   -1    0    0  501    0  0.00000000000E+00  0.00000000000E+00 -0.15687228313E+04  0.15687228314E+04  0.25500000920E-02 0. -1.
    10030    2    1    2    0    0  0.00000000000E+00  0.00000000000E+00  0.71647975525E+02  0.32090936382E+04  0.32082937126E+04 0.  0.
        3    1    3    3  502    0  0.15991621832E+04  0.36590660826E+02 -0.85154759844E+02  0.16018457816E+04  0.10100000352E+00 0. -1.
       -3    1    3    3    0  502 -0.15991621832E+04 -0.36590660826E+02  0.15680273537E+03  0.16072478566E+04  0.10100000352E+00 0.  1.
</event>
<event>
 5   0  0.8383008E-07  0.3156367E+04  0.7818609E-02  0.8200437E-01
        1   -1    0    0  501    0  0.00000000000E+00  0.00000000000E+00  0.14561207003E+04  0.14561207003E+04  0.50400001928E-02 0.  1.
       -1   -1    0    0    0  501  0.00000000000E+00  0.00000000000E+00 -0.17104780758E+04  0.17104780758E+04  0.50400001928E-02 0. -1.
    10030    2    1    2    0    0  0.00000000000E+00  0.00000000000E+00 -0.25435737552E+03  0.31665987762E+04  0.31563666033E+04 0.  0.
        4    1    3    3  502    0 -0.43305506571E+03 -0.19403564890E+03  0.13828499344E+04  0.14620061822E+04  0.12699999809E+01 0.  1.
       -4    1    3    3    0  502  0.43305506571E+03  0.19403564890E+03 -0.16372073099E+04  0.17045925940E+04  0.12699999809E+01 0. -1.
</event>
<event>
 5   0  0.2466076E-06  0.3216101E+04  0.7818609E-02  0.8184578E-01
        2   -1    0    0  501    0  0.00000000000E+00  0.00000000000E+00  0.14265777933E+04  0.14265777933E+04  0.25500000920E-02 0.  1.
       -2   -1    0    0    0  501  0.00000000000E+00  0.00000000000E+00 -0.18126075093E+04  0.18126075093E+04  0.25500000920E-02 0. -1.
    10030    2    1    2    0    0  0.00000000000E+00  0.00000000000E+00 -0.38602971605E+03  0.32391853026E+04  0.32161005089E+04 0.  0.
        3    1    3    3  502    0 -0.15188555609E+04 -0.48690952222E+03 -0.39898830765E+03  0.16441395249E+04  0.10100000352E+00 0. -1.
       -3    1    3    3    0  502  0.15188555609E+04  0.48690952222E+03  0.12958591605E+02  0.15950457777E+04  0.10100000352E+00 0.  1.
</event>
<event>
 5   0  0.8487944E-07  0.3200105E+04  0.7818609E-02  0.8188789E-01
       -1   -1    0    0    0  501  0.00000000000E+00  0.00000000000E+00  0.12877428183E+04  0.12877428183E+04  0.50400001928E-02 0.  1.
        1   -1    0    0  501    0  0.00000000000E+00  0.00000000000E+00 -0.19881048838E+04  0.19881048838E+04  0.50400001928E-02 0. -1.
    10030    2    1    2    0    0  0.00000000000E+00  0.00000000000E+00 -0.70036206554E+03  0.32758477022E+04  0.32001048647E+04 0.  0.
        2    1    3    3  502    0 -0.79849081930E+03  0.11400820740E+04 -0.11580322352E+04  0.18106389429E+04  0.25500000920E-02 0. -1.
       -2    1    3    3    0  502  0.79849081930E+03 -0.11400820740E+04  0.45767016963E+03  0.14652087592E+04  0.25500000920E-02 0.  1.
</event>
<event>
 5   0  0.2401139E-06  0.3164577E+04  0.7818609E-02  0.8198235E-01
        2   -1    0    0  501    0  0.00000000000E+00  0.00000000000E+00  0.15976062528E+04  0.15976062528E+04  0.25500000920E-02 0. -1.
       -2   -1    0    0    0  501  0.00000000000E+00  0.00000000000E+00 -0.15671174596E+04  0.15671174596E+04  0.25500000920E-02 0.  1.
    10030    2    1    2    0    0  0.00000000000E+00  0.00000000000E+00  0.30488793245E+02  0.31647237124E+04  0.31645768452E+04 0.  0.
        5    1    3    3  502    0 -0.60553595248E+03  0.28720335021E+03 -0.14181591425E+04  0.15685525167E+04  0.46999998093E+01 0.  1.
       -5    1    3    3    0  502  0.60553595248E+03 -0.28720335021E+03  0.14486479358E+04  0.15961711957E+04  0.46999998093E+01 0. -1.
</event>
<event>
 5   0  0.2466076E-06  0.3057099E+04  0.7818609E-02  0.8227611E-01
        2   -1    0    0  501    0  0.00000000000E+00  0.00000000000E+00  0.10948125625E+04  0.10948125625E+04  0.25500000920E-02 0. -1.
       -2   -1    0    0    0  501  0.00000000000E+00  0.00000000000E+00 -0.21341217515E+04  0.21341217515E+04  0.25500000920E-02 0.  1.
    10030    2    1    2    0    0  0.00000000000E+00  0.00000000000E+00 -0.10393091890E+04  0.32289343139E+04  0.30570988230E+04 0.  0.
        3    1    3    3  502    0  0.69617251001E+03 -0.64040600657E+03  0.74853815296E+03  0.12062692044E+04  0.10100000352E+00 0. -1.
       -3    1    3    3    0  502 -0.69617251001E+03  0.64040600657E+03 -0.17878473419E+04  0.20226651095E+04  0.10100000352E+00 0.  1.
</event>
<event>
 5   0  0.8487944E-07  0.3159446E+04  0.7818609E-02  0.8199610E-01
       -1   -1    0    0    0  501  0.00000000000E+00  0.00000000000E+00  0.14310562799E+04  0.14310562799E+04  0.50400001928E-02 0. -1.
        1   -1    0    0  501    0  0.00000000000E+00  0.00000000000E+00 -0.17438343254E+04  0.17438343254E+04  0.50400001928E-02 0.  1.
    10030    2    1    2    0    0  0.00000000000E+00  0.00000000000E+00 -0.31277804545E+03  0.31748906053E+04  0.31594461935E+04 0.  0.
        2    1    3    3  502    0  0.27710011235E+01  0.93653391356E+03 -0.14347798237E+04  0.17133874612E+04  0.25500000920E-02 0.  1.
       -2    1    3    3    0  502 -0.27710011235E+01 -0.93653391356E+03  0.11220017783E+04  0.14615031441E+04  0.25500000920E-02 0. -1.
</event>
<event>
 5   0  0.8487944E-07  0.3171438E+04  0.7818609E-02  0.8196401E-01
       -1   -1    0    0    0  501  0.00000000000E+00  0.00000000000E+00  0.18725251151E+04  0.18725251151E+04  0.50400001928E-02 0. -1.
        1   -1    0    0  501    0  0.00000000000E+00  0.00000000000E+00 -0.13428418698E+04  0.13428418698E+04  0.50400001928E-02 0.  1.
    10030    2    1    2    0    0  0.00000000000E+00  0.00000000000E+00  0.52968324529E+03  0.32153669849E+04  0.31714382396E+04 0.  0.
        2    1    3    3  502    0  0.74968010135E+03 -0.12410763311E+04  0.91577400327E+03  0.17149147906E+04  0.25500000920E-02 0. -1.
       -2    1    3    3    0  502 -0.74968010135E+03  0.12410763311E+04 -0.38609075798E+03  0.15004521943E+04  0.25500000920E-02 0.  1.
</event>
<event>
 5   0  0.8512855E-07  0.3222474E+04  0.7818609E-02  0.8182907E-01
        1   -1    0    0  501    0  0.00000000000E+00  0.00000000000E+00  0.22872404073E+04  0.22872404073E+04  0.50400001928E-02 0. -1.
       -1   -1    0    0    0  501  0.00000000000E+00  0.00000000000E+00 -0.11350294496E+04  0.11350294496E+04  0.50400001928E-02 0.  1.
    10030    2    1    2    0    0  0.00000000000E+00  0.00000000000E+00  0.11522109577E+04  0.34222698569E+04  0.32224743416E+04 0.  0.
        5    1    3    3  502    0 -0.12549967837E+04  0.73867659596E+03  0.13083494153E+04  0.19576670614E+04  0.46999998093E+01 0. -1.
       -5    1    3    3    0  502  0.12549967837E+04 -0.73867659596E+03 -0.15613845760E+03  0.14646027955E+04  0.46999998093E+01 0.  1.
</event>
<event>
 5   0  0.2621528E-06  0.3197915E+04  0.7818609E-02  0.8189368E-01
        2   -1    0    0  501    0  0.00000000000E+00  0.00000000000E+00  0.22309617819E+04  0.22309617819E+04  0.25500000920E-02 0.  1.
       -2   -1    0    0    0  501  0.00000000000E+00  0.00000000000E+00 -0.11459922941E+04  0.11459922941E+04  0.25500000920E-02 0. -1.
    10030    2    1    2    0    0  0.00000000000E+00  0.00000000000E+00  0.10849694878E+04  0.33769540760E+04  0.31979149523E+04 0.  0.
        2    1    3    3  502    0  0.12672996334E+04 -0.88257501143E+03  0.10494695650E+03  0.15479020884E+04  0.25500000920E-02 0. -1.
       -2    1    3    3    0  502 -0.12672996334E+04  0.88257501143E+03  0.98002253135E+03  0.18290519876E+04  0.25500000920E-02 0.  1.
</event>
<event>
 5   0  0.2621528E-06  0.3187689E+04  0.7818609E-02  0.8192076E-01
        2   -1    0    0  501    0  0.00000000000E+00  0.00000000000E+00  0.17670712103E+04  0.17670712103E+04  0.25500000920E-02 0. -1.
       -2   -1    0    0    0  501  0.00000000000E+00  0.00000000000E+00 -0.14375989959E+04  0.14375989959E+04  0.25500000920E-02 0.  1.
    10030    2    1    2    0    0  0.00000000000E+00  0.00000000000E+00  0.32947221435E+03  0.32046702062E+04  0.31876886910E+04 0.  0.
        2    1    3    3  502    0 -0.62837490462E+03 -0.90030883460E+03 -0.99681009465E+03  0.14829165126E+04  0.25500000920E-02 0.  1.
       -2    1    3    3    0  502  0.62837490462E+03  0.90030883460E+03  0.13262823090E+04  0.17217536936E+04  0.25500000920E-02 0. -1.
</event>
<event>
 5   0  0.8545153E-07  0.2970381E+04  0.7818609E-02  0.8252240E-01
        1   -1    0    0  501    0  0.00000000000E+00  0.00000000000E+00  0.18759494361E+04  0.18759494361E+04  0.50400001928E-02 0.  1.
       -1   -1    0    0    0  501  0.00000000000E+00  0.00000000000E+00 -0.11758262129E+04  0.11758262129E+04  0.50400001928E-02 0. -1.
    10030    2    1    2    0    0  0.00000000000E+00  0.00000000000E+00  0.70012322324E+03  0.30517756491E+04  0.29703807979E+04 0.  0.
        3    1    3    3  502    0 -0.99040624490E+03  0.28097644337E+03 -0.74975703041E+03  0.12735728901E+04  0.10100000352E+00 0. -1.
       -3    1    3    3    0  502  0.99040624490E+03 -0.28097644337E+03  0.14498802537E+04  0.17782027589E+04  0.10100000352E+00 0.  1.
</event>
<event>
 5   0  0.2404430E-06  0.3136986E+04  0.7818609E-02  0.8205660E-01
        2   -1    0    0  501    0  0.00000000000E+00  0.00000000000E+00  0.10696529537E+04  0.10696529537E+04  0.25500000920E-02 0. -1.
       -2   -1    0    0    0  501  0.00000000000E+00  0.00000000000E+00 -0.22999700281E+04  0.22999700281E+04  0.25500000920E-02 0.  1.
    10030    2    1    2    0    0  0.00000000000E+00  0.00000000000E+00 -0.12303170744E+04  0.33696229818E+04  0.31369856448E+04 0.  0.
        4    1    3    3  502    0 -0.11514506101E+04 -0.10648869634E+04 -0.63512082064E+03  0.16921001218E+04  0.12699999809E+01 0.  1.
       -4    1    3    3    0  502  0.11514506101E+04  0.10648869634E+04 -0.59519625371E+03  0.16775228600E+04  0.12699999809E+01 0. -1.
</event>
<event>
 5   0  0.8681172E-07  0.3162700E+04  0.7818609E-02  0.8198738E-01
        1   -1    0    0  501    0  0.00000000000E+00  0.00000000000E+00  0.21726057319E+04  0.21726057319E+04  0.50400001928E-02 0. -1.
       -1   -1    0    0    0  501  0.00000000000E+00  0.00000000000E+00 -0.11509990633E+04  0.11509990633E+04  0.50400001928E-02 0.  1.
    10030    2    1    2    0    0  0.00000000000E+00  0.00000000000E+00  0.10216066686E+04  0.33236047952E+04  0.31626995825E+04 0.  0.
        1    1    3    3  502    0 -0.12323390186E+04  0.34283535251E+03  0.14878758732E+04  0.19621340805E+04  0.50400001928E-02 0. -1.
       -1    1    3    3    0  502  0.12323390186E+04 -0.34283535251E+03 -0.46626920463E+03  0.13614707147E+04  0.50400001928E-02 0.  1.
</event>
<event>
 5   0  0.2621528E-06  0.3094566E+04  0.7818609E-02  0.8217231E-01
       -2   -1    0    0    0  501  0.00000000000E+00  0.00000000000E+00  0.95165797683E+03  0.95165797683E+03  0.25500000920E-02 0.  1.
        2   -1    0    0  501    0  0.00000000000E+00  0.00000000000E+00 -0.25156991104E+04  0.25156991104E+04  0.25500000920E-02 0. -1.
    10030    2    1    2    0    0  0.00000000000E+00  0.00000000000E+00 -0.15640411335E+04  0.34673570872E+04  0.30945662867E+04 0.  0.
        2    1    3    3  502    0  0.44697053053E+03  0.32099348088E+03 -0.24023502301E+04  0.24645701650E+04  0.25500000920E-02 0. -1.
       -2    1    3    3    0  502 -0.44697053053E+03 -0.32099348088E+03  0.83830909659E+03  0.10027869222E+04  0.25500000920E-02 0.  1.
</event>
<event>
 5   0  0.8512855E-07  0.3213000E+04  0.7818609E-02  0.8185392E-01
       -1   -1    0    0    0  501  0.00000000000E+00  0.00000000000E+00  0.98396450886E+03  0.98396450887E+03  0.50400001928E-02 0.  1.
        1   -1    0    0  501    0  0.00000000000E+00  0.00000000000E+00 -0.26229024463E+04  0.26229024463E+04  0.50400001928E-02 0. -1.
    10030    2    1    2    0    0  0.00000000000E+00  0.00000000000E+00 -0.16389379374E+04  0.36068669552E+04  0.32130004154E+04 0.  0.
        5    1    3    3  502    0  0.37563204255E+03  0.10986560228E+04 -0.20658300270E+04  0.23697721997E+04  0.46999998093E+01 0. -1.
       -5    1    3    3    0  502 -0.37563204255E+03 -0.10986560228E+04  0.42689208959E+03  0.12370947555E+04  0.46999998093E+01 0.  1.
</event>
<event>
 5   0  0.2337504E-06  0.3205435E+04  0.7818609E-02  0.8187383E-01
        2   -1    0    0  501    0  0.00000000000E+00  0.00000000000E+00  0.16617310808E+04  0.16617310808E+04  0.25500000920E-02 0. -1.
       -2   -1    0    0    0  501  0.00000000000E+00  0.00000000000E+00 -0.15457993088E+04  0.15457993088E+04  0.25500000920E-02 0.  1.
    10030    2    1    2    0    0  0.00000000000E+00  0.00000000000E+00  0.11593177203E+03  0.32075303895E+04  0.32054346077E+04 0.  0.
        1    1    3    3  502    0 -0.90524942716E+03 -0.85291660047E+03  0.10694479850E+04  0.16403238233E+04  0.50400001928E-02 0.  1.
       -1    1    3    3    0  502  0.90524942716E+03  0.85291660047E+03 -0.95351621299E+03  0.15672065662E+04  0.50400001928E-02 0. -1.
</event>
<event>
 5   0  0.2401139E-06  0.3204239E+04  0.7818609E-02  0.8187699E-01
       -2   -1    0    0    0  501  0.00000000000E+00  0.00000000000E+00  0.22443172146E+04  0.22443172146E+04  0.25500000920E-02 0. -1.
        2   -1    0    0  501    0  0.00000000000E+00  0.00000000000E+00 -0.11436827591E+04  0.11436827591E+04  0.25500000920E-02 0.  1.
    10030    2    1    2    0    0  0.00000000000E+00  0.00000000000E+00  0.11006344555E+04  0.33879999737E+04  0.32042390075E+04 0.  0.
        5    1    3    3  502    0 -0.89790879825E+03 -0.64245624183E+03 -0.67719867150E+03  0.12952259893E+04  0.46999998093E+01 0.  1.
       -5    1    3    3    0  502  0.89790879825E+03  0.64245624183E+03  0.17778331270E+04  0.20927739845E+04  0.46999998093E+01 0. -1.
</event>
<event>
 5   0  0.8681172E-07  0.3177685E+04  0.7818609E-02  0.8194735E-01
       -1   -1    0    0    0  501  0.00000000000E+00  0.00000000000E+00  0.17795465175E+04  0.17795465175E+04  0.50400001928E-02 0.  1.
        1   -1    0    0  501    0  0.00000000000E+00  0.00000000000E+00 -0.14185755980E+04  0.14185755980E+04  0.50400001928E-02 0. -1.
    10030    2    1    2    0    0  0.00000000000E+00  0.00000000000E+00  0.36097091944E+03  0.31981221155E+04  0.31776854880E+04 0.  0.
        1    1    3    3  502    0 -0.33857561855E+03 -0.30708859070E+03  0.17119433612E+04  0.17719161730E+04  0.50400001928E-02 0.  1.
       -1    1    3    3    0  502  0.33857561855E+03  0.30708859070E+03 -0.13509724418E+04  0.14262059425E+04  0.50400001928E-02 0. -1.
</event>
<event>
 5   0  0.8383008E-07  0.3210989E+04  0.7818609E-02  0.8185921E-01
       -1   -1    0    0    0  501  0.00000000000E+00  0.00000000000E+00  0.11196321430E+04  0.11196321430E+04  0.50400001928E-02 0.  1.
        1   -1    0    0  501    0  0.00000000000E+00  0.00000000000E+00 -0.23021966575E+04  0.23021966575E+04  0.50400001928E-02 0. -1.
    10030    2    1    2    0    0  0.00000000000E+00  0.00000000000E+00 -0.11825645145E+04  0.34218288005E+04  0.32109894906E+04 0.  0.
        4    1    3    3  502    0  0.85524858373E+02 -0.26287139315E+03 -0.22766444475E+04  0.22933659595E+04  0.12699999809E+01 0. -1.
       -4    1    3    3    0  502 -0.85524858373E+02  0.26287139315E+03  0.10940799330E+04  0.11284628410E+04  0.12699999809E+01 0.  1.
</event>
<event>
 5   0  0.8383008E-07  0.3199289E+04  0.7818609E-02  0.8189005E-01
        1   -1    0    0  501    0  0.00000000000E+00  0.00000000000E+00  0.17968758587E+04  0.17968758587E+04  0.50400001928E-02 0.  1.
       -1   -1    0    0    0  501  0.00000000000E+00  0.00000000000E+00 -0.14240616592E+04  0.14240616593E+04  0.50400001928E-02 0. -1.
    10030    2    1    2    0    0  0.00000000000E+00  0.00000000000E+00  0.37281419943E+03  0.32209375179E+04  0.31992886814E+04 0.  0.
        4    1    3    3  502    0 -0.73633232967E+03 -0.70157618388E+03  0.14294546346E+04  0.17543479149E+04  0.12699999809E+01 0.  1.
       -4    1    3    3    0  502  0.73633232967E+03  0.70157618388E+03 -0.10566404351E+04  0.14665896030E+04  0.12699999809E+01 0. -1.
</event>
<event>
 5   0  0.2621528E-06  0.3085354E+04  0.7818609E-02  0.8219769E-01
        2   -1    0    0  501    0  0.00000000000E+00  0.00000000000E+00  0.19846470830E+04  0.19846470830E+04  0.25500000920E-02 0. -1.
       -2   -1    0    0    0  501  0.00000000000E+00  0.00000000000E+00 -0.11991314583E+04  0.11991314583E+04  0.25500000920E-02 0.  1.
    10030    2    1    2    0    0  0.00000000000E+00  0.00000000000E+00  0.78551562470E+03  0.31837785413E+04  0.30853542752E+04 0.  0.
        2    1    3    3  502    0  0.35854450522E+03  0.11326254011E+04 -0.62273831762E+03  0.13413416693E+04  0.25500000920E-02 0.  1.
       -2    1    3    3    0  502 -0.35854450522E+03 -0.11326254011E+04  0.14082539423E+04  0.18424368721E+04  0.25500000920E-02 0. -1.
</event>
<event>
 5   0  0.2621528E-06  0.3220892E+04  0.7818609E-02  0.8183321E-01
       -2   -1    0    0    0  501  0.00000000000E+00  0.00000000000E+00  0.19098192248E+04  0.19098192249E+04  0.25500000920E-02 0. -1.
        2   -1    0    0  501    0  0.00000000000E+00  0.00000000000E+00 -0.13580007356E+04  0.13580007356E+04  0.25500000920E-02 0.  1.
    10030    2    1    2    0    0  0.00000000000E+00  0.00000000000E+00  0.55181848923E+03  0.32678199605E+04  0.32208917475E+04 0.  0.
        2    1    3    3  502    0  0.61330679740E+03 -0.15850376032E+03 -0.12262941527E+04  0.13802412900E+04  0.25500000920E-02 0.  1.
       -2    1    3    3    0  502 -0.61330679740E+03  0.15850376032E+03  0.17781126419E+04  0.18875786704E+04  0.25500000920E-02 0. -1.
</event>
<event>
 5   0  0.2404430E-06  0.3262979E+04  0.7818609E-02  0.8172380E-01
        2   -1    0    0  501    0  0.00000000000E+00  0.00000000000E+00  0.18808762078E+04  0.18808762078E+04  0.25500000920E-02 0.  1.
       -2   -1    0    0    0  501  0.00000000000E+00  0.00000000000E+00 -0.14151693207E+04  0.14151693207E+04  0.25500000920E-02 0. -1.
    10030    2    1    2    0    0  0.00000000000E+00  0.00000000000E+00  0.46570688704E+03  0.32960455285E+04  0.32629791942E+04 0.  0.
        4    1    3    3  502    0  0.11916648595E+04  0.22452082045E+03 -0.86966580219E+03  0.14922449386E+04  0.12699999809E+01 0. -1.
       -4    1    3    3    0  502 -0.11916648595E+04 -0.22452082045E+03  0.13353726892E+04  0.18038005900E+04  0.12699999809E+01 0.  1.
</event>
<event>
 5   0  0.2401139E-06  0.3194724E+04  0.7818609E-02  0.8190212E-01
        2   -1    0    0  501    0  0.00000000000E+00  0.00000000000E+00  0.16159307718E+04  0.16159307718E+04  0.25500000920E-02 0. -1.
       -2   -1    0    0    0  501  0.00000000000E+00  0.00000000000E+00 -0.15790070253E+04  0.15790070253E+04  0.25500000920E-02 0.  1.
    10030    2    1    2    0    0  0.00000000000E+00  0.00000000000E+00  0.36923746545E+02  0.31949377970E+04  0.31947244269E+04 0.  0.
        5    1    3    3  502    0  0.81480940349E+03  0.18272049045E+03  0.13802586646E+04  0.16132071203E+04  0.46999998093E+01 0. -1.
       -5    1    3    3    0  502 -0.81480940349E+03 -0.18272049045E+03 -0.13433349181E+04  0.15817306768E+04  0.46999998093E+01 0.  1.
</event>
<event>
 5   0  0.2621528E-06  0.3212200E+04  0.7818609E-02  0.8185602E-01
        2   -1    0    0  501    0  0.00000000000E+00  0.00000000000E+00  0.14384171292E+04  0.14384171293E+04  0.25500000920E-02 0. -1.
       -2   -1    0    0    0  501  0.00000000000E+00  0.00000000000E+00 -0.17933309344E+04  0.17933309344E+04  0.25500000920E-02 0.  1.
    10030    2    1    2    0    0  0.00000000000E+00  0.00000000000E+00 -0.35491380517E+03  0.32317480637E+04  0.32122004511E+04 0.  0.
        2    1    3    3  502    0 -0.92237425354E+03 -0.10878194374E+04  0.56557144238E+03  0.15342739157E+04  0.25500000920E-02 0. -1.
       -2    1    3    3    0  502  0.92237425354E+03  0.10878194374E+04 -0.92048524755E+03  0.16974741480E+04  0.25500000920E-02 0.  1.
</event>
<event>
 5   0  0.2337504E-06  0.3249269E+04  0.7818609E-02  0.8175925E-01
        2   -1    0    0  501    0  0.00000000000E+00  0.00000000000E+00  0.23172615013E+04  0.23172615013E+04  0.25500000920E-02 0. -1.
       -2   -1    0    0    0  501  0.00000000000E+00  0.00000000000E+00 -0.11390331319E+04  0.11390331319E+04  0.25500000920E-02 0.  1.
    10030    2    1    2    0    0  0.00000000000E+00  0.00000000000E+00  0.11782283694E+04  0.34562946332E+04  0.32492692257E+04 0.  0.
        1    1    3    3  502    0 -0.13332364418E+04  0.84753992251E+03  0.18603195420E+03  0.15907392049E+04  0.50400001928E-02 0.  1.
       -1    1    3    3    0  502  0.13332364418E+04 -0.84753992251E+03  0.99219641519E+03  0.18655554283E+04  0.50400001928E-02 0. -1.
</event>
<event>
 5   0  0.2404430E-06  0.3038016E+04  0.7818609E-02  0.8232958E-01
       -2   -1    0    0    0  501  0.00000000000E+00  0.00000000000E+00  0.19942167270E+04  0.19942167270E+04  0.25500000920E-02 0. -1.
        2   -1    0    0  501    0  0.00000000000E+00  0.00000000000E+00 -0.11570386837E+04  0.11570386837E+04  0.25500000920E-02 0.  1.
    10030    2    1    2    0    0  0.00000000000E+00  0.00000000000E+00  0.83717804324E+03  0.31512554107E+04  0.30380163902E+04 0.  0.
        4    1    3    3  502    0 -0.26794210009E+03  0.12690584705E+04 -0.40150181301E+03  0.13577583324E+04  0.12699999809E+01 0.  1.
       -4    1    3    3    0  502  0.26794210009E+03 -0.12690584705E+04  0.12386798562E+04  0.17934970783E+04  0.12699999809E+01 0. -1.
</event>
<event>
 5   0  0.2404430E-06  0.3182555E+04  0.7818609E-02  0.8193440E-01
       -2   -1    0    0    0  501  0.00000000000E+00  0.00000000000E+00  0.16148130004E+04  0.16148130004E+04  0.25500000920E-02 0.  1.
        2   -1    0    0  501    0  0.00000000000E+00  0.00000000000E+00 -0.15680852139E+04  0.15680852139E+04  0.25500000920E-02 0. -1.
    10030    2    1    2    0    0  0.00000000000E+00  0.00000000000E+00  0.46727786434E+02  0.31828982143E+04  0.31825551930E+04 0.  0.
        4    1    3    3  502    0  0.15148218865E+04 -0.34878493598E+03  0.36373349551E+03  0.15964460367E+04  0.12699999809E+01 0.  1.
       -4    1    3    3    0  502 -0.15148218865E+04  0.34878493598E+03 -0.31700570908E+03  0.15864521776E+04  0.12699999809E+01 0. -1.
</event>
<event>
 5   0  0.2401139E-06  0.3200932E+04  0.7818609E-02  0.8188571E-01
        2   -1    0    0  501    0  0.00000000000E+00  0.00000000000E+00  0.22082809112E+04  0.22082809112E+04  0.25500000920E-02 0.  1.
       -2   -1    0    0    0  501  0.00000000000E+00  0.00000000000E+00 -0.11599484463E+04  0.11599484463E+04  0.25500000920E-02 0. -1.
    10030    2    1    2    0    0  0.00000000000E+00  0.00000000000E+00  0.10483324649E+04  0.33682293575E+04  0.32009323717E+04 0.  0.
        5    1    3    3  502    0  0.13348583147E+04  0.25338251671E+02 -0.40456198191E+03  0.13950559969E+04  0.46999998093E+01 0. -1.
       -5    1    3    3    0  502 -0.13348583147E+04 -0.25338251671E+02  0.14528944468E+04  0.19731733606E+04  0.46999998093E+01 0.  1.
</event>
<event>
 5   0  0.8383008E-07  0.3169853E+04  0.7818609E-02  0.8196825E-01
        1   -1    0    0  501    0  0.00000000000E+00  0.00000000000E+00  0.15940035338E+04  0.15940035338E+04  0.50400001928E-02 0.  1.
       -1   -1    0    0    0  501  0.00000000000E+00  0.00000000000E+00 -0.15759008162E+04  0.15759008162E+04  0.50400001928E-02 0. -1.
    10030    2    1    2    0    0  0.00000000000E+00  0.00000000000E+00  0.18102717611E+02  0.31699043500E+04  0.31698526589E+04 0.  0.
        4    1    3    3  502    0 -0.15429893268E+04  0.20392929442E+03 -0.29026379122E+03  0.15832428434E+04  0.12699999809E+01 0. -1.
       -4    1    3    3    0  502  0.15429893268E+04 -0.20392929442E+03  0.30836650883E+03  0.15866615066E+04  0.12699999809E+01 0.  1.
</event>
<event>
 5   0  0.2401139E-06  0.3199122E+04  0.7818609E-02  0.8189049E-01
       -2   -1    0    0    0  501  0.00000000000E+00  0.00000000000E+00  0.18177398825E+04  0.18177398825E+04  0.25500000920E-02 0.  1.
        2   -1    0    0  501    0  0.00000000000E+00  0.00000000000E+00 -0.14075697208E+04  0.14075697208E+04  0.25500000920E-02 0. -1.
    10030    2    1    2    0    0  0.00000000000E+00  0.00000000000E+00  0.41017016161E+03  0.32253096033E+04  0.31991221414E+04 0.  0.
        5    1    3    3  502    0  0.64316357843E+03 -0.10328746057E+04 -0.84172266252E+03  0.14795298139E+04  0.46999998093E+01 0. -1.
       -5    1    3    3    0  502 -0.64316357843E+03  0.10328746057E+04  0.12518928241E+04  0.17457797893E+04  0.46999998093E+01 0.  1.
</event>
<event>
 5   0  0.2466076E-06  0.3196609E+04  0.7818609E-02  0.8189713E-01
        2   -1    0    0  501    0  0.00000000000E+00  0.00000000000E+00  0.12975492128E+04  0.12975492128E+04  0.25500000920E-02 0.  1.
       -2   -1    0    0    0  501  0.00000000000E+00  0.00000000000E+00 -0.19687713601E+04  0.19687713601E+04  0.25500000920E-02 0. -1.
    10030    2    1    2    0    0  0.00000000000E+00  0.00000000000E+00 -0.67122214734E+03  0.32663205729E+04  0.31966092839E+04 0.  0.
        3    1    3    3  502    0  0.79033224930E+02 -0.20993036308E+03  0.12813852026E+04  0.13008708836E+04  0.10100000352E+00 0.  1.
       -3    1    3    3    0  502 -0.79033224930E+02  0.20993036308E+03 -0.19526073500E+04  0.19654496893E+04  0.10100000352E+00 0. -1.
</event>
<event>
 5   0  0.7934375E-07  0.3191296E+04  0.7818609E-02  0.8191120E-01
       -4   -1    0    0    0  501  0.00000000000E+00  0.00000000000E+00  0.13599519288E+04  0.13599525218E+04  0.12699999809E+01 0. -1.
        4   -1    0    0  501    0  0.00000000000E+00  0.00000000000E+00 -0.18721914106E+04  0.18721918414E+04  0.12699999809E+01 0.  1.
    10030    2    1    2    0    0  0.00000000000E+00  0.00000000000E+00 -0.51223948184E+03  0.32321443631E+04  0.31912956456E+04 0.  0.
        5    1    3    3  502    0  0.99838156787E+03  0.12284396291E+04 -0.45928704266E+03  0.16482707166E+04  0.46999998093E+01 0. -1.
       -5    1    3    3    0  502 -0.99838156787E+03 -0.12284396291E+04 -0.52952439177E+02  0.15838736466E+04  0.46999998093E+01 0.  1.
</event>
<event>
 5   0  0.8681172E-07  0.3197425E+04  0.7818609E-02  0.8189497E-01
        1   -1    0    0  501    0  0.00000000000E+00  0.00000000000E+00  0.30891536532E+04  0.30891536532E+04  0.50400001928E-02 0. -1.
       -1   -1    0    0    0  501  0.00000000000E+00  0.00000000000E+00 -0.82737293751E+03  0.82737293752E+03  0.50400001928E-02 0.  1.
    10030    2    1    2    0    0  0.00000000000E+00  0.00000000000E+00  0.22617807157E+04  0.39165265907E+04  0.31974252970E+04 0.  0.
        1    1    3    3  502    0  0.15326868156E+03  0.13759937023E+04  0.21100692332E+04  0.25237357481E+04  0.50400001928E-02 0. -1.
       -1    1    3    3    0  502 -0.15326868156E+03 -0.13759937023E+04  0.15171148253E+03  0.13927908426E+04  0.50400001928E-02 0.  1.
</event>
<event>
 5   0  0.8512855E-07  0.3120862E+04  0.7818609E-02  0.8210036E-01
       -1   -1    0    0    0  501  0.00000000000E+00  0.00000000000E+00  0.14441692723E+04  0.14441692723E+04  0.50400001928E-02 0.  1.
        1   -1    0    0  501    0  0.00000000000E+00  0.00000000000E+00 -0.16860522420E+04  0.16860522420E+04  0.50400001928E-02 0. -1.
    10030    2    1    2    0    0  0.00000000000E+00  0.00000000000E+00 -0.24188296972E+03  0.31302215144E+04  0.31208619575E+04 0.  0.
        5    1    3    3  502    0  0.10849743625E+04 -0.54432169610E+03  0.86254357261E+03  0.14891134882E+04  0.46999998093E+01 0.  1.
       -5    1    3    3    0  502 -0.10849743625E+04  0.54432169610E+03 -0.11044265423E+04  0.16411080262E+04  0.46999998093E+01 0. -1.
</event>
<event>
 5   0  0.8512855E-07  0.3195244E+04  0.7818609E-02  0.8190074E-01
        1   -1    0    0  501    0  0.00000000000E+00  0.00000000000E+00  0.22067986122E+04  0.22067986122E+04  0.50400001928E-02 0. -1.
       -1   -1    0    0    0  501  0.00000000000E+00  0.00000000000E+00 -0.11566056556E+04  0.11566056556E+04  0.50400001928E-02 0.  1.
    10030    2    1    2    0    0  0.00000000000E+00  0.00000000000E+00  0.10501929566E+04  0.33634042678E+04  0.31952438127E+04 0.  0.
        5    1    3    3  502    0  0.10578382983E+04 -0.47033426933E+03 -0.63381698342E+03  0.13198417514E+04  0.46999998093E+01 0.  1.
       -5    1    3    3    0  502 -0.10578382983E+04  0.47033426933E+03  0.16840099400E+04  0.20435625164E+04  0.46999998093E+01 0. -1.
</event>
<event>
 5   0  0.2337504E-06  0.3183358E+04  0.7818609E-02  0.8193226E-01
        2   -1    0    0  501    0  0.00000000000E+00  0.00000000000E+00  0.22083837096E+04  0.22083837096E+04  0.25500000920E-02 0.  1.
       -2   -1    0    0    0  501  0.00000000000E+00  0.00000000000E+00 -0.11471931356E+04  0.11471931356E+04  0.25500000920E-02 0. -1.
    10030    2    1    2    0    0  0.00000000000E+00  0.00000000000E+00  0.10611905741E+04  0.33555768452E+04  0.31833583728E+04 0.  0.
        1    1    3    3  502    0 -0.11681107590E+04 -0.99004040176E+03  0.98858900419E+03  0.18226274884E+04  0.50400001928E-02 0.  1.
       -1    1    3    3    0  502  0.11681107590E+04  0.99004040176E+03  0.72601569864E+02  0.15329493568E+04  0.50400001928E-02 0. -1.
</event>
<event>
 5   0  0.2337504E-06  0.3140115E+04  0.7818609E-02  0.8204814E-01
        2   -1    0    0  501    0  0.00000000000E+00  0.00000000000E+00  0.18826611954E+04  0.18826611954E+04  0.25500000920E-02 0. -1.
       -2   -1    0    0    0  501  0.00000000000E+00  0.00000000000E+00 -0.13093594950E+04  0.13093594950E+04  0.25500000920E-02 0.  1.
    10030    2    1    2    0    0  0.00000000000E+00  0.00000000000E+00  0.57330170039E+03  0.31920206904E+04  0.31401148464E+04 0.  0.
        1    1    3    3  502    0 -0.42379631000E+03 -0.75346416657E+03 -0.10456506420E+04  0.13567228264E+04  0.50400001928E-02 0.  1.
       -1    1    3    3    0  502  0.42379631000E+03  0.75346416657E+03  0.16189523424E+04  0.18352978640E+04  0.50400001928E-02 0. -1.
</event>
<event>
 5   0  0.8383008E-07  0.3192133E+04  0.7818609E-02  0.8190898E-01
        1   -1    0    0  501    0  0.00000000000E+00  0.00000000000E+00  0.20118673927E+04  0.20118673927E+04  0.50400001928E-02 0.  1.
       -1   -1    0    0    0  501  0.00000000000E+00  0.00000000000E+00 -0.12662008290E+04  0.12662008290E+04  0.50400001928E-02 0. -1.
    10030    2    1    2    0    0  0.00000000000E+00  0.00000000000E+00  0.74566656371E+03  0.32780682217E+04  0.31921329298E+04 0.  0.
        4    1    3    3  502    0  0.43755597196E+03 -0.63174421079E+03 -0.10637078661E+04  0.13122621741E+04  0.12699999809E+01 0. -1.
       -4    1    3    3    0  502 -0.43755597196E+03  0.63174421079E+03  0.18093744298E+04  0.19658060475E+04  0.12699999809E+01 0.  1.
</event>
<event>
 5   0  0.2621528E-06  0.3240287E+04  0.7818609E-02  0.8178258E-01
        2   -1    0    0  501    0  0.00000000000E+00  0.00000000000E+00  0.23489752971E+04  0.23489752971E+04  0.25500000920E-02 0.  1.
       -2   -1    0    0    0  501  0.00000000000E+00  0.00000000000E+00 -0.11174512099E+04  0.11174512099E+04  0.25500000920E-02 0. -1.
    10030    2    1    2    0    0  0.00000000000E+00  0.00000000000E+00  0.12315240872E+04  0.34664265070E+04  0.32402872019E+04 0.  0.
        2    1    3    3  502    0  0.23289125945E+03 -0.15658730445E+03 -0.10912510332E+04  0.11267593976E+04  0.25500000920E-02 0. -1.
       -2    1    3    3    0  502 -0.23289125945E+03  0.15658730445E+03  0.23227751204E+04  0.23396671094E+04  0.25500000920E-02 0.  1.
</event>
<event>
 5   0  0.2401139E-06  0.3199612E+04  0.7818609E-02  0.8188920E-01
        2   -1    0    0  501    0  0.00000000000E+00  0.00000000000E+00  0.17813472591E+04  0.17813472591E+04  0.25500000920E-02 0. -1.
       -2   -1    0    0    0  501  0.00000000000E+00  0.00000000000E+00 -0.14367656355E+04  0.14367656355E+04  0.25500000920E-02 0.  1.
    10030    2    1    2    0    0  0.00000000000E+00  0.00000000000E+00  0.34458162359E+03  0.32181128945E+04  0.31996115556E+04 0.  0.
        5    1    3    3  502    0  0.47023380988E+03  0.11034305423E+04 -0.89245115511E+03  0.14950484781E+04  0.46999998093E+01 0.  1.
       -5    1    3    3    0  502 -0.47023380988E+03 -0.11034305423E+04  0.12370327787E+04  0.17230644164E+04  0.46999998093E+01 0. -1.
</event>
<event>
 5   0  0.2401139E-06  0.3168441E+04  0.7818609E-02  0.8197202E-01
        2   -1    0    0  501    0  0.00000000000E+00  0.00000000000E+00  0.18509453620E+04  0.18509453620E+04  0.25500000920E-02 0.  1.
       -2   -1    0    0    0  501  0.00000000000E+00  0.00000000000E+00 -0.13559309331E+04  0.13559309331E+04  0.25500000920E-02 0. -1.
    10030    2    1    2    0    0  0.00000000000E+00  0.00000000000E+00  0.49501442885E+03  0.32068762951E+04  0.31684406712E+04 0.  0.
        5    1    3    3  502    0  0.85634472619E+03  0.85570132250E+03  0.12817547826E+04  0.17630849259E+04  0.46999998093E+01 0.  1.
       -5    1    3    3    0  502 -0.85634472619E+03 -0.85570132250E+03 -0.78674035373E+03  0.14437913691E+04  0.46999998093E+01 0. -1.
</event>
<event>
 5   0  0.8681172E-07  0.3183057E+04  0.7818609E-02  0.8193306E-01
       -1   -1    0    0    0  501  0.00000000000E+00  0.00000000000E+00  0.92421579633E+03  0.92421579635E+03  0.50400001928E-02 0. -1.
        1   -1    0    0  501    0  0.00000000000E+00  0.00000000000E+00 -0.27406611007E+04  0.27406611007E+04  0.50400001928E-02 0.  1.
    10030    2    1    2    0    0  0.00000000000E+00  0.00000000000E+00 -0.18164453043E+04  0.36648768970E+04  0.31830565698E+04 0.  0.
        1    1    3    3  502    0  0.87916321185E+03  0.94511339052E+03  0.16372415463E+03  0.13011429102E+04  0.50400001928E-02 0. -1.
       -1    1    3    3    0  502 -0.87916321185E+03 -0.94511339052E+03 -0.19801694590E+04  0.23637339868E+04  0.50400001928E-02 0.  1.
</event>
<event>
 5   0  0.8383008E-07  0.3106629E+04  0.7818609E-02  0.8213921E-01
       -1   -1    0    0    0  501  0.00000000000E+00  0.00000000000E+00  0.17207889581E+04  0.17207889581E+04  0.50400001928E-02 0.  1.
        1   -1    0    0  501    0  0.00000000000E+00  0.00000000000E+00 -0.14021395238E+04  0.14021395238E+04  0.50400001928E-02 0. -1.
    10030    2    1    2    0    0  0.00000000000E+00  0.00000000000E+00  0.31864943427E+03  0.31229284819E+04  0.31066291766E+04 0.  0.
        4    1    3    3  502    0 -0.15765099299E+02 -0.14708185392E+04 -0.34252283251E+03  0.15102579969E+04  0.12699999809E+01 0. -1.
       -4    1    3    3    0  502  0.15765099299E+02  0.14708185392E+04  0.66117226678E+03  0.16126704849E+04  0.12699999809E+01 0.  1.
</event>
<event>
 5   0  0.2466076E-06  0.3153294E+04  0.7818609E-02  0.8201262E-01
       -2   -1    0    0    0  501  0.00000000000E+00  0.00000000000E+00  0.14385757201E+04  0.14385757201E+04  0.25500000920E-02 0.  1.
        2   -1    0    0  501    0  0.00000000000E+00  0.00000000000E+00 -0.17279704458E+04  0.17279704458E+04  0.25500000920E-02 0. -1.
    10030    2    1    2    0    0  0.00000000000E+00  0.00000000000E+00 -0.28939472564E+03  0.31665461659E+04  0.31532943588E+04 0.  0.
        3    1    3    3  502    0 -0.11628869814E+04 -0.46482297606E+03 -0.11065586872E+04  0.16711788261E+04  0.10100000352E+00 0. -1.
       -3    1    3    3    0  502  0.11628869814E+04  0.46482297606E+03  0.81716396152E+03  0.14953673397E+04  0.10100000352E+00 0.  1.
</event>
<event>
 5   0  0.2337504E-06  0.3193425E+04  0.7818609E-02  0.8190556E-01
        2   -1    0    0  501    0  0.00000000000E+00  0.00000000000E+00  0.20044379947E+04  0.20044379947E+04  0.25500000920E-02 0. -1.
       -2   -1    0    0    0  501  0.00000000000E+00  0.00000000000E+00 -0.12719233988E+04  0.12719233988E+04  0.25500000920E-02 0.  1.
    10030    2    1    2    0    0  0.00000000000E+00  0.00000000000E+00  0.73251459591E+03  0.32763613935E+04  0.31934254881E+04 0.  0.
        1    1    3    3  502    0  0.85317687165E+03  0.12744866201E+04 -0.89422384999E+02  0.15363018200E+04  0.50400001928E-02 0.  1.
       -1    1    3    3    0  502 -0.85317687165E+03 -0.12744866201E+04  0.82193698091E+03  0.17400595736E+04  0.50400001928E-02 0. -1.
</event>
<event>
 5   0  0.2401139E-06  0.3216039E+04  0.7818609E-02  0.8184594E-01
        2   -1    0    0  501    0  0.00000000000E+00  0.00000000000E+00  0.19715066223E+04  0.19715066223E+04  0.25500000920E-02 0.  1.
       -2   -1    0    0    0  501  0.00000000000E+00  0.00000000000E+00 -0.13115483058E+04  0.13115483058E+04  0.25500000920E-02 0. -1.
    10030    2    1    2    0    0  0.00000000000E+00  0.00000000000E+00  0.65995831647E+03  0.32830549281E+04  0.32160386629E+04 0.  0.
        5    1    3    3  502    0  0.11279770993E+04 -0.18904347143E+03 -0.82389957914E+03  0.14095752471E+04  0.46999998093E+01 0. -1.
       -5    1    3    3    0  502 -0.11279770993E+04  0.18904347143E+03  0.14838578956E+04  0.18734796810E+04  0.46999998093E+01 0.  1.
</event>
<event>
 5   0  0.8487944E-07  0.3177363E+04  0.7818609E-02  0.8194821E-01
       -1   -1    0    0    0  501  0.00000000000E+00  0.00000000000E+00  0.19566371188E+04  0.19566371188E+04  0.50400001928E-02 0.  1.
        1   -1    0    0  501    0  0.00000000000E+00  0.00000000000E+00 -0.12899218520E+04  0.12899218520E+04  0.50400001928E-02 0. -1.
    10030    2    1    2    0    0  0.00000000000E+00  0.00000000000E+00  0.66671526673E+03  0.32465589708E+04  0.31773630425E+04 0.  0.
        2    1    3    3  502    0  0.89755410694E+03  0.13101349592E+04  0.28938568142E+03  0.16142493794E+04  0.25500000920E-02 0.  1.
       -2    1    3    3    0  502 -0.89755410694E+03 -0.13101349592E+04  0.37732958531E+03  0.16323095914E+04  0.25500000920E-02 0. -1.
</event>
<event>
 5   0  0.2466076E-06  0.3191322E+04  0.7818609E-02  0.8191113E-01
        2   -1    0    0  501    0  0.00000000000E+00  0.00000000000E+00  0.21476204924E+04  0.21476204924E+04  0.25500000920E-02 0.  1.
       -2   -1    0    0    0  501  0.00000000000E+00  0.00000000000E+00 -0.11855606064E+04  0.11855606064E+04  0.25500000920E-02 0. -1.
    10030    2    1    2    0    0  0.00000000000E+00  0.00000000000E+00  0.96205988601E+03  0.33331810989E+04  0.31913221419E+04 0.  0.
        3    1    3    3  502    0 -0.99048807012E+03 -0.28729623092E+02  0.17873219483E+04  0.20436271101E+04  0.10100000352E+00 0.  1.
       -3    1    3    3    0  502  0.99048807012E+03  0.28729623092E+02 -0.82526206225E+03  0.12895539887E+04  0.10100000352E+00 0. -1.
</event>
<event>
 5   0  0.2404430E-06  0.3193854E+04  0.7818609E-02  0.8190442E-01
        2   -1    0    0  501    0  0.00000000000E+00  0.00000000000E+00  0.12806305221E+04  0.12806305221E+04  0.25500000920E-02 0. -1.
       -2   -1    0    0    0  501  0.00000000000E+00  0.00000000000E+00 -0.19913435425E+04  0.19913435425E+04  0.25500000920E-02 0.  1.
    10030    2    1    2    0    0  0.00000000000E+00  0.00000000000E+00 -0.71071302038E+03  0.32719740645E+04  0.31938536726E+04 0.  0.
        4    1    3    3  502    0  0.26048384028E+03  0.12035105827E+04 -0.13970279984E+04  0.18622508947E+04  0.12699999809E+01 0.  1.
       -4    1    3    3    0  502 -0.26048384028E+03 -0.12035105827E+04  0.68631497797E+03  0.14097231698E+04  0.12699999809E+01 0. -1.
</event>
<event>
 5   0  0.7934375E-07  0.3203385E+04  0.7818609E-02  0.8187924E-01
       -3   -1    0    0    0  501  0.00000000000E+00  0.00000000000E+00  0.18400433316E+04  0.18400433343E+04  0.10100000352E+00 0. -1.
        3   -1    0    0  501    0  0.00000000000E+00  0.00000000000E+00 -0.13942166648E+04  0.13942166685E+04  0.10100000352E+00 0.  1.
    10030    2    1    2    0    0  0.00000000000E+00  0.00000000000E+00  0.44582666678E+03  0.32342600028E+04  0.32033851390E+04 0.  0.
        1    1    3    3  502    0 -0.15079700036E+04 -0.44221169700E+03 -0.89739471907E+02  0.15740323661E+04  0.50400001928E-02 0.  1.
       -1    1    3    3    0  502  0.15079700036E+04  0.44221169700E+03  0.53556613868E+03  0.16602276367E+04  0.50400001928E-02 0. -1.
</event>
<event>
 5   0  0.2466076E-06  0.3194455E+04  0.7818609E-02  0.8190283E-01
       -2   -1    0    0    0  501  0.00000000000E+00  0.00000000000E+00  0.11351047992E+04  0.11351047992E+04  0.25500000920E-02 0. -1.
        2   -1    0    0  501    0  0.00000000000E+00  0.00000000000E+00 -0.22474888081E+04  0.22474888081E+04  0.25500000920E-02 0.  1.
    10030    2    1    2    0    0  0.00000000000E+00  0.00000000000E+00 -0.11123840088E+04  0.33825936073E+04  0.31944547781E+04 0.  0.
        3    1    3    3  502    0  0.75492908368E+03  0.14034514594E+04 -0.44243389651E+03  0.16538868411E+04  0.10100000352E+00 0.  1.
       -3    1    3    3    0  502 -0.75492908368E+03 -0.14034514594E+04 -0.66995011234E+03  0.17287067662E+04  0.10100000352E+00 0. -1.
</event>
<event>
 5   0  0.2404430E-06  0.3197639E+04  0.7818609E-02  0.8189441E-01
       -2   -1    0    0    0  501  0.00000000000E+00  0.00000000000E+00  0.16034595616E+04  0.16034595616E+04  0.25500000920E-02 0. -1.
        2   -1    0    0  501    0  0.00000000000E+00  0.00000000000E+00 -0.15941926013E+04  0.15941926013E+04  0.25500000920E-02 0.  1.
    10030    2    1    2    0    0  0.00000000000E+00  0.00000000000E+00  0.92669603448E+01  0.31976521629E+04  0.31976387348E+04 0.  0.
        4    1    3    3  502    0 -0.52485085946E+03  0.48471694096E+03  0.14349551228E+04  0.16029712271E+04  0.12699999809E+01 0. -1.
       -4    1    3    3    0  502  0.52485085946E+03 -0.48471694096E+03 -0.14256881625E+04  0.15946809358E+04  0.12699999809E+01 0.  1.
</event>
<event>
 5   0  0.2337504E-06  0.3274235E+04  0.7818609E-02  0.8169482E-01
       -2   -1    0    0    0  501  0.00000000000E+00  0.00000000000E+00  0.11880764839E+04  0.11880764839E+04  0.25500000920E-02 0. -1.
        2   -1    0    0  501    0  0.00000000000E+00  0.00000000000E+00 -0.22558765607E+04  0.22558765607E+04  0.25500000920E-02 0.  1.
    10030    2    1    2    0    0  0.00000000000E+00  0.00000000000E+00 -0.10678000768E+04  0.34439530445E+04  0.32742351121E+04 0.  0.
        1    1    3    3  502    0 -0.93344656796E+03 -0.12914646344E+04 -0.13900592226E+03  0.15995393223E+04  0.50400001928E-02 0.  1.
       -1    1    3    3    0  502  0.93344656796E+03  0.12914646344E+04 -0.92879415451E+03  0.18444137222E+04  0.50400001928E-02 0. -1.
</event>
<event>
 5   0  0.8383008E-07  0.3199146E+04  0.7818609E-02  0.8189043E-01
       -1   -1    0    0    0  501  0.00000000000E+00  0.00000000000E+00  0.12083969832E+04  0.12083969833E+04  0.50400001928E-02 0. -1.
        1   -1    0    0  501    0  0.00000000000E+00  0.00000000000E+00 -0.21173779496E+04  0.21173779496E+04  0.50400001928E-02 0.  1.
    10030    2    1    2    0    0  0.00000000000E+00  0.00000000000E+00 -0.90898096631E+03  0.33257749328E+04  0.31991455901E+04 0.  0.
        4    1    3    3  502    0  0.12460092917E+04 -0.64229350624E+03 -0.12554084228E+04  0.18817895802E+04  0.12699999809E+01 0.  1.
       -4    1    3    3    0  502 -0.12460092917E+04  0.64229350624E+03  0.34642745645E+03  0.14439853527E+04  0.12699999809E+01 0. -1.
</event>
<event>
 5   0  0.2466076E-06  0.3219430E+04  0.7818609E-02  0.8183704E-01
        2   -1    0    0  501    0  0.00000000000E+00  0.00000000000E+00  0.17766214627E+04  0.17766214627E+04  0.25500000920E-02 0. -1.
       -2   -1    0    0    0  501  0.00000000000E+00  0.00000000000E+00 -0.14584889000E+04  0.14584889000E+04  0.25500000920E-02 0.  1.
    10030    2    1    2    0    0  0.00000000000E+00  0.00000000000E+00  0.31813256267E+03  0.32351103627E+04  0.32194301874E+04 0.  0.
        3    1    3    3  502    0 -0.22467416283E+03 -0.13997044355E+04 -0.60723011040E+03  0.15421995342E+04  0.10100000352E+00 0.  1.
       -3    1    3    3    0  502  0.22467416283E+03  0.13997044355E+04  0.92536267307E+03  0.16929108285E+04  0.10100000352E+00 0. -1.
</event>
<event>
 5   0  0.2401139E-06  0.3192717E+04  0.7818609E-02  0.8190743E-01
        2   -1    0    0  501    0  0.00000000000E+00  0.00000000000E+00  0.16787093564E+04  0.16787093564E+04  0.25500000920E-02 0. -1.
       -2   -1    0    0    0  501  0.00000000000E+00  0.00000000000E+00 -0.15180470178E+04  0.15180470178E+04  0.25500000920E-02 0.  1.
    10030    2    1    2    0    0  0.00000000000E+00  0.00000000000E+00  0.16066233857E+03  0.31967563742E+04  0.31927165438E+04 0.  0.
        5    1    3    3  502    0  0.93664744794E+03  0.11141706044E+04  0.73663982828E+03  0.16313628977E+04  0.46999998093E+01 0.  1.
       -5    1    3    3    0  502 -0.93664744794E+03 -0.11141706044E+04 -0.57597748972E+03  0.15653934765E+04  0.46999998093E+01 0. -1.
</event>
<event>
 5   0  0.8545153E-07  0.3231977E+04  0.7818609E-02  0.8180423E-01
       -1   -1    0    0    0  501  0.00000000000E+00  0.00000000000E+00  0.10838088911E+04  0.10838088911E+04  0.50400001928E-02 0.  1.
        1   -1    0    0  501    0  0.00000000000E+00  0.00000000000E+00 -0.24094820885E+04  0.24094820885E+04  0.50400001928E-02 0. -1.
    10030    2    1    2    0    0  0.00000000000E+00  0.00000000000E+00 -0.13256731973E+04  0.34932909796E+04  0.32319765535E+04 0.  0.
        3    1    3    3  502    0 -0.56007232725E+02 -0.12521449209E+04 -0.17653141003E+04  0.21650260035E+04  0.10100000352E+00 0. -1.
       -3    1    3    3    0  502  0.56007232725E+02  0.12521449209E+04  0.43964090294E+03  0.13282649761E+04  0.10100000352E+00 0.  1.
</event>
<event>
 5   0  0.8383008E-07  0.3204697E+04  0.7818609E-02  0.8187578E-01
       -1   -1    0    0    0  501  0.00000000000E+00  0.00000000000E+00  0.15785142046E+04  0.15785142046E+04  0.50400001928E-02 0.  1.
        1   -1    0    0  501    0  0.00000000000E+00  0.00000000000E+00 -0.16265422645E+04  0.16265422646E+04  0.50400001928E-02 0. -1.
    10030    2    1    2    0    0  0.00000000000E+00  0.00000000000E+00 -0.48028059993E+02  0.32050564691E+04  0.32046965965E+04 0.  0.
        4    1    3    3  502    0 -0.50949898100E+03  0.91069565020E+03 -0.12401122034E+04  0.16207515753E+04  0.12699999809E+01 0. -1.
       -4    1    3    3    0  502  0.50949898100E+03 -0.91069565020E+03  0.11920841434E+04  0.15843048939E+04  0.12699999809E+01 0.  1.
</event>
<event>
 5   0  0.2404430E-06  0.3182226E+04  0.7818609E-02  0.8193527E-01
       -2   -1    0    0    0  501  0.00000000000E+00  0.00000000000E+00  0.11121475002E+04  0.11121475002E+04  0.25500000920E-02 0. -1.
        2   -1    0    0  501    0  0.00000000000E+00  0.00000000000E+00 -0.22763534234E+04  0.22763534234E+04  0.25500000920E-02 0.  1.
    10030    2    1    2    0    0  0.00000000000E+00  0.00000000000E+00 -0.11642059232E+04  0.33885009236E+04  0.31822261198E+04 0.  0.
        4    1    3    3  502    0 -0.23842142561E+03 -0.13820781390E+04 -0.13822465505E+04  0.19691602011E+04  0.12699999809E+01 0.  1.
       -4    1    3    3    0  502  0.23842142561E+03  0.13820781390E+04  0.21804062725E+03  0.14193407225E+04  0.12699999809E+01 0. -1.
</event>
<event>
 5   0  0.8545153E-07  0.3240922E+04  0.7818609E-02  0.8178093E-01
        1   -1    0    0  501    0  0.00000000000E+00  0.00000000000E+00  0.96026025771E+03  0.96026025773E+03  0.50400001928E-02 0.  1.
       -1   -1    0    0    0  501  0.00000000000E+00  0.00000000000E+00 -0.27345650373E+04  0.27345650373E+04  0.50400001928E-02 0. -1.
    10030    2    1    2    0    0  0.00000000000E+00  0.00000000000E+00 -0.17743047796E+04  0.36948252950E+04  0.32409221697E+04 0.  0.
        3    1    3    3  502    0 -0.63155250813E+02  0.78706335632E+02  0.95667462180E+03  0.96198212830E+03  0.10100000352E+00 0.  1.
       -3    1    3    3    0  502  0.63155250813E+02 -0.78706335632E+02 -0.27309794014E+04  0.27328431667E+04  0.10100000352E+00 0. -1.
</event>
<event>
 5   0  0.2401139E-06  0.3146319E+04  0.7818609E-02  0.8203140E-01
        2   -1    0    0  501    0  0.00000000000E+00  0.00000000000E+00  0.15966975293E+04  0.15966975293E+04  0.25500000920E-02 0. -1.
       -2   -1    0    0    0  501  0.00000000000E+00  0.00000000000E+00 -0.15499685348E+04  0.15499685348E+04  0.25500000920E-02 0.  1.
    10030    2    1    2    0    0  0.00000000000E+00  0.00000000000E+00  0.46728994542E+02  0.31466660640E+04  0.31463190747E+04 0.  0.
        5    1    3    3  502    0  0.11525220806E+04 -0.79773178574E+03 -0.69094511035E+03  0.15627253066E+04  0.46999998093E+01 0.  1.
       -5    1    3    3    0  502 -0.11525220806E+04  0.79773178574E+03  0.73767410489E+03  0.15839407575E+04  0.46999998093E+01 0. -1.
</event>
<event>
 5   0  0.2621528E-06  0.3169672E+04  0.7818609E-02  0.8196873E-01
        2   -1    0    0  501    0  0.00000000000E+00  0.00000000000E+00  0.16250576263E+04  0.16250576263E+04  0.25500000920E-02 0.  1.
       -2   -1    0    0    0  501  0.00000000000E+00  0.00000000000E+00 -0.15456101888E+04  0.15456101888E+04  0.25500000920E-02 0. -1.
    10030    2    1    2    0    0  0.00000000000E+00  0.00000000000E+00  0.79447437449E+02  0.31706678151E+04  0.31696723014E+04 0.  0.
        2    1    3    3  502    0  0.18539414028E+03 -0.14071718893E+04  0.74507063858E+03  0.16030077884E+04  0.25500000920E-02 0.  1.
       -2    1    3    3    0  502 -0.18539414028E+03  0.14071718893E+04 -0.66562320113E+03  0.15676600267E+04  0.25500000920E-02 0. -1.
</event>
<event>
 5   0  0.2401139E-06  0.3219264E+04  0.7818609E-02  0.8183748E-01
       -2   -1    0    0    0  501  0.00000000000E+00  0.00000000000E+00  0.96866410316E+03  0.96866410316E+03  0.25500000920E-02 0.  1.
        2   -1    0    0  501    0  0.00000000000E+00  0.00000000000E+00 -0.26747294593E+04  0.26747294593E+04  0.25500000920E-02 0. -1.
    10030    2    1    2    0    0  0.00000000000E+00  0.00000000000E+00 -0.17060653561E+04  0.36433935624E+04  0.32192635262E+04 0.  0.
        5    1    3    3  502    0  0.14998380764E+04 -0.53187212645E+03 -0.11267427452E+04  0.19498650000E+04  0.46999998093E+01 0.  1.
       -5    1    3    3    0  502 -0.14998380764E+04  0.53187212645E+03 -0.57932261094E+03  0.16935285625E+04  0.46999998093E+01 0. -1.
</event>
<event>
 5   0  0.8512855E-07  0.3218328E+04  0.7818609E-02  0.8183993E-01
       -1   -1    0    0    0  501  0.00000000000E+00  0.00000000000E+00  0.18480029623E+04  0.18480029623E+04  0.50400001928E-02 0.  1.
        1   -1    0    0  501    0  0.00000000000E+00  0.00000000000E+00 -0.14011932693E+04  0.14011932693E+04  0.50400001928E-02 0. -1.
    10030    2    1    2    0    0  0.00000000000E+00  0.00000000000E+00  0.44680969294E+03  0.32491962316E+04  0.32183283315E+04 0.  0.
        5    1    3    3  502    0  0.94314808963E+03  0.12323373139E+04  0.65316788435E+03  0.16836965135E+04  0.46999998093E+01 0.  1.
       -5    1    3    3    0  502 -0.94314808963E+03 -0.12323373139E+04 -0.20635819141E+03  0.15654997181E+04  0.46999998093E+01 0. -1.
</event>
<event>
 5   0  0.8383008E-07  0.3218052E+04  0.7818609E-02  0.8184066E-01
       -1   -1    0    0    0  501  0.00000000000E+00  0.00000000000E+00  0.13494459355E+04  0.13494459356E+04  0.50400001928E-02 0. -1.
        1   -1    0    0  501    0  0.00000000000E+00  0.00000000000E+00 -0.19185390543E+04  0.19185390544E+04  0.50400001928E-02 0.  1.
    10030    2    1    2    0    0  0.00000000000E+00  0.00000000000E+00 -0.56909311880E+03  0.32679849899E+04  0.32180520375E+04 0.  0.
        4    1    3    3  502    0 -0.11006112991E+04 -0.11545510949E+04 -0.70011265469E+02  0.15966329110E+04  0.12699999809E+01 0. -1.
       -4    1    3    3    0  502  0.11006112991E+04  0.11545510949E+04 -0.49908185333E+03  0.16713520789E+04  0.12699999809E+01 0.  1.
</event>
<event>
 5   0  0.2466076E-06  0.3222156E+04  0.7818609E-02  0.8182990E-01
        2   -1    0    0  501    0  0.00000000000E+00  0.00000000000E+00  0.19638174408E+04  0.19638174408E+04  0.25500000920E-02 0.  1.
       -2   -1    0    0    0  501  0.00000000000E+00  0.00000000000E+00 -0.13216972543E+04  0.13216972543E+04  0.25500000920E-02 0. -1.
    10030    2    1    2    0    0  0.00000000000E+00  0.00000000000E+00  0.64212018655E+03  0.32855146951E+04  0.32221558742E+04 0.  0.
        3    1    3    3  502    0 -0.15138981219E+04  0.29051176300E+03 -0.15642938660E+03  0.15494369207E+04  0.10100000352E+00 0. -1.
       -3    1    3    3    0  502  0.15138981219E+04 -0.29051176300E+03  0.79854957315E+03  0.17360777744E+04  0.10100000352E+00 0.  1.
</event>
<event>
 5   0  0.8487944E-07  0.3210625E+04  0.7818609E-02  0.8186017E-01
        1   -1    0    0  501    0  0.00000000000E+00  0.00000000000E+00  0.30499942559E+04  0.30499942559E+04  0.50400001928E-02 0. -1.
       -1   -1    0    0    0  501  0.00000000000E+00  0.00000000000E+00 -0.84492866663E+03  0.84492866664E+03  0.50400001928E-02 0.  1.
    10030    2    1    2    0    0  0.00000000000E+00  0.00000000000E+00  0.22050655893E+04  0.38949229225E+04  0.32106245996E+04 0.  0.
        2    1    3    3  502    0  0.36559962138E+03  0.90067192000E+03 -0.44731833467E+03  0.10700311599E+04  0.25500000920E-02 0.  1.
       -2    1    3    3    0  502 -0.36559962138E+03 -0.90067192000E+03  0.26523839239E+04  0.28248917626E+04  0.25500000920E-02 0. -1.
</event>
<event>
 5   0  0.2404430E-06  0.3180628E+04  0.7818609E-02  0.8193952E-01
        2   -1    0    0  501    0  0.00000000000E+00  0.00000000000E+00  0.18976911494E+04  0.18976911494E+04  0.25500000920E-02 0. -1.
       -2   -1    0    0    0  501  0.00000000000E+00  0.00000000000E+00 -0.13327244154E+04  0.13327244154E+04  0.25500000920E-02 0.  1.
    10030    2    1    2    0    0  0.00000000000E+00  0.00000000000E+00  0.56496673400E+03  0.32304155648E+04  0.31806284459E+04 0.  0.
        4    1    3    3  502    0 -0.65806783335E+03 -0.13272540894E+04  0.86984453043E+03  0.17179312592E+04  0.12699999809E+01 0. -1.
       -4    1    3    3    0  502  0.65806783335E+03  0.13272540894E+04 -0.30487779643E+03  0.15124843056E+04  0.12699999809E+01 0.  1.
</event>
<event>
 5   0  0.8383008E-07  0.3128499E+04  0.7818609E-02  0.8207960E-01
        1   -1    0    0  501    0  0.00000000000E+00  0.00000000000E+00  0.11085355284E+04  0.11085355284E+04  0.50400001928E-02 0.  1.
       -1   -1    0    0    0  501  0.00000000000E+00  0.00000000000E+00 -0.22073049640E+04  0.22073049640E+04  0.50400001928E-02 0. -1.
    10030    2    1    2    0    0  0.00000000000E+00  0.00000000000E+00 -0.10987694356E+04  0.33158404923E+04  0.31284986652E+04 0.  0.
        4    1    3    3  502    0 -0.48512352845E+03 -0.18723051472E+03  0.10142468302E+04  0.11397799564E+04  0.12699999809E+01 0.  1.
       -4    1    3    3    0  502  0.48512352845E+03  0.18723051472E+03 -0.21130162658E+04  0.21760605359E+04  0.12699999809E+01 0. -1.
</event>
<event>
 5   0  0.8681172E-07  0.3222469E+04  0.7818609E-02  0.8182908E-01
       -1   -1    0    0    0  501  0.00000000000E+00  0.00000000000E+00  0.11416948671E+04  0.11416948671E+04  0.50400001928E-02 0.  1.
        1   -1    0    0  501    0  0.00000000000E+00  0.00000000000E+00 -0.22738791396E+04  0.22738791396E+04  0.50400001928E-02 0. -1.
    10030    2    1    2    0    0  0.00000000000E+00  0.00000000000E+00 -0.11321842725E+04  0.34155740068E+04  0.32224687072E+04 0.  0.
        1    1    3    3  502    0 -0.36012759931E+03 -0.97972634471E+03 -0.18670478724E+04  0.21390239260E+04  0.50400001928E-02 0. -1.
       -1    1    3    3    0  502  0.36012759931E+03  0.97972634471E+03  0.73486359985E+03  0.12765500808E+04  0.50400001928E-02 0.  1.
</event>
<event>
 5   0  0.8512855E-07  0.3166707E+04  0.7818609E-02  0.8197665E-01
       -1   -1    0    0    0  501  0.00000000000E+00  0.00000000000E+00  0.11931702571E+04  0.11931702571E+04  0.50400001928E-02 0. -1.
        1   -1    0    0  501    0  0.00000000000E+00  0.00000000000E+00 -0.21011323655E+04  0.21011323655E+04  0.50400001928E-02 0.  1.
    10030    2    1    2    0    0  0.00000000000E+00  0.00000000000E+00 -0.90796210839E+03  0.32943026226E+04  0.31667072139E+04 0.  0.
        5    1    3    3  502    0  0.26084545798E+03  0.63805951886E+03  0.10288745547E+04  0.12384527613E+04  0.46999998093E+01 0. -1.
       -5    1    3    3    0  502 -0.26084545798E+03 -0.63805951886E+03 -0.19368366631E+04  0.20558498613E+04  0.46999998093E+01 0.  1.
</event>
<event>
 5   0  0.8545153E-07  0.3148086E+04  0.7818609E-02  0.8202664E-01
       -1   -1    0    0    0  501  0.00000000000E+00  0.00000000000E+00  0.15527447661E+04  0.15527447661E+04  0.50400001928E-02 0. -1.
        1   -1    0    0  501    0  0.00000000000E+00  0.00000000000E+00 -0.15956334398E+04  0.15956334398E+04  0.50400001928E-02 0.  1.
    10030    2    1    2    0    0  0.00000000000E+00  0.00000000000E+00 -0.42888673690E+02  0.31483782058E+04  0.31480860676E+04 0.  0.
        3    1    3    3  502    0  0.16025894295E+03  0.39041022285E+03  0.14951093858E+04  0.15535299021E+04  0.10100000352E+00 0. -1.
       -3    1    3    3    0  502 -0.16025894295E+03 -0.39041022285E+03 -0.15379980595E+04  0.15948483038E+04  0.10100000352E+00 0.  1.
</event>
<event>
 5   0  0.2621528E-06  0.3178313E+04  0.7818609E-02  0.8194568E-01
        2   -1    0    0  501    0  0.00000000000E+00  0.00000000000E+00  0.25525672058E+04  0.25525672058E+04  0.25500000920E-02 0.  1.
       -2   -1    0    0    0  501  0.00000000000E+00  0.00000000000E+00 -0.98936429487E+03  0.98936429488E+03  0.25500000920E-02 0. -1.
    10030    2    1    2    0    0  0.00000000000E+00  0.00000000000E+00  0.15632029110E+04  0.35419315007E+04  0.31783132972E+04 0.  0.
        2    1    3    3  502    0 -0.54815505079E+03  0.26975686256E+03  0.24164681936E+04  0.24925010041E+04  0.25500000920E-02 0.  1.
       -2    1    3    3    0  502  0.54815505079E+03 -0.26975686256E+03 -0.85326528267E+03  0.10494304966E+04  0.25500000920E-02 0. -1.
</event>
<event>
 5   0  0.8383008E-07  0.3182826E+04  0.7818609E-02  0.8193368E-01
       -1   -1    0    0    0  501  0.00000000000E+00  0.00000000000E+00  0.71815629802E+03  0.71815629804E+03  0.50400001928E-02 0.  1.
        1   -1    0    0  501    0  0.00000000000E+00  0.00000000000E+00 -0.35265237066E+04  0.35265237067E+04  0.50400001928E-02 0. -1.
    10030    2    1    2    0    0  0.00000000000E+00  0.00000000000E+00 -0.28083674086E+04  0.42446800047E+04  0.31828259205E+04 0.  0.
        4    1    3    3  502    0 -0.77542287504E+03 -0.13643240319E+04 -0.17568572079E+04  0.23556760305E+04  0.12699999809E+01 0. -1.
       -4    1    3    3    0  502  0.77542287504E+03  0.13643240319E+04 -0.10515102008E+04  0.18890039741E+04  0.12699999809E+01 0.  1.
</event>
<event>
 5   0  0.2401139E-06  0.3218090E+04  0.7818609E-02  0.8184056E-01
       -2   -1    0    0    0  501  0.00000000000E+00  0.00000000000E+00  0.11122225676E+04  0.11122225676E+04  0.25500000920E-02 0.  1.
        2   -1    0    0  501    0  0.00000000000E+00  0.00000000000E+00 -0.23277945379E+04  0.23277945379E+04  0.25500000920E-02 0. -1.
    10030    2    1    2    0    0  0.00000000000E+00  0.00000000000E+00 -0.12155719703E+04  0.34400171056E+04  0.32180898794E+04 0.  0.
        5    1    3    3  502    0  0.13835505482E+04  0.74711295042E+03 -0.24274878635E+03  0.15910182096E+04  0.46999998093E+01 0.  1.
       -5    1    3    3    0  502 -0.13835505482E+04 -0.74711295042E+03 -0.97282318395E+03  0.18489988960E+04  0.46999998093E+01 0. -1.
</event>
<event>
 5   0  0.2404430E-06  0.3185358E+04  0.7818609E-02  0.8192695E-01
        2   -1    0    0  501    0  0.00000000000E+00  0.00000000000E+00  0.17758642608E+04  0.17758642608E+04  0.25500000920E-02 0.  1.
       -2   -1    0    0    0  501  0.00000000000E+00  0.00000000000E+00 -0.14283897438E+04  0.14283897438E+04  0.25500000920E-02 0. -1.
    10030    2    1    2    0    0  0.00000000000E+00  0.00000000000E+00  0.34747451696E+03  0.32042540046E+04  0.31853579369E+04 0.  0.
        4    1    3    3  502    0  0.74755108985E+03 -0.88803895722E+03 -0.92322651470E+03  0.14831704662E+04  0.12699999809E+01 0. -1.
       -4    1    3    3    0  502 -0.74755108985E+03  0.88803895722E+03  0.12707010317E+04  0.17210835384E+04  0.12699999809E+01 0.  1.
</event>
<event>
 5   0  0.8681172E-07  0.3233802E+04  0.7818609E-02  0.8179947E-01
       -1   -1    0    0    0  501  0.00000000000E+00  0.00000000000E+00  0.22326242652E+04  0.22326242652E+04  0.50400001928E-02 0.  1.
        1   -1    0    0  501    0  0.00000000000E+00  0.00000000000E+00 -0.11709849982E+04  0.11709849982E+04  0.50400001928E-02 0. -1.
    10030    2    1    2    0    0  0.00000000000E+00  0.00000000000E+00  0.10616392670E+04  0.34036092634E+04  0.32338024189E+04 0.  0.
        1    1    3    3  502    0 -0.30585603461E+03 -0.65560059802E+03 -0.99114378704E+03  0.12270803008E+04  0.50400001928E-02 0. -1.
       -1    1    3    3    0  502  0.30585603461E+03  0.65560059802E+03  0.20527830540E+04  0.21765289626E+04  0.50400001928E-02 0.  1.
</event>
<event>
 5   0  0.2401139E-06  0.3147797E+04  0.7818609E-02  0.8202741E-01
       -2   -1    0    0    0  501  0.00000000000E+00  0.00000000000E+00  0.84725662926E+03  0.84725662926E+03  0.25500000920E-02 0. -1.
        2   -1    0    0  501    0  0.00000000000E+00  0.00000000000E+00 -0.29237382557E+04  0.29237382557E+04  0.25500000920E-02 0.  1.
    10030    2    1    2    0    0  0.00000000000E+00  0.00000000000E+00 -0.20764816264E+04  0.37709948850E+04  0.31477970833E+04 0.  0.
        5    1    3    3  502    0 -0.15332688220E+04  0.55849463832E+02 -0.61791900751E+03  0.16540491024E+04  0.46999998093E+01 0. -1.
       -5    1    3    3    0  502  0.15332688220E+04 -0.55849463832E+02 -0.14585626189E+04  0.21169457826E+04  0.46999998093E+01 0.  1.
</event>
<event>
 5   0  0.2337504E-06  0.3215636E+04  0.7818609E-02  0.8184700E-01
       -2   -1    0    0    0  501  0.00000000000E+00  0.00000000000E+00  0.12147779865E+04  0.12147779865E+04  0.25500000920E-02 0.  1.
        2   -1    0    0  501    0  0.00000000000E+00  0.00000000000E+00 -0.21280262988E+04  0.21280262988E+04  0.25500000920E-02 0. -1.
    10030    2    1    2    0    0  0.00000000000E+00  0.00000000000E+00 -0.91324831224E+03  0.33428042853E+04  0.32156364860E+04 0.  0.
        1    1    3    3  502    0 -0.78287921995E+03  0.13410577631E+04 -0.88993398715E+03  0.17897816343E+04  0.50400001928E-02 0. -1.
       -1    1    3    3    0  502  0.78287921995E+03 -0.13410577631E+04 -0.23314325095E+02  0.15530226510E+04  0.50400001928E-02 0.  1.
</event>
<event>
 5   0  0.2466076E-06  0.3186416E+04  0.7818609E-02  0.8192414E-01
        2   -1    0    0  501    0  0.00000000000E+00  0.00000000000E+00  0.20133442849E+04  0.20133442849E+04  0.25500000920E-02 0. -1.
       -2   -1    0    0    0  501  0.00000000000E+00  0.00000000000E+00 -0.12607441343E+04  0.12607441343E+04  0.25500000920E-02 0.  1.
    10030    2    1    2    0    0  0.00000000000E+00  0.00000000000E+00  0.75260015056E+03  0.32740884192E+04  0.31864161672E+04 0.  0.
        3    1    3    3  502    0 -0.73227437380E+03  0.79504758810E+03  0.15789684801E+04  0.19134962496E+04  0.10100000352E+00 0. -1.
       -3    1    3    3    0  502  0.73227437380E+03 -0.79504758810E+03 -0.82636832953E+03  0.13605921696E+04  0.10100000352E+00 0.  1.
</event>
<event>
 5   0  0.8681172E-07  0.3218470E+04  0.7818609E-02  0.8183956E-01
       -1   -1    0    0    0  501  0.00000000000E+00  0.00000000000E+00  0.21434247219E+04  0.21434247219E+04  0.50400001928E-02 0. -1.
        1   -1    0    0  501    0  0.00000000000E+00  0.00000000000E+00 -0.12081770817E+04  0.12081770818E+04  0.50400001928E-02 0.  1.
    10030    2    1    2    0    0  0.00000000000E+00  0.00000000000E+00  0.93524764017E+03  0.33516018037E+04  0.32184695900E+04 0.  0.
        1    1    3    3  502    0  0.27055769196E+03 -0.13792417422E+04  0.12837028807E+04  0.19035236626E+04  0.50400001928E-02 0. -1.
       -1    1    3    3    0  502 -0.27055769196E+03  0.13792417422E+04 -0.34845524057E+03  0.14480781411E+04  0.50400001928E-02 0.  1.
</event>
<event>
 5   0  0.8487944E-07  0.3209458E+04  0.7818609E-02  0.8186324E-01
       -1   -1    0    0    0  501  0.00000000000E+00  0.00000000000E+00  0.11621286815E+04  0.11621286815E+04  0.50400001928E-02 0.  1.
        1   -1    0    0  501    0  0.00000000000E+00  0.00000000000E+00 -0.22158954376E+04  0.22158954376E+04  0.50400001928E-02 0. -1.
    10030    2    1    2    0    0  0.00000000000E+00  0.00000000000E+00 -0.10537667561E+04  0.33780241192E+04  0.32094582991E+04 0.  0.
        2    1    3    3  502    0  0.15666393731E+04  0.21898158158E+03 -0.24281214206E+03  0.16003966992E+04  0.25500000920E-02 0.  1.
       -2    1    3    3    0  502 -0.15666393731E+04 -0.21898158158E+03 -0.81095461404E+03  0.17776274200E+04  0.25500000920E-02 0. -1.
</event>
<event>
 5   0  0.2337504E-06  0.3193954E+04  0.7818609E-02  0.8190416E-01
        2   -1    0    0  501    0  0.00000000000E+00  0.00000000000E+00  0.22022935123E+04  0.22022935123E+04  0.25500000920E-02 0. -1.
       -2   -1    0    0    0  501  0.00000000000E+00  0.00000000000E+00 -0.11580359138E+04  0.11580359138E+04  0.25500000920E-02 0.  1.
    10030    2    1    2    0    0  0.00000000000E+00  0.00000000000E+00  0.10442575985E+04  0.33603294261E+04  0.31939536502E+04 0.  0.
        1    1    3    3  502    0 -0.58004634322E+02  0.20332130855E+03 -0.11432452486E+04  0.11626322680E+04  0.50400001928E-02 0.  1.
       -1    1    3    3    0  502  0.58004634322E+02 -0.20332130855E+03  0.21875028471E+04  0.21976971580E+04  0.50400001928E-02 0. -1.
</event>
<event>
 5   0  0.2466076E-06  0.3227958E+04  0.7818609E-02  0.8181472E-01
       -2   -1    0    0    0  501  0.00000000000E+00  0.00000000000E+00  0.15576210929E+04  0.15576210929E+04  0.25500000920E-02 0.  1.
        2   -1    0    0  501    0  0.00000000000E+00  0.00000000000E+00 -0.16723764477E+04  0.16723764477E+04  0.25500000920E-02 0. -1.
    10030    2    1    2    0    0  0.00000000000E+00  0.00000000000E+00 -0.11475535476E+03  0.32299975406E+04  0.32279583827E+04 0.  0.
        3    1    3    3  502    0  0.22054026063E+03  0.50484081457E+02  0.15416750664E+04  0.15581876233E+04  0.10100000352E+00 0.  1.
       -3    1    3    3    0  502 -0.22054026063E+03 -0.50484081457E+02 -0.16564304211E+04  0.16718099172E+04  0.10100000352E+00 0. -1.
</event>
<event>
 5   0  0.8512855E-07  0.3189459E+04  0.7818609E-02  0.8191606E-01
        1   -1    0    0  501    0  0.00000000000E+00  0.00000000000E+00  0.86381517119E+03  0.86381517121E+03  0.50400001928E-02 0. -1.
       -1   -1    0    0    0  501  0.00000000000E+00  0.00000000000E+00 -0.29441051470E+04  0.29441051470E+04  0.50400001928E-02 0.  1.
    10030    2    1    2    0    0  0.00000000000E+00  0.00000000000E+00 -0.20802899758E+04  0.38079203182E+04  0.31894593219E+04 0.  0.
        5    1    3    3  502    0 -0.82470990713E+03 -0.13180952547E+04 -0.61699086979E+03  0.16727884967E+04  0.46999998093E+01 0. -1.
       -5    1    3    3    0  502  0.82470990713E+03  0.13180952547E+04 -0.14632991060E+04  0.21351318215E+04  0.46999998093E+01 0.  1.
</event>
<event>
 5   0  0.2466076E-06  0.3163157E+04  0.7818609E-02  0.8198616E-01
        2   -1    0    0  501    0  0.00000000000E+00  0.00000000000E+00  0.21458052590E+04  0.21458052590E+04  0.25500000920E-02 0. -1.
       -2   -1    0    0    0  501  0.00000000000E+00  0.00000000000E+00 -0.11657120269E+04  0.11657120269E+04  0.25500000920E-02 0.  1.
    10030    2    1    2    0    0  0.00000000000E+00  0.00000000000E+00  0.98009323208E+03  0.33115172859E+04  0.31631572820E+04 0.  0.
        3    1    3    3  502    0  0.61250615050E+03 -0.82447761156E+03  0.17491460675E+04  0.20284080191E+04  0.10100000352E+00 0.  1.
       -3    1    3    3    0  502 -0.61250615050E+03  0.82447761156E+03 -0.76905283546E+03  0.12831092667E+04  0.10100000352E+00 0. -1.
</event>
<event>
 5   0  0.8383008E-07  0.3217057E+04  0.7818609E-02  0.8184327E-01
       -1   -1    0    0    0  501  0.00000000000E+00  0.00000000000E+00  0.11158732758E+04  0.11158732758E+04  0.50400001928E-02 0.  1.
        1   -1    0    0  501    0  0.00000000000E+00  0.00000000000E+00 -0.23186896812E+04  0.23186896812E+04  0.50400001928E-02 0. -1.
    10030    2    1    2    0    0  0.00000000000E+00  0.00000000000E+00 -0.12028164054E+04  0.34345629569E+04  0.32170569470E+04 0.  0.
        4    1    3    3  502    0 -0.60363525194E+03  0.14140470936E+03 -0.21860063235E+04  0.22722227154E+04  0.12699999809E+01 0. -1.
       -4    1    3    3    0  502  0.60363525194E+03 -0.14140470936E+03  0.98318991808E+03  0.11623402416E+04  0.12699999809E+01 0.  1.
</event>
<event>
 5   0  0.8383008E-07  0.3166527E+04  0.7818609E-02  0.8197714E-01
        1   -1    0    0  501    0  0.00000000000E+00  0.00000000000E+00  0.16995218973E+04  0.16995218973E+04  0.50400001928E-02 0.  1.
       -1   -1    0    0    0  501  0.00000000000E+00  0.00000000000E+00 -0.14749578798E+04  0.14749578798E+04  0.50400001928E-02 0. -1.
    10030    2    1    2    0    0  0.00000000000E+00  0.00000000000E+00  0.22456401751E+03  0.31744797771E+04  0.31665269393E+04 0.  0.
        4    1    3    3  502    0 -0.92380171134E+03  0.10501381786E+04  0.85611706140E+03  0.16398590890E+04  0.12699999809E+01 0.  1.
       -4    1    3    3    0  502  0.92380171134E+03 -0.10501381786E+04 -0.63155304389E+03  0.15346206881E+04  0.12699999809E+01 0. -1.
</event>
<event>
 5   0  0.2466076E-06  0.3197523E+04  0.7818609E-02  0.8189472E-01
       -2   -1    0    0    0  501  0.00000000000E+00  0.00000000000E+00  0.10392026372E+04  0.10392026372E+04  0.25500000920E-02 0. -1.
        2   -1    0    0  501    0  0.00000000000E+00  0.00000000000E+00 -0.24596154440E+04  0.24596154440E+04  0.25500000920E-02 0.  1.
    10030    2    1    2    0    0  0.00000000000E+00  0.00000000000E+00 -0.14204128068E+04  0.34988180812E+04  0.31975233266E+04 0.  0.
        3    1    3    3  502    0 -0.15679656745E+04  0.12853491264E+03 -0.39878135340E+03  0.16229800240E+04  0.10100000352E+00 0. -1.
       -3    1    3    3    0  502  0.15679656745E+04 -0.12853491264E+03 -0.10216314534E+04  0.18758380572E+04  0.10100000352E+00 0.  1.
</event>
<event>
 5   0  0.8512855E-07  0.2968665E+04  0.7818609E-02  0.8252736E-01
       -1   -1    0    0    0  501  0.00000000000E+00  0.00000000000E+00  0.16392100432E+04  0.16392100432E+04  0.50400001928E-02 0. -1.
        1   -1    0    0  501    0  0.00000000000E+00  0.00000000000E+00 -0.13440884217E+04  0.13440884217E+04  0.50400001928E-02 0.  1.
    10030    2    1    2    0    0  0.00000000000E+00  0.00000000000E+00  0.29512162152E+03  0.29832984649E+04  0.29686651813E+04 0.  0.
        5    1    3    3  502    0 -0.14017177110E+04 -0.33817529494E+03 -0.20637703641E+03  0.14566360708E+04  0.46999998093E+01 0.  1.
       -5    1    3    3    0  502  0.14017177110E+04  0.33817529494E+03  0.50149865793E+03  0.15266623941E+04  0.46999998093E+01 0. -1.
</event>
<event>
 5   0  0.8681172E-07  0.3170731E+04  0.7818609E-02  0.8196590E-01
       -1   -1    0    0    0  501  0.00000000000E+00  0.00000000000E+00  0.11747207583E+04  0.11747207583E+04  0.50400001928E-02 0.  1.
        1   -1    0    0  501    0  0.00000000000E+00  0.00000000000E+00 -0.21395585595E+04  0.21395585595E+04  0.50400001928E-02 0. -1.
    10030    2    1    2    0    0  0.00000000000E+00  0.00000000000E+00 -0.96483780120E+03  0.33142793179E+04  0.31707310536E+04 0.  0.
        1    1    3    3  502    0  0.76118800020E+03  0.71628637831E+03  0.76356681476E+03  0.12944140095E+04  0.50400001928E-02 0.  1.
       -1    1    3    3    0  502 -0.76118800020E+03 -0.71628637831E+03 -0.17284046160E+04  0.20198653084E+04  0.50400001928E-02 0. -1.
</event>
<event>
 5   0  0.8383008E-07  0.3214963E+04  0.7818609E-02  0.8184877E-01
        1   -1    0    0  501    0  0.00000000000E+00  0.00000000000E+00  0.21161072792E+04  0.21161072792E+04  0.50400001928E-02 0. -1.
       -1   -1    0    0    0  501  0.00000000000E+00  0.00000000000E+00 -0.12211082360E+04  0.12211082360E+04  0.50400001928E-02 0.  1.
    10030    2    1    2    0    0  0.00000000000E+00  0.00000000000E+00  0.89499904323E+03  0.33372155153E+04  0.32149625360E+04 0.  0.
        4    1    3    3  502    0 -0.60289775531E+03  0.52902399894E+03  0.18935421186E+04  0.20564181148E+04  0.12699999809E+01 0. -1.
       -4    1    3    3    0  502  0.60289775531E+03 -0.52902399894E+03 -0.99854307541E+03  0.12807974005E+04  0.12699999809E+01 0.  1.
</event>
<event>
 5   0  0.2621528E-06  0.3196724E+04  0.7818609E-02  0.8189683E-01
        2   -1    0    0  501    0  0.00000000000E+00  0.00000000000E+00  0.89081677751E+03  0.89081677751E+03  0.25500000920E-02 0.  1.
       -2   -1    0    0    0  501  0.00000000000E+00  0.00000000000E+00 -0.28678853023E+04  0.28678853023E+04  0.25500000920E-02 0. -1.
    10030    2    1    2    0    0  0.00000000000E+00  0.00000000000E+00 -0.19770685248E+04  0.37587020798E+04  0.31967235372E+04 0.  0.
        2    1    3    3  502    0 -0.11626335962E+04  0.10706915233E+04 -0.12684214970E+04  0.20265710724E+04  0.25500000920E-02 0. -1.
       -2    1    3    3    0  502  0.11626335962E+04 -0.10706915233E+04 -0.70864702776E+03  0.17321310075E+04  0.25500000920E-02 0.  1.
</event>
<event>
 5   0  0.2621528E-06  0.3142357E+04  0.7818609E-02  0.8204209E-01
        2   -1    0    0  501    0  0.00000000000E+00  0.00000000000E+00  0.16592300028E+04  0.16592300028E+04  0.25500000920E-02 0. -1.
       -2   -1    0    0    0  501  0.00000000000E+00  0.00000000000E+00 -0.14877995895E+04  0.14877995895E+04  0.25500000920E-02 0.  1.
    10030    2    1    2    0    0  0.00000000000E+00  0.00000000000E+00  0.17143041330E+03  0.31470295924E+04  0.31423568971E+04 0.  0.
        2    1    3    3  502    0 -0.83937519008E+03 -0.52484193412E+03  0.13076081339E+04  0.16400758511E+04  0.25500000920E-02 0. -1.
       -2    1    3    3    0  502  0.83937519008E+03  0.52484193412E+03 -0.11361777206E+04  0.15069537413E+04  0.25500000920E-02 0.  1.
</event>
<event>
 5   0  0.2621528E-06  0.3188211E+04  0.7818609E-02  0.8191938E-01
        2   -1    0    0  501    0  0.00000000000E+00  0.00000000000E+00  0.16962912947E+04  0.16962912947E+04  0.25500000920E-02 0. -1.
       -2   -1    0    0    0  501  0.00000000000E+00  0.00000000000E+00 -0.14980753911E+04  0.14980753911E+04  0.25500000920E-02 0.  1.
    10030    2    1    2    0    0  0.00000000000E+00  0.00000000000E+00  0.19821590355E+03  0.31943666858E+04  0.31882109370E+04 0.  0.
        2    1    3    3  502    0  0.20036682590E+03 -0.81960875344E+03  0.14542232721E+04  0.16812705608E+04  0.25500000920E-02 0. -1.
       -2    1    3    3    0  502 -0.20036682590E+03  0.81960875344E+03 -0.12560073685E+04  0.15130961250E+04  0.25500000920E-02 0.  1.
</event>
<event>
 5   0  0.8487944E-07  0.2682850E+04  0.7818609E-02  0.8340591E-01
        1   -1    0    0  501    0  0.00000000000E+00  0.00000000000E+00  0.10177323266E+04  0.10177323267E+04  0.50400001928E-02 0.  1.
       -1   -1    0    0    0  501  0.00000000000E+00  0.00000000000E+00 -0.17680689912E+04  0.17680689912E+04  0.50400001928E-02 0. -1.
    10030    2    1    2    0    0  0.00000000000E+00  0.00000000000E+00 -0.75033666460E+03  0.27858013179E+04  0.26828499534E+04 0.  0.
        2    1    3    3  502    0 -0.13236671561E+03  0.10027982424E+04  0.53971843746E+03  0.11464821212E+04  0.25500000920E-02 0.  1.
       -2    1    3    3    0  502  0.13236671561E+03 -0.10027982424E+04 -0.12900551021E+04  0.16393191967E+04  0.25500000920E-02 0. -1.
</event>
<event>
 5   0  0.8383008E-07  0.3380635E+04  0.7818609E-02  0.8142675E-01
       -1   -1    0    0    0  501  0.00000000000E+00  0.00000000000E+00  0.16397056736E+04  0.16397056737E+04  0.50400001928E-02 0.  1.
        1   -1    0    0  501    0  0.00000000000E+00  0.00000000000E+00 -0.17424916629E+04  0.17424916629E+04  0.50400001928E-02 0. -1.
    10030    2    1    2    0    0  0.00000000000E+00  0.00000000000E+00 -0.10278598929E+03  0.33821973366E+04  0.33806351273E+04 0.  0.
        4    1    3    3  502    0 -0.10648134228E+03  0.25423863540E+03  0.16170695605E+04  0.16403935919E+04  0.12699999809E+01 0.  1.
       -4    1    3    3    0  502  0.10648134228E+03 -0.25423863540E+03 -0.17198555498E+04  0.17418037447E+04  0.12699999809E+01 0. -1.
</event>
<event>
 5   0  0.8545153E-07  0.3227132E+04  0.7818609E-02  0.8181688E-01
       -1   -1    0    0    0  501  0.00000000000E+00  0.00000000000E+00  0.17445198736E+04  0.17445198736E+04  0.50400001928E-02 0.  1.
        1   -1    0    0  501    0  0.00000000000E+00  0.00000000000E+00 -0.14924422987E+04  0.14924422987E+04  0.50400001928E-02 0. -1.
    10030    2    1    2    0    0  0.00000000000E+00  0.00000000000E+00  0.25207757490E+03  0.32369621723E+04  0.32271320086E+04 0.  0.
        3    1    3    3  502    0  0.82883661360E+03  0.83779919861E+03  0.12315383045E+04  0.17045715693E+04  0.10100000352E+00 0.  1.
       -3    1    3    3    0  502 -0.82883661360E+03 -0.83779919861E+03 -0.97946072956E+03  0.15323906030E+04  0.10100000352E+00 0. -1.
</event>
<event>
 5   0  0.2401139E-06  0.3209344E+04  0.7818609E-02  0.8186354E-01
        2   -1    0    0  501    0  0.00000000000E+00  0.00000000000E+00  0.23746151975E+04  0.23746151975E+04  0.25500000920E-02 0. -1.
       -2   -1    0    0    0  501  0.00000000000E+00  0.00000000000E+00 -0.10843744322E+04  0.10843744322E+04  0.25500000920E-02 0.  1.
    10030    2    1    2    0    0  0.00000000000E+00  0.00000000000E+00  0.12902407653E+04  0.34589896297E+04  0.32093438623E+04 0.  0.
        5    1    3    3  502    0 -0.76627431221E+03  0.71839660612E+02  0.21627016099E+04  0.22955691237E+04  0.46999998093E+01 0. -1.
       -5    1    3    3    0  502  0.76627431221E+03 -0.71839660612E+02 -0.87246084463E+03  0.11634205060E+04  0.46999998093E+01 0.  1.
</event>
<event>
 5   0  0.8383008E-07  0.3320173E+04  0.7818609E-02  0.8157781E-01
       -1   -1    0    0    0  501  0.00000000000E+00  0.00000000000E+00  0.15214276299E+04  0.15214276299E+04  0.50400001928E-02 0. -1.
        1   -1    0    0  501    0  0.00000000000E+00  0.00000000000E+00 -0.18113819966E+04  0.18113819966E+04  0.50400001928E-02 0.  1.
    10030    2    1    2    0    0  0.00000000000E+00  0.00000000000E+00 -0.28995436674E+03  0.33328096265E+04  0.33201726569E+04 0.  0.
        4    1    3    3  502    0 -0.13321181537E+04  0.98561139320E+03 -0.45016986861E+02  0.16577082783E+04  0.12699999809E+01 0. -1.
       -4    1    3    3    0  502  0.13321181537E+04 -0.98561139320E+03 -0.24493737988E+03  0.16751013482E+04  0.12699999809E+01 0.  1.
</event>
<event>
 5   0  0.2401139E-06  0.3246324E+04  0.7818609E-02  0.8176689E-01
        2   -1    0    0  501    0  0.00000000000E+00  0.00000000000E+00  0.22594513927E+04  0.22594513927E+04  0.25500000920E-02 0.  1.
       -2   -1    0    0    0  501  0.00000000000E+00  0.00000000000E+00 -0.11660592803E+04  0.11660592803E+04  0.25500000920E-02 0. -1.
    10030    2    1    2    0    0  0.00000000000E+00  0.00000000000E+00  0.10933921124E+04  0.34255106730E+04  0.32463236221E+04 0.  0.
        5    1    3    3  502    0 -0.63817597592E+03 -0.68283354078E+03 -0.85361901348E+03  0.12657873956E+04  0.46999998093E+01 0. -1.
       -5    1    3    3    0  502  0.63817597592E+03  0.68283354078E+03  0.19470111259E+04  0.21597232774E+04  0.46999998093E+01 0.  1.
</event>
<event>
 5   0  0.8383008E-07  0.3184112E+04  0.7818609E-02  0.8193026E-01
        1   -1    0    0  501    0  0.00000000000E+00  0.00000000000E+00  0.21451417638E+04  0.21451417638E+04  0.50400001928E-02 0.  1.
       -1   -1    0    0    0  501  0.00000000000E+00  0.00000000000E+00 -0.11815730080E+04  0.11815730081E+04  0.50400001928E-02 0. -1.
    10030    2    1    2    0    0  0.00000000000E+00  0.00000000000E+00  0.96356875575E+03  0.33267147719E+04  0.31841115600E+04 0.  0.
        4    1    3    3  502    0 -0.79691716046E+02  0.14176186089E+04 -0.27064042336E+03  0.14454207490E+04  0.12699999809E+01 0. -1.
       -4    1    3    3    0  502  0.79691716046E+02 -0.14176186089E+04  0.12342091791E+04  0.18812940229E+04  0.12699999809E+01 0.  1.
</event>
<event>
 5   0  0.7934375E-07  0.3234152E+04  0.7818609E-02  0.8179856E-01
        3   -1    0    0  501    0  0.00000000000E+00  0.00000000000E+00  0.97327001618E+03  0.97327002143E+03  0.10100000352E+00 0. -1.
       -3   -1    0    0    0  501  0.00000000000E+00  0.00000000000E+00 -0.26867510452E+04  0.26867510471E+04  0.10100000352E+00 0.  1.
    10030    2    1    2    0    0  0.00000000000E+00  0.00000000000E+00 -0.17134810290E+04  0.36600210685E+04  0.32341516639E+04 0.  0.
        2    1    3    3  502    0  0.11510228547E+04 -0.96352629709E+03 -0.15373469986E+04  0.21486443008E+04  0.25500000920E-02 0.  1.
       -2    1    3    3    0  502 -0.11510228547E+04  0.96352629709E+03 -0.17613403039E+03  0.15113767677E+04  0.25500000920E-02 0. -1.
</event>
<event>
 5   0  0.8545153E-07  0.3145074E+04  0.7818609E-02  0.8203476E-01
       -1   -1    0    0    0  501  0.00000000000E+00  0.00000000000E+00  0.13410840185E+04  0.13410840185E+04  0.50400001928E-02 0. -1.
        1   -1    0    0  501    0  0.00000000000E+00  0.00000000000E+00 -0.18439352999E+04  0.18439352999E+04  0.50400001928E-02 0.  1.
    10030    2    1    2    0    0  0.00000000000E+00  0.00000000000E+00 -0.50285128143E+03  0.31850193184E+04  0.31450737110E+04 0.  0.
        3    1    3    3  502    0 -0.18666699460E+03  0.12791012163E+04 -0.11583035854E+04  0.17356876720E+04  0.10100000352E+00 0.  1.
       -3    1    3    3    0  502  0.18666699460E+03 -0.12791012163E+04  0.65545230396E+03  0.14493316465E+04  0.10100000352E+00 0. -1.
</event>
<event>
 5   0  0.8545153E-07  0.3300891E+04  0.7818609E-02  0.8162669E-01
       -1   -1    0    0    0  501  0.00000000000E+00  0.00000000000E+00  0.10242432458E+04  0.10242432459E+04  0.50400001928E-02 0. -1.
        1   -1    0    0  501    0  0.00000000000E+00  0.00000000000E+00 -0.26594951614E+04  0.26594951614E+04  0.50400001928E-02 0.  1.
    10030    2    1    2    0    0  0.00000000000E+00  0.00000000000E+00 -0.16352519156E+04  0.36837384073E+04  0.33008907625E+04 0.  0.
        3    1    3    3  502    0  0.73618519138E+03 -0.67670576102E+03 -0.22829549951E+04  0.24923448483E+04  0.10100000352E+00 0.  1.
       -3    1    3    3    0  502 -0.73618519138E+03  0.67670576102E+03  0.64770307951E+03  0.11913935590E+04  0.10100000352E+00 0. -1.
</event>
<event>
 5   0  0.2404430E-06  0.3181109E+04  0.7818609E-02  0.8193824E-01
        2   -1    0    0  501    0  0.00000000000E+00  0.00000000000E+00  0.97359006374E+03  0.97359006374E+03  0.25500000920E-02 0. -1.
       -2   -1    0    0    0  501  0.00000000000E+00  0.00000000000E+00 -0.25984899481E+04  0.25984899481E+04  0.25500000920E-02 0.  1.
    10030    2    1    2    0    0  0.00000000000E+00  0.00000000000E+00 -0.16248998844E+04  0.35720800119E+04  0.31811092369E+04 0.  0.
        4    1    3    3  502    0  0.11977082927E+04  0.86204999235E+03 -0.14602086046E+03  0.14828887511E+04  0.12699999809E+01 0. -1.
       -4    1    3    3    0  502 -0.11977082927E+04 -0.86204999235E+03 -0.14788790240E+04  0.20891912608E+04  0.12699999809E+01 0.  1.
</event>
<event>
 5   0  0.2621528E-06  0.3233567E+04  0.7818609E-02  0.8180008E-01
        2   -1    0    0  501    0  0.00000000000E+00  0.00000000000E+00  0.10248307304E+04  0.10248307304E+04  0.25500000920E-02 0. -1.
       -2   -1    0    0    0  501  0.00000000000E+00  0.00000000000E+00 -0.25506545858E+04  0.25506545858E+04  0.25500000920E-02 0.  1.
    10030    2    1    2    0    0  0.00000000000E+00  0.00000000000E+00 -0.15258238554E+04  0.35754853162E+04  0.32335671956E+04 0.  0.
        2    1    3    3  502    0 -0.34903617732E+03 -0.81853655117E+03 -0.22555223363E+04  0.24247080955E+04  0.25500000920E-02 0.  1.
       -2    1    3    3    0  502  0.34903617732E+03  0.81853655117E+03  0.72969848090E+03  0.11507772207E+04  0.25500000920E-02 0. -1.
</event>
<event>
 5   0  0.8545153E-07  0.3167598E+04  0.7818609E-02  0.8197427E-01
        1   -1    0    0  501    0  0.00000000000E+00  0.00000000000E+00  0.21087721013E+04  0.21087721013E+04  0.50400001928E-02 0.  1.
       -1   -1    0    0    0  501  0.00000000000E+00  0.00000000000E+00 -0.11895168342E+04  0.11895168342E+04  0.50400001928E-02 0. -1.
    10030    2    1    2    0    0  0.00000000000E+00  0.00000000000E+00  0.91925526715E+03  0.32982889355E+04  0.31675984051E+04 0.  0.
        3    1    3    3  502    0 -0.88207501709E+03  0.24365504902E+02 -0.90984307883E+03  0.12674637872E+04  0.10100000352E+00 0. -1.
       -3    1    3    3    0  502  0.88207501709E+03 -0.24365504902E+02  0.18290983460E+04  0.20308251483E+04  0.10100000352E+00 0.  1.
</event>
<event>
 5   0  0.2466076E-06  0.3196174E+04  0.7818609E-02  0.8189828E-01
        2   -1    0    0  501    0  0.00000000000E+00  0.00000000000E+00  0.16706823592E+04  0.16706823592E+04  0.25500000920E-02 0.  1.
       -2   -1    0    0    0  501  0.00000000000E+00  0.00000000000E+00 -0.15286464196E+04  0.15286464196E+04  0.25500000920E-02 0. -1.
    10030    2    1    2    0    0  0.00000000000E+00  0.00000000000E+00  0.14203593963E+03  0.31993287788E+04  0.31961743423E+04 0.  0.
        3    1    3    3  502    0 -0.13249958903E+04 -0.30878161779E+03 -0.76821416173E+03  0.15624062229E+04  0.10100000352E+00 0. -1.
       -3    1    3    3    0  502  0.13249958903E+04  0.30878161779E+03  0.91025010137E+03  0.16369225559E+04  0.10100000352E+00 0.  1.
</event>
<event>
 5   0  0.8681172E-07  0.2572497E+04  0.7818609E-02  0.8377604E-01
       -1   -1    0    0    0  501  0.00000000000E+00  0.00000000000E+00  0.88791628351E+03  0.88791628352E+03  0.50400001928E-02 0. -1.
        1   -1    0    0  501    0  0.00000000000E+00  0.00000000000E+00 -0.18632789261E+04  0.18632789261E+04  0.50400001928E-02 0.  1.
    10030    2    1    2    0    0  0.00000000000E+00  0.00000000000E+00 -0.97536264263E+03  0.27511952097E+04  0.25724973852E+04 0.  0.
        1    1    3    3  502    0 -0.62070456702E+03  0.95449683716E+03  0.15229956658E+03  0.11487095062E+04  0.50400001928E-02 0.  1.
       -1    1    3    3    0  502  0.62070456702E+03 -0.95449683716E+03 -0.11276622092E+04  0.16024857035E+04  0.50400001928E-02 0. -1.
</event>
<event>
 5   0  0.8383008E-07  0.3205437E+04  0.7818609E-02  0.8187383E-01
       -1   -1    0    0    0  501  0.00000000000E+00  0.00000000000E+00  0.13335101899E+04  0.13335101900E+04  0.50400001928E-02 0.  1.
        1   -1    0    0  501    0  0.00000000000E+00  0.00000000000E+00 -0.19262740818E+04  0.19262740818E+04  0.50400001928E-02 0. -1.
    10030    2    1    2    0    0  0.00000000000E+00  0.00000000000E+00 -0.59276389183E+03  0.32597842717E+04  0.32054367045E+04 0.  0.
        4    1    3    3  502    0  0.65245896484E+03  0.39648936283E+03 -0.17294578295E+04  0.18904847295E+04  0.12699999809E+01 0. -1.
       -4    1    3    3    0  502 -0.65245896484E+03 -0.39648936283E+03  0.11366939376E+04  0.13692995422E+04  0.12699999809E+01 0.  1.
</event>
<event>
 5   0  0.8512855E-07  0.3213364E+04  0.7818609E-02  0.8185297E-01
       -1   -1    0    0    0  501  0.00000000000E+00  0.00000000000E+00  0.97562487825E+03  0.97562487826E+03  0.50400001928E-02 0. -1.
        1   -1    0    0  501    0  0.00000000000E+00  0.00000000000E+00 -0.26459218769E+04  0.26459218769E+04  0.50400001928E-02 0.  1.
    10030    2    1    2    0    0  0.00000000000E+00  0.00000000000E+00 -0.16702969987E+04  0.36215467552E+04  0.32133640996E+04 0.  0.
        5    1    3    3  502    0 -0.60428801054E+03 -0.52464943594E+03 -0.24053129726E+04  0.25349504170E+04  0.46999998093E+01 0.  1.
       -5    1    3    3    0  502  0.60428801054E+03  0.52464943594E+03  0.73501597393E+03  0.10865963382E+04  0.46999998093E+01 0. -1.
</event>
<event>
 5   0  0.2466076E-06  0.3229003E+04  0.7818609E-02  0.8181199E-01
       -2   -1    0    0    0  501  0.00000000000E+00  0.00000000000E+00  0.12917416953E+04  0.12917416953E+04  0.25500000920E-02 0.  1.
        2   -1    0    0  501    0  0.00000000000E+00  0.00000000000E+00 -0.20179069082E+04  0.20179069082E+04  0.25500000920E-02 0. -1.
    10030    2    1    2    0    0  0.00000000000E+00  0.00000000000E+00 -0.72616521294E+03  0.33096486035E+04  0.32290026265E+04 0.  0.
        3    1    3    3  502    0  0.11401535503E+04  0.39509645527E+03  0.73635026662E+03  0.14135993253E+04  0.10100000352E+00 0.  1.
       -3    1    3    3    0  502 -0.11401535503E+04 -0.39509645527E+03 -0.14625154796E+04  0.18960492782E+04  0.10100000352E+00 0. -1.
</event>
<event>
 5   0  0.8681172E-07  0.3006229E+04  0.7818609E-02  0.8241954E-01
        1   -1    0    0  501    0  0.00000000000E+00  0.00000000000E+00  0.25353255587E+04  0.25353255587E+04  0.50400001928E-02 0.  1.
       -1   -1    0    0    0  501  0.00000000000E+00  0.00000000000E+00 -0.89114932776E+03  0.89114932777E+03  0.50400001928E-02 0. -1.
    10030    2    1    2    0    0  0.00000000000E+00  0.00000000000E+00  0.16441762309E+04  0.34264748865E+04  0.30062293108E+04 0.  0.
        1    1    3    3  502    0 -0.63380288941E+03 -0.45533999292E+03 -0.64213957582E+03  0.10106353678E+04  0.50400001928E-02 0. -1.
       -1    1    3    3    0  502  0.63380288941E+03  0.45533999292E+03  0.22863158068E+04  0.24158395187E+04  0.50400001928E-02 0.  1.
</event>
<event>
 5   0  0.2337504E-06  0.3194954E+04  0.7818609E-02  0.8190151E-01
       -2   -1    0    0    0  501  0.00000000000E+00  0.00000000000E+00  0.11607954615E+04  0.11607954615E+04  0.25500000920E-02 0.  1.
        2   -1    0    0  501    0  0.00000000000E+00  0.00000000000E+00 -0.21984342212E+04  0.21984342212E+04  0.25500000920E-02 0. -1.
    10030    2    1    2    0    0  0.00000000000E+00  0.00000000000E+00 -0.10376387597E+04  0.33592296827E+04  0.31949538127E+04 0.  0.
        1    1    3    3  502    0  0.11431597178E+04  0.10282077818E+03  0.64941179323E+03  0.13187577223E+04  0.50400001928E-02 0.  1.
       -1    1    3    3    0  502 -0.11431597178E+04 -0.10282077818E+03 -0.16870505530E+04  0.20404719604E+04  0.50400001928E-02 0. -1.
</event>
<event>
 5   0  0.8383008E-07  0.3187188E+04  0.7818609E-02  0.8192209E-01
        1   -1    0    0  501    0  0.00000000000E+00  0.00000000000E+00  0.22861718926E+04  0.22861718926E+04  0.50400001928E-02 0. -1.
       -1   -1    0    0    0  501  0.00000000000E+00  0.00000000000E+00 -0.11108271216E+04  0.11108271216E+04  0.50400001928E-02 0.  1.
    10030    2    1    2    0    0  0.00000000000E+00  0.00000000000E+00  0.11753447711E+04  0.33969990142E+04  0.31871879411E+04 0.  0.
        4    1    3    3  502    0 -0.12695083235E+03  0.60020106878E+03 -0.97992419315E+03  0.11561188840E+04  0.12699999809E+01 0.  1.
       -4    1    3    3    0  502  0.12695083235E+03 -0.60020106878E+03  0.21552689642E+04  0.22408801302E+04  0.12699999809E+01 0. -1.
</event>
<event>
 5   0  0.8512855E-07  0.3177707E+04  0.7818609E-02  0.8194730E-01
       -1   -1    0    0    0  501  0.00000000000E+00  0.00000000000E+00  0.12482638301E+04  0.12482638301E+04  0.50400001928E-02 0. -1.
        1   -1    0    0  501    0  0.00000000000E+00  0.00000000000E+00 -0.20223728932E+04  0.20223728932E+04  0.50400001928E-02 0.  1.
    10030    2    1    2    0    0  0.00000000000E+00  0.00000000000E+00 -0.77410906309E+03  0.32706367234E+04  0.31777066785E+04 0.  0.
        5    1    3    3  502    0  0.17583422401E+03  0.65592823854E+03  0.10913622472E+04  0.12854000050E+04  0.46999998093E+01 0. -1.
       -5    1    3    3    0  502 -0.17583422401E+03 -0.65592823854E+03 -0.18654713102E+04  0.19852367183E+04  0.46999998093E+01 0.  1.
</event>
<event>
 5   0  0.8487944E-07  0.3194702E+04  0.7818609E-02  0.8190218E-01
        1   -1    0    0  501    0  0.00000000000E+00  0.00000000000E+00  0.10890327208E+04  0.10890327208E+04  0.50400001928E-02 0.  1.
       -1   -1    0    0    0  501  0.00000000000E+00  0.00000000000E+00 -0.23429318365E+04  0.23429318365E+04  0.50400001928E-02 0. -1.
    10030    2    1    2    0    0  0.00000000000E+00  0.00000000000E+00 -0.12538991157E+04  0.34319645574E+04  0.31947015089E+04 0.  0.
        2    1    3    3  502    0  0.66062500564E+03 -0.30635310564E+02 -0.21889530457E+04  0.22866743005E+04  0.25500000920E-02 0. -1.
       -2    1    3    3    0  502 -0.66062500564E+03  0.30635310564E+02  0.93505393004E+03  0.11452902568E+04  0.25500000920E-02 0.  1.
</event>
<event>
 5   0  0.8383008E-07  0.3267316E+04  0.7818609E-02  0.8171262E-01
       -1   -1    0    0    0  501  0.00000000000E+00  0.00000000000E+00  0.14372723490E+04  0.14372723490E+04  0.50400001928E-02 0. -1.
        1   -1    0    0  501    0  0.00000000000E+00  0.00000000000E+00 -0.18568774388E+04  0.18568774388E+04  0.50400001928E-02 0.  1.
    10030    2    1    2    0    0  0.00000000000E+00  0.00000000000E+00 -0.41960508982E+03  0.32941497878E+04  0.32673160840E+04 0.  0.
        4    1    3    3  502    0  0.96263711285E+03  0.92334493547E+03 -0.11607352851E+04  0.17682036353E+04  0.12699999809E+01 0.  1.
       -4    1    3    3    0  502 -0.96263711285E+03 -0.92334493547E+03  0.74113019532E+03  0.15259461525E+04  0.12699999809E+01 0. -1.
</event>
<event>
 5   0  0.8512855E-07  0.3218927E+04  0.7818609E-02  0.8183836E-01
        1   -1    0    0  501    0  0.00000000000E+00  0.00000000000E+00  0.10881114980E+04  0.10881114980E+04  0.50400001928E-02 0.  1.
       -1   -1    0    0    0  501  0.00000000000E+00  0.00000000000E+00 -0.23806139501E+04  0.23806139501E+04  0.50400001928E-02 0. -1.
    10030    2    1    2    0    0  0.00000000000E+00  0.00000000000E+00 -0.12925024522E+04  0.34687254481E+04  0.32189274061E+04 0.  0.
        5    1    3    3  502    0  0.19458741342E+03 -0.20136212569E+03 -0.23541550287E+04  0.23707549338E+04  0.46999998093E+01 0. -1.
       -5    1    3    3    0  502 -0.19458741342E+03  0.20136212569E+03  0.10616525765E+04  0.10979705143E+04  0.46999998093E+01 0.  1.
</event>
<event>
 5   0  0.2621528E-06  0.3131914E+04  0.7818609E-02  0.8207033E-01
        2   -1    0    0  501    0  0.00000000000E+00  0.00000000000E+00  0.25727138171E+04  0.25727138171E+04  0.25500000920E-02 0.  1.
       -2   -1    0    0    0  501  0.00000000000E+00  0.00000000000E+00 -0.95316542548E+03  0.95316542548E+03  0.25500000920E-02 0. -1.
    10030    2    1    2    0    0  0.00000000000E+00  0.00000000000E+00  0.16195483916E+04  0.35258792426E+04  0.31319143412E+04 0.  0.
        2    1    3    3  502    0 -0.31299141179E+03  0.21834636804E+03  0.25195615927E+04  0.25482993112E+04  0.25500000920E-02 0.  1.
       -2    1    3    3    0  502  0.31299141179E+03 -0.21834636804E+03 -0.90001320101E+03  0.97757993141E+03  0.25500000920E-02 0. -1.
</event>
<event>
 5   0  0.8681172E-07  0.3063386E+04  0.7818609E-02  0.8225859E-01
       -1   -1    0    0    0  501  0.00000000000E+00  0.00000000000E+00  0.88875010513E+03  0.88875010514E+03  0.50400001928E-02 0. -1.
        1   -1    0    0  501    0  0.00000000000E+00  0.00000000000E+00 -0.26397567458E+04  0.26397567458E+04  0.50400001928E-02 0.  1.
    10030    2    1    2    0    0  0.00000000000E+00  0.00000000000E+00 -0.17510066406E+04  0.35285068509E+04  0.30633864173E+04 0.  0.
        1    1    3    3  502    0  0.40344779606E+03  0.11624163490E+04  0.17519373679E+03  0.12428494430E+04  0.50400001928E-02 0. -1.
       -1    1    3    3    0  502 -0.40344779606E+03 -0.11624163490E+04 -0.19262003774E+04  0.22856574079E+04  0.50400001928E-02 0.  1.
</event>
<event>
 5   0  0.8681172E-07  0.3143359E+04  0.7818609E-02  0.8203938E-01
       -1   -1    0    0    0  501  0.00000000000E+00  0.00000000000E+00  0.18381400706E+04  0.18381400706E+04  0.50400001928E-02 0. -1.
        1   -1    0    0  501    0  0.00000000000E+00  0.00000000000E+00 -0.13438452637E+04  0.13438452637E+04  0.50400001928E-02 0.  1.
    10030    2    1    2    0    0  0.00000000000E+00  0.00000000000E+00  0.49429480691E+03  0.31819853344E+04  0.31433586038E+04 0.  0.
        1    1    3    3  502    0  0.26932556321E+03 -0.10280699218E+04 -0.92497228468E+03  0.14089136775E+04  0.50400001928E-02 0.  1.
       -1    1    3    3    0  502 -0.26932556321E+03  0.10280699218E+04  0.14192670916E+04  0.17730716569E+04  0.50400001928E-02 0. -1.
</event>
<event>
 5   0  0.8681172E-07  0.3165104E+04  0.7818609E-02  0.8198094E-01
       -1   -1    0    0    0  501  0.00000000000E+00  0.00000000000E+00  0.11163908146E+04  0.11163908146E+04  0.50400001928E-02 0. -1.
        1   -1    0    0  501    0  0.00000000000E+00  0.00000000000E+00 -0.22433644334E+04  0.22433644334E+04  0.50400001928E-02 0.  1.
    10030    2    1    2    0    0  0.00000000000E+00  0.00000000000E+00 -0.11269736188E+04  0.33597552480E+04  0.31651043883E+04 0.  0.
        1    1    3    3  502    0  0.12444615566E+04 -0.95370716084E+03 -0.79172029080E+03  0.17564347222E+04  0.50400001928E-02 0.  1.
       -1    1    3    3    0  502 -0.12444615566E+04  0.95370716084E+03 -0.33525332803E+03  0.16033205258E+04  0.50400001928E-02 0. -1.
</event>
<event>
 5   0  0.2404430E-06  0.3191433E+04  0.7818609E-02  0.8191083E-01
        2   -1    0    0  501    0  0.00000000000E+00  0.00000000000E+00  0.15098426807E+04  0.15098426807E+04  0.25500000920E-02 0. -1.
       -2   -1    0    0    0  501  0.00000000000E+00  0.00000000000E+00 -0.16864745297E+04  0.16864745297E+04  0.25500000920E-02 0.  1.
    10030    2    1    2    0    0  0.00000000000E+00  0.00000000000E+00 -0.17663184901E+03  0.31963172103E+04  0.31914330479E+04 0.  0.
        4    1    3    3  502    0  0.15241156064E+04 -0.42043304277E+03  0.12792487147E+03  0.15862089115E+04  0.12699999809E+01 0.  1.
       -4    1    3    3    0  502 -0.15241156064E+04  0.42043304277E+03 -0.30455672048E+03  0.16101082989E+04  0.12699999809E+01 0. -1.
</event>
<event>
 5   0  0.8545153E-07  0.3275424E+04  0.7818609E-02  0.8169177E-01
        1   -1    0    0  501    0  0.00000000000E+00  0.00000000000E+00  0.15759175708E+04  0.15759175708E+04  0.50400001928E-02 0. -1.
       -1   -1    0    0    0  501  0.00000000000E+00  0.00000000000E+00 -0.17019296821E+04  0.17019296821E+04  0.50400001928E-02 0.  1.
    10030    2    1    2    0    0  0.00000000000E+00  0.00000000000E+00 -0.12601211126E+03  0.32778472530E+04  0.32754241804E+04 0.  0.
        3    1    3    3  502    0 -0.10270382487E+04  0.81360802667E+03  0.92023556389E+03  0.16011243202E+04  0.10100000352E+00 0. -1.
       -3    1    3    3    0  502  0.10270382487E+04 -0.81360802667E+03 -0.10462476752E+04  0.16767229328E+04  0.10100000352E+00 0.  1.
</event>
<event>
 5   0  0.2404430E-06  0.3145928E+04  0.7818609E-02  0.8203245E-01
       -2   -1    0    0    0  501  0.00000000000E+00  0.00000000000E+00  0.19415091237E+04  0.19415091237E+04  0.25500000920E-02 0.  1.
        2   -1    0    0  501    0  0.00000000000E+00  0.00000000000E+00 -0.12743775703E+04  0.12743775703E+04  0.25500000920E-02 0. -1.
    10030    2    1    2    0    0  0.00000000000E+00  0.00000000000E+00  0.66713155339E+03  0.32158866940E+04  0.31459279583E+04 0.  0.
        4    1    3    3  502    0 -0.23758152686E+03  0.18823257380E+03  0.19113718257E+04  0.19352571800E+04  0.12699999809E+01 0.  1.
       -4    1    3    3    0  502  0.23758152686E+03 -0.18823257380E+03 -0.12442402724E+04  0.12806295139E+04  0.12699999809E+01 0. -1.
</event>
<event>
 5   0  0.2466076E-06  0.3163915E+04  0.7818609E-02  0.8198413E-01
        2   -1    0    0  501    0  0.00000000000E+00  0.00000000000E+00  0.17360827660E+04  0.17360827660E+04  0.25500000920E-02 0. -1.
       -2   -1    0    0    0  501  0.00000000000E+00  0.00000000000E+00 -0.14415147306E+04  0.14415147306E+04  0.25500000920E-02 0.  1.
    10030    2    1    2    0    0  0.00000000000E+00  0.00000000000E+00  0.29456803540E+03  0.31775974965E+04  0.31639145884E+04 0.  0.
        3    1    3    3  502    0 -0.12513481212E+04  0.27206816780E+03 -0.78554691915E+03  0.15023239267E+04  0.10100000352E+00 0.  1.
       -3    1    3    3    0  502  0.12513481212E+04 -0.27206816780E+03  0.10801149545E+04  0.16752735698E+04  0.10100000352E+00 0. -1.
</event>
<event>
 5   0  0.2337504E-06  0.3221400E+04  0.7818609E-02  0.8183188E-01
        2   -1    0    0  501    0  0.00000000000E+00  0.00000000000E+00  0.21773923866E+04  0.21773923866E+04  0.25500000920E-02 0.  1.
       -2   -1    0    0    0  501  0.00000000000E+00  0.00000000000E+00 -0.11914963258E+04  0.11914963258E+04  0.25500000920E-02 0. -1.
    10030    2    1    2    0    0  0.00000000000E+00  0.00000000000E+00  0.98589606087E+03  0.33688887124E+04  0.32214003343E+04 0.  0.
        1    1    3    3  502    0 -0.46388652039E+03  0.15019927860E+04  0.85998987841E+03  0.17918581484E+04  0.50400001928E-02 0.  1.
       -1    1    3    3    0  502  0.46388652039E+03 -0.15019927860E+04  0.12590618247E+03  0.15770305640E+04  0.50400001928E-02 0. -1.
</event>
<event>
 5   0  0.2404430E-06  0.3189276E+04  0.7818609E-02  0.8191655E-01
        2   -1    0    0  501    0  0.00000000000E+00  0.00000000000E+00  0.14052795785E+04  0.14052795785E+04  0.25500000920E-02 0. -1.
       -2   -1    0    0    0  501  0.00000000000E+00  0.00000000000E+00 -0.18095115017E+04  0.18095115017E+04  0.25500000920E-02 0.  1.
    10030    2    1    2    0    0  0.00000000000E+00  0.00000000000E+00 -0.40423192325E+03  0.32147910802E+04  0.31892755042E+04 0.  0.
        4    1    3    3  502    0 -0.46386220750E+03  0.63595977349E+03  0.11957938360E+04  0.14316205824E+04  0.12699999809E+01 0. -1.
       -4    1    3    3    0  502  0.46386220750E+03 -0.63595977349E+03 -0.16000257592E+04  0.17831704978E+04  0.12699999809E+01 0.  1.
</event>
<event>
 5   0  0.8545153E-07  0.3211277E+04  0.7818609E-02  0.8185845E-01
       -1   -1    0    0    0  501  0.00000000000E+00  0.00000000000E+00  0.14512119464E+04  0.14512119464E+04  0.50400001928E-02 0.  1.
        1   -1    0    0  501    0  0.00000000000E+00  0.00000000000E+00 -0.17764983190E+04  0.17764983190E+04  0.50400001928E-02 0. -1.
    10030    2    1    2    0    0  0.00000000000E+00  0.00000000000E+00 -0.32528637259E+03  0.32277102655E+04  0.32112773679E+04 0.  0.
        3    1    3    3  502    0 -0.42636188799E+03  0.10403671096E+03  0.13897562444E+04  0.14574054089E+04  0.10100000352E+00 0.  1.
       -3    1    3    3    0  502  0.42636188799E+03 -0.10403671096E+03 -0.17150426170E+04  0.17703048566E+04  0.10100000352E+00 0. -1.
</event>
<event>
 5   0  0.2466076E-06  0.3208111E+04  0.7818609E-02  0.8186678E-01
       -2   -1    0    0    0  501  0.00000000000E+00  0.00000000000E+00  0.17502691601E+04  0.17502691601E+04  0.25500000920E-02 0. -1.
        2   -1    0    0  501    0  0.00000000000E+00  0.00000000000E+00 -0.14700560230E+04  0.14700560230E+04  0.25500000920E-02 0.  1.
    10030    2    1    2    0    0  0.00000000000E+00  0.00000000000E+00  0.28021313707E+03  0.32203251831E+04  0.32081107965E+04 0.  0.
        3    1    3    3  502    0  0.12207407811E+03 -0.57984402039E+03  0.16363764718E+04  0.17403589101E+04  0.10100000352E+00 0. -1.
       -3    1    3    3    0  502 -0.12207407811E+03  0.57984402039E+03 -0.13561633347E+04  0.14799662730E+04  0.10100000352E+00 0.  1.
</event>
<event>
 5   0  0.8545153E-07  0.3157282E+04  0.7818609E-02  0.8200191E-01
        1   -1    0    0  501    0  0.00000000000E+00  0.00000000000E+00  0.13928275303E+04  0.13928275303E+04  0.50400001928E-02 0. -1.
       -1   -1    0    0    0  501  0.00000000000E+00  0.00000000000E+00 -0.17892433902E+04  0.17892433902E+04  0.50400001928E-02 0.  1.
    10030    2    1    2    0    0  0.00000000000E+00  0.00000000000E+00 -0.39641585992E+03  0.31820709205E+04  0.31572820287E+04 0.  0.
        3    1    3    3  502    0 -0.58360774037E+03  0.62459794644E+03 -0.15358005143E+04  0.17576699972E+04  0.10100000352E+00 0.  1.
       -3    1    3    3    0  502  0.58360774037E+03 -0.62459794644E+03  0.11393846544E+04  0.14244009232E+04  0.10100000352E+00 0. -1.
</event>
<event>
 5   0  0.2404430E-06  0.3146241E+04  0.7818609E-02  0.8203161E-01
       -2   -1    0    0    0  501  0.00000000000E+00  0.00000000000E+00  0.96704857727E+03  0.96704857728E+03  0.25500000920E-02 0.  1.
        2   -1    0    0  501    0  0.00000000000E+00  0.00000000000E+00 -0.25590324812E+04  0.25590324812E+04  0.25500000920E-02 0. -1.
    10030    2    1    2    0    0  0.00000000000E+00  0.00000000000E+00 -0.15919839039E+04  0.35260810585E+04  0.31462413894E+04 0.  0.
        4    1    3    3  502    0  0.12959459137E+04 -0.45417666681E+03  0.64092810256E+02  0.13747224291E+04  0.12699999809E+01 0.  1.
       -4    1    3    3    0  502 -0.12959459137E+04  0.45417666681E+03 -0.16560767142E+04  0.21513586293E+04  0.12699999809E+01 0. -1.
</event>
<event>
 5   0  0.2621528E-06  0.3146046E+04  0.7818609E-02  0.8203213E-01
       -2   -1    0    0    0  501  0.00000000000E+00  0.00000000000E+00  0.18120522145E+04  0.18120522145E+04  0.25500000920E-02 0.  1.
        2   -1    0    0  501    0  0.00000000000E+00  0.00000000000E+00 -0.13655246917E+04  0.13655246917E+04  0.25500000920E-02 0. -1.
    10030    2    1    2    0    0  0.00000000000E+00  0.00000000000E+00  0.44652752276E+03  0.31775769061E+04  0.31460464342E+04 0.  0.
        2    1    3    3  502    0 -0.50769511851E+02  0.80254658872E+03 -0.11422263606E+04  0.13969035862E+04  0.25500000920E-02 0. -1.
       -2    1    3    3    0  502  0.50769511851E+02 -0.80254658872E+03  0.15887538833E+04  0.17806733199E+04  0.25500000920E-02 0.  1.
</event>
<event>
 5   0  0.2337504E-06  0.3159910E+04  0.7818609E-02  0.8199486E-01
        2   -1    0    0  501    0  0.00000000000E+00  0.00000000000E+00  0.10021727775E+04  0.10021727775E+04  0.25500000920E-02 0. -1.
       -2   -1    0    0    0  501  0.00000000000E+00  0.00000000000E+00 -0.24908456953E+04  0.24908456953E+04  0.25500000920E-02 0.  1.
    10030    2    1    2    0    0  0.00000000000E+00  0.00000000000E+00 -0.14886729178E+04  0.34930184729E+04  0.31599099664E+04 0.  0.
        1    1    3    3  502    0  0.51210274006E+03  0.30598584820E+03 -0.23615662649E+04  0.24357487102E+04  0.50400001928E-02 0.  1.
       -1    1    3    3    0  502 -0.51210274006E+03 -0.30598584820E+03  0.87289334709E+03  0.10572697627E+04  0.50400001928E-02 0. -1.
</event>
<event>
 5   0  0.2466076E-06  0.3181406E+04  0.7818609E-02  0.8193745E-01
       -2   -1    0    0    0  501  0.00000000000E+00  0.00000000000E+00  0.12649563750E+04  0.12649563750E+04  0.25500000920E-02 0. -1.
        2   -1    0    0  501    0  0.00000000000E+00  0.00000000000E+00 -0.20003340742E+04  0.20003340742E+04  0.25500000920E-02 0.  1.
    10030    2    1    2    0    0  0.00000000000E+00  0.00000000000E+00 -0.73537769922E+03  0.32652904493E+04  0.31814055632E+04 0.  0.
        3    1    3    3  502    0  0.85859085147E+03 -0.11331249322E+04 -0.11000757510E+04  0.17975864459E+04  0.10100000352E+00 0.  1.
       -3    1    3    3    0  502 -0.85859085147E+03  0.11331249322E+04  0.36469805182E+03  0.14677040034E+04  0.10100000352E+00 0. -1.
</event>
<event>
 5   0  0.2621528E-06  0.3200222E+04  0.7818609E-02  0.8188759E-01
        2   -1    0    0  501    0  0.00000000000E+00  0.00000000000E+00  0.20487145820E+04  0.20487145820E+04  0.25500000920E-02 0.  1.
       -2   -1    0    0    0  501  0.00000000000E+00  0.00000000000E+00 -0.12497372297E+04  0.12497372297E+04  0.25500000920E-02 0. -1.
    10030    2    1    2    0    0  0.00000000000E+00  0.00000000000E+00  0.79897735236E+03  0.32984518117E+04  0.32002217961E+04 0.  0.
        2    1    3    3  502    0  0.74400461312E+03  0.10187325976E+04 -0.61510240030E+03  0.14034635487E+04  0.25500000920E-02 0. -1.
       -2    1    3    3    0  502 -0.74400461312E+03 -0.10187325976E+04  0.14140797527E+04  0.18949882629E+04  0.25500000920E-02 0.  1.
</event>
<event>
 5   0  0.8487944E-07  0.3251107E+04  0.7818609E-02  0.8175449E-01
        1   -1    0    0  501    0  0.00000000000E+00  0.00000000000E+00  0.11419628921E+04  0.11419628922E+04  0.50400001928E-02 0.  1.
       -1   -1    0    0    0  501  0.00000000000E+00  0.00000000000E+00 -0.23139311571E+04  0.23139311571E+04  0.50400001928E-02 0. -1.
    10030    2    1    2    0    0  0.00000000000E+00  0.00000000000E+00 -0.11719682649E+04  0.34558940492E+04  0.32511065909E+04 0.  0.
        2    1    3    3  502    0 -0.14090927323E+04 -0.68189386975E+03 -0.10516440875E+04  0.18858623663E+04  0.25500000920E-02 0. -1.
       -2    1    3    3    0  502  0.14090927323E+04  0.68189386975E+03 -0.12032417745E+03  0.15700316830E+04  0.25500000920E-02 0.  1.
</event>
<event>
 5   0  0.8487944E-07  0.3206666E+04  0.7818609E-02  0.8187059E-01
       -1   -1    0    0    0  501  0.00000000000E+00  0.00000000000E+00  0.21204390763E+04  0.21204390763E+04  0.50400001928E-02 0. -1.
        1   -1    0    0  501    0  0.00000000000E+00  0.00000000000E+00 -0.12123325723E+04  0.12123325723E+04  0.50400001928E-02 0.  1.
    10030    2    1    2    0    0  0.00000000000E+00  0.00000000000E+00  0.90810650403E+03  0.33327716486E+04  0.32066664060E+04 0.  0.
        2    1    3    3  502    0  0.13354971462E+03  0.11679558115E+04  0.15872146040E+04  0.19751472104E+04  0.25500000920E-02 0. -1.
       -2    1    3    3    0  502 -0.13354971462E+03 -0.11679558115E+04 -0.67910809994E+03  0.13576244382E+04  0.25500000920E-02 0.  1.
</event>
<event>
 5   0  0.8383008E-07  0.3144882E+04  0.7818609E-02  0.8203527E-01
        1   -1    0    0  501    0  0.00000000000E+00  0.00000000000E+00  0.18539274174E+04  0.18539274174E+04  0.50400001928E-02 0.  1.
       -1   -1    0    0    0  501  0.00000000000E+00  0.00000000000E+00 -0.13336937078E+04  0.13336937078E+04  0.50400001928E-02 0. -1.
    10030    2    1    2    0    0  0.00000000000E+00  0.00000000000E+00  0.52023370960E+03  0.31876211252E+04  0.31448824024E+04 0.  0.
        4    1    3    3  502    0 -0.60614667711E+02 -0.15150299593E+04  0.68240790913E+03  0.16627303097E+04  0.12699999809E+01 0.  1.
       -4    1    3    3    0  502  0.60614667711E+02  0.15150299593E+04 -0.16217419952E+03  0.15248908155E+04  0.12699999809E+01 0. -1.
</event>
<event>
 5   0  0.8512855E-07  0.3197333E+04  0.7818609E-02  0.8189522E-01
       -1   -1    0    0    0  501  0.00000000000E+00  0.00000000000E+00  0.15663333738E+04  0.15663333739E+04  0.50400001928E-02 0. -1.
        1   -1    0    0  501    0  0.00000000000E+00  0.00000000000E+00 -0.16316667687E+04  0.16316667687E+04  0.50400001928E-02 0.  1.
    10030    2    1    2    0    0  0.00000000000E+00  0.00000000000E+00 -0.65333394826E+02  0.31980001425E+04  0.31973327101E+04 0.  0.
        5    1    3    3  502    0  0.11522000900E+03  0.13648726050E+04  0.79185915871E+03  0.15821554587E+04  0.46999998093E+01 0. -1.
       -5    1    3    3    0  502 -0.11522000900E+03 -0.13648726050E+04 -0.85719255353E+03  0.16158446838E+04  0.46999998093E+01 0.  1.
</event>
<event>
 5   0  0.8512855E-07  0.3062977E+04  0.7818609E-02  0.8225973E-01
       -1   -1    0    0    0  501  0.00000000000E+00  0.00000000000E+00  0.22883183784E+04  0.22883183784E+04  0.50400001928E-02 0.  1.
        1   -1    0    0  501    0  0.00000000000E+00  0.00000000000E+00 -0.10249694879E+04  0.10249694879E+04  0.50400001928E-02 0. -1.
    10030    2    1    2    0    0  0.00000000000E+00  0.00000000000E+00  0.12633488905E+04  0.33132878663E+04  0.30629766675E+04 0.  0.
        5    1    3    3  502    0  0.38018844570E+03  0.85267941454E+03 -0.68155021243E+03  0.11559144520E+04  0.46999998093E+01 0. -1.
       -5    1    3    3    0  502 -0.38018844570E+03 -0.85267941454E+03  0.19448991029E+04  0.21573734143E+04  0.46999998093E+01 0.  1.
</event>
<event>
 5   0  0.2466076E-06  0.3208241E+04  0.7818609E-02  0.8186644E-01
       -2   -1    0    0    0  501  0.00000000000E+00  0.00000000000E+00  0.10113996665E+04  0.10113996665E+04  0.25500000920E-02 0.  1.
        2   -1    0    0  501    0  0.00000000000E+00  0.00000000000E+00 -0.25441996289E+04  0.25441996289E+04  0.25500000920E-02 0. -1.
    10030    2    1    2    0    0  0.00000000000E+00  0.00000000000E+00 -0.15327999623E+04  0.35555992954E+04  0.32082410484E+04 0.  0.
        3    1    3    3  502    0  0.11421131262E+04 -0.10579757687E+04 -0.11948688204E+04  0.19625102875E+04  0.10100000352E+00 0. -1.
       -3    1    3    3    0  502 -0.11421131262E+04  0.10579757687E+04 -0.33793114190E+03  0.15930890079E+04  0.10100000352E+00 0.  1.
</event>
<event>
 5   0  0.2466076E-06  0.3221424E+04  0.7818609E-02  0.8183182E-01
        2   -1    0    0  501    0  0.00000000000E+00  0.00000000000E+00  0.22393517791E+04  0.22393517791E+04  0.25500000920E-02 0. -1.
       -2   -1    0    0    0  501  0.00000000000E+00  0.00000000000E+00 -0.11585467050E+04  0.11585467050E+04  0.25500000920E-02 0.  1.
    10030    2    1    2    0    0  0.00000000000E+00  0.00000000000E+00  0.10808050741E+04  0.33978984842E+04  0.32214242969E+04 0.  0.
        3    1    3    3  502    0  0.10362027500E+04  0.48849666394E+03 -0.65390093459E+03  0.13190646581E+04  0.10100000352E+00 0.  1.
       -3    1    3    3    0  502 -0.10362027500E+04 -0.48849666394E+03  0.17347060087E+04  0.20788338261E+04  0.10100000352E+00 0. -1.
</event>
<event>
 5   0  0.7934375E-07  0.3162328E+04  0.7818609E-02  0.8198838E-01
        3   -1    0    0  501    0  0.00000000000E+00  0.00000000000E+00  0.17476650418E+04  0.17476650448E+04  0.10100000352E+00 0. -1.
       -3   -1    0    0    0  501  0.00000000000E+00  0.00000000000E+00 -0.14305257326E+04  0.14305257361E+04  0.10100000352E+00 0.  1.
    10030    2    1    2    0    0  0.00000000000E+00  0.00000000000E+00  0.31713930929E+03  0.31781907809E+04  0.31623281452E+04 0.  0.
        2    1    3    3  502    0 -0.10160337786E+04  0.68685386535E+02  0.13741978360E+04  0.17103982034E+04  0.25500000920E-02 0. -1.
       -2    1    3    3    0  502  0.10160337786E+04 -0.68685386535E+02 -0.10570585267E+04  0.14677925775E+04  0.25500000920E-02 0.  1.
</event>
<event>
 5   0  0.2337504E-06  0.3213128E+04  0.7818609E-02  0.8185359E-01
        2   -1    0    0  501    0  0.00000000000E+00  0.00000000000E+00  0.22082079851E+04  0.22082079851E+04  0.25500000920E-02 0.  1.
       -2   -1    0    0    0  501  0.00000000000E+00  0.00000000000E+00 -0.11688431019E+04  0.11688431019E+04  0.25500000920E-02 0. -1.
    10030    2    1    2    0    0  0.00000000000E+00  0.00000000000E+00  0.10393648832E+04  0.33770510870E+04  0.32131284885E+04 0.  0.
        1    1    3    3  502    0 -0.95337277728E+03  0.84121283179E+02 -0.83651687236E+03  0.12711241169E+04  0.50400001928E-02 0. -1.
       -1    1    3    3    0  502  0.95337277728E+03 -0.84121283179E+02  0.18758817555E+04  0.21059269701E+04  0.50400001928E-02 0.  1.
</event>
<event>
 5   0  0.8487944E-07  0.3339209E+04  0.7818609E-02  0.8152990E-01
       -1   -1    0    0    0  501  0.00000000000E+00  0.00000000000E+00  0.12376172941E+04  0.12376172941E+04  0.50400001928E-02 0.  1.
        1   -1    0    0  501    0  0.00000000000E+00  0.00000000000E+00 -0.22523752750E+04  0.22523752750E+04  0.50400001928E-02 0. -1.
    10030    2    1    2    0    0  0.00000000000E+00  0.00000000000E+00 -0.10147579809E+04  0.34899925691E+04  0.33392086447E+04 0.  0.
        2    1    3    3  502    0  0.10374052248E+04 -0.11862878485E+04  0.68965453135E+02  0.15774170957E+04  0.25500000920E-02 0.  1.
       -2    1    3    3    0  502 -0.10374052248E+04  0.11862878485E+04 -0.10837234340E+04  0.19125754734E+04  0.25500000920E-02 0. -1.
</event>
<event>
 5   0  0.2466076E-06  0.3209290E+04  0.7818609E-02  0.8186368E-01
        2   -1    0    0  501    0  0.00000000000E+00  0.00000000000E+00  0.15274561851E+04  0.15274561851E+04  0.25500000920E-02 0.  1.
       -2   -1    0    0    0  501  0.00000000000E+00  0.00000000000E+00 -0.16857342623E+04  0.16857342623E+04  0.25500000920E-02 0. -1.
    10030    2    1    2    0    0  0.00000000000E+00  0.00000000000E+00 -0.15827807718E+03  0.32131904474E+04  0.32092897815E+04 0.  0.
        3    1    3    3  502    0  0.12636127448E+04  0.98159423134E+03  0.42007248701E+02  0.16006276965E+04  0.10100000352E+00 0. -1.
       -3    1    3    3    0  502 -0.12636127448E+04 -0.98159423134E+03 -0.20028532588E+03  0.16125627509E+04  0.10100000352E+00 0.  1.
</event>
<event>
 5   0  0.2404430E-06  0.3172926E+04  0.7818609E-02  0.8196004E-01
        2   -1    0    0  501    0  0.00000000000E+00  0.00000000000E+00  0.21803819026E+04  0.21803819026E+04  0.25500000920E-02 0.  1.
       -2   -1    0    0    0  501  0.00000000000E+00  0.00000000000E+00 -0.11543229358E+04  0.11543229358E+04  0.25500000920E-02 0. -1.
    10030    2    1    2    0    0  0.00000000000E+00  0.00000000000E+00  0.10260589668E+04  0.33347048384E+04  0.31729259928E+04 0.  0.
        4    1    3    3  502    0 -0.10600892532E+04 -0.29013931191E+03  0.17154311229E+04  0.20373206904E+04  0.12699999809E+01 0.  1.
       -4    1    3    3    0  502  0.10600892532E+04  0.29013931191E+03 -0.68937215607E+03  0.12973841480E+04  0.12699999809E+01 0. -1.
</event>
<event>
 5   0  0.2401139E-06  0.3205077E+04  0.7818609E-02  0.8187478E-01
        2   -1    0    0  501    0  0.00000000000E+00  0.00000000000E+00  0.14416744585E+04  0.14416744585E+04  0.25500000920E-02 0. -1.
       -2   -1    0    0    0  501  0.00000000000E+00  0.00000000000E+00 -0.17813520202E+04  0.17813520202E+04  0.25500000920E-02 0.  1.
    10030    2    1    2    0    0  0.00000000000E+00  0.00000000000E+00 -0.33967756173E+03  0.32230264787E+04  0.32050770407E+04 0.  0.
        5    1    3    3  502    0  0.41301786670E+03 -0.12966219806E+04  0.68124330871E+03  0.15218169583E+04  0.46999998093E+01 0. -1.
       -5    1    3    3    0  502 -0.41301786670E+03  0.12966219806E+04 -0.10209208704E+04  0.17012095205E+04  0.46999998093E+01 0.  1.
</event>
<event>
 5   0  0.8681172E-07  0.3128831E+04  0.7818609E-02  0.8207870E-01
        1   -1    0    0  501    0  0.00000000000E+00  0.00000000000E+00  0.14724376466E+04  0.14724376467E+04  0.50400001928E-02 0.  1.
       -1   -1    0    0    0  501  0.00000000000E+00  0.00000000000E+00 -0.16621390032E+04  0.16621390032E+04  0.50400001928E-02 0. -1.
    10030    2    1    2    0    0  0.00000000000E+00  0.00000000000E+00 -0.18970135656E+03  0.31345766499E+04  0.31288311187E+04 0.  0.
        1    1    3    3  502    0  0.12845132163E+04  0.55110537044E+03 -0.79878219013E+03  0.16098895364E+04  0.50400001928E-02 0. -1.
       -1    1    3    3    0  502 -0.12845132163E+04 -0.55110537044E+03  0.60908083357E+03  0.15246871135E+04  0.50400001928E-02 0.  1.
</event>
<event>
 5   0  0.8545153E-07  0.3224601E+04  0.7818609E-02  0.8182350E-01
       -1   -1    0    0    0  501  0.00000000000E+00  0.00000000000E+00  0.24852224910E+04  0.24852224910E+04  0.50400001928E-02 0.  1.
        1   -1    0    0  501    0  0.00000000000E+00  0.00000000000E+00 -0.10459878483E+04  0.10459878483E+04  0.50400001928E-02 0. -1.
    10030    2    1    2    0    0  0.00000000000E+00  0.00000000000E+00  0.14392346426E+04  0.35312103393E+04  0.32246007666E+04 0.  0.
        3    1    3    3  502    0  0.76770577844E+03 -0.11771878310E+04  0.15849206166E+04  0.21182815495E+04  0.10100000352E+00 0.  1.
       -3    1    3    3    0  502 -0.76770577844E+03  0.11771878310E+04 -0.14568597403E+03  0.14129287898E+04  0.10100000352E+00 0. -1.
</event>
<event>
 5   0  0.8383008E-07  0.3189804E+04  0.7818609E-02  0.8191515E-01
        1   -1    0    0  501    0  0.00000000000E+00  0.00000000000E+00  0.14414030058E+04  0.14414030058E+04  0.50400001928E-02 0.  1.
       -1   -1    0    0    0  501  0.00000000000E+00  0.00000000000E+00 -0.17647473637E+04  0.17647473637E+04  0.50400001928E-02 0. -1.
    10030    2    1    2    0    0  0.00000000000E+00  0.00000000000E+00 -0.32334435786E+03  0.32061503695E+04  0.31898038526E+04 0.  0.
        4    1    3    3  502    0 -0.14811258513E+04  0.94841259183E+02 -0.74860117501E+03  0.16622677233E+04  0.12699999809E+01 0.  1.
       -4    1    3    3    0  502  0.14811258513E+04 -0.94841259183E+02  0.42525681715E+03  0.15438826462E+04  0.12699999809E+01 0. -1.
</event>
<event>
 5   0  0.8512855E-07  0.3221098E+04  0.7818609E-02  0.8183267E-01
       -1   -1    0    0    0  501  0.00000000000E+00  0.00000000000E+00  0.16297414280E+04  0.16297414280E+04  0.50400001928E-02 0. -1.
        1   -1    0    0  501    0  0.00000000000E+00  0.00000000000E+00 -0.15915823857E+04  0.15915823857E+04  0.50400001928E-02 0.  1.
    10030    2    1    2    0    0  0.00000000000E+00  0.00000000000E+00  0.38159042362E+02  0.32213238137E+04  0.32210977943E+04 0.  0.
        5    1    3    3  502    0  0.89092244202E+03 -0.11005587284E+04 -0.74835516088E+03  0.16015710566E+04  0.46999998093E+01 0. -1.
       -5    1    3    3    0  502 -0.89092244202E+03  0.11005587284E+04  0.78651420325E+03  0.16197527571E+04  0.46999998093E+01 0.  1.
</event>
<event>
 5   0  0.2466076E-06  0.3172101E+04  0.7818609E-02  0.8196224E-01
        2   -1    0    0  501    0  0.00000000000E+00  0.00000000000E+00  0.13046333458E+04  0.13046333458E+04  0.25500000920E-02 0.  1.
       -2   -1    0    0    0  501  0.00000000000E+00  0.00000000000E+00 -0.19281713926E+04  0.19281713926E+04  0.25500000920E-02 0. -1.
    10030    2    1    2    0    0  0.00000000000E+00  0.00000000000E+00 -0.62353804678E+03  0.32328047384E+04  0.31721013195E+04 0.  0.
        3    1    3    3  502    0 -0.92779603271E+03  0.12758364321E+04 -0.14433071554E+03  0.15841071445E+04  0.10100000352E+00 0.  1.
       -3    1    3    3    0  502  0.92779603271E+03 -0.12758364321E+04 -0.47920733124E+03  0.16486975939E+04  0.10100000352E+00 0. -1.
</event>
<event>
 5   0  0.8487944E-07  0.3192093E+04  0.7818609E-02  0.8190908E-01
       -1   -1    0    0    0  501  0.00000000000E+00  0.00000000000E+00  0.14046836329E+04  0.14046836330E+04  0.50400001928E-02 0.  1.
        1   -1    0    0  501    0  0.00000000000E+00  0.00000000000E+00 -0.18134792100E+04  0.18134792101E+04  0.50400001928E-02 0. -1.
    10030    2    1    2    0    0  0.00000000000E+00  0.00000000000E+00 -0.40879557710E+03  0.32181628430E+04  0.31920930845E+04 0.  0.
        2    1    3    3  502    0  0.14360760367E+04 -0.67664944711E+03 -0.38139750421E+02  0.15879620581E+04  0.25500000920E-02 0.  1.
       -2    1    3    3    0  502 -0.14360760367E+04  0.67664944711E+03 -0.37065582668E+03  0.16302007849E+04  0.25500000920E-02 0. -1.
</event>
<event>
 5   0  0.8383008E-07  0.3194365E+04  0.7818609E-02  0.8190307E-01
       -1   -1    0    0    0  501  0.00000000000E+00  0.00000000000E+00  0.33317608987E+04  0.33317608987E+04  0.50400001928E-02 0. -1.
        1   -1    0    0  501    0  0.00000000000E+00  0.00000000000E+00 -0.76565880424E+03  0.76565880426E+03  0.50400001928E-02 0.  1.
    10030    2    1    2    0    0  0.00000000000E+00  0.00000000000E+00  0.25661020944E+04  0.40974197029E+04  0.31943650798E+04 0.  0.
        4    1    3    3  502    0  0.90277275942E+02  0.15760703008E+04  0.97189887466E+03  0.18538437407E+04  0.12699999809E+01 0. -1.
       -4    1    3    3    0  502 -0.90277275942E+02 -0.15760703008E+04  0.15942032198E+04  0.22435759622E+04  0.12699999809E+01 0.  1.
</event>
<event>
 5   0  0.8545153E-07  0.3232325E+04  0.7818609E-02  0.8180332E-01
       -1   -1    0    0    0  501  0.00000000000E+00  0.00000000000E+00  0.22934761419E+04  0.22934761419E+04  0.50400001928E-02 0. -1.
        1   -1    0    0  501    0  0.00000000000E+00  0.00000000000E+00 -0.11388741446E+04  0.11388741446E+04  0.50400001928E-02 0.  1.
    10030    2    1    2    0    0  0.00000000000E+00  0.00000000000E+00  0.11546019973E+04  0.34323502866E+04  0.32323246615E+04 0.  0.
        3    1    3    3  502    0 -0.10422665586E+04  0.16433246812E+03  0.18772538340E+04  0.21534638856E+04  0.10100000352E+00 0. -1.
       -3    1    3    3    0  502  0.10422665586E+04 -0.16433246812E+03 -0.72265183673E+03  0.12788864009E+04  0.10100000352E+00 0.  1.
</event>
<event>
 5   0  0.8383008E-07  0.3215664E+04  0.7818609E-02  0.8184692E-01
       -1   -1    0    0    0  501  0.00000000000E+00  0.00000000000E+00  0.20738408435E+04  0.20738408435E+04  0.50400001928E-02 0.  1.
        1   -1    0    0  501    0  0.00000000000E+00  0.00000000000E+00 -0.12465393454E+04  0.12465393455E+04  0.50400001928E-02 0. -1.
    10030    2    1    2    0    0  0.00000000000E+00  0.00000000000E+00  0.82730149803E+03  0.33203801889E+04  0.32156642907E+04 0.  0.
        4    1    3    3  502    0 -0.80653578142E+03  0.13632902425E+04  0.12887568407E+03  0.15892359192E+04  0.12699999809E+01 0. -1.
       -4    1    3    3    0  502  0.80653578142E+03 -0.13632902425E+04  0.69842581396E+03  0.17311442697E+04  0.12699999809E+01 0.  1.
</event>
<event>
 5   0  0.2621528E-06  0.3199561E+04  0.7818609E-02  0.8188933E-01
        2   -1    0    0  501    0  0.00000000000E+00  0.00000000000E+00  0.22626225962E+04  0.22626225962E+04  0.25500000920E-02 0.  1.
       -2   -1    0    0    0  501  0.00000000000E+00  0.00000000000E+00 -0.11311197076E+04  0.11311197076E+04  0.25500000920E-02 0. -1.
    10030    2    1    2    0    0  0.00000000000E+00  0.00000000000E+00  0.11315028886E+04  0.33937423039E+04  0.31995606008E+04 0.  0.
        2    1    3    3  502    0  0.64291849853E+03 -0.77286978845E+03 -0.75421128736E+03  0.12567842184E+04  0.25500000920E-02 0. -1.
       -2    1    3    3    0  502 -0.64291849853E+03  0.77286978845E+03  0.18857141759E+04  0.21369580855E+04  0.25500000920E-02 0.  1.
</event>
<event>
 5   0  0.2401139E-06  0.3180779E+04  0.7818609E-02  0.8193912E-01
        2   -1    0    0  501    0  0.00000000000E+00  0.00000000000E+00  0.21015824568E+04  0.21015824568E+04  0.25500000920E-02 0. -1.
       -2   -1    0    0    0  501  0.00000000000E+00  0.00000000000E+00 -0.12035400530E+04  0.12035400530E+04  0.25500000920E-02 0.  1.
    10030    2    1    2    0    0  0.00000000000E+00  0.00000000000E+00  0.89804240385E+03  0.33051225098E+04  0.31807789370E+04 0.  0.
        5    1    3    3  502    0 -0.14702486883E+04  0.55815357788E+03  0.20279812153E+03  0.15856594180E+04  0.46999998093E+01 0. -1.
       -5    1    3    3    0  502  0.14702486883E+04 -0.55815357788E+03  0.69524428232E+03  0.17194630918E+04  0.46999998093E+01 0.  1.
</event>
<event>
 5   0  0.2466076E-06  0.3161660E+04  0.7818609E-02  0.8199017E-01
        2   -1    0    0  501    0  0.00000000000E+00  0.00000000000E+00  0.13793468779E+04  0.13793468779E+04  0.25500000920E-02 0.  1.
       -2   -1    0    0    0  501  0.00000000000E+00  0.00000000000E+00 -0.18117436206E+04  0.18117436206E+04  0.25500000920E-02 0. -1.
    10030    2    1    2    0    0  0.00000000000E+00  0.00000000000E+00 -0.43239674278E+03  0.31910904985E+04  0.31616596316E+04 0.  0.
        3    1    3    3  502    0 -0.76395844388E+03 -0.44212561134E+03  0.11074649697E+04  0.14161872155E+04  0.10100000352E+00 0.  1.
       -3    1    3    3    0  502  0.76395844388E+03  0.44212561134E+03 -0.15398617125E+04  0.17749032830E+04  0.10100000352E+00 0. -1.
</event>
<event>
 5   0  0.2401139E-06  0.3186267E+04  0.7818609E-02  0.8192453E-01
       -2   -1    0    0    0  501  0.00000000000E+00  0.00000000000E+00  0.14862619819E+04  0.14862619819E+04  0.25500000920E-02 0. -1.
        2   -1    0    0  501    0  0.00000000000E+00  0.00000000000E+00 -0.17076902345E+04  0.17076902345E+04  0.25500000920E-02 0.  1.
    10030    2    1    2    0    0  0.00000000000E+00  0.00000000000E+00 -0.22142825259E+03  0.31939522163E+04  0.31862674541E+04 0.  0.
        5    1    3    3  502    0  0.13742807775E+04 -0.75991920652E+03 -0.37955516262E+03  0.16156141456E+04  0.46999998093E+01 0.  1.
       -5    1    3    3    0  502 -0.13742807775E+04  0.75991920652E+03  0.15812691003E+03  0.15783380708E+04  0.46999998093E+01 0. -1.
</event>
<event>
 5   0  0.8383008E-07  0.3141451E+04  0.7818609E-02  0.8204453E-01
        1   -1    0    0  501    0  0.00000000000E+00  0.00000000000E+00  0.16734946663E+04  0.16734946663E+04  0.50400001928E-02 0. -1.
       -1   -1    0    0    0  501  0.00000000000E+00  0.00000000000E+00 -0.14742673347E+04  0.14742673347E+04  0.50400001928E-02 0.  1.
    10030    2    1    2    0    0  0.00000000000E+00  0.00000000000E+00  0.19922733159E+03  0.31477620011E+04  0.31414509523E+04 0.  0.
        4    1    3    3  502    0 -0.13071452940E+04 -0.66963118974E+03  0.65763654754E+03  0.16091992392E+04  0.12699999809E+01 0. -1.
       -4    1    3    3    0  502  0.13071452940E+04  0.66963118974E+03 -0.45840921594E+03  0.15385627618E+04  0.12699999809E+01 0.  1.
</event>
<event>
 5   0  0.8512855E-07  0.3160714E+04  0.7818609E-02  0.8199270E-01
        1   -1    0    0  501    0  0.00000000000E+00  0.00000000000E+00  0.18533097925E+04  0.18533097925E+04  0.50400001928E-02 0. -1.
       -1   -1    0    0    0  501  0.00000000000E+00  0.00000000000E+00 -0.13476039369E+04  0.13476039369E+04  0.50400001928E-02 0.  1.
    10030    2    1    2    0    0  0.00000000000E+00  0.00000000000E+00  0.50570585556E+03  0.32009137294E+04  0.31607135731E+04 0.  0.
        5    1    3    3  502    0 -0.16829608828E+03 -0.89752180969E+03 -0.10533722460E+04  0.13940890039E+04  0.46999998093E+01 0.  1.
       -5    1    3    3    0  502  0.16829608828E+03  0.89752180969E+03  0.15590781015E+04  0.18068247255E+04  0.46999998093E+01 0. -1.
</event>
<event>
 5   0  0.8545153E-07  0.3206817E+04  0.7818609E-02  0.8187019E-01
        1   -1    0    0  501    0  0.00000000000E+00  0.00000000000E+00  0.28830656468E+04  0.28830656468E+04  0.50400001928E-02 0.  1.
       -1   -1    0    0    0  501  0.00000000000E+00  0.00000000000E+00 -0.89173085052E+03  0.89173085054E+03  0.50400001928E-02 0. -1.
    10030    2    1    2    0    0  0.00000000000E+00  0.00000000000E+00  0.19913347962E+04  0.37747964973E+04  0.32068168525E+04 0.  0.
        3    1    3    3  502    0 -0.85067938421E+03  0.13589561342E+04  0.10220248633E+04  0.19013027167E+04  0.10100000352E+00 0. -1.
       -3    1    3    3    0  502  0.85067938421E+03 -0.13589561342E+04  0.96930993300E+03  0.18734937806E+04  0.10100000352E+00 0.  1.
</event>
<event>
 5   0  0.8512855E-07  0.3151238E+04  0.7818609E-02  0.8201815E-01
       -1   -1    0    0    0  501  0.00000000000E+00  0.00000000000E+00  0.95208871007E+03  0.95208871008E+03  0.50400001928E-02 0.  1.
        1   -1    0    0  501    0  0.00000000000E+00  0.00000000000E+00 -0.26075038903E+04  0.26075038903E+04  0.50400001928E-02 0. -1.
    10030    2    1    2    0    0  0.00000000000E+00  0.00000000000E+00 -0.16554151803E+04  0.35595926004E+04  0.31512378619E+04 0.  0.
        5    1    3    3  502    0  0.89045996795E+03  0.12650212403E+04 -0.11653671919E+04  0.19368274252E+04  0.46999998093E+01 0. -1.
       -5    1    3    3    0  502 -0.89045996795E+03 -0.12650212403E+04 -0.49004798833E+03  0.16227651752E+04  0.46999998093E+01 0.  1.
</event>
<event>
 5   0  0.2621528E-06  0.2567712E+04  0.7818609E-02  0.8379252E-01
       -2   -1    0    0    0  501  0.00000000000E+00  0.00000000000E+00  0.11449337938E+04  0.11449337938E+04  0.25500000920E-02 0.  1.
        2   -1    0    0  501    0  0.00000000000E+00  0.00000000000E+00 -0.14396343786E+04  0.14396343786E+04  0.25500000920E-02 0. -1.
    10030    2    1    2    0    0  0.00000000000E+00  0.00000000000E+00 -0.29470058482E+03  0.25845681723E+04  0.25677118613E+04 0.  0.
        2    1    3    3  502    0  0.20557698923E+03 -0.48286620261E+03  0.10320345003E+04  0.11578069260E+04  0.25500000920E-02 0.  1.
       -2    1    3    3    0  502 -0.20557698923E+03  0.48286620261E+03 -0.13267350851E+04  0.14267612464E+04  0.25500000920E-02 0. -1.
</event>
<event>
 5   0  0.2466076E-06  0.3232603E+04  0.7818609E-02  0.8180260E-01
       -2   -1    0    0    0  501  0.00000000000E+00  0.00000000000E+00  0.10751963882E+04  0.10751963882E+04  0.25500000920E-02 0. -1.
        2   -1    0    0  501    0  0.00000000000E+00  0.00000000000E+00 -0.24297234224E+04  0.24297234224E+04  0.25500000920E-02 0.  1.
    10030    2    1    2    0    0  0.00000000000E+00  0.00000000000E+00 -0.13545270342E+04  0.35049198106E+04  0.32326025726E+04 0.  0.
        3    1    3    3  502    0  0.14676440803E+04  0.46296242338E+03 -0.14156021070E+03  0.15454296022E+04  0.10100000352E+00 0. -1.
       -3    1    3    3    0  502 -0.14676440803E+04 -0.46296242338E+03 -0.12129668235E+04  0.19594902084E+04  0.10100000352E+00 0.  1.
</event>
<event>
 5   0  0.2466076E-06  0.3195977E+04  0.7818609E-02  0.8189880E-01
       -2   -1    0    0    0  501  0.00000000000E+00  0.00000000000E+00  0.19541945648E+04  0.19541945648E+04  0.25500000920E-02 0.  1.
        2   -1    0    0  501    0  0.00000000000E+00  0.00000000000E+00 -0.13067111523E+04  0.13067111523E+04  0.25500000920E-02 0. -1.
    10030    2    1    2    0    0  0.00000000000E+00  0.00000000000E+00  0.64748341249E+03  0.32609057171E+04  0.31959773663E+04 0.  0.
        3    1    3    3  502    0 -0.14797042935E+04 -0.37969288240E+03 -0.15469423440E+03  0.15354549155E+04  0.10100000352E+00 0. -1.
       -3    1    3    3    0  502  0.14797042935E+04  0.37969288240E+03  0.80217764689E+03  0.17254508015E+04  0.10100000352E+00 0.  1.
</event>
<event>
 5   0  0.8487944E-07  0.3197509E+04  0.7818609E-02  0.8189475E-01
       -1   -1    0    0    0  501  0.00000000000E+00  0.00000000000E+00  0.25313305884E+04  0.25313305884E+04  0.50400001928E-02 0.  1.
        1   -1    0    0  501    0  0.00000000000E+00  0.00000000000E+00 -0.10097518328E+04  0.10097518328E+04  0.50400001928E-02 0. -1.
    10030    2    1    2    0    0  0.00000000000E+00  0.00000000000E+00  0.15215787555E+04  0.35410824212E+04  0.31975088435E+04 0.  0.
        2    1    3    3  502    0  0.20336175665E+03 -0.80250029162E+03  0.22754693954E+04  0.24213887939E+04  0.25500000920E-02 0.  1.
       -2    1    3    3    0  502 -0.20336175665E+03  0.80250029162E+03 -0.75389063984E+03  0.11196936273E+04  0.25500000920E-02 0. -1.
</event>
<event>
 5   0  0.2404430E-06  0.3213910E+04  0.7818609E-02  0.8185153E-01
        2   -1    0    0  501    0  0.00000000000E+00  0.00000000000E+00  0.20802902150E+04  0.20802902150E+04  0.25500000920E-02 0. -1.
       -2   -1    0    0    0  501  0.00000000000E+00  0.00000000000E+00 -0.12413192846E+04  0.12413192846E+04  0.25500000920E-02 0.  1.
    10030    2    1    2    0    0  0.00000000000E+00  0.00000000000E+00  0.83897093046E+03  0.33216094996E+04  0.32139099934E+04 0.  0.
        4    1    3    3  502    0  0.77692450232E+03  0.80750495809E+03 -0.77090447631E+03  0.13601364873E+04  0.12699999809E+01 0.  1.
       -4    1    3    3    0  502 -0.77692450232E+03 -0.80750495809E+03  0.16098754068E+04  0.19614730123E+04  0.12699999809E+01 0. -1.
</event>
<event>
 5   0  0.2466076E-06  0.3178510E+04  0.7818609E-02  0.8194516E-01
       -2   -1    0    0    0  501  0.00000000000E+00  0.00000000000E+00  0.10565826435E+04  0.10565826435E+04  0.25500000920E-02 0. -1.
        2   -1    0    0  501    0  0.00000000000E+00  0.00000000000E+00 -0.23904726423E+04  0.23904726423E+04  0.25500000920E-02 0.  1.
    10030    2    1    2    0    0  0.00000000000E+00  0.00000000000E+00 -0.13338899989E+04  0.34470552858E+04  0.31785102823E+04 0.  0.
        3    1    3    3  502    0  0.14445522045E+04 -0.30327772874E+03 -0.13058025533E+04  0.19707432026E+04  0.10100000352E+00 0.  1.
       -3    1    3    3    0  502 -0.14445522045E+04  0.30327772874E+03 -0.28087445557E+02  0.14763120832E+04  0.10100000352E+00 0. -1.
</event>
<event>
 5   0  0.2466076E-06  0.3219609E+04  0.7818609E-02  0.8183658E-01
       -2   -1    0    0    0  501  0.00000000000E+00  0.00000000000E+00  0.18136548339E+04  0.18136548339E+04  0.25500000920E-02 0. -1.
        2   -1    0    0  501    0  0.00000000000E+00  0.00000000000E+00 -0.14288666310E+04  0.14288666310E+04  0.25500000920E-02 0.  1.
    10030    2    1    2    0    0  0.00000000000E+00  0.00000000000E+00  0.38478820291E+03  0.32425214649E+04  0.32196092137E+04 0.  0.
        3    1    3    3  502    0  0.54549622601E+03  0.33006372330E+03 -0.12962871151E+04  0.14445997678E+04  0.10100000352E+00 0.  1.
       -3    1    3    3    0  502 -0.54549622601E+03 -0.33006372330E+03  0.16810753180E+04  0.17979216971E+04  0.10100000352E+00 0. -1.
</event>
<event>
 5   0  0.2466076E-06  0.3231548E+04  0.7818609E-02  0.8180535E-01
        2   -1    0    0  501    0  0.00000000000E+00  0.00000000000E+00  0.13774108415E+04  0.13774108415E+04  0.25500000920E-02 0.  1.
       -2   -1    0    0    0  501  0.00000000000E+00  0.00000000000E+00 -0.18953858968E+04  0.18953858968E+04  0.25500000920E-02 0. -1.
    10030    2    1    2    0    0  0.00000000000E+00  0.00000000000E+00 -0.51797505529E+03  0.32727967383E+04  0.32315476682E+04 0.  0.
        3    1    3    3  502    0  0.13648028616E+04 -0.58519740003E+02 -0.11329121333E+04  0.17747116168E+04  0.10100000352E+00 0. -1.
       -3    1    3    3    0  502 -0.13648028616E+04  0.58519740003E+02  0.61493707801E+03  0.14980851214E+04  0.10100000352E+00 0.  1.
</event>
<event>
 5   0  0.2401139E-06  0.3206549E+04  0.7818609E-02  0.8187090E-01
       -2   -1    0    0    0  501  0.00000000000E+00  0.00000000000E+00  0.15233719906E+04  0.15233719906E+04  0.25500000920E-02 0.  1.
        2   -1    0    0  501    0  0.00000000000E+00  0.00000000000E+00 -0.16873682694E+04  0.16873682695E+04  0.25500000920E-02 0. -1.
    10030    2    1    2    0    0  0.00000000000E+00  0.00000000000E+00 -0.16399627886E+03  0.32107402600E+04  0.32065492727E+04 0.  0.
        5    1    3    3  502    0  0.75215043910E+03  0.21280025332E+03  0.13196361318E+04  0.15337782895E+04  0.46999998093E+01 0.  1.
       -5    1    3    3    0  502 -0.75215043910E+03 -0.21280025332E+03 -0.14836324107E+04  0.16769619706E+04  0.46999998093E+01 0. -1.
</event>
<event>
 5   0  0.8545153E-07  0.3217726E+04  0.7818609E-02  0.8184151E-01
        1   -1    0    0  501    0  0.00000000000E+00  0.00000000000E+00  0.10151564627E+04  0.10151564628E+04  0.50400001928E-02 0.  1.
       -1   -1    0    0    0  501  0.00000000000E+00  0.00000000000E+00 -0.25497945281E+04  0.25497945281E+04  0.50400001928E-02 0. -1.
    10030    2    1    2    0    0  0.00000000000E+00  0.00000000000E+00 -0.15346380654E+04  0.35649509909E+04  0.32177261499E+04 0.  0.
        3    1    3    3  502    0  0.36619762649E+03  0.16716676140E+03 -0.24930982355E+04  0.25253879405E+04  0.10100000352E+00 0. -1.
       -3    1    3    3    0  502 -0.36619762649E+03 -0.16716676140E+03  0.95846017016E+03  0.10395630504E+04  0.10100000352E+00 0.  1.
</event>
<event>
 5   0  0.8487944E-07  0.3190853E+04  0.7818609E-02  0.8191237E-01
        1   -1    0    0  501    0  0.00000000000E+00  0.00000000000E+00  0.97998512019E+03  0.97998512020E+03  0.50400001928E-02 0. -1.
       -1   -1    0    0    0  501  0.00000000000E+00  0.00000000000E+00 -0.25973715451E+04  0.25973715451E+04  0.50400001928E-02 0.  1.
    10030    2    1    2    0    0  0.00000000000E+00  0.00000000000E+00 -0.16173864249E+04  0.35773566653E+04  0.31908528426E+04 0.  0.
        2    1    3    3  502    0 -0.72673563400E+03  0.13014081586E+04 -0.14464347189E+04  0.20770125838E+04  0.25500000920E-02 0.  1.
       -2    1    3    3    0  502  0.72673563400E+03 -0.13014081586E+04 -0.17095170599E+03  0.15003440815E+04  0.25500000920E-02 0. -1.
</event>
<event>
 5   0  0.8383008E-07  0.3128221E+04  0.7818609E-02  0.8208035E-01
        1   -1    0    0  501    0  0.00000000000E+00  0.00000000000E+00  0.22008320849E+04  0.22008320849E+04  0.50400001928E-02 0. -1.
       -1   -1    0    0    0  501  0.00000000000E+00  0.00000000000E+00 -0.11115986024E+04  0.11115986024E+04  0.50400001928E-02 0.  1.
    10030    2    1    2    0    0  0.00000000000E+00  0.00000000000E+00  0.10892334825E+04  0.33124306873E+04  0.31282211365E+04 0.  0.
        4    1    3    3  502    0  0.13585052756E+04 -0.77514098345E+03  0.53640585587E+03  0.16535153411E+04  0.12699999809E+01 0.  1.
       -4    1    3    3    0  502 -0.13585052756E+04  0.77514098345E+03  0.55282762667E+03  0.16589153462E+04  0.12699999809E+01 0. -1.
</event>
<event>
 5   0  0.2466076E-06  0.3111206E+04  0.7818609E-02  0.8212669E-01
       -2   -1    0    0    0  501  0.00000000000E+00  0.00000000000E+00  0.20738675399E+04  0.20738675399E+04  0.25500000920E-02 0.  1.
        2   -1    0    0  501    0  0.00000000000E+00  0.00000000000E+00 -0.11668536609E+04  0.11668536609E+04  0.25500000920E-02 0. -1.
    10030    2    1    2    0    0  0.00000000000E+00  0.00000000000E+00  0.90701387904E+03  0.32407212008E+04  0.31112055098E+04 0.  0.
        3    1    3    3  502    0 -0.57159570251E+02  0.26830981717E+03 -0.11414585544E+04  0.11739612498E+04  0.10100000352E+00 0. -1.
       -3    1    3    3    0  502  0.57159570251E+02 -0.26830981717E+03  0.20484724334E+04  0.20667599510E+04  0.10100000352E+00 0.  1.
</event>
<event>
 5   0  0.2466076E-06  0.3172511E+04  0.7818609E-02  0.8196115E-01
        2   -1    0    0  501    0  0.00000000000E+00  0.00000000000E+00  0.21027066403E+04  0.21027066403E+04  0.25500000920E-02 0. -1.
       -2   -1    0    0    0  501  0.00000000000E+00  0.00000000000E+00 -0.11966509902E+04  0.11966509902E+04  0.25500000920E-02 0.  1.
    10030    2    1    2    0    0  0.00000000000E+00  0.00000000000E+00  0.90605565010E+03  0.32993576306E+04  0.31725106672E+04 0.  0.
        3    1    3    3  502    0 -0.14969655460E+04  0.60054816699E+02  0.99511104394E+03  0.17985434181E+04  0.10100000352E+00 0. -1.
       -3    1    3    3    0  502  0.14969655460E+04 -0.60054816699E+02 -0.89055393842E+02  0.15008142124E+04  0.10100000352E+00 0.  1.
</event>
<event>
 5   0  0.2337504E-06  0.3210855E+04  0.7818609E-02  0.8185956E-01
        2   -1    0    0  501    0  0.00000000000E+00  0.00000000000E+00  0.14645981057E+04  0.14645981057E+04  0.25500000920E-02 0.  1.
       -2   -1    0    0    0  501  0.00000000000E+00  0.00000000000E+00 -0.17597984821E+04  0.17597984821E+04  0.25500000920E-02 0. -1.
    10030    2    1    2    0    0  0.00000000000E+00  0.00000000000E+00 -0.29520037639E+03  0.32243965878E+04  0.32108550408E+04 0.  0.
        1    1    3    3  502    0 -0.35534774477E+03 -0.14065524559E+04  0.54285731028E+03  0.15489854390E+04  0.50400001928E-02 0. -1.
       -1    1    3    3    0  502  0.35534774477E+03  0.14065524559E+04 -0.83805768667E+03  0.16754111487E+04  0.50400001928E-02 0.  1.
</event>
<event>
 5   0  0.8681172E-07  0.3218168E+04  0.7818609E-02  0.8184035E-01
       -1   -1    0    0    0  501  0.00000000000E+00  0.00000000000E+00  0.12854468980E+04  0.12854468980E+04  0.50400001928E-02 0. -1.
        1   -1    0    0  501    0  0.00000000000E+00  0.00000000000E+00 -0.20142033619E+04  0.20142033619E+04  0.50400001928E-02 0.  1.
    10030    2    1    2    0    0  0.00000000000E+00  0.00000000000E+00 -0.72875646390E+03  0.32996502598E+04  0.32181680897E+04 0.  0.
        1    1    3    3  502    0 -0.89173634697E+03  0.11351593606E+04  0.36451569950E+03  0.14888425644E+04  0.50400001928E-02 0. -1.
       -1    1    3    3    0  502  0.89173634697E+03 -0.11351593606E+04 -0.10932721634E+04  0.18108076954E+04  0.50400001928E-02 0.  1.
</event>
<event>
 5   0  0.2621528E-06  0.3196692E+04  0.7818609E-02  0.8189691E-01
        2   -1    0    0  501    0  0.00000000000E+00  0.00000000000E+00  0.16495286990E+04  0.16495286990E+04  0.25500000920E-02 0.  1.
       -2   -1    0    0    0  501  0.00000000000E+00  0.00000000000E+00 -0.15487518505E+04  0.15487518505E+04  0.25500000920E-02 0. -1.
    10030    2    1    2    0    0  0.00000000000E+00  0.00000000000E+00  0.10077684847E+03  0.31982805495E+04  0.31966924312E+04 0.  0.
        2    1    3    3  502    0  0.55236779223E+03  0.14847956395E+04 -0.16180738560E+03  0.15924540492E+04  0.25500000920E-02 0.  1.
       -2    1    3    3    0  502 -0.55236779223E+03 -0.14847956395E+04  0.26258423407E+03  0.16058265002E+04  0.25500000920E-02 0. -1.
</event>
<event>
 5   0  0.2466076E-06  0.3269331E+04  0.7818609E-02  0.8170743E-01
        2   -1    0    0  501    0  0.00000000000E+00  0.00000000000E+00  0.21740103513E+04  0.21740103513E+04  0.25500000920E-02 0.  1.
       -2   -1    0    0    0  501  0.00000000000E+00  0.00000000000E+00 -0.12291250831E+04  0.12291250831E+04  0.25500000920E-02 0. -1.
    10030    2    1    2    0    0  0.00000000000E+00  0.00000000000E+00  0.94488526818E+03  0.34031354344E+04  0.32693306065E+04 0.  0.
        3    1    3    3  502    0 -0.79433227469E+03 -0.14019786872E+04  0.18619209437E+03  0.16220898583E+04  0.10100000352E+00 0. -1.
       -3    1    3    3    0  502  0.79433227469E+03  0.14019786872E+04  0.75869317381E+03  0.17810455761E+04  0.10100000352E+00 0.  1.
</event>
<event>
 5   0  0.8681172E-07  0.3214857E+04  0.7818609E-02  0.8184905E-01
       -1   -1    0    0    0  501  0.00000000000E+00  0.00000000000E+00  0.14861389625E+04  0.14861389625E+04  0.50400001928E-02 0. -1.
        1   -1    0    0  501    0  0.00000000000E+00  0.00000000000E+00 -0.17386166698E+04  0.17386166698E+04  0.50400001928E-02 0.  1.
    10030    2    1    2    0    0  0.00000000000E+00  0.00000000000E+00 -0.25247770734E+03  0.32247556323E+04  0.32148567457E+04 0.  0.
        1    1    3    3  502    0  0.55308024514E+03  0.13866673192E+04  0.47148348914E+03  0.15655799859E+04  0.50400001928E-02 0. -1.
       -1    1    3    3    0  502 -0.55308024514E+03 -0.13866673192E+04 -0.72396119648E+03  0.16591756464E+04  0.50400001928E-02 0.  1.
</event>
<event>
 5   0  0.2404430E-06  0.3191393E+04  0.7818609E-02  0.8191094E-01
       -2   -1    0    0    0  501  0.00000000000E+00  0.00000000000E+00  0.14538726173E+04  0.14538726173E+04  0.25500000920E-02 0.  1.
        2   -1    0    0  501    0  0.00000000000E+00  0.00000000000E+00 -0.17513554018E+04  0.17513554018E+04  0.25500000920E-02 0. -1.
    10030    2    1    2    0    0  0.00000000000E+00  0.00000000000E+00 -0.29748278457E+03  0.32052280191E+04  0.31913932142E+04 0.  0.
        4    1    3    3  502    0 -0.15925706417E+03  0.14244111993E+04  0.55568059563E+03  0.15372353803E+04  0.12699999809E+01 0.  1.
       -4    1    3    3    0  502  0.15925706417E+03 -0.14244111993E+04 -0.85316338020E+03  0.16679926389E+04  0.12699999809E+01 0. -1.
</event>
<event>
 5   0  0.7934375E-07  0.3237807E+04  0.7818609E-02  0.8178903E-01
       -3   -1    0    0    0  501  0.00000000000E+00  0.00000000000E+00  0.22398465947E+04  0.22398465970E+04  0.10100000352E+00 0. -1.
        3   -1    0    0  501    0  0.00000000000E+00  0.00000000000E+00 -0.11701021248E+04  0.11701021291E+04  0.10100000352E+00 0.  1.
    10030    2    1    2    0    0  0.00000000000E+00  0.00000000000E+00  0.10697444699E+04  0.34099487261E+04  0.32378074501E+04 0.  0.
        4    1    3    3  502    0 -0.12139178125E+04  0.10633171149E+04  0.67059553017E+03  0.17475524943E+04  0.12699999809E+01 0. -1.
       -4    1    3    3    0  502  0.12139178125E+04 -0.10633171149E+04  0.39914893976E+03  0.16623962318E+04  0.12699999809E+01 0.  1.
</event>
<event>
 5   0  0.2401139E-06  0.3225321E+04  0.7818609E-02  0.8182162E-01
        2   -1    0    0  501    0  0.00000000000E+00  0.00000000000E+00  0.21986591529E+04  0.21986591529E+04  0.25500000920E-02 0. -1.
       -2   -1    0    0    0  501  0.00000000000E+00  0.00000000000E+00 -0.11828451081E+04  0.11828451081E+04  0.25500000920E-02 0.  1.
    10030    2    1    2    0    0  0.00000000000E+00  0.00000000000E+00  0.10158140448E+04  0.33815042610E+04  0.32253205877E+04 0.  0.
        5    1    3    3  502    0 -0.31151387910E+03 -0.73620219499E+03 -0.96049207999E+03  0.12496406261E+04  0.46999998093E+01 0.  1.
       -5    1    3    3    0  502  0.31151387910E+03  0.73620219499E+03  0.19763061248E+04  0.21318636348E+04  0.46999998093E+01 0. -1.
</event>
<event>
 5   0  0.2404430E-06  0.3229795E+04  0.7818609E-02  0.8180993E-01
        2   -1    0    0  501    0  0.00000000000E+00  0.00000000000E+00  0.86270179082E+03  0.86270179083E+03  0.25500000920E-02 0.  1.
       -2   -1    0    0    0  501  0.00000000000E+00  0.00000000000E+00 -0.30229370189E+04  0.30229370189E+04  0.25500000920E-02 0. -1.
    10030    2    1    2    0    0  0.00000000000E+00  0.00000000000E+00 -0.21602352281E+04  0.38856388097E+04  0.32297945320E+04 0.  0.
        4    1    3    3  502    0 -0.46750052423E+03  0.13422751253E+04 -0.15788522982E+03  0.14301009093E+04  0.12699999809E+01 0.  1.
       -4    1    3    3    0  502  0.46750052423E+03 -0.13422751253E+04 -0.20023499983E+04  0.24555379004E+04  0.12699999809E+01 0. -1.
</event>
<event>
 5   0  0.2466076E-06  0.3183365E+04  0.7818609E-02  0.8193224E-01
       -2   -1    0    0    0  501  0.00000000000E+00  0.00000000000E+00  0.13751794580E+04  0.13751794580E+04  0.25500000920E-02 0. -1.
        2   -1    0    0  501    0  0.00000000000E+00  0.00000000000E+00 -0.18422710276E+04  0.18422710276E+04  0.25500000920E-02 0.  1.
    10030    2    1    2    0    0  0.00000000000E+00  0.00000000000E+00 -0.46709156962E+03  0.32174504855E+04  0.31833650580E+04 0.  0.
        3    1    3    3  502    0  0.15049959886E+04 -0.36291804669E+02 -0.75591943949E+03  0.16845605451E+04  0.10100000352E+00 0.  1.
       -3    1    3    3    0  502 -0.15049959886E+04  0.36291804669E+02  0.28882786987E+03  0.15328899404E+04  0.10100000352E+00 0. -1.
</event>
<event>
 5   0  0.2466076E-06  0.2839008E+04  0.7818609E-02  0.8291259E-01
        2   -1    0    0  501    0  0.00000000000E+00  0.00000000000E+00  0.10162606073E+04  0.10162606073E+04  0.25500000920E-02 0.  1.
       -2   -1    0    0    0  501  0.00000000000E+00  0.00000000000E+00 -0.19827506757E+04  0.19827506757E+04  0.25500000920E-02 0. -1.
    10030    2    1    2    0    0  0.00000000000E+00  0.00000000000E+00 -0.96649006840E+03  0.29990112830E+04  0.28390078590E+04 0.  0.
        3    1    3    3  502    0  0.38608767779E+03 -0.58344924734E+03 -0.17879721852E+04  0.19199794959E+04  0.10100000352E+00 0. -1.
       -3    1    3    3    0  502 -0.38608767779E+03  0.58344924734E+03  0.82148211685E+03  0.10790317871E+04  0.10100000352E+00 0.  1.
</event>
<event>
 5   0  0.2404430E-06  0.3236007E+04  0.7818609E-02  0.8179372E-01
        2   -1    0    0  501    0  0.00000000000E+00  0.00000000000E+00  0.13391482053E+04  0.13391482053E+04  0.25500000920E-02 0. -1.
       -2   -1    0    0    0  501  0.00000000000E+00  0.00000000000E+00 -0.19549258592E+04  0.19549258592E+04  0.25500000920E-02 0.  1.
    10030    2    1    2    0    0  0.00000000000E+00  0.00000000000E+00 -0.61577765382E+03  0.32940740645E+04  0.32360070802E+04 0.  0.
        4    1    3    3  502    0  0.16171242627E+03 -0.11198301612E+04 -0.14852603907E+04  0.18671289564E+04  0.12699999809E+01 0.  1.
       -4    1    3    3    0  502 -0.16171242627E+03  0.11198301612E+04  0.86948273691E+03  0.14269451081E+04  0.12699999809E+01 0. -1.
</event>
<event>
 5   0  0.2466076E-06  0.3090168E+04  0.7818609E-02  0.8218441E-01
       -2   -1    0    0    0  501  0.00000000000E+00  0.00000000000E+00  0.13514666965E+04  0.13514666965E+04  0.25500000920E-02 0. -1.
        2   -1    0    0  501    0  0.00000000000E+00  0.00000000000E+00 -0.17664400050E+04  0.17664400050E+04  0.25500000920E-02 0.  1.
    10030    2    1    2    0    0  0.00000000000E+00  0.00000000000E+00 -0.41497330845E+03  0.31179067015E+04  0.30901681754E+04 0.  0.
        3    1    3    3  502    0  0.14440524432E+04  0.52993725642E+03 -0.60702702113E+02  0.15394173517E+04  0.10100000352E+00 0. -1.
       -3    1    3    3    0  502 -0.14440524432E+04 -0.52993725642E+03 -0.35427060634E+03  0.15784893497E+04  0.10100000352E+00 0.  1.
</event>
<event>
 5   0  0.8512855E-07  0.3250005E+04  0.7818609E-02  0.8175734E-01
       -1   -1    0    0    0  501  0.00000000000E+00  0.00000000000E+00  0.14437807582E+04  0.14437807582E+04  0.50400001928E-02 0. -1.
        1   -1    0    0  501    0  0.00000000000E+00  0.00000000000E+00 -0.18289715399E+04  0.18289715399E+04  0.50400001928E-02 0.  1.
    10030    2    1    2    0    0  0.00000000000E+00  0.00000000000E+00 -0.38519078174E+03  0.32727522982E+04  0.32500054872E+04 0.  0.
        5    1    3    3  502    0 -0.86566630729E+03  0.11952132131E+04 -0.87757610577E+03  0.17169958334E+04  0.46999998093E+01 0.  1.
       -5    1    3    3    0  502  0.86566630729E+03 -0.11952132131E+04  0.49238532404E+03  0.15557564648E+04  0.46999998093E+01 0. -1.
</event>
<event>
 5   0  0.2337504E-06  0.3207936E+04  0.7818609E-02  0.8186724E-01
        2   -1    0    0  501    0  0.00000000000E+00  0.00000000000E+00  0.14782369473E+04  0.14782369473E+04  0.25500000920E-02 0. -1.
       -2   -1    0    0    0  501  0.00000000000E+00  0.00000000000E+00 -0.17403928902E+04  0.17403928902E+04  0.25500000920E-02 0.  1.
    10030    2    1    2    0    0  0.00000000000E+00  0.00000000000E+00 -0.26215594291E+03  0.32186298376E+04  0.32079358305E+04 0.  0.
        1    1    3    3  502    0  0.10090787772E+03  0.57357159543E+03 -0.16305654386E+04  0.17314474940E+04  0.50400001928E-02 0.  1.
       -1    1    3    3    0  502 -0.10090787772E+03 -0.57357159543E+03  0.13684094957E+04  0.14871823435E+04  0.50400001928E-02 0. -1.
</event>
<event>
 5   0  0.8545153E-07  0.3204198E+04  0.7818609E-02  0.8187709E-01
       -1   -1    0    0    0  501  0.00000000000E+00  0.00000000000E+00  0.14316773935E+04  0.14316773935E+04  0.50400001928E-02 0.  1.
        1   -1    0    0  501    0  0.00000000000E+00  0.00000000000E+00 -0.17928065634E+04  0.17928065634E+04  0.50400001928E-02 0. -1.
    10030    2    1    2    0    0  0.00000000000E+00  0.00000000000E+00 -0.36112916994E+03  0.32244839569E+04  0.32041976392E+04 0.  0.
        3    1    3    3  502    0  0.58427093237E+03 -0.16516755377E+03 -0.16725393031E+04  0.17793371164E+04  0.10100000352E+00 0. -1.
       -3    1    3    3    0  502 -0.58427093237E+03  0.16516755377E+03  0.13114101331E+04  0.14451468405E+04  0.10100000352E+00 0.  1.
</event>
<event>
 5   0  0.2404430E-06  0.3218107E+04  0.7818609E-02  0.8184051E-01
       -2   -1    0    0    0  501  0.00000000000E+00  0.00000000000E+00  0.10089964540E+04  0.10089964541E+04  0.25500000920E-02 0. -1.
        2   -1    0    0  501    0  0.00000000000E+00  0.00000000000E+00 -0.25659691207E+04  0.25659691207E+04  0.25500000920E-02 0.  1.
    10030    2    1    2    0    0  0.00000000000E+00  0.00000000000E+00 -0.15569726666E+04  0.35749655747E+04  0.32181073593E+04 0.  0.
        4    1    3    3  502    0 -0.27080675398E+03 -0.15848540057E+04 -0.70863600639E+03  0.17570615015E+04  0.12699999809E+01 0. -1.
       -4    1    3    3    0  502  0.27080675398E+03  0.15848540057E+04 -0.84833666022E+03  0.18179040732E+04  0.12699999809E+01 0.  1.
</event>
<event>
 5   0  0.2337504E-06  0.3162894E+04  0.7818609E-02  0.8198686E-01
        2   -1    0    0  501    0  0.00000000000E+00  0.00000000000E+00  0.20442693973E+04  0.20442693973E+04  0.25500000920E-02 0.  1.
       -2   -1    0    0    0  501  0.00000000000E+00  0.00000000000E+00 -0.12234072697E+04  0.12234072697E+04  0.25500000920E-02 0. -1.
    10030    2    1    2    0    0  0.00000000000E+00  0.00000000000E+00  0.82086212765E+03  0.32676766670E+04  0.31628936384E+04 0.  0.
        1    1    3    3  502    0  0.31563924511E+03  0.75597525082E+03  0.18079635677E+04  0.19849078001E+04  0.50400001928E-02 0.  1.
       -1    1    3    3    0  502 -0.31563924511E+03 -0.75597525082E+03 -0.98710144004E+03  0.12827688669E+04  0.50400001928E-02 0. -1.
</event>
<event>
 5   0  0.2404430E-06  0.3181232E+04  0.7818609E-02  0.8193791E-01
        2   -1    0    0  501    0  0.00000000000E+00  0.00000000000E+00  0.10756813418E+04  0.10756813418E+04  0.25500000920E-02 0. -1.
       -2   -1    0    0    0  501  0.00000000000E+00  0.00000000000E+00 -0.23520525665E+04  0.23520525665E+04  0.25500000920E-02 0.  1.
    10030    2    1    2    0    0  0.00000000000E+00  0.00000000000E+00 -0.12763712247E+04  0.34277339083E+04  0.31812318750E+04 0.  0.
        4    1    3    3  502    0  0.23969099190E+03 -0.11704737634E+04  0.49322473994E+03  0.12925683190E+04  0.12699999809E+01 0. -1.
       -4    1    3    3    0  502 -0.23969099190E+03  0.11704737634E+04 -0.17695959647E+04  0.21351655892E+04  0.12699999809E+01 0.  1.
</event>
<event>
 5   0  0.2337504E-06  0.3205244E+04  0.7818609E-02  0.8187434E-01
        2   -1    0    0  501    0  0.00000000000E+00  0.00000000000E+00  0.12810949973E+04  0.12810949973E+04  0.25500000920E-02 0.  1.
       -2   -1    0    0    0  501  0.00000000000E+00  0.00000000000E+00 -0.20048452059E+04  0.20048452059E+04  0.25500000920E-02 0. -1.
    10030    2    1    2    0    0  0.00000000000E+00  0.00000000000E+00 -0.72375020854E+03  0.32859402032E+04  0.32052439306E+04 0.  0.
        1    1    3    3  502    0  0.11431255168E+03 -0.12346306794E+04 -0.14028289149E+04  0.18722471094E+04  0.50400001928E-02 0. -1.
       -1    1    3    3    0  502 -0.11431255168E+03  0.12346306794E+04  0.67907870633E+03  0.14136930938E+04  0.50400001928E-02 0.  1.
</event>
<event>
 5   0  0.8383008E-07  0.3193902E+04  0.7818609E-02  0.8190430E-01
       -1   -1    0    0    0  501  0.00000000000E+00  0.00000000000E+00  0.20414047856E+04  0.20414047856E+04  0.50400001928E-02 0.  1.
        1   -1    0    0  501    0  0.00000000000E+00  0.00000000000E+00 -0.12492633822E+04  0.12492633822E+04  0.50400001928E-02 0. -1.
    10030    2    1    2    0    0  0.00000000000E+00  0.00000000000E+00  0.79214140334E+03  0.32906681678E+04  0.31939018438E+04 0.  0.
        4    1    3    3  502    0  0.44009678169E+03  0.82985507509E+03 -0.93453172735E+03  0.13250267111E+04  0.12699999809E+01 0. -1.
       -4    1    3    3    0  502 -0.44009678169E+03 -0.82985507509E+03  0.17266731307E+04  0.19656414566E+04  0.12699999809E+01 0.  1.
</event>
<event>
 5   0  0.8512855E-07  0.3167476E+04  0.7818609E-02  0.8197460E-01
        1   -1    0    0  501    0  0.00000000000E+00  0.00000000000E+00  0.12369728334E+04  0.12369728334E+04  0.50400001928E-02 0.  1.
       -1   -1    0    0    0  501  0.00000000000E+00  0.00000000000E+00 -0.20277125875E+04  0.20277125875E+04  0.50400001928E-02 0. -1.
    10030    2    1    2    0    0  0.00000000000E+00  0.00000000000E+00 -0.79073975404E+03  0.32646854209E+04  0.31674755783E+04 0.  0.
        5    1    3    3  502    0  0.15732795131E+04 -0.15650104739E+03 -0.30033215121E+03  0.16093236142E+04  0.46999998093E+01 0.  1.
       -5    1    3    3    0  502 -0.15732795131E+04  0.15650104739E+03 -0.49040760283E+03  0.16553618067E+04  0.46999998093E+01 0. -1.
</event>
<event>
 5   0  0.2404430E-06  0.3163183E+04  0.7818609E-02  0.8198609E-01
       -2   -1    0    0    0  501  0.00000000000E+00  0.00000000000E+00  0.21583462868E+04  0.21583462868E+04  0.25500000920E-02 0.  1.
        2   -1    0    0  501    0  0.00000000000E+00  0.00000000000E+00 -0.11589575410E+04  0.11589575410E+04  0.25500000920E-02 0. -1.
    10030    2    1    2    0    0  0.00000000000E+00  0.00000000000E+00  0.99938874573E+03  0.33173038278E+04  0.31631830204E+04 0.  0.
        4    1    3    3  502    0  0.12796214296E+04  0.60646446720E+03  0.12384304050E+04  0.18812074936E+04  0.12699999809E+01 0.  1.
       -4    1    3    3    0  502 -0.12796214296E+04 -0.60646446720E+03 -0.23904165930E+03  0.14360963341E+04  0.12699999809E+01 0. -1.
</event>
<event>
 5   0  0.2337504E-06  0.3361769E+04  0.7818609E-02  0.8147354E-01
       -2   -1    0    0    0  501  0.00000000000E+00  0.00000000000E+00  0.12308276734E+04  0.12308276734E+04  0.25500000920E-02 0. -1.
        2   -1    0    0  501    0  0.00000000000E+00  0.00000000000E+00 -0.22955065884E+04  0.22955065884E+04  0.25500000920E-02 0.  1.
    10030    2    1    2    0    0  0.00000000000E+00  0.00000000000E+00 -0.10646789150E+04  0.35263342619E+04  0.33617691971E+04 0.  0.
        1    1    3    3  502    0 -0.46125316809E+03  0.19659746342E+03  0.11505560602E+04  0.12550634627E+04  0.50400001928E-02 0. -1.
       -1    1    3    3    0  502  0.46125316809E+03 -0.19659746342E+03 -0.22152349752E+04  0.22712707992E+04  0.50400001928E-02 0.  1.
</event>
<event>
 5   0  0.2404430E-06  0.3198742E+04  0.7818609E-02  0.8189149E-01
       -2   -1    0    0    0  501  0.00000000000E+00  0.00000000000E+00  0.13157104386E+04  0.13157104387E+04  0.25500000920E-02 0. -1.
        2   -1    0    0  501    0  0.00000000000E+00  0.00000000000E+00 -0.19441878201E+04  0.19441878201E+04  0.25500000920E-02 0.  1.
    10030    2    1    2    0    0  0.00000000000E+00  0.00000000000E+00 -0.62847738141E+03  0.32598982587E+04  0.31987423838E+04 0.  0.
        4    1    3    3  502    0 -0.76948948118E+03 -0.57797411502E+02  0.11134487988E+04  0.13547045592E+04  0.12699999809E+01 0. -1.
       -4    1    3    3    0  502  0.76948948118E+03  0.57797411502E+02 -0.17419261802E+04  0.19051936995E+04  0.12699999809E+01 0.  1.
</event>
<event>
 5   0  0.2401139E-06  0.3194856E+04  0.7818609E-02  0.8190177E-01
       -2   -1    0    0    0  501  0.00000000000E+00  0.00000000000E+00  0.14198076856E+04  0.14198076856E+04  0.25500000920E-02 0.  1.
        2   -1    0    0  501    0  0.00000000000E+00  0.00000000000E+00 -0.17972691383E+04  0.17972691383E+04  0.25500000920E-02 0. -1.
    10030    2    1    2    0    0  0.00000000000E+00  0.00000000000E+00 -0.37746145269E+03  0.32170768240E+04  0.31948562007E+04 0.  0.
        5    1    3    3  502    0  0.96376755691E+03 -0.98712937484E+03  0.62215401092E+03  0.15133968448E+04  0.46999998093E+01 0.  1.
       -5    1    3    3    0  502 -0.96376755691E+03  0.98712937484E+03 -0.99961546361E+03  0.17036799792E+04  0.46999998093E+01 0. -1.
</event>
<event>
 5   0  0.2621528E-06  0.3176404E+04  0.7818609E-02  0.8195077E-01
       -2   -1    0    0    0  501  0.00000000000E+00  0.00000000000E+00  0.10909262960E+04  0.10909262960E+04  0.25500000920E-02 0.  1.
        2   -1    0    0  501    0  0.00000000000E+00  0.00000000000E+00 -0.23121503808E+04  0.23121503808E+04  0.25500000920E-02 0. -1.
    10030    2    1    2    0    0  0.00000000000E+00  0.00000000000E+00 -0.12212240848E+04  0.34030766769E+04  0.31764040365E+04 0.  0.
        2    1    3    3  502    0 -0.64212796029E+03  0.10850543236E+04 -0.16453022704E+04  0.20728460540E+04  0.25500000920E-02 0.  1.
       -2    1    3    3    0  502  0.64212796029E+03 -0.10850543236E+04  0.42407818555E+03  0.13302306229E+04  0.25500000920E-02 0. -1.
</event>
<event>
 5   0  0.8545153E-07  0.3228188E+04  0.7818609E-02  0.8181412E-01
        1   -1    0    0  501    0  0.00000000000E+00  0.00000000000E+00  0.19761248248E+04  0.19761248248E+04  0.50400001928E-02 0. -1.
       -1   -1    0    0    0  501  0.00000000000E+00  0.00000000000E+00 -0.13183881046E+04  0.13183881046E+04  0.50400001928E-02 0.  1.
    10030    2    1    2    0    0  0.00000000000E+00  0.00000000000E+00  0.65773672016E+03  0.32945129294E+04  0.32281880133E+04 0.  0.
        3    1    3    3  502    0  0.63660993790E+03  0.96391508727E+03  0.14793699459E+04  0.18769496412E+04  0.10100000352E+00 0. -1.
       -3    1    3    3    0  502 -0.63660993790E+03 -0.96391508727E+03 -0.82163322571E+03  0.14175632883E+04  0.10100000352E+00 0.  1.
</event>
<event>
 5   0  0.2337504E-06  0.3215236E+04  0.7818609E-02  0.8184805E-01
        2   -1    0    0  501    0  0.00000000000E+00  0.00000000000E+00  0.17717350715E+04  0.17717350715E+04  0.25500000920E-02 0. -1.
       -2   -1    0    0    0  501  0.00000000000E+00  0.00000000000E+00 -0.14587027699E+04  0.14587027699E+04  0.25500000920E-02 0.  1.
    10030    2    1    2    0    0  0.00000000000E+00  0.00000000000E+00  0.31303230164E+03  0.32304378414E+04  0.32152355163E+04 0.  0.
        1    1    3    3  502    0 -0.55551017011E+03 -0.89122057464E+03  0.13794685915E+04  0.17337241005E+04  0.50400001928E-02 0. -1.
       -1    1    3    3    0  502  0.55551017011E+03  0.89122057464E+03 -0.10664362899E+04  0.14967137409E+04  0.50400001928E-02 0.  1.
</event>
<event>
 5   0  0.8487944E-07  0.3245480E+04  0.7818609E-02  0.8176908E-01
        1   -1    0    0  501    0  0.00000000000E+00  0.00000000000E+00  0.20008230365E+04  0.20008230365E+04  0.50400001928E-02 0. -1.
       -1   -1    0    0    0  501  0.00000000000E+00  0.00000000000E+00 -0.13161011032E+04  0.13161011032E+04  0.50400001928E-02 0.  1.
    10030    2    1    2    0    0  0.00000000000E+00  0.00000000000E+00  0.68472193331E+03  0.33169241397E+04  0.32454801837E+04 0.  0.
        2    1    3    3  502    0 -0.80547978547E+03  0.78994866113E+02  0.17798246906E+04  0.19552017294E+04  0.25500000920E-02 0. -1.
       -2    1    3    3    0  502  0.80547978547E+03 -0.78994866113E+02 -0.10951027573E+04  0.13617224103E+04  0.25500000920E-02 0.  1.
</event>
<event>
 5   0  0.8383008E-07  0.3143305E+04  0.7818609E-02  0.8203953E-01
        1   -1    0    0  501    0  0.00000000000E+00  0.00000000000E+00  0.21758795649E+04  0.21758795649E+04  0.50400001928E-02 0.  1.
       -1   -1    0    0    0  501  0.00000000000E+00  0.00000000000E+00 -0.11352155002E+04  0.11352155002E+04  0.50400001928E-02 0. -1.
    10030    2    1    2    0    0  0.00000000000E+00  0.00000000000E+00  0.10406640647E+04  0.33110950651E+04  0.31433053995E+04 0.  0.
        4    1    3    3  502    0  0.11672353667E+04 -0.36297594680E+03  0.15609417483E+04  0.19826070448E+04  0.12699999809E+01 0.  1.
       -4    1    3    3    0  502 -0.11672353667E+04  0.36297594680E+03 -0.52027768360E+03  0.13284880204E+04  0.12699999809E+01 0. -1.
</event>
<event>
 5   0  0.2466076E-06  0.3192186E+04  0.7818609E-02  0.8190884E-01
        2   -1    0    0  501    0  0.00000000000E+00  0.00000000000E+00  0.10422538396E+04  0.10422538396E+04  0.25500000920E-02 0.  1.
       -2   -1    0    0    0  501  0.00000000000E+00  0.00000000000E+00 -0.24442338633E+04  0.24442338633E+04  0.25500000920E-02 0. -1.
    10030    2    1    2    0    0  0.00000000000E+00  0.00000000000E+00 -0.14019800237E+04  0.34864877029E+04  0.31921855391E+04 0.  0.
        3    1    3    3  502    0  0.10966983936E+04 -0.28345282113E+03 -0.19291234657E+04  0.22370986175E+04  0.10100000352E+00 0. -1.
       -3    1    3    3    0  502 -0.10966983936E+04  0.28345282113E+03  0.52714344198E+03  0.12493890855E+04  0.10100000352E+00 0.  1.
</event>
<event>
 5   0  0.2401139E-06  0.3014573E+04  0.7818609E-02  0.8239582E-01
        2   -1    0    0  501    0  0.00000000000E+00  0.00000000000E+00  0.24540037195E+04  0.24540037195E+04  0.25500000920E-02 0.  1.
       -2   -1    0    0    0  501  0.00000000000E+00  0.00000000000E+00 -0.92579819636E+03  0.92579819636E+03  0.25500000920E-02 0. -1.
    10030    2    1    2    0    0  0.00000000000E+00  0.00000000000E+00  0.15282055231E+04  0.33798019158E+04  0.30145727507E+04 0.  0.
        5    1    3    3  502    0  0.13038702513E+04  0.62218285425E+03  0.28226582242E+03  0.14720343817E+04  0.46999998093E+01 0. -1.
       -5    1    3    3    0  502 -0.13038702513E+04 -0.62218285425E+03  0.12459397007E+04  0.19077675341E+04  0.46999998093E+01 0.  1.
</event>
<event>
 5   0  0.2401139E-06  0.3207245E+04  0.7818609E-02  0.8186907E-01
       -2   -1    0    0    0  501  0.00000000000E+00  0.00000000000E+00  0.11836872013E+04  0.11836872013E+04  0.25500000920E-02 0.  1.
        2   -1    0    0  501    0  0.00000000000E+00  0.00000000000E+00 -0.21725371785E+04  0.21725371785E+04  0.25500000920E-02 0. -1.
    10030    2    1    2    0    0  0.00000000000E+00  0.00000000000E+00 -0.98884997718E+03  0.33562243798E+04  0.32072445823E+04 0.  0.
        5    1    3    3  502    0 -0.15043070744E+04  0.55516377939E+03 -0.47258029676E+03  0.16716760520E+04  0.46999998093E+01 0.  1.
       -5    1    3    3    0  502  0.15043070744E+04 -0.55516377939E+03 -0.51626968042E+03  0.16845483278E+04  0.46999998093E+01 0. -1.
</event>
<event>
 5   0  0.2337504E-06  0.3207051E+04  0.7818609E-02  0.8186958E-01
       -2   -1    0    0    0  501  0.00000000000E+00  0.00000000000E+00  0.15893101384E+04  0.15893101384E+04  0.25500000920E-02 0.  1.
        2   -1    0    0  501    0  0.00000000000E+00  0.00000000000E+00 -0.16178678433E+04  0.16178678433E+04  0.25500000920E-02 0. -1.
    10030    2    1    2    0    0  0.00000000000E+00  0.00000000000E+00 -0.28557704928E+02  0.32071779817E+04  0.32070508358E+04 0.  0.
        1    1    3    3  502    0  0.59428659831E+03 -0.12058363442E+04 -0.88842786825E+03  0.16113726841E+04  0.50400001928E-02 0. -1.
       -1    1    3    3    0  502 -0.59428659831E+03  0.12058363442E+04  0.85987016332E+03  0.15958052976E+04  0.50400001928E-02 0.  1.
</event>
<event>
 5   0  0.8383008E-07  0.3030089E+04  0.7818609E-02  0.8235191E-01
        1   -1    0    0  501    0  0.00000000000E+00  0.00000000000E+00  0.21157965340E+04  0.21157965340E+04  0.50400001928E-02 0.  1.
       -1   -1    0    0    0  501  0.00000000000E+00  0.00000000000E+00 -0.10848677601E+04  0.10848677601E+04  0.50400001928E-02 0. -1.
    10030    2    1    2    0    0  0.00000000000E+00  0.00000000000E+00  0.10309287739E+04  0.32006642941E+04  0.30300887424E+04 0.  0.
        4    1    3    3  502    0  0.13956918570E+04  0.58860442047E+03  0.54796856553E+03  0.16108016902E+04  0.12699999809E+01 0.  1.
       -4    1    3    3    0  502 -0.13956918570E+04 -0.58860442047E+03  0.48296020841E+03  0.15898626039E+04  0.12699999809E+01 0. -1.
</event>
<event>
 5   0  0.7934375E-07  0.3211073E+04  0.7818609E-02  0.8185899E-01
       -3   -1    0    0    0  501  0.00000000000E+00  0.00000000000E+00  0.14933349558E+04  0.14933349592E+04  0.10100000352E+00 0. -1.
        3   -1    0    0  501    0  0.00000000000E+00  0.00000000000E+00 -0.17261685637E+04  0.17261685667E+04  0.10100000352E+00 0.  1.
    10030    2    1    2    0    0  0.00000000000E+00  0.00000000000E+00 -0.23283360797E+03  0.32195035259E+04  0.32110732574E+04 0.  0.
        4    1    3    3  502    0  0.97193795233E+03 -0.12076933594E+04 -0.53531702058E+03  0.16400465112E+04  0.12699999809E+01 0.  1.
       -4    1    3    3    0  502 -0.97193795233E+03  0.12076933594E+04  0.30248341260E+03  0.15794570147E+04  0.12699999809E+01 0. -1.
</event>
<event>
 5   0  0.2401139E-06  0.3216608E+04  0.7818609E-02  0.8184445E-01
        2   -1    0    0  501    0  0.00000000000E+00  0.00000000000E+00  0.16934742283E+04  0.16934742283E+04  0.25500000920E-02 0.  1.
       -2   -1    0    0    0  501  0.00000000000E+00  0.00000000000E+00 -0.15274173636E+04  0.15274173636E+04  0.25500000920E-02 0. -1.
    10030    2    1    2    0    0  0.00000000000E+00  0.00000000000E+00  0.16605686465E+03  0.32208915919E+04  0.32166081148E+04 0.  0.
        5    1    3    3  502    0  0.29549951140E+03  0.26084440651E+03  0.16443546936E+04  0.16909418127E+04  0.46999998093E+01 0.  1.
       -5    1    3    3    0  502 -0.29549951140E+03 -0.26084440651E+03 -0.14782978290E+04  0.15299497792E+04  0.46999998093E+01 0. -1.
</event>
<event>
 5   0  0.2621528E-06  0.3201253E+04  0.7818609E-02  0.8188486E-01
        2   -1    0    0  501    0  0.00000000000E+00  0.00000000000E+00  0.13410126775E+04  0.13410126775E+04  0.25500000920E-02 0. -1.
       -2   -1    0    0    0  501  0.00000000000E+00  0.00000000000E+00 -0.19105002785E+04  0.19105002785E+04  0.25500000920E-02 0.  1.
    10030    2    1    2    0    0  0.00000000000E+00  0.00000000000E+00 -0.56948760099E+03  0.32515129560E+04  0.32012529384E+04 0.  0.
        2    1    3    3  502    0 -0.10032631009E+04 -0.11262814362E+04  0.25935146607E+03  0.15304606843E+04  0.25500000920E-02 0. -1.
       -2    1    3    3    0  502  0.10032631009E+04  0.11262814362E+04 -0.82883906706E+03  0.17210522718E+04  0.25500000920E-02 0.  1.
</event>
<event>
 5   0  0.2466076E-06  0.3183414E+04  0.7818609E-02  0.8193211E-01
       -2   -1    0    0    0  501  0.00000000000E+00  0.00000000000E+00  0.18397864235E+04  0.18397864235E+04  0.25500000920E-02 0. -1.
        2   -1    0    0  501    0  0.00000000000E+00  0.00000000000E+00 -0.13770787485E+04  0.13770787485E+04  0.25500000920E-02 0.  1.
    10030    2    1    2    0    0  0.00000000000E+00  0.00000000000E+00  0.46270767505E+03  0.32168651720E+04  0.31834137561E+04 0.  0.
        3    1    3    3  502    0 -0.88018249277E+03 -0.12957346204E+04 -0.54248963957E+02  0.15673520305E+04  0.10100000352E+00 0. -1.
       -3    1    3    3    0  502  0.88018249277E+03  0.12957346204E+04  0.51695663901E+03  0.16495131415E+04  0.10100000352E+00 0.  1.
</event>
<event>
 5   0  0.8681172E-07  0.3203903E+04  0.7818609E-02  0.8187787E-01
       -1   -1    0    0    0  501  0.00000000000E+00  0.00000000000E+00  0.20374369794E+04  0.20374369795E+04  0.50400001928E-02 0.  1.
        1   -1    0    0  501    0  0.00000000000E+00  0.00000000000E+00 -0.12595473535E+04  0.12595473535E+04  0.50400001928E-02 0. -1.
    10030    2    1    2    0    0  0.00000000000E+00  0.00000000000E+00  0.77788962591E+03  0.32969843330E+04  0.32039028421E+04 0.  0.
        1    1    3    3  502    0  0.36418348861E+03  0.89114202951E+03  0.17065679730E+04  0.19593718321E+04  0.50400001928E-02 0.  1.
       -1    1    3    3    0  502 -0.36418348861E+03 -0.89114202951E+03 -0.92867834707E+03  0.13376125009E+04  0.50400001928E-02 0. -1.
</event>
<event>
 5   0  0.2466076E-06  0.3205987E+04  0.7818609E-02  0.8187238E-01
       -2   -1    0    0    0  501  0.00000000000E+00  0.00000000000E+00  0.11974219928E+04  0.11974219928E+04  0.25500000920E-02 0. -1.
        2   -1    0    0  501    0  0.00000000000E+00  0.00000000000E+00 -0.21459337325E+04  0.21459337325E+04  0.25500000920E-02 0.  1.
    10030    2    1    2    0    0  0.00000000000E+00  0.00000000000E+00 -0.94851173974E+03  0.33433557253E+04  0.32059870533E+04 0.  0.
        3    1    3    3  502    0 -0.11661012797E+04 -0.83806460125E+03 -0.12171292281E+04  0.18824314167E+04  0.10100000352E+00 0.  1.
       -3    1    3    3    0  502  0.11661012797E+04  0.83806460125E+03  0.26861748836E+03  0.14609243087E+04  0.10100000352E+00 0. -1.
</event>
<event>
 5   0  0.2401139E-06  0.3164603E+04  0.7818609E-02  0.8198229E-01
        2   -1    0    0  501    0  0.00000000000E+00  0.00000000000E+00  0.97384559279E+03  0.97384559279E+03  0.25500000920E-02 0.  1.
       -2   -1    0    0    0  501  0.00000000000E+00  0.00000000000E+00 -0.25709181495E+04  0.25709181495E+04  0.25500000920E-02 0. -1.
    10030    2    1    2    0    0  0.00000000000E+00  0.00000000000E+00 -0.15970725567E+04  0.35447637423E+04  0.31646025402E+04 0.  0.
        5    1    3    3  502    0  0.52665214176E+03 -0.13297373539E+04 -0.40405463270E+02  0.14308104697E+04  0.46999998093E+01 0.  1.
       -5    1    3    3    0  502 -0.52665214176E+03  0.13297373539E+04 -0.15566670935E+04  0.21139532726E+04  0.46999998093E+01 0. -1.
</event>
<event>
 5   0  0.8681172E-07  0.3247786E+04  0.7818609E-02  0.8176310E-01
       -1   -1    0    0    0  501  0.00000000000E+00  0.00000000000E+00  0.22505955356E+04  0.22505955356E+04  0.50400001928E-02 0. -1.
        1   -1    0    0  501    0  0.00000000000E+00  0.00000000000E+00 -0.11717022411E+04  0.11717022411E+04  0.50400001928E-02 0.  1.
    10030    2    1    2    0    0  0.00000000000E+00  0.00000000000E+00  0.10788932946E+04  0.34222977767E+04  0.32477856043E+04 0.  0.
        1    1    3    3  502    0 -0.12380678173E+04 -0.75309648350E+03  0.13116692213E+04  0.19545951959E+04  0.50400001928E-02 0. -1.
       -1    1    3    3    0  502  0.12380678173E+04  0.75309648350E+03 -0.23277592677E+03  0.14677025808E+04  0.50400001928E-02 0.  1.
</event>
<event>
 5   0  0.8487944E-07  0.3177540E+04  0.7818609E-02  0.8194774E-01
        1   -1    0    0  501    0  0.00000000000E+00  0.00000000000E+00  0.27275607540E+04  0.27275607540E+04  0.50400001928E-02 0. -1.
       -1   -1    0    0    0  501  0.00000000000E+00  0.00000000000E+00 -0.92543852246E+03  0.92543852247E+03  0.50400001928E-02 0.  1.
    10030    2    1    2    0    0  0.00000000000E+00  0.00000000000E+00  0.18021222315E+04  0.36529992765E+04  0.31775397993E+04 0.  0.
        2    1    3    3  502    0 -0.45055271905E+03  0.12742870394E+04  0.18611131193E+04  0.23001189653E+04  0.25500000920E-02 0.  1.
       -2    1    3    3    0  502  0.45055271905E+03 -0.12742870394E+04 -0.58990887800E+02  0.13528803112E+04  0.25500000920E-02 0. -1.
</event>
<event>
 5   0  0.2404430E-06  0.3088949E+04  0.7818609E-02  0.8218777E-01
       -2   -1    0    0    0  501  0.00000000000E+00  0.00000000000E+00  0.11510730716E+04  0.11510730716E+04  0.25500000920E-02 0. -1.
        2   -1    0    0  501    0  0.00000000000E+00  0.00000000000E+00 -0.20723279133E+04  0.20723279133E+04  0.25500000920E-02 0.  1.
    10030    2    1    2    0    0  0.00000000000E+00  0.00000000000E+00 -0.92125484169E+03  0.32234009850E+04  0.30889485957E+04 0.  0.
        4    1    3    3  502    0 -0.10905565667E+04  0.93510090528E+03  0.13122063562E+03  0.14425490620E+04  0.12699999809E+01 0.  1.
       -4    1    3    3    0  502  0.10905565667E+04 -0.93510090528E+03 -0.10524754773E+04  0.17808519230E+04  0.12699999809E+01 0. -1.
</event>
<event>
 5   0  0.2404430E-06  0.3177930E+04  0.7818609E-02  0.8194670E-01
       -2   -1    0    0    0  501  0.00000000000E+00  0.00000000000E+00  0.93558712504E+03  0.93558712504E+03  0.25500000920E-02 0.  1.
        2   -1    0    0  501    0  0.00000000000E+00  0.00000000000E+00 -0.26986362692E+04  0.26986362692E+04  0.25500000920E-02 0. -1.
    10030    2    1    2    0    0  0.00000000000E+00  0.00000000000E+00 -0.17630491442E+04  0.36342233942E+04  0.31779297341E+04 0.  0.
        4    1    3    3  502    0  0.18935795608E+02 -0.14114547579E+04 -0.17158259803E+04  0.22218513689E+04  0.12699999809E+01 0. -1.
       -4    1    3    3    0  502 -0.18935795608E+02  0.14114547579E+04 -0.47223163835E+02  0.14123720253E+04  0.12699999809E+01 0.  1.
</event>
<event>
 5   0  0.2621528E-06  0.3154458E+04  0.7818609E-02  0.8200949E-01
       -2   -1    0    0    0  501  0.00000000000E+00  0.00000000000E+00  0.12887187228E+04  0.12887187228E+04  0.25500000920E-02 0. -1.
        2   -1    0    0  501    0  0.00000000000E+00  0.00000000000E+00 -0.19303291642E+04  0.19303291642E+04  0.25500000920E-02 0.  1.
    10030    2    1    2    0    0  0.00000000000E+00  0.00000000000E+00 -0.64161044146E+03  0.32190478870E+04  0.31544580105E+04 0.  0.
        2    1    3    3  502    0 -0.13763160869E+04  0.58214060665E+03  0.19402219123E+03  0.15069101724E+04  0.25500000920E-02 0.  1.
       -2    1    3    3    0  502  0.13763160869E+04 -0.58214060665E+03 -0.83563263268E+03  0.17121377146E+04  0.25500000920E-02 0. -1.
</event>
<event>
 5   0  0.2337504E-06  0.3192868E+04  0.7818609E-02  0.8190703E-01
        2   -1    0    0  501    0  0.00000000000E+00  0.00000000000E+00  0.19710454733E+04  0.19710454733E+04  0.25500000920E-02 0.  1.
       -2   -1    0    0    0  501  0.00000000000E+00  0.00000000000E+00 -0.12930198352E+04  0.12930198352E+04  0.25500000920E-02 0. -1.
    10030    2    1    2    0    0  0.00000000000E+00  0.00000000000E+00  0.67802563812E+03  0.32640653085E+04  0.31928676096E+04 0.  0.
        1    1    3    3  502    0 -0.12366230642E+04  0.85278142718E+03 -0.21352831665E+03  0.15172564409E+04  0.50400001928E-02 0. -1.
       -1    1    3    3    0  502  0.12366230642E+04 -0.85278142718E+03  0.89155395478E+03  0.17468088676E+04  0.50400001928E-02 0.  1.
</event>
<event>
 5   0  0.2404430E-06  0.3187688E+04  0.7818609E-02  0.8192076E-01
        2   -1    0    0  501    0  0.00000000000E+00  0.00000000000E+00  0.13448599648E+04  0.13448599648E+04  0.25500000920E-02 0.  1.
       -2   -1    0    0    0  501  0.00000000000E+00  0.00000000000E+00 -0.18889244843E+04  0.18889244843E+04  0.25500000920E-02 0. -1.
    10030    2    1    2    0    0  0.00000000000E+00  0.00000000000E+00 -0.54406451947E+03  0.32337844492E+04  0.31876881375E+04 0.  0.
        4    1    3    3  502    0  0.15151800433E+04  0.48557829376E+03 -0.17697312181E+03  0.16008991041E+04  0.12699999809E+01 0.  1.
       -4    1    3    3    0  502 -0.15151800433E+04 -0.48557829376E+03 -0.36709139766E+03  0.16328853450E+04  0.12699999809E+01 0. -1.
</event>
<event>
 5   0  0.2466076E-06  0.3198043E+04  0.7818609E-02  0.8189334E-01
        2   -1    0    0  501    0  0.00000000000E+00  0.00000000000E+00  0.21921169843E+04  0.21921169843E+04  0.25500000920E-02 0.  1.
       -2   -1    0    0    0  501  0.00000000000E+00  0.00000000000E+00 -0.11663930520E+04  0.11663930520E+04  0.25500000920E-02 0. -1.
    10030    2    1    2    0    0  0.00000000000E+00  0.00000000000E+00  0.10257239323E+04  0.33585100364E+04  0.31980431640E+04 0.  0.
        3    1    3    3  502    0  0.76549057310E+03  0.15074112492E+03  0.19786659594E+04  0.21269268190E+04  0.10100000352E+00 0.  1.
       -3    1    3    3    0  502 -0.76549057310E+03 -0.15074112492E+03 -0.95294202706E+03  0.12315832174E+04  0.10100000352E+00 0. -1.
</event>
<event>
 5   0  0.8545153E-07  0.3198598E+04  0.7818609E-02  0.8189188E-01
       -1   -1    0    0    0  501  0.00000000000E+00  0.00000000000E+00  0.12093740587E+04  0.12093740587E+04  0.50400001928E-02 0. -1.
        1   -1    0    0  501    0  0.00000000000E+00  0.00000000000E+00 -0.21149426387E+04  0.21149426388E+04  0.50400001928E-02 0.  1.
    10030    2    1    2    0    0  0.00000000000E+00  0.00000000000E+00 -0.90556858002E+03  0.33243166975E+04  0.31985976696E+04 0.  0.
        3    1    3    3  502    0  0.80143685849E+03 -0.10257948620E+04 -0.14183873764E+04  0.19251958074E+04  0.10100000352E+00 0.  1.
       -3    1    3    3    0  502 -0.80143685849E+03  0.10257948620E+04  0.51281879639E+03  0.13991208901E+04  0.10100000352E+00 0. -1.
</event>
<event>
 5   0  0.8545153E-07  0.3217897E+04  0.7818609E-02  0.8184107E-01
        1   -1    0    0  501    0  0.00000000000E+00  0.00000000000E+00  0.18198720539E+04  0.18198720539E+04  0.50400001928E-02 0.  1.
       -1   -1    0    0    0  501  0.00000000000E+00  0.00000000000E+00 -0.14224706565E+04  0.14224706565E+04  0.50400001928E-02 0. -1.
    10030    2    1    2    0    0  0.00000000000E+00  0.00000000000E+00  0.39740139739E+03  0.32423427103E+04  0.32178965771E+04 0.  0.
        3    1    3    3  502    0 -0.14712509920E+04  0.47171950529E+03  0.65112833940E+03  0.16766236601E+04  0.10100000352E+00 0.  1.
       -3    1    3    3    0  502  0.14712509920E+04 -0.47171950529E+03 -0.25372694201E+03  0.15657190502E+04  0.10100000352E+00 0. -1.
</event>
<event>
 5   0  0.8383008E-07  0.3221665E+04  0.7818609E-02  0.8183119E-01
        1   -1    0    0  501    0  0.00000000000E+00  0.00000000000E+00  0.27338526554E+04  0.27338526554E+04  0.50400001928E-02 0. -1.
       -1   -1    0    0    0  501  0.00000000000E+00  0.00000000000E+00 -0.94913012200E+03  0.94913012201E+03  0.50400001928E-02 0.  1.
    10030    2    1    2    0    0  0.00000000000E+00  0.00000000000E+00  0.17847225334E+04  0.36829827774E+04  0.32216653485E+04 0.  0.
        4    1    3    3  502    0 -0.10150236717E+04 -0.99311422351E+03  0.23060447268E+02  0.14202402305E+04  0.12699999809E+01 0.  1.
       -4    1    3    3    0  502  0.10150236717E+04  0.99311422351E+03  0.17616620861E+04  0.22627425469E+04  0.12699999809E+01 0. -1.
</event>
<event>
 5   0  0.8681172E-07  0.3196311E+04  0.7818609E-02  0.8189792E-01
       -1   -1    0    0    0  501  0.00000000000E+00  0.00000000000E+00  0.14360554213E+04  0.14360554213E+04  0.50400001928E-02 0.  1.
        1   -1    0    0  501    0  0.00000000000E+00  0.00000000000E+00 -0.17785535962E+04  0.17785535962E+04  0.50400001928E-02 0. -1.
    10030    2    1    2    0    0  0.00000000000E+00  0.00000000000E+00 -0.34249817485E+03  0.32146090175E+04  0.31963113327E+04 0.  0.
        1    1    3    3  502    0 -0.58770458240E+02  0.24036638414E+03  0.14166724392E+04  0.14381205670E+04  0.50400001928E-02 0.  1.
       -1    1    3    3    0  502  0.58770458240E+02 -0.24036638414E+03 -0.17591706140E+04  0.17764884505E+04  0.50400001928E-02 0. -1.
</event>
<event>
 5   0  0.2337504E-06  0.3229757E+04  0.7818609E-02  0.8181002E-01
        2   -1    0    0  501    0  0.00000000000E+00  0.00000000000E+00  0.12152286724E+04  0.12152286724E+04  0.25500000920E-02 0.  1.
       -2   -1    0    0    0  501  0.00000000000E+00  0.00000000000E+00 -0.21459605594E+04  0.21459605594E+04  0.25500000920E-02 0. -1.
    10030    2    1    2    0    0  0.00000000000E+00  0.00000000000E+00 -0.93073188703E+03  0.33611892318E+04  0.32297571436E+04 0.  0.
        1    1    3    3  502    0 -0.12011975593E+04  0.67131395831E+03  0.41418670091E+03  0.14370416244E+04  0.50400001928E-02 0.  1.
       -1    1    3    3    0  502  0.12011975593E+04 -0.67131395831E+03 -0.13449185879E+04  0.19241476074E+04  0.50400001928E-02 0. -1.
</event>
<event>
 5   0  0.2404430E-06  0.3193822E+04  0.7818609E-02  0.8190451E-01
        2   -1    0    0  501    0  0.00000000000E+00  0.00000000000E+00  0.20115024208E+04  0.20115024208E+04  0.25500000920E-02 0.  1.
       -2   -1    0    0    0  501  0.00000000000E+00  0.00000000000E+00 -0.12677708780E+04  0.12677708780E+04  0.25500000920E-02 0. -1.
    10030    2    1    2    0    0  0.00000000000E+00  0.00000000000E+00  0.74373154276E+03  0.32792732988E+04  0.31938216544E+04 0.  0.
        4    1    3    3  502    0  0.71113292494E+03  0.70371003596E+03 -0.90610628620E+03  0.13497955647E+04  0.12699999809E+01 0. -1.
       -4    1    3    3    0  502 -0.71113292494E+03 -0.70371003596E+03  0.16498378290E+04  0.19294777341E+04  0.12699999809E+01 0.  1.
</event>
<event>
 5   0  0.2621528E-06  0.3233471E+04  0.7818609E-02  0.8180033E-01
       -2   -1    0    0    0  501  0.00000000000E+00  0.00000000000E+00  0.83871447051E+03  0.83871447051E+03  0.25500000920E-02 0. -1.
        2   -1    0    0  501    0  0.00000000000E+00  0.00000000000E+00 -0.31164755490E+04  0.31164755490E+04  0.25500000920E-02 0.  1.
    10030    2    1    2    0    0  0.00000000000E+00  0.00000000000E+00 -0.22777610785E+04  0.39551900195E+04  0.32334706678E+04 0.  0.
        2    1    3    3  502    0 -0.12580876616E+04  0.21533039975E+03 -0.23526781928E+04  0.26766109960E+04  0.25500000920E-02 0.  1.
       -2    1    3    3    0  502  0.12580876616E+04 -0.21533039975E+03  0.74917114300E+02  0.12785790235E+04  0.25500000920E-02 0. -1.
</event>
<event>
 5   0  0.8512855E-07  0.3216870E+04  0.7818609E-02  0.8184376E-01
       -1   -1    0    0    0  501  0.00000000000E+00  0.00000000000E+00  0.19702778558E+04  0.19702778558E+04  0.50400001928E-02 0. -1.
        1   -1    0    0  501    0  0.00000000000E+00  0.00000000000E+00 -0.13130451163E+04  0.13130451163E+04  0.50400001928E-02 0.  1.
    10030    2    1    2    0    0  0.00000000000E+00  0.00000000000E+00  0.65723273949E+03  0.32833229721E+04  0.32168703525E+04 0.  0.
        5    1    3    3  502    0  0.10806005663E+04 -0.83699429230E+03 -0.53670898298E+03  0.14684466799E+04  0.46999998093E+01 0.  1.
       -5    1    3    3    0  502 -0.10806005663E+04  0.83699429230E+03  0.11939417225E+04  0.18148762922E+04  0.46999998093E+01 0. -1.
</event>
<event>
 5   0  0.8545153E-07  0.3196586E+04  0.7818609E-02  0.8189719E-01
       -1   -1    0    0    0  501  0.00000000000E+00  0.00000000000E+00  0.14685051519E+04  0.14685051519E+04  0.50400001928E-02 0.  1.
        1   -1    0    0  501    0  0.00000000000E+00  0.00000000000E+00 -0.17395520497E+04  0.17395520497E+04  0.50400001928E-02 0. -1.
    10030    2    1    2    0    0  0.00000000000E+00  0.00000000000E+00 -0.27104689786E+03  0.32080572016E+04  0.31965863961E+04 0.  0.
        3    1    3    3  502    0 -0.13702538214E+04 -0.56534391080E+03 -0.73544094661E+03  0.16547152833E+04  0.10100000352E+00 0. -1.
       -3    1    3    3    0  502  0.13702538214E+04  0.56534391080E+03  0.46439404875E+03  0.15533419183E+04  0.10100000352E+00 0.  1.
</event>
<event>
 5   0  0.2337504E-06  0.3236132E+04  0.7818609E-02  0.8179339E-01
       -2   -1    0    0    0  501  0.00000000000E+00  0.00000000000E+00  0.14573500459E+04  0.14573500459E+04  0.25500000920E-02 0.  1.
        2   -1    0    0  501    0  0.00000000000E+00  0.00000000000E+00 -0.17965058310E+04  0.17965058310E+04  0.25500000920E-02 0. -1.
    10030    2    1    2    0    0  0.00000000000E+00  0.00000000000E+00 -0.33915578504E+03  0.32538558769E+04  0.32361321699E+04 0.  0.
        1    1    3    3  502    0  0.11909174032E+04 -0.13495790093E+03 -0.12625640117E+04  0.17408520271E+04  0.50400001928E-02 0. -1.
       -1    1    3    3    0  502 -0.11909174032E+04  0.13495790093E+03  0.92340822670E+03  0.15130038498E+04  0.50400001928E-02 0.  1.
</event>
<event>
 5   0  0.8383008E-07  0.3161539E+04  0.7818609E-02  0.8199049E-01
       -1   -1    0    0    0  501  0.00000000000E+00  0.00000000000E+00  0.94280483832E+03  0.94280483833E+03  0.50400001928E-02 0.  1.
        1   -1    0    0  501    0  0.00000000000E+00  0.00000000000E+00 -0.26504236568E+04  0.26504236568E+04  0.50400001928E-02 0. -1.
    10030    2    1    2    0    0  0.00000000000E+00  0.00000000000E+00 -0.17076188185E+04  0.35932284951E+04  0.31615390222E+04 0.  0.
        4    1    3    3  502    0 -0.14135209917E+03 -0.14149277095E+04 -0.16386256488E+04  0.21695844000E+04  0.12699999809E+01 0. -1.
       -4    1    3    3    0  502  0.14135209917E+03  0.14149277095E+04 -0.68993169707E+02  0.14236440951E+04  0.12699999809E+01 0.  1.
</event>
<event>
 5   0  0.8545153E-07  0.3321593E+04  0.7818609E-02  0.8157423E-01
       -1   -1    0    0    0  501  0.00000000000E+00  0.00000000000E+00  0.17560088044E+04  0.17560088044E+04  0.50400001928E-02 0.  1.
        1   -1    0    0  501    0  0.00000000000E+00  0.00000000000E+00 -0.15707463018E+04  0.15707463018E+04  0.50400001928E-02 0. -1.
    10030    2    1    2    0    0  0.00000000000E+00  0.00000000000E+00  0.18526250262E+03  0.33267551063E+04  0.33215925912E+04 0.  0.
        3    1    3    3  502    0 -0.74425417625E+03  0.38151434636E+03 -0.13444426660E+04  0.15833488459E+04  0.10100000352E+00 0. -1.
       -3    1    3    3    0  502  0.74425417625E+03 -0.38151434636E+03  0.15297051687E+04  0.17434062603E+04  0.10100000352E+00 0.  1.
</event>
<event>
 5   0  0.8681172E-07  0.3120293E+04  0.7818609E-02  0.8210191E-01
        1   -1    0    0  501    0  0.00000000000E+00  0.00000000000E+00  0.17708999867E+04  0.17708999867E+04  0.50400001928E-02 0.  1.
       -1   -1    0    0    0  501  0.00000000000E+00  0.00000000000E+00 -0.13744745018E+04  0.13744745018E+04  0.50400001928E-02 0. -1.
    10030    2    1    2    0    0  0.00000000000E+00  0.00000000000E+00  0.39642548492E+03  0.31453744885E+04  0.31202928561E+04 0.  0.
        1    1    3    3  502    0 -0.63114675456E+03  0.88210030084E+03  0.13286590620E+04  0.17151624032E+04  0.50400001928E-02 0.  1.
       -1    1    3    3    0  502  0.63114675456E+03 -0.88210030084E+03 -0.93223357705E+03  0.14302120852E+04  0.50400001928E-02 0. -1.
</event>
<event>
 5   0  0.8512855E-07  0.3144802E+04  0.7818609E-02  0.8203549E-01
       -1   -1    0    0    0  501  0.00000000000E+00  0.00000000000E+00  0.31025208151E+04  0.31025208151E+04  0.50400001928E-02 0.  1.
        1   -1    0    0  501    0  0.00000000000E+00  0.00000000000E+00 -0.79691460817E+03  0.79691460819E+03  0.50400001928E-02 0. -1.
    10030    2    1    2    0    0  0.00000000000E+00  0.00000000000E+00  0.23056062070E+04  0.38994354233E+04  0.31448015262E+04 0.  0.
        5    1    3    3  502    0 -0.61953309621E+03 -0.10550498282E+04  0.23774632906E+04  0.26738184653E+04  0.46999998093E+01 0.  1.
       -5    1    3    3    0  502  0.61953309621E+03  0.10550498282E+04 -0.71857083665E+02  0.12256169580E+04  0.46999998093E+01 0. -1.
</event>
<event>
 5   0  0.8545153E-07  0.3383102E+04  0.7818609E-02  0.8142066E-01
        1   -1    0    0  501    0  0.00000000000E+00  0.00000000000E+00  0.18255491003E+04  0.18255491003E+04  0.50400001928E-02 0.  1.
       -1   -1    0    0    0  501  0.00000000000E+00  0.00000000000E+00 -0.15673889482E+04  0.15673889482E+04  0.50400001928E-02 0. -1.
    10030    2    1    2    0    0  0.00000000000E+00  0.00000000000E+00  0.25816015217E+03  0.33929380485E+04  0.33831024130E+04 0.  0.
        3    1    3    3  502    0  0.82716719660E+03  0.59568126853E+03 -0.12247718495E+04  0.15934578245E+04  0.10100000352E+00 0. -1.
       -3    1    3    3    0  502 -0.82716719660E+03 -0.59568126853E+03  0.14829320017E+04  0.17994802240E+04  0.10100000352E+00 0.  1.
</event>
<event>
 5   0  0.2404430E-06  0.3155629E+04  0.7818609E-02  0.8200635E-01
       -2   -1    0    0    0  501  0.00000000000E+00  0.00000000000E+00  0.13058377159E+04  0.13058377159E+04  0.25500000920E-02 0.  1.
        2   -1    0    0  501    0  0.00000000000E+00  0.00000000000E+00 -0.19064374672E+04  0.19064374672E+04  0.25500000920E-02 0. -1.
    10030    2    1    2    0    0  0.00000000000E+00  0.00000000000E+00 -0.60059975127E+03  0.32122751831E+04  0.31556285889E+04 0.  0.
        4    1    3    3  502    0  0.14434314190E+04  0.18194753617E+03  0.32131500574E+03  0.14899141294E+04  0.12699999809E+01 0.  1.
       -4    1    3    3    0  502 -0.14434314190E+04 -0.18194753617E+03 -0.92191475701E+03  0.17223610537E+04  0.12699999809E+01 0. -1.
</event>
<event>
 5   0  0.2337504E-06  0.3113811E+04  0.7818609E-02  0.8211958E-01
       -2   -1    0    0    0  501  0.00000000000E+00  0.00000000000E+00  0.10690596471E+04  0.10690596471E+04  0.25500000920E-02 0.  1.
        2   -1    0    0  501    0  0.00000000000E+00  0.00000000000E+00 -0.22673702647E+04  0.22673702647E+04  0.25500000920E-02 0. -1.
    10030    2    1    2    0    0  0.00000000000E+00  0.00000000000E+00 -0.11983106176E+04  0.33364299118E+04  0.31138105626E+04 0.  0.
        1    1    3    3  502    0 -0.37780504942E+01 -0.47954033415E+03 -0.21862624098E+04  0.22382396052E+04  0.50400001928E-02 0. -1.
       -1    1    3    3    0  502  0.37780504942E+01  0.47954033415E+03  0.98795179219E+03  0.10981903066E+04  0.50400001928E-02 0.  1.
</event>
<event>
 5   0  0.8383008E-07  0.3194499E+04  0.7818609E-02  0.8190271E-01
       -1   -1    0    0    0  501  0.00000000000E+00  0.00000000000E+00  0.11791454635E+04  0.11791454635E+04  0.50400001928E-02 0.  1.
        1   -1    0    0  501    0  0.00000000000E+00  0.00000000000E+00 -0.21636059559E+04  0.21636059559E+04  0.50400001928E-02 0. -1.
    10030    2    1    2    0    0  0.00000000000E+00  0.00000000000E+00 -0.98446049244E+03  0.33427514194E+04  0.31944991142E+04 0.  0.
        4    1    3    3  502    0  0.14109483592E+03 -0.92897645019E+03 -0.18437995648E+04  0.20694210412E+04  0.12699999809E+01 0. -1.
       -4    1    3    3    0  502 -0.14109483592E+03  0.92897645019E+03  0.85933907239E+03  0.12733303782E+04  0.12699999809E+01 0.  1.
</event>
<event>
 5   0  0.2401139E-06  0.3192407E+04  0.7818609E-02  0.8190825E-01
       -2   -1    0    0    0  501  0.00000000000E+00  0.00000000000E+00  0.19319757290E+04  0.19319757290E+04  0.25500000920E-02 0.  1.
        2   -1    0    0  501    0  0.00000000000E+00  0.00000000000E+00 -0.13187879790E+04  0.13187879790E+04  0.25500000920E-02 0. -1.
    10030    2    1    2    0    0  0.00000000000E+00  0.00000000000E+00  0.61318774997E+03  0.32507637081E+04  0.31924074723E+04 0.  0.
        5    1    3    3  502    0  0.35663549280E+03  0.11479094074E+04  0.13760102902E+04  0.18271046196E+04  0.46999998093E+01 0.  1.
       -5    1    3    3    0  502 -0.35663549280E+03 -0.11479094074E+04 -0.76282254025E+03  0.14236590885E+04  0.46999998093E+01 0. -1.
</event>
<event>
 5   0  0.8383008E-07  0.3159268E+04  0.7818609E-02  0.8199658E-01
        1   -1    0    0  501    0  0.00000000000E+00  0.00000000000E+00  0.72699234959E+03  0.72699234961E+03  0.50400001928E-02 0.  1.
       -1   -1    0    0    0  501  0.00000000000E+00  0.00000000000E+00 -0.34322826019E+04  0.34322826019E+04  0.50400001928E-02 0. -1.
    10030    2    1    2    0    0  0.00000000000E+00  0.00000000000E+00 -0.27052902523E+04  0.41592749515E+04  0.31592677590E+04 0.  0.
        4    1    3    3  502    0 -0.42035247479E+02  0.13902848927E+04 -0.36693100793E+03  0.14385058298E+04  0.12699999809E+01 0.  1.
       -4    1    3    3    0  502  0.42035247479E+02 -0.13902848927E+04 -0.23383592444E+04  0.27207691217E+04  0.12699999809E+01 0. -1.
</event>
<event>
 5   0  0.8681172E-07  0.3183172E+04  0.7818609E-02  0.8193276E-01
       -1   -1    0    0    0  501  0.00000000000E+00  0.00000000000E+00  0.11607488101E+04  0.11607488102E+04  0.50400001928E-02 0.  1.
        1   -1    0    0  501    0  0.00000000000E+00  0.00000000000E+00 -0.21823381831E+04  0.21823381831E+04  0.50400001928E-02 0. -1.
    10030    2    1    2    0    0  0.00000000000E+00  0.00000000000E+00 -0.10215893730E+04  0.33430869932E+04  0.31831722852E+04 0.  0.
        1    1    3    3  502    0  0.11013111750E+04 -0.18951997156E+03 -0.17010165686E+04  0.20352546500E+04  0.50400001928E-02 0. -1.
       -1    1    3    3    0  502 -0.11013111750E+04  0.18951997156E+03  0.67942719562E+03  0.13078323432E+04  0.50400001928E-02 0.  1.
</event>
<event>
 5   0  0.8681172E-07  0.3057549E+04  0.7818609E-02  0.8227486E-01
       -1   -1    0    0    0  501  0.00000000000E+00  0.00000000000E+00  0.14538467855E+04  0.14538467855E+04  0.50400001928E-02 0. -1.
        1   -1    0    0  501    0  0.00000000000E+00  0.00000000000E+00 -0.16075633118E+04  0.16075633118E+04  0.50400001928E-02 0.  1.
    10030    2    1    2    0    0  0.00000000000E+00  0.00000000000E+00 -0.15371652625E+03  0.30614100973E+04  0.30575485300E+04 0.  0.
        1    1    3    3  502    0 -0.13628396196E+04  0.68900112868E+03 -0.14833728368E+03  0.15342940832E+04  0.50400001928E-02 0.  1.
       -1    1    3    3    0  502  0.13628396196E+04 -0.68900112868E+03 -0.53792425645E+01  0.15271160141E+04  0.50400001928E-02 0. -1.
</event>
<event>
 5   0  0.8545153E-07  0.3204660E+04  0.7818609E-02  0.8187588E-01
       -1   -1    0    0    0  501  0.00000000000E+00  0.00000000000E+00  0.22184036663E+04  0.22184036663E+04  0.50400001928E-02 0.  1.
        1   -1    0    0  501    0  0.00000000000E+00  0.00000000000E+00 -0.11573463273E+04  0.11573463273E+04  0.50400001928E-02 0. -1.
    10030    2    1    2    0    0  0.00000000000E+00  0.00000000000E+00  0.10610573390E+04  0.33757499936E+04  0.32046599418E+04 0.  0.
        3    1    3    3  502    0  0.32665466862E+02 -0.57951263095E+02  0.22169483903E+04  0.22179462475E+04  0.10100000352E+00 0.  1.
       -3    1    3    3    0  502 -0.32665466862E+02  0.57951263095E+02 -0.11558910513E+04  0.11578037460E+04  0.10100000352E+00 0. -1.
</event>
<event>
 5   0  0.2401139E-06  0.3196110E+04  0.7818609E-02  0.8189845E-01
        2   -1    0    0  501    0  0.00000000000E+00  0.00000000000E+00  0.23809470909E+04  0.23809470909E+04  0.25500000920E-02 0.  1.
       -2   -1    0    0    0  501  0.00000000000E+00  0.00000000000E+00 -0.10725896403E+04  0.10725896403E+04  0.25500000920E-02 0. -1.
    10030    2    1    2    0    0  0.00000000000E+00  0.00000000000E+00  0.13083574506E+04  0.34535367312E+04  0.31961096250E+04 0.  0.
        5    1    3    3  502    0  0.30394970159E+02  0.72494186904E+03 -0.88433233279E+03  0.11439101068E+04  0.46999998093E+01 0. -1.
       -5    1    3    3    0  502 -0.30394970159E+02 -0.72494186904E+03  0.21926897834E+04  0.23096266243E+04  0.46999998093E+01 0.  1.
</event>
<event>
 5   0  0.2337504E-06  0.3218034E+04  0.7818609E-02  0.8184071E-01
        2   -1    0    0  501    0  0.00000000000E+00  0.00000000000E+00  0.18673712946E+04  0.18673712946E+04  0.25500000920E-02 0. -1.
       -2   -1    0    0    0  501  0.00000000000E+00  0.00000000000E+00 -0.13864068077E+04  0.13864068077E+04  0.25500000920E-02 0.  1.
    10030    2    1    2    0    0  0.00000000000E+00  0.00000000000E+00  0.48096448685E+03  0.32537781023E+04  0.32180343537E+04 0.  0.
        1    1    3    3  502    0 -0.37641700288E+03  0.14071069495E+04 -0.45070154363E+03  0.15247201739E+04  0.50400001928E-02 0.  1.
       -1    1    3    3    0  502  0.37641700288E+03 -0.14071069495E+04  0.93166603049E+03  0.17290579284E+04  0.50400001928E-02 0. -1.
</event>
<event>
 5   0  0.8383008E-07  0.3172046E+04  0.7818609E-02  0.8196239E-01
       -1   -1    0    0    0  501  0.00000000000E+00  0.00000000000E+00  0.12228614096E+04  0.12228614096E+04  0.50400001928E-02 0.  1.
        1   -1    0    0  501    0  0.00000000000E+00  0.00000000000E+00 -0.20570357580E+04  0.20570357581E+04  0.50400001928E-02 0. -1.
    10030    2    1    2    0    0  0.00000000000E+00  0.00000000000E+00 -0.83417434846E+03  0.32798971677E+04  0.31720464352E+04 0.  0.
        4    1    3    3  502    0 -0.95985563562E+02 -0.55845962201E+03 -0.19487965747E+04  0.20295073492E+04  0.12699999809E+01 0. -1.
       -4    1    3    3    0  502  0.95985563562E+02  0.55845962201E+03  0.11146222263E+04  0.12503898184E+04  0.12699999809E+01 0.  1.
</event>
<event>
 5   0  0.8545153E-07  0.3298967E+04  0.7818609E-02  0.8163158E-01
       -1   -1    0    0    0  501  0.00000000000E+00  0.00000000000E+00  0.14104087169E+04  0.14104087169E+04  0.50400001928E-02 0.  1.
        1   -1    0    0  501    0  0.00000000000E+00  0.00000000000E+00 -0.19290837467E+04  0.19290837467E+04  0.50400001928E-02 0. -1.
    10030    2    1    2    0    0  0.00000000000E+00  0.00000000000E+00 -0.51867502973E+03  0.33394924636E+04  0.32989674336E+04 0.  0.
        3    1    3    3  502    0  0.48661337311E+03  0.41652768070E+03 -0.17980456065E+04  0.19087314889E+04  0.10100000352E+00 0. -1.
       -3    1    3    3    0  502 -0.48661337311E+03 -0.41652768070E+03  0.12793705768E+04  0.14307609746E+04  0.10100000352E+00 0.  1.
</event>
<event>
 5   0  0.2401139E-06  0.2690350E+04  0.7818609E-02  0.8338143E-01
        2   -1    0    0  501    0  0.00000000000E+00  0.00000000000E+00  0.21242935799E+04  0.21242935799E+04  0.25500000920E-02 0. -1.
       -2   -1    0    0    0  501  0.00000000000E+00  0.00000000000E+00 -0.85181057286E+03  0.85181057287E+03  0.25500000920E-02 0.  1.
    10030    2    1    2    0    0  0.00000000000E+00  0.00000000000E+00  0.12724830070E+04  0.29761041528E+04  0.26903499633E+04 0.  0.
        5    1    3    3  502    0  0.20653747604E+03  0.95010020588E+03 -0.39207726412E+03  0.10483772228E+04  0.46999998093E+01 0.  1.
       -5    1    3    3    0  502 -0.20653747604E+03 -0.95010020588E+03  0.16645602711E+04  0.19277269300E+04  0.46999998093E+01 0. -1.
</event>
<event>
 5   0  0.8545153E-07  0.3210755E+04  0.7818609E-02  0.8185983E-01
        1   -1    0    0  501    0  0.00000000000E+00  0.00000000000E+00  0.14540566370E+04  0.14540566370E+04  0.50400001928E-02 0.  1.
       -1   -1    0    0    0  501  0.00000000000E+00  0.00000000000E+00 -0.17724458901E+04  0.17724458901E+04  0.50400001928E-02 0. -1.
    10030    2    1    2    0    0  0.00000000000E+00  0.00000000000E+00 -0.31838925306E+03  0.32265025271E+04  0.32107548709E+04 0.  0.
        3    1    3    3  502    0  0.43618373604E+03 -0.13857039814E+04 -0.84577688024E+03  0.16810027713E+04  0.10100000352E+00 0. -1.
       -3    1    3    3    0  502 -0.43618373604E+03  0.13857039814E+04  0.52738762718E+03  0.15454997558E+04  0.10100000352E+00 0.  1.
</event>
<event>
 5   0  0.8545153E-07  0.3114953E+04  0.7818609E-02  0.8211646E-01
       -1   -1    0    0    0  501  0.00000000000E+00  0.00000000000E+00  0.10615733089E+04  0.10615733089E+04  0.50400001928E-02 0.  1.
        1   -1    0    0  501    0  0.00000000000E+00  0.00000000000E+00 -0.22850365478E+04  0.22850365478E+04  0.50400001928E-02 0. -1.
    10030    2    1    2    0    0  0.00000000000E+00  0.00000000000E+00 -0.12234632389E+04  0.33466098567E+04  0.31149534886E+04 0.  0.
        3    1    3    3  502    0 -0.72748790451E+03 -0.13713001352E+03 -0.20839272515E+04  0.22115144339E+04  0.10100000352E+00 0. -1.
       -3    1    3    3    0  502  0.72748790451E+03  0.13713001352E+03  0.86046401255E+03  0.11350954228E+04  0.10100000352E+00 0.  1.
</event>
<event>
 5   0  0.2404430E-06  0.2953047E+04  0.7818609E-02  0.8257267E-01
       -2   -1    0    0    0  501  0.00000000000E+00  0.00000000000E+00  0.16664254313E+04  0.16664254314E+04  0.25500000920E-02 0.  1.
        2   -1    0    0  501    0  0.00000000000E+00  0.00000000000E+00 -0.13082621505E+04  0.13082621505E+04  0.25500000920E-02 0. -1.
    10030    2    1    2    0    0  0.00000000000E+00  0.00000000000E+00  0.35816328085E+03  0.29746875819E+04  0.29530467781E+04 0.  0.
        4    1    3    3  502    0  0.14498509048E+04  0.20206479783E+03  0.37342520687E+03  0.15107434682E+04  0.12699999809E+01 0. -1.
       -4    1    3    3    0  502 -0.14498509048E+04 -0.20206479783E+03 -0.15261926020E+02  0.14639441137E+04  0.12699999809E+01 0.  1.
</event>
<event>
 5   0  0.2621528E-06  0.3156560E+04  0.7818609E-02  0.8200385E-01
       -2   -1    0    0    0  501  0.00000000000E+00  0.00000000000E+00  0.11580647366E+04  0.11580647366E+04  0.25500000920E-02 0.  1.
        2   -1    0    0  501    0  0.00000000000E+00  0.00000000000E+00 -0.21509742979E+04  0.21509742979E+04  0.25500000920E-02 0. -1.
    10030    2    1    2    0    0  0.00000000000E+00  0.00000000000E+00 -0.99290956136E+03  0.33090390345E+04  0.31565598260E+04 0.  0.
        2    1    3    3  502    0 -0.13917550809E+04  0.39454634232E+03 -0.11580663390E+04  0.18530425432E+04  0.25500000920E-02 0. -1.
       -2    1    3    3    0  502  0.13917550809E+04 -0.39454634232E+03  0.16515677765E+03  0.14559964913E+04  0.25500000920E-02 0.  1.
</event>
<event>
 5   0  0.8487944E-07  0.3167310E+04  0.7818609E-02  0.8197504E-01
        1   -1    0    0  501    0  0.00000000000E+00  0.00000000000E+00  0.27539494928E+04  0.27539494928E+04  0.50400001928E-02 0.  1.
       -1   -1    0    0    0  501  0.00000000000E+00  0.00000000000E+00 -0.91067856162E+03  0.91067856164E+03  0.50400001928E-02 0. -1.
    10030    2    1    2    0    0  0.00000000000E+00  0.00000000000E+00  0.18432709311E+04  0.36646280544E+04  0.31673097499E+04 0.  0.
        2    1    3    3  502    0  0.86261297879E+03  0.99861503466E+01 -0.61495927157E+03  0.10594223804E+04  0.25500000920E-02 0. -1.
       -2    1    3    3    0  502 -0.86261297879E+03 -0.99861503466E+01  0.24582302027E+04  0.26052056740E+04  0.25500000920E-02 0.  1.
</event>
<event>
 5   0  0.2621528E-06  0.3311784E+04  0.7818609E-02  0.8159903E-01
       -2   -1    0    0    0  501  0.00000000000E+00  0.00000000000E+00  0.11468140842E+04  0.11468140842E+04  0.25500000920E-02 0.  1.
        2   -1    0    0  501    0  0.00000000000E+00  0.00000000000E+00 -0.23909525829E+04  0.23909525829E+04  0.25500000920E-02 0. -1.
    10030    2    1    2    0    0  0.00000000000E+00  0.00000000000E+00 -0.12441384987E+04  0.35377666672E+04  0.33117838679E+04 0.  0.
        2    1    3    3  502    0  0.12983951891E+04 -0.70975579165E+03 -0.14160170848E+04  0.20480936832E+04  0.25500000920E-02 0. -1.
       -2    1    3    3    0  502 -0.12983951891E+04  0.70975579165E+03  0.17187858611E+03  0.14896729840E+04  0.25500000920E-02 0.  1.
</event>
<event>
 5   0  0.8487944E-07  0.3130670E+04  0.7818609E-02  0.8207371E-01
       -1   -1    0    0    0  501  0.00000000000E+00  0.00000000000E+00  0.12554076625E+04  0.12554076625E+04  0.50400001928E-02 0.  1.
        1   -1    0    0  501    0  0.00000000000E+00  0.00000000000E+00 -0.19517755963E+04  0.19517755963E+04  0.50400001928E-02 0. -1.
    10030    2    1    2    0    0  0.00000000000E+00  0.00000000000E+00 -0.69636793387E+03  0.32071832588E+04  0.31306702408E+04 0.  0.
        2    1    3    3  502    0 -0.17112304499E+03 -0.96294083159E+03 -0.16002388327E+04  0.18754472702E+04  0.25500000920E-02 0. -1.
       -2    1    3    3    0  502  0.17112304499E+03  0.96294083159E+03  0.90387089881E+03  0.13317359886E+04  0.25500000920E-02 0.  1.
</event>
<event>
 5   0  0.8681172E-07  0.2978317E+04  0.7818609E-02  0.8249950E-01
       -1   -1    0    0    0  501  0.00000000000E+00  0.00000000000E+00  0.11985618506E+04  0.11985618507E+04  0.50400001928E-02 0. -1.
        1   -1    0    0  501    0  0.00000000000E+00  0.00000000000E+00 -0.18502119732E+04  0.18502119733E+04  0.50400001928E-02 0.  1.
    10030    2    1    2    0    0  0.00000000000E+00  0.00000000000E+00 -0.65165012260E+03  0.30487738239E+04  0.29783173013E+04 0.  0.
        1    1    3    3  502    0 -0.67080888019E+03  0.89685481207E+03  0.67885108547E+03  0.13096457170E+04  0.50400001928E-02 0. -1.
       -1    1    3    3    0  502  0.67080888019E+03 -0.89685481207E+03 -0.13305012081E+04  0.17391281070E+04  0.50400001928E-02 0.  1.
</event>
<event>
 5   0  0.2621528E-06  0.3191247E+04  0.7818609E-02  0.8191133E-01
        2   -1    0    0  501    0  0.00000000000E+00  0.00000000000E+00  0.16843918206E+04  0.16843918206E+04  0.25500000920E-02 0.  1.
       -2   -1    0    0    0  501  0.00000000000E+00  0.00000000000E+00 -0.15115330416E+04  0.15115330416E+04  0.25500000920E-02 0. -1.
    10030    2    1    2    0    0  0.00000000000E+00  0.00000000000E+00  0.17285877903E+03  0.31959248622E+04  0.31912467105E+04 0.  0.
        2    1    3    3  502    0  0.84988921334E+03  0.26898659119E+03 -0.12388958199E+04  0.15262792384E+04  0.25500000920E-02 0. -1.
       -2    1    3    3    0  502 -0.84988921334E+03 -0.26898659119E+03  0.14117545989E+04  0.16696456237E+04  0.25500000920E-02 0.  1.
</event>
<event>
 5   0  0.2404430E-06  0.3174860E+04  0.7818609E-02  0.8195488E-01
        2   -1    0    0  501    0  0.00000000000E+00  0.00000000000E+00  0.23700771034E+04  0.23700771034E+04  0.25500000920E-02 0.  1.
       -2   -1    0    0    0  501  0.00000000000E+00  0.00000000000E+00 -0.10632290344E+04  0.10632290344E+04  0.25500000920E-02 0. -1.
    10030    2    1    2    0    0  0.00000000000E+00  0.00000000000E+00  0.13068480690E+04  0.34333061378E+04  0.31748604947E+04 0.  0.
        4    1    3    3  502    0  0.13057877910E+04 -0.15294829737E+03 -0.30863536174E+03  0.13504563437E+04  0.12699999809E+01 0.  1.
       -4    1    3    3    0  502 -0.13057877910E+04  0.15294829737E+03  0.16154834307E+04  0.20828497941E+04  0.12699999809E+01 0. -1.
</event>
<event>
 5   0  0.2337504E-06  0.3187231E+04  0.7818609E-02  0.8192198E-01
       -2   -1    0    0    0  501  0.00000000000E+00  0.00000000000E+00  0.19853189453E+04  0.19853189453E+04  0.25500000920E-02 0.  1.
        2   -1    0    0  501    0  0.00000000000E+00  0.00000000000E+00 -0.12791953753E+04  0.12791953753E+04  0.25500000920E-02 0. -1.
    10030    2    1    2    0    0  0.00000000000E+00  0.00000000000E+00  0.70612357004E+03  0.32645143206E+04  0.31872312833E+04 0.  0.
        1    1    3    3  502    0 -0.27307931508E+03  0.22789480328E+03  0.19441449472E+04  0.19764128945E+04  0.50400001928E-02 0.  1.
       -1    1    3    3    0  502  0.27307931508E+03 -0.22789480328E+03 -0.12380213772E+04  0.12881014261E+04  0.50400001928E-02 0. -1.
</event>
<event>
 5   0  0.2337504E-06  0.3171683E+04  0.7818609E-02  0.8196336E-01
        2   -1    0    0  501    0  0.00000000000E+00  0.00000000000E+00  0.17218031767E+04  0.17218031767E+04  0.25500000920E-02 0. -1.
       -2   -1    0    0    0  501  0.00000000000E+00  0.00000000000E+00 -0.14606159855E+04  0.14606159855E+04  0.25500000920E-02 0.  1.
    10030    2    1    2    0    0  0.00000000000E+00  0.00000000000E+00  0.26118719125E+03  0.31824191622E+04  0.31716829878E+04 0.  0.
        1    1    3    3  502    0 -0.65028608938E+03  0.12381432260E+04 -0.61961543902E+03  0.15296384993E+04  0.50400001928E-02 0.  1.
       -1    1    3    3    0  502  0.65028608938E+03 -0.12381432260E+04  0.88080263027E+03  0.16527806629E+04  0.50400001928E-02 0. -1.
</event>
<event>
 5   0  0.8487944E-07  0.3217749E+04  0.7818609E-02  0.8184145E-01
       -1   -1    0    0    0  501  0.00000000000E+00  0.00000000000E+00  0.10625974825E+04  0.10625974825E+04  0.50400001928E-02 0.  1.
        1   -1    0    0  501    0  0.00000000000E+00  0.00000000000E+00 -0.24359910031E+04  0.24359910031E+04  0.50400001928E-02 0. -1.
    10030    2    1    2    0    0  0.00000000000E+00  0.00000000000E+00 -0.13733935206E+04  0.34985884857E+04  0.32177494666E+04 0.  0.
        2    1    3    3  502    0 -0.12462626832E+04  0.90398174195E+03 -0.11944966510E+04  0.19486343717E+04  0.25500000920E-02 0. -1.
       -2    1    3    3    0  502  0.12462626832E+04 -0.90398174195E+03 -0.17889686959E+03  0.15499541139E+04  0.25500000920E-02 0.  1.
</event>
<event>
 5   0  0.8487944E-07  0.3167481E+04  0.7818609E-02  0.8197459E-01
       -1   -1    0    0    0  501  0.00000000000E+00  0.00000000000E+00  0.14296414966E+04  0.14296414966E+04  0.50400001928E-02 0.  1.
        1   -1    0    0  501    0  0.00000000000E+00  0.00000000000E+00 -0.17544495372E+04  0.17544495372E+04  0.50400001928E-02 0. -1.
    10030    2    1    2    0    0  0.00000000000E+00  0.00000000000E+00 -0.32480804066E+03  0.31840910338E+04  0.31674809310E+04 0.  0.
        2    1    3    3  502    0 -0.11212039186E+04 -0.40851851695E+03 -0.12091368197E+04  0.16988223728E+04  0.25500000920E-02 0. -1.
       -2    1    3    3    0  502  0.11212039186E+04  0.40851851695E+03  0.88432877900E+03  0.14852686609E+04  0.25500000920E-02 0.  1.
</event>
<event>
 5   0  0.2337504E-06  0.3136360E+04  0.7818609E-02  0.8205829E-01
        2   -1    0    0  501    0  0.00000000000E+00  0.00000000000E+00  0.23163342038E+04  0.23163342038E+04  0.25500000920E-02 0. -1.
       -2   -1    0    0    0  501  0.00000000000E+00  0.00000000000E+00 -0.10616726571E+04  0.10616726571E+04  0.25500000920E-02 0.  1.
    10030    2    1    2    0    0  0.00000000000E+00  0.00000000000E+00  0.12546615466E+04  0.33780068609E+04  0.31363601126E+04 0.  0.
        1    1    3    3  502    0 -0.74913666393E+03  0.65986760838E+02  0.21094461682E+04  0.22394917125E+04  0.50400001928E-02 0. -1.
       -1    1    3    3    0  502  0.74913666393E+03 -0.65986760838E+02 -0.85478462156E+03  0.11385151484E+04  0.50400001928E-02 0.  1.
</event>
<event>
 5   0  0.2401139E-06  0.3189473E+04  0.7818609E-02  0.8191603E-01
       -2   -1    0    0    0  501  0.00000000000E+00  0.00000000000E+00  0.15407892387E+04  0.15407892387E+04  0.25500000920E-02 0. -1.
        2   -1    0    0  501    0  0.00000000000E+00  0.00000000000E+00 -0.16505721653E+04  0.16505721653E+04  0.25500000920E-02 0.  1.
    10030    2    1    2    0    0  0.00000000000E+00  0.00000000000E+00 -0.10978292667E+03  0.31913614040E+04  0.31894725771E+04 0.  0.
        5    1    3    3  502    0  0.46967335258E+03  0.29419179474E+03  0.14413267780E+04  0.15442107502E+04  0.46999998093E+01 0. -1.
       -5    1    3    3    0  502 -0.46967335258E+03 -0.29419179474E+03 -0.15511097047E+04  0.16471506537E+04  0.46999998093E+01 0.  1.
</event>
<event>
 5   0  0.2404430E-06  0.3192322E+04  0.7818609E-02  0.8190848E-01
       -2   -1    0    0    0  501  0.00000000000E+00  0.00000000000E+00  0.14895511995E+04  0.14895511995E+04  0.25500000920E-02 0. -1.
        2   -1    0    0  501    0  0.00000000000E+00  0.00000000000E+00 -0.17104011682E+04  0.17104011682E+04  0.25500000920E-02 0.  1.
    10030    2    1    2    0    0  0.00000000000E+00  0.00000000000E+00 -0.22084996870E+03  0.31999523678E+04  0.31923221090E+04 0.  0.
        4    1    3    3  502    0 -0.63249330870E+03 -0.14240700684E+04  0.23638630980E+03  0.15760404328E+04  0.12699999809E+01 0. -1.
       -4    1    3    3    0  502  0.63249330870E+03  0.14240700684E+04 -0.45723627851E+03  0.16239119350E+04  0.12699999809E+01 0.  1.
</event>
<event>
 5   0  0.8681172E-07  0.3199757E+04  0.7818609E-02  0.8188881E-01
       -1   -1    0    0    0  501  0.00000000000E+00  0.00000000000E+00  0.10066131809E+04  0.10066131809E+04  0.50400001928E-02 0. -1.
        1   -1    0    0  501    0  0.00000000000E+00  0.00000000000E+00 -0.25427955856E+04  0.25427955856E+04  0.50400001928E-02 0.  1.
    10030    2    1    2    0    0  0.00000000000E+00  0.00000000000E+00 -0.15361824047E+04  0.35494087665E+04  0.31997572113E+04 0.  0.
        1    1    3    3  502    0  0.96974676666E+02  0.23072077748E+03 -0.25209467275E+04  0.25333394104E+04  0.50400001928E-02 0.  1.
       -1    1    3    3    0  502 -0.96974676666E+02 -0.23072077748E+03  0.98476432278E+03  0.10160693562E+04  0.50400001928E-02 0. -1.
</event>
<event>
 5   0  0.2466076E-06  0.3216954E+04  0.7818609E-02  0.8184354E-01
        2   -1    0    0  501    0  0.00000000000E+00  0.00000000000E+00  0.25051718412E+04  0.25051718412E+04  0.25500000920E-02 0. -1.
       -2   -1    0    0    0  501  0.00000000000E+00  0.00000000000E+00 -0.10327430883E+04  0.10327430883E+04  0.25500000920E-02 0.  1.
    10030    2    1    2    0    0  0.00000000000E+00  0.00000000000E+00  0.14724287529E+04  0.35379149295E+04  0.32169544007E+04 0.  0.
        3    1    3    3  502    0  0.12270275382E+04 -0.10393139086E+04  0.77778681445E+03  0.17862593090E+04  0.10100000352E+00 0.  1.
       -3    1    3    3    0  502 -0.12270275382E+04  0.10393139086E+04  0.69464193848E+03  0.17516556205E+04  0.10100000352E+00 0. -1.
</event>
<event>
 5   0  0.2337504E-06  0.3157979E+04  0.7818609E-02  0.8200004E-01
        2   -1    0    0  501    0  0.00000000000E+00  0.00000000000E+00  0.13245544006E+04  0.13245544006E+04  0.25500000920E-02 0.  1.
       -2   -1    0    0    0  501  0.00000000000E+00  0.00000000000E+00 -0.18822993189E+04  0.18822993189E+04  0.25500000920E-02 0. -1.
    10030    2    1    2    0    0  0.00000000000E+00  0.00000000000E+00 -0.55774491831E+03  0.32068537196E+04  0.31579790032E+04 0.  0.
        1    1    3    3  502    0  0.48393309835E+03 -0.13729895038E+04  0.34207832989E+03  0.14954293715E+04  0.50400001928E-02 0.  1.
       -1    1    3    3    0  502 -0.48393309835E+03  0.13729895038E+04 -0.89982324820E+03  0.17114243481E+04  0.50400001928E-02 0. -1.
</event>
<event>
 5   0  0.8383008E-07  0.3195921E+04  0.7818609E-02  0.8189895E-01
        1   -1    0    0  501    0  0.00000000000E+00  0.00000000000E+00  0.21759505954E+04  0.21759505955E+04  0.50400001928E-02 0.  1.
       -1   -1    0    0    0  501  0.00000000000E+00  0.00000000000E+00 -0.11734996096E+04  0.11734996096E+04  0.50400001928E-02 0. -1.
    10030    2    1    2    0    0  0.00000000000E+00  0.00000000000E+00  0.10024509859E+04  0.33494502050E+04  0.31959206337E+04 0.  0.
        4    1    3    3  502    0 -0.13657558370E+04  0.60544886333E+03 -0.93132172179E+02  0.14968408556E+04  0.12699999809E+01 0.  1.
       -4    1    3    3    0  502  0.13657558370E+04 -0.60544886333E+03  0.10955831581E+04  0.18526093494E+04  0.12699999809E+01 0. -1.
</event>
<event>
 5   0  0.2466076E-06  0.3180043E+04  0.7818609E-02  0.8194108E-01
       -2   -1    0    0    0  501  0.00000000000E+00  0.00000000000E+00  0.13322952958E+04  0.13322952958E+04  0.25500000920E-02 0. -1.
        2   -1    0    0  501    0  0.00000000000E+00  0.00000000000E+00 -0.18976037892E+04  0.18976037892E+04  0.25500000920E-02 0.  1.
    10030    2    1    2    0    0  0.00000000000E+00  0.00000000000E+00 -0.56530849345E+03  0.32298990850E+04  0.31800431454E+04 0.  0.
        3    1    3    3  502    0  0.76080069874E+03 -0.13859961534E+04 -0.45371546191E+03  0.16448892884E+04  0.10100000352E+00 0.  1.
       -3    1    3    3    0  502 -0.76080069874E+03  0.13859961534E+04 -0.11159303154E+03  0.15850097966E+04  0.10100000352E+00 0. -1.
</event>
<event>
 5   0  0.2337504E-06  0.3079013E+04  0.7818609E-02  0.8221521E-01
       -2   -1    0    0    0  501  0.00000000000E+00  0.00000000000E+00  0.11416053517E+04  0.11416053517E+04  0.25500000920E-02 0.  1.
        2   -1    0    0  501    0  0.00000000000E+00  0.00000000000E+00 -0.20760942732E+04  0.20760942732E+04  0.25500000920E-02 0. -1.
    10030    2    1    2    0    0  0.00000000000E+00  0.00000000000E+00 -0.93448892150E+03  0.32176996250E+04  0.30790130452E+04 0.  0.
        1    1    3    3  502    0 -0.50641702200E+03  0.13073135289E+04  0.19744981131E+03  0.14158083525E+04  0.50400001928E-02 0.  1.
       -1    1    3    3    0  502  0.50641702200E+03 -0.13073135289E+04 -0.11319387328E+04  0.18018912725E+04  0.50400001928E-02 0. -1.
</event>
<event>
 5   0  0.8487944E-07  0.3224480E+04  0.7818609E-02  0.8182382E-01
        1   -1    0    0  501    0  0.00000000000E+00  0.00000000000E+00  0.13415173926E+04  0.13415173926E+04  0.50400001928E-02 0.  1.
       -1   -1    0    0    0  501  0.00000000000E+00  0.00000000000E+00 -0.19375953976E+04  0.19375953976E+04  0.50400001928E-02 0. -1.
    10030    2    1    2    0    0  0.00000000000E+00  0.00000000000E+00 -0.59607800498E+03  0.32791127902E+04  0.32244800671E+04 0.  0.
        2    1    3    3  502    0 -0.74113448062E+03  0.34393900988E+03  0.11153815291E+04  0.13826244307E+04  0.25500000920E-02 0.  1.
       -2    1    3    3    0  502  0.74113448062E+03 -0.34393900988E+03 -0.17114595341E+04  0.18964883595E+04  0.25500000920E-02 0. -1.
</event>
<event>
 5   0  0.2401139E-06  0.3126420E+04  0.7818609E-02  0.8208524E-01
        2   -1    0    0  501    0  0.00000000000E+00  0.00000000000E+00  0.18634926107E+04  0.18634926107E+04  0.25500000920E-02 0. -1.
       -2   -1    0    0    0  501  0.00000000000E+00  0.00000000000E+00 -0.13113150348E+04  0.13113150348E+04  0.25500000920E-02 0.  1.
    10030    2    1    2    0    0  0.00000000000E+00  0.00000000000E+00  0.55217757588E+03  0.31748076456E+04  0.31264202390E+04 0.  0.
        5    1    3    3  502    0 -0.74637069792E+03 -0.50010707833E+03  0.15751165895E+04  0.18133368879E+04  0.46999998093E+01 0. -1.
       -5    1    3    3    0  502  0.74637069792E+03  0.50010707833E+03 -0.10229390136E+04  0.13614707577E+04  0.46999998093E+01 0.  1.
</event>
<event>
 5   0  0.8681172E-07  0.3180708E+04  0.7818609E-02  0.8193931E-01
        1   -1    0    0  501    0  0.00000000000E+00  0.00000000000E+00  0.11372655399E+04  0.11372655399E+04  0.50400001928E-02 0.  1.
       -1   -1    0    0    0  501  0.00000000000E+00  0.00000000000E+00 -0.22239541256E+04  0.22239541256E+04  0.50400001928E-02 0. -1.
    10030    2    1    2    0    0  0.00000000000E+00  0.00000000000E+00 -0.10866885857E+04  0.33612196656E+04  0.31807083422E+04 0.  0.
        1    1    3    3  502    0 -0.55664365952E+02  0.11273052869E+04  0.64064740186E+03  0.12978231100E+04  0.50400001928E-02 0.  1.
       -1    1    3    3    0  502  0.55664365952E+02 -0.11273052869E+04 -0.17273359876E+04  0.20633965555E+04  0.50400001928E-02 0. -1.
</event>
<event>
 5   0  0.2337504E-06  0.3213378E+04  0.7818609E-02  0.8185293E-01
        2   -1    0    0  501    0  0.00000000000E+00  0.00000000000E+00  0.21031642893E+04  0.21031642893E+04  0.25500000920E-02 0.  1.
       -2   -1    0    0    0  501  0.00000000000E+00  0.00000000000E+00 -0.12274118394E+04  0.12274118395E+04  0.25500000920E-02 0. -1.
    10030    2    1    2    0    0  0.00000000000E+00  0.00000000000E+00  0.87575244980E+03  0.33305761287E+04  0.32133775060E+04 0.  0.
        1    1    3    3  502    0  0.23520849963E+03 -0.61565434758E+03  0.19566157306E+04  0.20646303377E+04  0.50400001928E-02 0.  1.
       -1    1    3    3    0  502 -0.23520849963E+03  0.61565434758E+03 -0.10808632808E+04  0.12659457910E+04  0.50400001928E-02 0. -1.
</event>
<event>
 5   0  0.2621528E-06  0.3187995E+04  0.7818609E-02  0.8191995E-01
        2   -1    0    0  501    0  0.00000000000E+00  0.00000000000E+00  0.14667824302E+04  0.14667824302E+04  0.25500000920E-02 0. -1.
       -2   -1    0    0    0  501  0.00000000000E+00  0.00000000000E+00 -0.17322464514E+04  0.17322464514E+04  0.25500000920E-02 0.  1.
    10030    2    1    2    0    0  0.00000000000E+00  0.00000000000E+00 -0.26546402113E+03  0.31990288816E+04  0.31879953950E+04 0.  0.
        2    1    3    3  502    0  0.14345102483E+04  0.68213721252E+03 -0.26622562435E+03  0.16105920999E+04  0.25500000920E-02 0.  1.
       -2    1    3    3    0  502 -0.14345102483E+04 -0.68213721252E+03  0.76160322088E+00  0.15884367817E+04  0.25500000920E-02 0. -1.
</event>
<event>
 5   0  0.8512855E-07  0.3233149E+04  0.7818609E-02  0.8180117E-01
        1   -1    0    0  501    0  0.00000000000E+00  0.00000000000E+00  0.77447202592E+03  0.77447202594E+03  0.50400001928E-02 0.  1.
       -1   -1    0    0    0  501  0.00000000000E+00  0.00000000000E+00 -0.33743164853E+04  0.33743164853E+04  0.50400001928E-02 0. -1.
    10030    2    1    2    0    0  0.00000000000E+00  0.00000000000E+00 -0.25998444593E+04  0.41487885112E+04  0.32331493776E+04 0.  0.
        5    1    3    3  502    0  0.12848236950E+04 -0.72011006174E+03 -0.44491844363E+03  0.15386048680E+04  0.46999998093E+01 0.  1.
       -5    1    3    3    0  502 -0.12848236950E+04  0.72011006174E+03 -0.21549260157E+04  0.26101836432E+04  0.46999998093E+01 0. -1.
</event>
<event>
 5   0  0.8545153E-07  0.3201950E+04  0.7818609E-02  0.8188302E-01
       -1   -1    0    0    0  501  0.00000000000E+00  0.00000000000E+00  0.13168077699E+04  0.13168077699E+04  0.50400001928E-02 0. -1.
        1   -1    0    0  501    0  0.00000000000E+00  0.00000000000E+00 -0.19464651298E+04  0.19464651298E+04  0.50400001928E-02 0.  1.
    10030    2    1    2    0    0  0.00000000000E+00  0.00000000000E+00 -0.62965735987E+03  0.32632728997E+04  0.32019496603E+04 0.  0.
        3    1    3    3  502    0 -0.14289888675E+04 -0.65658186539E+03 -0.90636493728E+01  0.15726382576E+04  0.10100000352E+00 0. -1.
       -3    1    3    3    0  502  0.14289888675E+04  0.65658186539E+03 -0.62059371049E+03  0.16906346421E+04  0.10100000352E+00 0.  1.
</event>
<event>
 5   0  0.2466076E-06  0.2941311E+04  0.7818609E-02  0.8260691E-01
       -2   -1    0    0    0  501  0.00000000000E+00  0.00000000000E+00  0.13544428555E+04  0.13544428555E+04  0.25500000920E-02 0. -1.
        2   -1    0    0  501    0  0.00000000000E+00  0.00000000000E+00 -0.15968391104E+04  0.15968391104E+04  0.25500000920E-02 0.  1.
    10030    2    1    2    0    0  0.00000000000E+00  0.00000000000E+00 -0.24239625486E+03  0.29512819659E+04  0.29413108128E+04 0.  0.
        3    1    3    3  502    0  0.66330721862E+03  0.97561828400E+03 -0.10022521805E+04  0.15480041815E+04  0.10100000352E+00 0.  1.
       -3    1    3    3    0  502 -0.66330721862E+03 -0.97561828400E+03  0.75985592561E+03  0.14032777844E+04  0.10100000352E+00 0. -1.
</event>
<event>
 5   0  0.2401139E-06  0.3285776E+04  0.7818609E-02  0.8166524E-01
        2   -1    0    0  501    0  0.00000000000E+00  0.00000000000E+00  0.17723915674E+04  0.17723915674E+04  0.25500000920E-02 0. -1.
       -2   -1    0    0    0  501  0.00000000000E+00  0.00000000000E+00 -0.15228467106E+04  0.15228467106E+04  0.25500000920E-02 0.  1.
    10030    2    1    2    0    0  0.00000000000E+00  0.00000000000E+00  0.24954485684E+03  0.32952382780E+04  0.32857758100E+04 0.  0.
        5    1    3    3  502    0  0.71940272359E+02  0.36910859903E+03 -0.14790961341E+04  0.15261598948E+04  0.46999998093E+01 0.  1.
       -5    1    3    3    0  502 -0.71940272359E+02 -0.36910859903E+03  0.17286409909E+04  0.17690783832E+04  0.46999998093E+01 0. -1.
</event>
<event>
 5   0  0.8512855E-07  0.3212403E+04  0.7818609E-02  0.8185549E-01
        1   -1    0    0  501    0  0.00000000000E+00  0.00000000000E+00  0.26639142432E+04  0.26639142432E+04  0.50400001928E-02 0. -1.
       -1   -1    0    0    0  501  0.00000000000E+00  0.00000000000E+00 -0.96845598889E+03  0.96845598890E+03  0.50400001928E-02 0.  1.
    10030    2    1    2    0    0  0.00000000000E+00  0.00000000000E+00  0.16954582543E+04  0.36323702321E+04  0.32124032765E+04 0.  0.
        5    1    3    3  502    0 -0.28312786131E+03  0.15544148882E+04  0.52099898935E+03  0.16636793764E+04  0.46999998093E+01 0.  1.
       -5    1    3    3    0  502  0.28312786131E+03 -0.15544148882E+04  0.11744592650E+04  0.19686908558E+04  0.46999998093E+01 0. -1.
</event>
<event>
 5   0  0.2337504E-06  0.3224136E+04  0.7818609E-02  0.8182472E-01
        2   -1    0    0  501    0  0.00000000000E+00  0.00000000000E+00  0.18396555344E+04  0.18396555344E+04  0.25500000920E-02 0.  1.
       -2   -1    0    0    0  501  0.00000000000E+00  0.00000000000E+00 -0.14126359884E+04  0.14126359884E+04  0.25500000920E-02 0. -1.
    10030    2    1    2    0    0  0.00000000000E+00  0.00000000000E+00  0.42701954602E+03  0.32522915228E+04  0.32241362342E+04 0.  0.
        1    1    3    3  502    0  0.70072693177E+03 -0.13882783461E+04  0.64198803166E+03  0.16824041227E+04  0.50400001928E-02 0.  1.
       -1    1    3    3    0  502 -0.70072693177E+03  0.13882783461E+04 -0.21496848564E+03  0.15698874001E+04  0.50400001928E-02 0. -1.
</event>
<event>
 5   0  0.8681172E-07  0.3061295E+04  0.7818609E-02  0.8226441E-01
        1   -1    0    0  501    0  0.00000000000E+00  0.00000000000E+00  0.14917510987E+04  0.14917510987E+04  0.50400001928E-02 0.  1.
       -1   -1    0    0    0  501  0.00000000000E+00  0.00000000000E+00 -0.15705577534E+04  0.15705577534E+04  0.50400001928E-02 0. -1.
    10030    2    1    2    0    0  0.00000000000E+00  0.00000000000E+00 -0.78806654711E+02  0.30623088522E+04  0.30612946636E+04 0.  0.
        1    1    3    3  502    0 -0.71932663573E+03  0.57587411753E+03  0.11832206529E+04  0.14996909420E+04  0.50400001928E-02 0.  1.
       -1    1    3    3    0  502  0.71932663573E+03 -0.57587411753E+03 -0.12620273076E+04  0.15626179102E+04  0.50400001928E-02 0. -1.
</event>
<event>
 5   0  0.2466076E-06  0.3217635E+04  0.7818609E-02  0.8184175E-01
       -2   -1    0    0    0  501  0.00000000000E+00  0.00000000000E+00  0.11743376439E+04  0.11743376439E+04  0.25500000920E-02 0.  1.
        2   -1    0    0  501    0  0.00000000000E+00  0.00000000000E+00 -0.22040456708E+04  0.22040456708E+04  0.25500000920E-02 0. -1.
    10030    2    1    2    0    0  0.00000000000E+00  0.00000000000E+00 -0.10297080269E+04  0.33783833147E+04  0.32176350322E+04 0.  0.
        3    1    3    3  502    0  0.67774958251E+03 -0.50380911505E+03 -0.19526171069E+04  0.21274119717E+04  0.10100000352E+00 0. -1.
       -3    1    3    3    0  502 -0.67774958251E+03  0.50380911505E+03  0.92290907995E+03  0.12509713430E+04  0.10100000352E+00 0.  1.
</event>
<event>
 5   0  0.2404430E-06  0.3218496E+04  0.7818609E-02  0.8183949E-01
       -2   -1    0    0    0  501  0.00000000000E+00  0.00000000000E+00  0.11327309421E+04  0.11327309421E+04  0.25500000920E-02 0.  1.
        2   -1    0    0  501    0  0.00000000000E+00  0.00000000000E+00 -0.22862268353E+04  0.22862268353E+04  0.25500000920E-02 0. -1.
    10030    2    1    2    0    0  0.00000000000E+00  0.00000000000E+00 -0.11534958933E+04  0.34189577774E+04  0.32184964670E+04 0.  0.
        4    1    3    3  502    0  0.16003275355E+04  0.14205781747E+03 -0.47910086263E+03  0.16765344894E+04  0.12699999809E+01 0. -1.
       -4    1    3    3    0  502 -0.16003275355E+04 -0.14205781747E+03 -0.67439503065E+03  0.17424232881E+04  0.12699999809E+01 0.  1.
</event>
<event>
 5   0  0.2621528E-06  0.3411314E+04  0.7818609E-02  0.8135135E-01
       -2   -1    0    0    0  501  0.00000000000E+00  0.00000000000E+00  0.18144224550E+04  0.18144224550E+04  0.25500000920E-02 0. -1.
        2   -1    0    0  501    0  0.00000000000E+00  0.00000000000E+00 -0.16034118501E+04  0.16034118501E+04  0.25500000920E-02 0.  1.
    10030    2    1    2    0    0  0.00000000000E+00  0.00000000000E+00  0.21101060492E+03  0.34178343051E+04  0.34113143892E+04 0.  0.
        2    1    3    3  502    0  0.12514141891E+04 -0.47899764459E+03 -0.95187438717E+03  0.16436365368E+04  0.25500000920E-02 0.  1.
       -2    1    3    3    0  502 -0.12514141891E+04  0.47899764459E+03  0.11628849921E+04  0.17741977683E+04  0.25500000920E-02 0. -1.
</event>
<event>
 5   0  0.2404430E-06  0.3245442E+04  0.7818609E-02  0.8176918E-01
        2   -1    0    0  501    0  0.00000000000E+00  0.00000000000E+00  0.17117518128E+04  0.17117518128E+04  0.25500000920E-02 0. -1.
       -2   -1    0    0    0  501  0.00000000000E+00  0.00000000000E+00 -0.15383207904E+04  0.15383207904E+04  0.25500000920E-02 0.  1.
    10030    2    1    2    0    0  0.00000000000E+00  0.00000000000E+00  0.17343102241E+03  0.32500726032E+04  0.32454419740E+04 0.  0.
        4    1    3    3  502    0  0.11655357450E+04  0.48119345115E+03 -0.93611394754E+03  0.15704558721E+04  0.12699999809E+01 0.  1.
       -4    1    3    3    0  502 -0.11655357450E+04 -0.48119345115E+03  0.11095449700E+04  0.16796167312E+04  0.12699999809E+01 0. -1.
</event>
<event>
 5   0  0.2337504E-06  0.3105118E+04  0.7818609E-02  0.8214335E-01
        2   -1    0    0  501    0  0.00000000000E+00  0.00000000000E+00  0.18162609025E+04  0.18162609025E+04  0.25500000920E-02 0.  1.
       -2   -1    0    0    0  501  0.00000000000E+00  0.00000000000E+00 -0.13271441327E+04  0.13271441327E+04  0.25500000920E-02 0. -1.
    10030    2    1    2    0    0  0.00000000000E+00  0.00000000000E+00  0.48911676984E+03  0.31434050352E+04  0.31051183553E+04 0.  0.
        1    1    3    3  502    0 -0.13968119493E+04 -0.63617625924E+03  0.48118424885E+03  0.16085217238E+04  0.50400001928E-02 0.  1.
       -1    1    3    3    0  502  0.13968119493E+04  0.63617625924E+03  0.79325209856E+01  0.15348833114E+04  0.50400001928E-02 0. -1.
</event>
<event>
 5   0  0.8512855E-07  0.3191002E+04  0.7818609E-02  0.8191198E-01
       -1   -1    0    0    0  501  0.00000000000E+00  0.00000000000E+00  0.19534983627E+04  0.19534983627E+04  0.50400001928E-02 0.  1.
        1   -1    0    0  501    0  0.00000000000E+00  0.00000000000E+00 -0.13031098289E+04  0.13031098289E+04  0.50400001928E-02 0. -1.
    10030    2    1    2    0    0  0.00000000000E+00  0.00000000000E+00  0.65038853387E+03  0.32566081916E+04  0.31910016717E+04 0.  0.
        5    1    3    3  502    0 -0.12367962749E+04 -0.10020574760E+04  0.21425506225E+03  0.16061480419E+04  0.46999998093E+01 0.  1.
       -5    1    3    3    0  502  0.12367962749E+04  0.10020574760E+04  0.43613347162E+03  0.16504601497E+04  0.46999998093E+01 0. -1.
</event>
<event>
 5   0  0.8681172E-07  0.3113210E+04  0.7818609E-02  0.8212122E-01
       -1   -1    0    0    0  501  0.00000000000E+00  0.00000000000E+00  0.11635668625E+04  0.11635668625E+04  0.50400001928E-02 0. -1.
        1   -1    0    0  501    0  0.00000000000E+00  0.00000000000E+00 -0.20824057964E+04  0.20824057964E+04  0.50400001928E-02 0.  1.
    10030    2    1    2    0    0  0.00000000000E+00  0.00000000000E+00 -0.91883893396E+03  0.32459726589E+04  0.31132095201E+04 0.  0.
        1    1    3    3  502    0 -0.90560299477E+03 -0.48010256042E+03 -0.16808741444E+04  0.19687440519E+04  0.50400001928E-02 0.  1.
       -1    1    3    3    0  502  0.90560299477E+03  0.48010256042E+03  0.76203521039E+03  0.12772286070E+04  0.50400001928E-02 0. -1.
</event>
<event>
 5   0  0.2337504E-06  0.3148896E+04  0.7818609E-02  0.8202446E-01
       -2   -1    0    0    0  501  0.00000000000E+00  0.00000000000E+00  0.17133558546E+04  0.17133558546E+04  0.25500000920E-02 0. -1.
        2   -1    0    0  501    0  0.00000000000E+00  0.00000000000E+00 -0.14468014564E+04  0.14468014564E+04  0.25500000920E-02 0.  1.
    10030    2    1    2    0    0  0.00000000000E+00  0.00000000000E+00  0.26655439819E+03  0.31601573111E+04  0.31488955180E+04 0.  0.
        1    1    3    3  502    0  0.14950632935E+04 -0.50040985965E+01  0.62864810765E+03  0.16218624281E+04  0.50400001928E-02 0. -1.
       -1    1    3    3    0  502 -0.14950632935E+04  0.50040985965E+01 -0.36209370946E+03  0.15382948829E+04  0.50400001928E-02 0.  1.
</event>
<event>
 5   0  0.8487944E-07  0.3175732E+04  0.7818609E-02  0.8195256E-01
        1   -1    0    0  501    0  0.00000000000E+00  0.00000000000E+00  0.18056330484E+04  0.18056330485E+04  0.50400001928E-02 0.  1.
       -1   -1    0    0    0  501  0.00000000000E+00  0.00000000000E+00 -0.13963629494E+04  0.13963629494E+04  0.50400001928E-02 0. -1.
    10030    2    1    2    0    0  0.00000000000E+00  0.00000000000E+00  0.40927009909E+03  0.32019959978E+04  0.31757324125E+04 0.  0.
        2    1    3    3  502    0 -0.65066138236E+03  0.10199797615E+04 -0.83226676173E+03  0.14684641334E+04  0.25500000920E-02 0. -1.
       -2    1    3    3    0  502  0.65066138236E+03 -0.10199797615E+04  0.12415368608E+04  0.17335318645E+04  0.25500000920E-02 0.  1.
</event>
<event>
 5   0  0.8545153E-07  0.3233715E+04  0.7818609E-02  0.8179969E-01
       -1   -1    0    0    0  501  0.00000000000E+00  0.00000000000E+00  0.11912197121E+04  0.11912197121E+04  0.50400001928E-02 0. -1.
        1   -1    0    0  501    0  0.00000000000E+00  0.00000000000E+00 -0.21945812433E+04  0.21945812433E+04  0.50400001928E-02 0.  1.
    10030    2    1    2    0    0  0.00000000000E+00  0.00000000000E+00 -0.10033615312E+04  0.33858009553E+04  0.32337151617E+04 0.  0.
        3    1    3    3  502    0 -0.11998259617E+04  0.30770659438E+03 -0.15897688298E+04  0.20153487611E+04  0.10100000352E+00 0.  1.
       -3    1    3    3    0  502  0.11998259617E+04 -0.30770659438E+03  0.58640729853E+03  0.13704521942E+04  0.10100000352E+00 0. -1.
</event>
<event>
 5   0  0.8383008E-07  0.3108794E+04  0.7818609E-02  0.8213329E-01
        1   -1    0    0  501    0  0.00000000000E+00  0.00000000000E+00  0.24336723361E+04  0.24336723361E+04  0.50400001928E-02 0.  1.
       -1   -1    0    0    0  501  0.00000000000E+00  0.00000000000E+00 -0.99280005187E+03  0.99280005189E+03  0.50400001928E-02 0. -1.
    10030    2    1    2    0    0  0.00000000000E+00  0.00000000000E+00  0.14408722842E+04  0.34264723880E+04  0.31087939922E+04 0.  0.
        4    1    3    3  502    0 -0.13815347008E+04  0.71164427543E+03  0.68433713077E+03  0.16980561315E+04  0.12699999809E+01 0.  1.
       -4    1    3    3    0  502  0.13815347008E+04 -0.71164427543E+03  0.75653515347E+03  0.17284162565E+04  0.12699999809E+01 0. -1.
</event>
<event>
 5   0  0.2337504E-06  0.3166579E+04  0.7818609E-02  0.8197700E-01
        2   -1    0    0  501    0  0.00000000000E+00  0.00000000000E+00  0.19727609166E+04  0.19727609166E+04  0.25500000920E-02 0. -1.
       -2   -1    0    0    0  501  0.00000000000E+00  0.00000000000E+00 -0.12707091466E+04  0.12707091466E+04  0.25500000920E-02 0.  1.
    10030    2    1    2    0    0  0.00000000000E+00  0.00000000000E+00  0.70205177003E+03  0.32434700631E+04  0.31665788104E+04 0.  0.
        1    1    3    3  502    0  0.10875121870E+04 -0.10312105010E+03  0.15249303428E+04  0.18758276196E+04  0.50400001928E-02 0. -1.
       -1    1    3    3    0  502 -0.10875121870E+04  0.10312105010E+03 -0.82287857279E+03  0.13676424436E+04  0.50400001928E-02 0.  1.
</event>
<event>
 5   0  0.8487944E-07  0.3305177E+04  0.7818609E-02  0.8161579E-01
       -1   -1    0    0    0  501  0.00000000000E+00  0.00000000000E+00  0.10414693176E+04  0.10414693176E+04  0.50400001928E-02 0. -1.
        1   -1    0    0  501    0  0.00000000000E+00  0.00000000000E+00 -0.26223041210E+04  0.26223041210E+04  0.50400001928E-02 0.  1.
    10030    2    1    2    0    0  0.00000000000E+00  0.00000000000E+00 -0.15808348033E+04  0.36637734386E+04  0.33051773226E+04 0.  0.
        2    1    3    3  502    0 -0.89784958090E+03  0.86735730063E+03  0.40993851106E+03  0.13139604788E+04  0.25500000920E-02 0.  1.
       -2    1    3    3    0  502  0.89784958090E+03 -0.86735730063E+03 -0.19907733144E+04  0.23498129598E+04  0.25500000920E-02 0. -1.
</event>
<event>
 5   0  0.8512855E-07  0.2867308E+04  0.7818609E-02  0.8282671E-01
       -1   -1    0    0    0  501  0.00000000000E+00  0.00000000000E+00  0.11220730468E+04  0.11220730468E+04  0.50400001928E-02 0. -1.
        1   -1    0    0  501    0  0.00000000000E+00  0.00000000000E+00 -0.18317561551E+04  0.18317561551E+04  0.50400001928E-02 0.  1.
    10030    2    1    2    0    0  0.00000000000E+00  0.00000000000E+00 -0.70968310826E+03  0.29538292019E+04  0.28673082917E+04 0.  0.
        5    1    3    3  502    0  0.88473568859E+03  0.10919331752E+04 -0.62978566465E+02  0.14067919845E+04  0.46999998093E+01 0. -1.
       -5    1    3    3    0  502 -0.88473568859E+03 -0.10919331752E+04 -0.64670454179E+03  0.15470372174E+04  0.46999998093E+01 0.  1.
</event>
<event>
 5   0  0.8512855E-07  0.3225284E+04  0.7818609E-02  0.8182172E-01
        1   -1    0    0  501    0  0.00000000000E+00  0.00000000000E+00  0.21991552248E+04  0.21991552248E+04  0.50400001928E-02 0.  1.
       -1   -1    0    0    0  501  0.00000000000E+00  0.00000000000E+00 -0.11825513199E+04  0.11825513199E+04  0.50400001928E-02 0. -1.
    10030    2    1    2    0    0  0.00000000000E+00  0.00000000000E+00  0.10166039049E+04  0.33817065447E+04  0.32252838100E+04 0.  0.
        5    1    3    3  502    0  0.73356152800E+03  0.32287777972E+03 -0.95893328261E+03  0.12497750624E+04  0.46999998093E+01 0. -1.
       -5    1    3    3    0  502 -0.73356152800E+03 -0.32287777972E+03  0.19755371875E+04  0.21319314823E+04  0.46999998093E+01 0.  1.
</event>
<event>
 5   0  0.2337504E-06  0.3210759E+04  0.7818609E-02  0.8185981E-01
       -2   -1    0    0    0  501  0.00000000000E+00  0.00000000000E+00  0.24464653187E+04  0.24464653187E+04  0.25500000920E-02 0. -1.
        2   -1    0    0  501    0  0.00000000000E+00  0.00000000000E+00 -0.10534561773E+04  0.10534561773E+04  0.25500000920E-02 0.  1.
    10030    2    1    2    0    0  0.00000000000E+00  0.00000000000E+00  0.13930091414E+04  0.34999214960E+04  0.32107594133E+04 0.  0.
        1    1    3    3  502    0 -0.96971380782E+03  0.91560063467E+03 -0.27760607136E+03  0.13622534721E+04  0.50400001928E-02 0.  1.
       -1    1    3    3    0  502  0.96971380782E+03 -0.91560063467E+03  0.16706152128E+04  0.21376680239E+04  0.50400001928E-02 0. -1.
</event>
<event>
 5   0  0.8512855E-07  0.3200757E+04  0.7818609E-02  0.8188617E-01
        1   -1    0    0  501    0  0.00000000000E+00  0.00000000000E+00  0.13117290420E+04  0.13117290420E+04  0.50400001928E-02 0. -1.
       -1   -1    0    0    0  501  0.00000000000E+00  0.00000000000E+00 -0.19525454683E+04  0.19525454683E+04  0.50400001928E-02 0.  1.
    10030    2    1    2    0    0  0.00000000000E+00  0.00000000000E+00 -0.64081642636E+03  0.32642745103E+04  0.32007565335E+04 0.  0.
        5    1    3    3  502    0  0.42383304387E+03  0.67378964733E+02  0.12519442851E+04  0.13234655103E+04  0.46999998093E+01 0. -1.
       -5    1    3    3    0  502 -0.42383304387E+03 -0.67378964733E+02 -0.18927607114E+04  0.19408090001E+04  0.46999998093E+01 0.  1.
</event>
<event>
 5   0  0.2621528E-06  0.3160122E+04  0.7818609E-02  0.8199429E-01
        2   -1    0    0  501    0  0.00000000000E+00  0.00000000000E+00  0.27361880923E+04  0.27361880923E+04  0.25500000920E-02 0.  1.
       -2   -1    0    0    0  501  0.00000000000E+00  0.00000000000E+00 -0.91243477969E+03  0.91243477970E+03  0.25500000920E-02 0. -1.
    10030    2    1    2    0    0  0.00000000000E+00  0.00000000000E+00  0.18237533126E+04  0.36486228720E+04  0.31601222630E+04 0.  0.
        2    1    3    3  502    0 -0.16510485494E+03 -0.14326762039E+04  0.16650204154E+03  0.14517381473E+04  0.25500000920E-02 0.  1.
       -2    1    3    3    0  502  0.16510485494E+03  0.14326762039E+04  0.16572512711E+04  0.21968847247E+04  0.25500000920E-02 0. -1.
</event>
<event>
 5   0  0.8487944E-07  0.3150536E+04  0.7818609E-02  0.8202004E-01
        1   -1    0    0  501    0  0.00000000000E+00  0.00000000000E+00  0.14985468384E+04  0.14985468384E+04  0.50400001928E-02 0.  1.
       -1   -1    0    0    0  501  0.00000000000E+00  0.00000000000E+00 -0.16559173510E+04  0.16559173510E+04  0.50400001928E-02 0. -1.
    10030    2    1    2    0    0  0.00000000000E+00  0.00000000000E+00 -0.15737051258E+03  0.31544641894E+04  0.31505362787E+04 0.  0.
        2    1    3    3  502    0 -0.24568802558E+03  0.83108866330E+03 -0.13957714931E+04  0.16429391447E+04  0.25500000920E-02 0. -1.
       -2    1    3    3    0  502  0.24568802558E+03 -0.83108866330E+03  0.12384009805E+04  0.15115250447E+04  0.25500000920E-02 0.  1.
</event>
<event>
 5   0  0.2401139E-06  0.3188806E+04  0.7818609E-02  0.8191780E-01
        2   -1    0    0  501    0  0.00000000000E+00  0.00000000000E+00  0.82487473887E+03  0.82487473887E+03  0.25500000920E-02 0. -1.
       -2   -1    0    0    0  501  0.00000000000E+00  0.00000000000E+00 -0.30818260562E+04  0.30818260562E+04  0.25500000920E-02 0.  1.
    10030    2    1    2    0    0  0.00000000000E+00  0.00000000000E+00 -0.22569513174E+04  0.39067007951E+04  0.31888057096E+04 0.  0.
        5    1    3    3  502    0 -0.10584756182E+04 -0.93010239226E+03 -0.21442927209E+03  0.14252940389E+04  0.46999998093E+01 0. -1.
       -5    1    3    3    0  502  0.10584756182E+04  0.93010239226E+03 -0.20425220453E+04  0.24814067562E+04  0.46999998093E+01 0.  1.
</event>
<event>
 5   0  0.2404430E-06  0.3196621E+04  0.7818609E-02  0.8189710E-01
        2   -1    0    0  501    0  0.00000000000E+00  0.00000000000E+00  0.16388005750E+04  0.16388005750E+04  0.25500000920E-02 0.  1.
       -2   -1    0    0    0  501  0.00000000000E+00  0.00000000000E+00 -0.15588208413E+04  0.15588208413E+04  0.25500000920E-02 0. -1.
    10030    2    1    2    0    0  0.00000000000E+00  0.00000000000E+00  0.79979733736E+02  0.31976214163E+04  0.31966210229E+04 0.  0.
        4    1    3    3  502    0  0.63309803631E+03  0.12576755015E+04 -0.71657618022E+03  0.15798872825E+04  0.12699999809E+01 0. -1.
       -4    1    3    3    0  502 -0.63309803631E+03 -0.12576755015E+04  0.79655591396E+03  0.16177341338E+04  0.12699999809E+01 0.  1.
</event>
<event>
 5   0  0.2404430E-06  0.3257556E+04  0.7818609E-02  0.8173780E-01
        2   -1    0    0  501    0  0.00000000000E+00  0.00000000000E+00  0.21530740719E+04  0.21530740719E+04  0.25500000920E-02 0. -1.
       -2   -1    0    0    0  501  0.00000000000E+00  0.00000000000E+00 -0.12321538454E+04  0.12321538454E+04  0.25500000920E-02 0.  1.
    10030    2    1    2    0    0  0.00000000000E+00  0.00000000000E+00  0.92092022649E+03  0.33852279174E+04  0.32575564445E+04 0.  0.
        4    1    3    3  502    0  0.11826965018E+04  0.10882571544E+04  0.18582565399E+03  0.16179021713E+04  0.12699999809E+01 0. -1.
       -4    1    3    3    0  502 -0.11826965018E+04 -0.10882571544E+04  0.73509457250E+03  0.17673257461E+04  0.12699999809E+01 0.  1.
</event>
<event>
 5   0  0.8512855E-07  0.3143374E+04  0.7818609E-02  0.8203934E-01
        1   -1    0    0  501    0  0.00000000000E+00  0.00000000000E+00  0.14256210519E+04  0.14256210520E+04  0.50400001928E-02 0. -1.
       -1   -1    0    0    0  501  0.00000000000E+00  0.00000000000E+00 -0.17327190263E+04  0.17327190263E+04  0.50400001928E-02 0.  1.
    10030    2    1    2    0    0  0.00000000000E+00  0.00000000000E+00 -0.30709797432E+03  0.31583400782E+04  0.31433744422E+04 0.  0.
        5    1    3    3  502    0 -0.64127265853E+03  0.62080954973E+03 -0.14533631891E+04  0.17055561465E+04  0.46999998093E+01 0.  1.
       -5    1    3    3    0  502  0.64127265853E+03 -0.62080954973E+03  0.11462652148E+04  0.14527839317E+04  0.46999998093E+01 0. -1.
</event>
<event>
 5   0  0.7934375E-07  0.3199241E+04  0.7818609E-02  0.8189018E-01
        3   -1    0    0  501    0  0.00000000000E+00  0.00000000000E+00  0.21193009604E+04  0.21193009628E+04  0.10100000352E+00 0. -1.
       -3   -1    0    0    0  501  0.00000000000E+00  0.00000000000E+00 -0.12073727109E+04  0.12073727152E+04  0.10100000352E+00 0.  1.
    10030    2    1    2    0    0  0.00000000000E+00  0.00000000000E+00  0.91192824946E+03  0.33266736780E+04  0.31992412581E+04 0.  0.
        1    1    3    3  502    0  0.29686029859E+03  0.80808057151E+03 -0.94594622203E+03  0.12790365522E+04  0.50400001928E-02 0.  1.
       -1    1    3    3    0  502 -0.29686029859E+03 -0.80808057151E+03  0.18578744715E+04  0.20476371258E+04  0.50400001928E-02 0. -1.
</event>
<event>
 5   0  0.8512855E-07  0.3059443E+04  0.7818609E-02  0.8226957E-01
       -1   -1    0    0    0  501  0.00000000000E+00  0.00000000000E+00  0.12341616890E+04  0.12341616890E+04  0.50400001928E-02 0. -1.
        1   -1    0    0  501    0  0.00000000000E+00  0.00000000000E+00 -0.18960622067E+04  0.18960622068E+04  0.50400001928E-02 0.  1.
    10030    2    1    2    0    0  0.00000000000E+00  0.00000000000E+00 -0.66190051774E+03  0.31302238958E+04  0.30594426522E+04 0.  0.
        5    1    3    3  502    0  0.97942394267E+03 -0.50480252399E+03  0.75469632958E+03  0.13355468871E+04  0.46999998093E+01 0. -1.
       -5    1    3    3    0  502 -0.97942394267E+03  0.50480252399E+03 -0.14165968473E+04  0.17946770087E+04  0.46999998093E+01 0.  1.
</event>
<event>
 5   0  0.2337504E-06  0.3264721E+04  0.7818609E-02  0.8171931E-01
        2   -1    0    0  501    0  0.00000000000E+00  0.00000000000E+00  0.17508775296E+04  0.17508775296E+04  0.25500000920E-02 0. -1.
       -2   -1    0    0    0  501  0.00000000000E+00  0.00000000000E+00 -0.15218656355E+04  0.15218656355E+04  0.25500000920E-02 0.  1.
    10030    2    1    2    0    0  0.00000000000E+00  0.00000000000E+00  0.22901189407E+03  0.32727431651E+04  0.32647207196E+04 0.  0.
        1    1    3    3  502    0  0.76492491255E+03 -0.97402518886E+03  0.11804934109E+04  0.17109646061E+04  0.50400001928E-02 0. -1.
       -1    1    3    3    0  502 -0.76492491255E+03  0.97402518886E+03 -0.95148151679E+03  0.15617785589E+04  0.50400001928E-02 0.  1.
</event>
<event>
 5   0  0.2401139E-06  0.3216221E+04  0.7818609E-02  0.8184546E-01
        2   -1    0    0  501    0  0.00000000000E+00  0.00000000000E+00  0.14889936523E+04  0.14889936523E+04  0.25500000920E-02 0.  1.
       -2   -1    0    0    0  501  0.00000000000E+00  0.00000000000E+00 -0.17367559730E+04  0.17367559730E+04  0.25500000920E-02 0. -1.
    10030    2    1    2    0    0  0.00000000000E+00  0.00000000000E+00 -0.24776232069E+03  0.32257496253E+04  0.32162205269E+04 0.  0.
        5    1    3    3  502    0 -0.88946552227E+03 -0.10593369600E+04  0.69870295640E+03  0.15496940413E+04  0.46999998093E+01 0.  1.
       -5    1    3    3    0  502  0.88946552227E+03  0.10593369600E+04 -0.94646527709E+03  0.16760555841E+04  0.46999998093E+01 0. -1.
</event>
<event>
 5   0  0.8545153E-07  0.3257007E+04  0.7818609E-02  0.8173922E-01
       -1   -1    0    0    0  501  0.00000000000E+00  0.00000000000E+00  0.10445112800E+04  0.10445112800E+04  0.50400001928E-02 0.  1.
        1   -1    0    0  501    0  0.00000000000E+00  0.00000000000E+00 -0.25390096416E+04  0.25390096416E+04  0.50400001928E-02 0. -1.
    10030    2    1    2    0    0  0.00000000000E+00  0.00000000000E+00 -0.14944983616E+04  0.35835209215E+04  0.32570073445E+04 0.  0.
        3    1    3    3  502    0 -0.15075991493E+03  0.10057979472E+04  0.65213079051E+03  0.12081525734E+04  0.10100000352E+00 0.  1.
       -3    1    3    3    0  502  0.15075991493E+03 -0.10057979472E+04 -0.21466291521E+04  0.23753683482E+04  0.10100000352E+00 0. -1.
</event>
<event>
 5   0  0.2404430E-06  0.3206590E+04  0.7818609E-02  0.8187079E-01
        2   -1    0    0  501    0  0.00000000000E+00  0.00000000000E+00  0.85679608143E+03  0.85679608144E+03  0.25500000920E-02 0. -1.
       -2   -1    0    0    0  501  0.00000000000E+00  0.00000000000E+00 -0.30001940987E+04  0.30001940987E+04  0.25500000920E-02 0.  1.
    10030    2    1    2    0    0  0.00000000000E+00  0.00000000000E+00 -0.21433980172E+04  0.38569901801E+04  0.32065898068E+04 0.  0.
        4    1    3    3  502    0  0.80339822377E+03  0.13612195020E+04 -0.13948687560E+04  0.21080862644E+04  0.12699999809E+01 0.  1.
       -4    1    3    3    0  502 -0.80339822377E+03 -0.13612195020E+04 -0.74852926120E+03  0.17489039157E+04  0.12699999809E+01 0. -1.
</event>
<event>
 5   0  0.2337504E-06  0.3132089E+04  0.7818609E-02  0.8206986E-01
       -2   -1    0    0    0  501  0.00000000000E+00  0.00000000000E+00  0.19092461594E+04  0.19092461594E+04  0.25500000920E-02 0. -1.
        2   -1    0    0  501    0  0.00000000000E+00  0.00000000000E+00 -0.12845362312E+04  0.12845362312E+04  0.25500000920E-02 0.  1.
    10030    2    1    2    0    0  0.00000000000E+00  0.00000000000E+00  0.62470992820E+03  0.31937823905E+04  0.31320893129E+04 0.  0.
        1    1    3    3  502    0  0.80848725008E+03 -0.21350008214E+03  0.16625440337E+04  0.18609907530E+04  0.50400001928E-02 0. -1.
       -1    1    3    3    0  502 -0.80848725008E+03  0.21350008214E+03 -0.10378341055E+04  0.13327916376E+04  0.50400001928E-02 0.  1.
</event>
<event>
 5   0  0.8545153E-07  0.3179446E+04  0.7818609E-02  0.8194267E-01
       -1   -1    0    0    0  501  0.00000000000E+00  0.00000000000E+00  0.27139405033E+04  0.27139405033E+04  0.50400001928E-02 0.  1.
        1   -1    0    0  501    0  0.00000000000E+00  0.00000000000E+00 -0.93119896194E+03  0.93119896196E+03  0.50400001928E-02 0. -1.
    10030    2    1    2    0    0  0.00000000000E+00  0.00000000000E+00  0.17827415413E+04  0.36451394652E+04  0.31794455991E+04 0.  0.
        3    1    3    3  502    0  0.73768438378E+03  0.99200498318E+02  0.25018245245E+04  0.26102001744E+04  0.10100000352E+00 0.  1.
       -3    1    3    3    0  502 -0.73768438378E+03 -0.99200498318E+02 -0.71908298312E+03  0.10349392909E+04  0.10100000352E+00 0. -1.
</event>
<event>
 5   0  0.2466076E-06  0.3130381E+04  0.7818609E-02  0.8207449E-01
       -2   -1    0    0    0  501  0.00000000000E+00  0.00000000000E+00  0.13028567187E+04  0.13028567187E+04  0.25500000920E-02 0. -1.
        2   -1    0    0  501    0  0.00000000000E+00  0.00000000000E+00 -0.18803464527E+04  0.18803464527E+04  0.25500000920E-02 0.  1.
    10030    2    1    2    0    0  0.00000000000E+00  0.00000000000E+00 -0.57748973400E+03  0.31832031714E+04  0.31303814524E+04 0.  0.
        3    1    3    3  502    0  0.70456726118E+03  0.38517265501E+03  0.10774466833E+04  0.13437501127E+04  0.10100000352E+00 0. -1.
       -3    1    3    3    0  502 -0.70456726118E+03 -0.38517265501E+03 -0.16549364173E+04  0.18394530587E+04  0.10100000352E+00 0.  1.
</event>
<event>
 5   0  0.8545153E-07  0.3156446E+04  0.7818609E-02  0.8200415E-01
        1   -1    0    0  501    0  0.00000000000E+00  0.00000000000E+00  0.22906523777E+04  0.22906523777E+04  0.50400001928E-02 0.  1.
       -1   -1    0    0    0  501  0.00000000000E+00  0.00000000000E+00 -0.10873703189E+04  0.10873703189E+04  0.50400001928E-02 0. -1.
    10030    2    1    2    0    0  0.00000000000E+00  0.00000000000E+00  0.12032820588E+04  0.33780226966E+04  0.31564457267E+04 0.  0.
        3    1    3    3  502    0  0.31700182094E+03  0.89459150984E+03  0.19511110660E+04  0.21697047094E+04  0.10100000352E+00 0.  1.
       -3    1    3    3    0  502 -0.31700182094E+03 -0.89459150984E+03 -0.74782900720E+03  0.12083179872E+04  0.10100000352E+00 0. -1.
</event>
<event>
 5   0  0.8512855E-07  0.3000215E+04  0.7818609E-02  0.8243669E-01
        1   -1    0    0  501    0  0.00000000000E+00  0.00000000000E+00  0.22485872552E+04  0.22485872552E+04  0.50400001928E-02 0.  1.
       -1   -1    0    0    0  501  0.00000000000E+00  0.00000000000E+00 -0.10007718789E+04  0.10007718789E+04  0.50400001928E-02 0. -1.
    10030    2    1    2    0    0  0.00000000000E+00  0.00000000000E+00  0.12478153763E+04  0.32493591341E+04  0.30002152537E+04 0.  0.
        5    1    3    3  502    0  0.69192794717E+02 -0.11377771874E+04  0.16800686978E+04  0.20302653744E+04  0.46999998093E+01 0.  1.
       -5    1    3    3    0  502 -0.69192794717E+02  0.11377771874E+04 -0.43225332150E+03  0.12190937597E+04  0.46999998093E+01 0. -1.
</event>
<event>
 5   0  0.8681172E-07  0.3204678E+04  0.7818609E-02  0.8187583E-01
       -1   -1    0    0    0  501  0.00000000000E+00  0.00000000000E+00  0.13149691970E+04  0.13149691970E+04  0.50400001928E-02 0. -1.
        1   -1    0    0  501    0  0.00000000000E+00  0.00000000000E+00 -0.19525100316E+04  0.19525100316E+04  0.50400001928E-02 0.  1.
    10030    2    1    2    0    0  0.00000000000E+00  0.00000000000E+00 -0.63754083458E+03  0.32674792286E+04  0.32046781732E+04 0.  0.
        1    1    3    3  502    0 -0.10167775112E+04 -0.96091320064E+03  0.47775575221E+03  0.14783237958E+04  0.50400001928E-02 0.  1.
       -1    1    3    3    0  502  0.10167775112E+04  0.96091320064E+03 -0.11152965868E+04  0.17891554328E+04  0.50400001928E-02 0. -1.
</event>
<event>
 5   0  0.8681172E-07  0.3178650E+04  0.7818609E-02  0.8194479E-01
       -1   -1    0    0    0  501  0.00000000000E+00  0.00000000000E+00  0.16753099540E+04  0.16753099540E+04  0.50400001928E-02 0.  1.
        1   -1    0    0  501    0  0.00000000000E+00  0.00000000000E+00 -0.15077531532E+04  0.15077531532E+04  0.50400001928E-02 0. -1.
    10030    2    1    2    0    0  0.00000000000E+00  0.00000000000E+00  0.16755680088E+03  0.31830631072E+04  0.31786499434E+04 0.  0.
        1    1    3    3  502    0  0.19166111531E+03  0.74714630879E+03  0.14753091718E+04  0.16647818903E+04  0.50400001928E-02 0.  1.
       -1    1    3    3    0  502 -0.19166111531E+03 -0.74714630879E+03 -0.13077523709E+04  0.15182812169E+04  0.50400001928E-02 0. -1.
</event>
<event>
 5   0  0.2466076E-06  0.3194706E+04  0.7818609E-02  0.8190217E-01
        2   -1    0    0  501    0  0.00000000000E+00  0.00000000000E+00  0.22233952388E+04  0.22233952388E+04  0.25500000920E-02 0.  1.
       -2   -1    0    0    0  501  0.00000000000E+00  0.00000000000E+00 -0.11475858225E+04  0.11475858225E+04  0.25500000920E-02 0. -1.
    10030    2    1    2    0    0  0.00000000000E+00  0.00000000000E+00  0.10758094163E+04  0.33709810613E+04  0.31947061548E+04 0.  0.
        3    1    3    3  502    0  0.59746793399E+03  0.13613610614E+04 -0.78507527926E+02  0.14887697316E+04  0.10100000352E+00 0. -1.
       -3    1    3    3    0  502 -0.59746793399E+03 -0.13613610614E+04  0.11543169442E+04  0.18822113297E+04  0.10100000352E+00 0.  1.
</event>
<event>
 5   0  0.8681172E-07  0.3207320E+04  0.7818609E-02  0.8186887E-01
       -1   -1    0    0    0  501  0.00000000000E+00  0.00000000000E+00  0.11347288753E+04  0.11347288753E+04  0.50400001928E-02 0.  1.
        1   -1    0    0  501    0  0.00000000000E+00  0.00000000000E+00 -0.22663781985E+04  0.22663781985E+04  0.50400001928E-02 0. -1.
    10030    2    1    2    0    0  0.00000000000E+00  0.00000000000E+00 -0.11316493232E+04  0.34011070738E+04  0.32073196187E+04 0.  0.
        1    1    3    3  502    0 -0.29180910544E+03  0.13708126136E+04  0.26065381441E+03  0.14255596047E+04  0.50400001928E-02 0.  1.
       -1    1    3    3    0  502  0.29180910544E+03 -0.13708126136E+04 -0.13923031376E+04  0.19755474691E+04  0.50400001928E-02 0. -1.
</event>
<event>
 5   0  0.8487944E-07  0.3220512E+04  0.7818609E-02  0.8183421E-01
        1   -1    0    0  501    0  0.00000000000E+00  0.00000000000E+00  0.16921944314E+04  0.16921944314E+04  0.50400001928E-02 0.  1.
       -1   -1    0    0    0  501  0.00000000000E+00  0.00000000000E+00 -0.15322854281E+04  0.15322854281E+04  0.50400001928E-02 0. -1.
    10030    2    1    2    0    0  0.00000000000E+00  0.00000000000E+00  0.15990900329E+03  0.32244798596E+04  0.32205123002E+04 0.  0.
        2    1    3    3  502    0  0.41831049413E+02 -0.14759720805E+04 -0.56323978827E+03  0.15803425193E+04  0.25500000920E-02 0. -1.
       -2    1    3    3    0  502 -0.41831049413E+02  0.14759720805E+04  0.72314879156E+03  0.16441373403E+04  0.25500000920E-02 0.  1.
</event>
<event>
 5   0  0.8512855E-07  0.3155480E+04  0.7818609E-02  0.8200675E-01
        1   -1    0    0  501    0  0.00000000000E+00  0.00000000000E+00  0.23390264264E+04  0.23390264264E+04  0.50400001928E-02 0.  1.
       -1   -1    0    0    0  501  0.00000000000E+00  0.00000000000E+00 -0.10642303063E+04  0.10642303063E+04  0.50400001928E-02 0. -1.
    10030    2    1    2    0    0  0.00000000000E+00  0.00000000000E+00  0.12747961201E+04  0.34032567327E+04  0.31554795580E+04 0.  0.
        5    1    3    3  502    0  0.33053659853E+03  0.53979759991E+03  0.21960799166E+04  0.22854813458E+04  0.46999998093E+01 0.  1.
       -5    1    3    3    0  502 -0.33053659853E+03 -0.53979759991E+03 -0.92128379654E+03  0.11177753869E+04  0.46999998093E+01 0. -1.
</event>
<event>
 5   0  0.2337504E-06  0.2849630E+04  0.7818609E-02  0.8288024E-01
       -2   -1    0    0    0  501  0.00000000000E+00  0.00000000000E+00  0.19988818941E+04  0.19988818941E+04  0.25500000920E-02 0.  1.
        2   -1    0    0  501    0  0.00000000000E+00  0.00000000000E+00 -0.10156167271E+04  0.10156167271E+04  0.25500000920E-02 0. -1.
    10030    2    1    2    0    0  0.00000000000E+00  0.00000000000E+00  0.98326516701E+03  0.30144986213E+04  0.28496300723E+04 0.  0.
        1    1    3    3  502    0 -0.90737048750E+03 -0.15087289336E+03  0.16427113250E+04  0.18827066497E+04  0.50400001928E-02 0.  1.
       -1    1    3    3    0  502  0.90737048750E+03  0.15087289336E+03 -0.65944615803E+03  0.11317919716E+04  0.50400001928E-02 0. -1.
</event>
<event>
 5   0  0.2466076E-06  0.3278358E+04  0.7818609E-02  0.8168424E-01
        2   -1    0    0  501    0  0.00000000000E+00  0.00000000000E+00  0.12778860066E+04  0.12778860066E+04  0.25500000920E-02 0. -1.
       -2   -1    0    0    0  501  0.00000000000E+00  0.00000000000E+00 -0.21026189642E+04  0.21026189642E+04  0.25500000920E-02 0.  1.
    10030    2    1    2    0    0  0.00000000000E+00  0.00000000000E+00 -0.82473295761E+03  0.33805049708E+04  0.32783577301E+04 0.  0.
        3    1    3    3  502    0  0.68506748760E+03 -0.10279981078E+04 -0.15233452607E+04  0.19612950736E+04  0.10100000352E+00 0.  1.
       -3    1    3    3    0  502 -0.68506748760E+03  0.10279981078E+04  0.69861230307E+03  0.14192098972E+04  0.10100000352E+00 0. -1.
</event>
<event>
 5   0  0.8383008E-07  0.3185067E+04  0.7818609E-02  0.8192772E-01
       -1   -1    0    0    0  501  0.00000000000E+00  0.00000000000E+00  0.18678920808E+04  0.18678920808E+04  0.50400001928E-02 0. -1.
        1   -1    0    0  501    0  0.00000000000E+00  0.00000000000E+00 -0.13577673970E+04  0.13577673970E+04  0.50400001928E-02 0.  1.
    10030    2    1    2    0    0  0.00000000000E+00  0.00000000000E+00  0.51012468381E+03  0.32256594777E+04  0.31850670124E+04 0.  0.
        4    1    3    3  502    0  0.81336235263E+03 -0.90149856479E+03 -0.78855778255E+03  0.14477855395E+04  0.12699999809E+01 0.  1.
       -4    1    3    3    0  502 -0.81336235263E+03  0.90149856479E+03  0.12986824664E+04  0.17778739383E+04  0.12699999809E+01 0. -1.
</event>
<event>
 5   0  0.8487944E-07  0.3217631E+04  0.7818609E-02  0.8184176E-01
       -1   -1    0    0    0  501  0.00000000000E+00  0.00000000000E+00  0.12870334021E+04  0.12870334022E+04  0.50400001928E-02 0. -1.
        1   -1    0    0  501    0  0.00000000000E+00  0.00000000000E+00 -0.20110495646E+04  0.20110495646E+04  0.50400001928E-02 0.  1.
    10030    2    1    2    0    0  0.00000000000E+00  0.00000000000E+00 -0.72401616249E+03  0.32980829668E+04  0.32176314040E+04 0.  0.
        2    1    3    3  502    0 -0.15848841044E+04 -0.59039174229E+01 -0.64531626740E+03  0.17112350994E+04  0.25500000920E-02 0. -1.
       -2    1    3    3    0  502  0.15848841044E+04  0.59039174229E+01 -0.78699895087E+02  0.15868478673E+04  0.25500000920E-02 0.  1.
</event>
<event>
 5   0  0.8383008E-07  0.3219515E+04  0.7818609E-02  0.8183682E-01
        1   -1    0    0  501    0  0.00000000000E+00  0.00000000000E+00  0.21510476234E+04  0.21510476234E+04  0.50400001928E-02 0. -1.
       -1   -1    0    0    0  501  0.00000000000E+00  0.00000000000E+00 -0.12046779679E+04  0.12046779679E+04  0.50400001928E-02 0.  1.
    10030    2    1    2    0    0  0.00000000000E+00  0.00000000000E+00  0.94636965552E+03  0.33557255913E+04  0.32195152926E+04 0.  0.
        4    1    3    3  502    0 -0.14731075113E+04 -0.47308619723E+03  0.93635167765E+03  0.18084834439E+04  0.12699999809E+01 0.  1.
       -4    1    3    3    0  502  0.14731075113E+04  0.47308619723E+03  0.10017977869E+02  0.15472421474E+04  0.12699999809E+01 0. -1.
</event>
<event>
 5   0  0.8545153E-07  0.3208398E+04  0.7818609E-02  0.8186603E-01
       -1   -1    0    0    0  501  0.00000000000E+00  0.00000000000E+00  0.10948767521E+04  0.10948767521E+04  0.50400001928E-02 0.  1.
        1   -1    0    0  501    0  0.00000000000E+00  0.00000000000E+00 -0.23504514440E+04  0.23504514440E+04  0.50400001928E-02 0. -1.
    10030    2    1    2    0    0  0.00000000000E+00  0.00000000000E+00 -0.12555746920E+04  0.34453281961E+04  0.32083981318E+04 0.  0.
        3    1    3    3  502    0  0.14019112422E+04 -0.68252784548E+02  0.20639265200E+03  0.14186653977E+04  0.10100000352E+00 0.  1.
       -3    1    3    3    0  502 -0.14019112422E+04  0.68252784548E+02 -0.14619673440E+04  0.20266627984E+04  0.10100000352E+00 0. -1.
</event>
<event>
 5   0  0.8681172E-07  0.3210143E+04  0.7818609E-02  0.8186144E-01
       -1   -1    0    0    0  501  0.00000000000E+00  0.00000000000E+00  0.12416167056E+04  0.12416167056E+04  0.50400001928E-02 0.  1.
        1   -1    0    0  501    0  0.00000000000E+00  0.00000000000E+00 -0.20749193794E+04  0.20749193794E+04  0.50400001928E-02 0. -1.
    10030    2    1    2    0    0  0.00000000000E+00  0.00000000000E+00 -0.83330267378E+03  0.33165360850E+04  0.32101430275E+04 0.  0.
        1    1    3    3  502    0  0.53547933586E+03  0.60824126095E+03  0.10147488787E+04  0.12986188192E+04  0.50400001928E-02 0.  1.
       -1    1    3    3    0  502 -0.53547933586E+03 -0.60824126095E+03 -0.18480515525E+04  0.20179172658E+04  0.50400001928E-02 0. -1.
</event>
<event>
 5   0  0.2404430E-06  0.3171198E+04  0.7818609E-02  0.8196465E-01
       -2   -1    0    0    0  501  0.00000000000E+00  0.00000000000E+00  0.11465201190E+04  0.11465201190E+04  0.25500000920E-02 0.  1.
        2   -1    0    0  501    0  0.00000000000E+00  0.00000000000E+00 -0.21928300171E+04  0.21928300171E+04  0.25500000920E-02 0. -1.
    10030    2    1    2    0    0  0.00000000000E+00  0.00000000000E+00 -0.10463098981E+04  0.33393501362E+04  0.31711977121E+04 0.  0.
        4    1    3    3  502    0 -0.78550496950E+03 -0.10451638305E+04 -0.14677931913E+04  0.19656561131E+04  0.12699999809E+01 0. -1.
       -4    1    3    3    0  502  0.78550496950E+03  0.10451638305E+04  0.42148329324E+03  0.13736940231E+04  0.12699999809E+01 0.  1.
</event>
<event>
 5   0  0.2404430E-06  0.3176395E+04  0.7818609E-02  0.8195079E-01
       -2   -1    0    0    0  501  0.00000000000E+00  0.00000000000E+00  0.16897971749E+04  0.16897971749E+04  0.25500000920E-02 0. -1.
        2   -1    0    0  501    0  0.00000000000E+00  0.00000000000E+00 -0.14927061343E+04  0.14927061343E+04  0.25500000920E-02 0.  1.
    10030    2    1    2    0    0  0.00000000000E+00  0.00000000000E+00  0.19709104064E+03  0.31825033092E+04  0.31763945654E+04 0.  0.
        4    1    3    3  502    0 -0.66402895165E+03 -0.79513041983E+02 -0.13447498347E+04  0.15018690033E+04  0.12699999809E+01 0.  1.
       -4    1    3    3    0  502  0.66402895165E+03  0.79513041983E+02  0.15418408753E+04  0.16806343059E+04  0.12699999809E+01 0. -1.
</event>
<event>
 5   0  0.8681172E-07  0.3230185E+04  0.7818609E-02  0.8180891E-01
        1   -1    0    0  501    0  0.00000000000E+00  0.00000000000E+00  0.22925822362E+04  0.22925822362E+04  0.50400001928E-02 0. -1.
       -1   -1    0    0    0  501  0.00000000000E+00  0.00000000000E+00 -0.11378101696E+04  0.11378101697E+04  0.50400001928E-02 0.  1.
    10030    2    1    2    0    0  0.00000000000E+00  0.00000000000E+00  0.11547720665E+04  0.34303924058E+04  0.32301847520E+04 0.  0.
        1    1    3    3  502    0  0.10881055136E+04 -0.11104106660E+04  0.10421621800E+04  0.18716536713E+04  0.50400001928E-02 0. -1.
       -1    1    3    3    0  502 -0.10881055136E+04  0.11104106660E+04  0.11260988653E+03  0.15587387345E+04  0.50400001928E-02 0.  1.
</event>
<event>
 5   0  0.8383008E-07  0.3155580E+04  0.7818609E-02  0.8200648E-01
        1   -1    0    0  501    0  0.00000000000E+00  0.00000000000E+00  0.16994429076E+04  0.16994429076E+04  0.50400001928E-02 0.  1.
       -1   -1    0    0    0  501  0.00000000000E+00  0.00000000000E+00 -0.14648452219E+04  0.14648452219E+04  0.50400001928E-02 0. -1.
    10030    2    1    2    0    0  0.00000000000E+00  0.00000000000E+00  0.23459768574E+03  0.31642881296E+04  0.31555797079E+04 0.  0.
        4    1    3    3  502    0 -0.11503354339E+04 -0.29978804753E+03  0.11575984594E+04  0.16592710117E+04  0.12699999809E+01 0.  1.
       -4    1    3    3    0  502  0.11503354339E+04  0.29978804753E+03 -0.92300077369E+03  0.15050171179E+04  0.12699999809E+01 0. -1.
</event>
<event>
 5   0  0.2404430E-06  0.3158180E+04  0.7818609E-02  0.8199950E-01
       -2   -1    0    0    0  501  0.00000000000E+00  0.00000000000E+00  0.20458156401E+04  0.20458156401E+04  0.25500000920E-02 0. -1.
        2   -1    0    0  501    0  0.00000000000E+00  0.00000000000E+00 -0.12188412310E+04  0.12188412310E+04  0.25500000920E-02 0.  1.
    10030    2    1    2    0    0  0.00000000000E+00  0.00000000000E+00  0.82697440909E+03  0.32646568712E+04  0.31581795093E+04 0.  0.
        4    1    3    3  502    0  0.97780664457E+03  0.12268478973E+04  0.59915700855E+03  0.16793606912E+04  0.12699999809E+01 0. -1.
       -4    1    3    3    0  502 -0.97780664457E+03 -0.12268478973E+04  0.22781740054E+03  0.15852961800E+04  0.12699999809E+01 0.  1.
</event>
<event>
 5   0  0.2404430E-06  0.3133608E+04  0.7818609E-02  0.8206575E-01
       -2   -1    0    0    0  501  0.00000000000E+00  0.00000000000E+00  0.13291650072E+04  0.13291650072E+04  0.25500000920E-02 0.  1.
        2   -1    0    0  501    0  0.00000000000E+00  0.00000000000E+00 -0.18469301577E+04  0.18469301577E+04  0.25500000920E-02 0. -1.
    10030    2    1    2    0    0  0.00000000000E+00  0.00000000000E+00 -0.51776515053E+03  0.31760951649E+04  0.31336081034E+04 0.  0.
        4    1    3    3  502    0 -0.33470858765E+03  0.15288934217E+04 -0.33286810999E+03  0.16001086605E+04  0.12699999809E+01 0. -1.
       -4    1    3    3    0  502  0.33470858765E+03 -0.15288934217E+04 -0.18489704054E+03  0.15759865045E+04  0.12699999809E+01 0.  1.
</event>
<event>
 5   0  0.2401139E-06  0.3208394E+04  0.7818609E-02  0.8186604E-01
        2   -1    0    0  501    0  0.00000000000E+00  0.00000000000E+00  0.21717809233E+04  0.21717809233E+04  0.25500000920E-02 0.  1.
       -2   -1    0    0    0  501  0.00000000000E+00  0.00000000000E+00 -0.11849479431E+04  0.11849479431E+04  0.25500000920E-02 0. -1.
    10030    2    1    2    0    0  0.00000000000E+00  0.00000000000E+00  0.98683298025E+03  0.33567288664E+04  0.32083935780E+04 0.  0.
        5    1    3    3  502    0 -0.17315754402E+03  0.14450669723E+03 -0.11682709478E+04  0.11898507546E+04  0.46999998093E+01 0. -1.
       -5    1    3    3    0  502  0.17315754402E+03 -0.14450669723E+03  0.21551039281E+04  0.21668781118E+04  0.46999998093E+01 0.  1.
</event>
<event>
 5   0  0.2337504E-06  0.3224437E+04  0.7818609E-02  0.8182393E-01
       -2   -1    0    0    0  501  0.00000000000E+00  0.00000000000E+00  0.95405825880E+03  0.95405825881E+03  0.25500000920E-02 0.  1.
        2   -1    0    0  501    0  0.00000000000E+00  0.00000000000E+00 -0.27244127150E+04  0.27244127150E+04  0.25500000920E-02 0. -1.
    10030    2    1    2    0    0  0.00000000000E+00  0.00000000000E+00 -0.17703544562E+04  0.36784709738E+04  0.32244369748E+04 0.  0.
        1    1    3    3  502    0 -0.73977254225E+03  0.13688762163E+04 -0.13667058736E+04  0.20709829683E+04  0.50400001928E-02 0. -1.
       -1    1    3    3    0  502  0.73977254225E+03 -0.13688762163E+04 -0.40364858262E+03  0.16074880056E+04  0.50400001928E-02 0.  1.
</event>
<event>
 5   0  0.8512855E-07  0.3210190E+04  0.7818609E-02  0.8186131E-01
        1   -1    0    0  501    0  0.00000000000E+00  0.00000000000E+00  0.14010986154E+04  0.14010986154E+04  0.50400001928E-02 0. -1.
       -1   -1    0    0    0  501  0.00000000000E+00  0.00000000000E+00 -0.18387926307E+04  0.18387926307E+04  0.50400001928E-02 0.  1.
    10030    2    1    2    0    0  0.00000000000E+00  0.00000000000E+00 -0.43769401529E+03  0.32398912462E+04  0.32101899065E+04 0.  0.
        5    1    3    3  502    0  0.43743749110E+03 -0.14666132005E+04  0.26936603945E+03  0.15539903448E+04  0.46999998093E+01 0. -1.
       -5    1    3    3    0  502 -0.43743749110E+03  0.14666132005E+04 -0.70706005474E+03  0.16859009014E+04  0.46999998093E+01 0.  1.
</event>
<event>
 5   0  0.2401139E-06  0.3195357E+04  0.7818609E-02  0.8190045E-01
        2   -1    0    0  501    0  0.00000000000E+00  0.00000000000E+00  0.16952785606E+04  0.16952785607E+04  0.25500000920E-02 0. -1.
       -2   -1    0    0    0  501  0.00000000000E+00  0.00000000000E+00 -0.15056972246E+04  0.15056972246E+04  0.25500000920E-02 0.  1.
    10030    2    1    2    0    0  0.00000000000E+00  0.00000000000E+00  0.18958133610E+03  0.32009757852E+04  0.31953567711E+04 0.  0.
        5    1    3    3  502    0 -0.73556674535E+03 -0.48463512657E+03  0.14300353460E+04  0.16795692375E+04  0.46999998093E+01 0. -1.
       -5    1    3    3    0  502  0.73556674535E+03  0.48463512657E+03 -0.12404540099E+04  0.15214065477E+04  0.46999998093E+01 0.  1.
</event>
<event>
 5   0  0.8487944E-07  0.3206120E+04  0.7818609E-02  0.8187203E-01
        1   -1    0    0  501    0  0.00000000000E+00  0.00000000000E+00  0.20309173236E+04  0.20309173236E+04  0.50400001928E-02 0. -1.
       -1   -1    0    0    0  501  0.00000000000E+00  0.00000000000E+00 -0.12653400272E+04  0.12653400272E+04  0.50400001928E-02 0.  1.
    10030    2    1    2    0    0  0.00000000000E+00  0.00000000000E+00  0.76557729640E+03  0.32962573508E+04  0.32061197617E+04 0.  0.
        2    1    3    3  502    0 -0.97905558545E+03 -0.89557458843E+03  0.13076328592E+04  0.18629297833E+04  0.25500000920E-02 0. -1.
       -2    1    3    3    0  502  0.97905558545E+03  0.89557458843E+03 -0.54205556281E+03  0.14333275676E+04  0.25500000920E-02 0.  1.
</event>
<event>
 5   0  0.2401139E-06  0.2688354E+04  0.7818609E-02  0.8338793E-01
        2   -1    0    0  501    0  0.00000000000E+00  0.00000000000E+00  0.33928669337E+04  0.33928669337E+04  0.25500000920E-02 0.  1.
       -2   -1    0    0    0  501  0.00000000000E+00  0.00000000000E+00 -0.53253258919E+03  0.53253258919E+03  0.25500000920E-02 0. -1.
    10030    2    1    2    0    0  0.00000000000E+00  0.00000000000E+00  0.28603343445E+04  0.39253995229E+04  0.26883543018E+04 0.  0.
        5    1    3    3  502    0 -0.33562749538E+03  0.11378856199E+04  0.50742582429E+03  0.12903226561E+04  0.46999998093E+01 0. -1.
       -5    1    3    3    0  502  0.33562749538E+03 -0.11378856199E+04  0.23529085202E+04  0.26350768668E+04  0.46999998093E+01 0.  1.
</event>
<event>
 5   0  0.8545153E-07  0.3237937E+04  0.7818609E-02  0.8178869E-01
       -1   -1    0    0    0  501  0.00000000000E+00  0.00000000000E+00  0.89322762702E+03  0.89322762703E+03  0.50400001928E-02 0.  1.
        1   -1    0    0  501    0  0.00000000000E+00  0.00000000000E+00 -0.29343683280E+04  0.29343683280E+04  0.50400001928E-02 0. -1.
    10030    2    1    2    0    0  0.00000000000E+00  0.00000000000E+00 -0.20411407010E+04  0.38275959550E+04  0.32379369101E+04 0.  0.
        3    1    3    3  502    0  0.53173137430E+03  0.10314110108E+04  0.31396368820E+03  0.12021314967E+04  0.10100000352E+00 0.  1.
       -3    1    3    3    0  502 -0.53173137430E+03 -0.10314110108E+04 -0.23551043892E+04  0.26254644583E+04  0.10100000352E+00 0. -1.
</event>
<event>
 5   0  0.8383008E-07  0.3253957E+04  0.7818609E-02  0.8174711E-01
       -1   -1    0    0    0  501  0.00000000000E+00  0.00000000000E+00  0.90112776864E+03  0.90112776865E+03  0.50400001928E-02 0. -1.
        1   -1    0    0  501    0  0.00000000000E+00  0.00000000000E+00 -0.29374960454E+04  0.29374960455E+04  0.50400001928E-02 0.  1.
    10030    2    1    2    0    0  0.00000000000E+00  0.00000000000E+00 -0.20363682768E+04  0.38386238141E+04  0.32539571336E+04 0.  0.
        4    1    3    3  502    0 -0.27080559847E+02 -0.10773239709E+04 -0.24560848547E+04  0.26821101248E+04  0.12699999809E+01 0.  1.
       -4    1    3    3    0  502  0.27080559847E+02  0.10773239709E+04  0.41971657791E+03  0.11565136893E+04  0.12699999809E+01 0. -1.
</event>
<event>
 5   0  0.8545153E-07  0.3197008E+04  0.7818609E-02  0.8189608E-01
       -1   -1    0    0    0  501  0.00000000000E+00  0.00000000000E+00  0.25661917753E+04  0.25661917753E+04  0.50400001928E-02 0.  1.
        1   -1    0    0  501    0  0.00000000000E+00  0.00000000000E+00 -0.99572245966E+03  0.99572245967E+03  0.50400001928E-02 0. -1.
    10030    2    1    2    0    0  0.00000000000E+00  0.00000000000E+00  0.15704693156E+04  0.35619142349E+04  0.31970078426E+04 0.  0.
        3    1    3    3  502    0  0.14279399939E+04 -0.12507753565E+03  0.15734898784E+04  0.21285035645E+04  0.10100000352E+00 0.  1.
       -3    1    3    3    0  502 -0.14279399939E+04  0.12507753565E+03 -0.30205628405E+01  0.14334106705E+04  0.10100000352E+00 0. -1.
</event>
<event>
 5   0  0.8545153E-07  0.3213672E+04  0.7818609E-02  0.8185216E-01
        1   -1    0    0  501    0  0.00000000000E+00  0.00000000000E+00  0.19533657845E+04  0.19533657845E+04  0.50400001928E-02 0. -1.
       -1   -1    0    0    0  501  0.00000000000E+00  0.00000000000E+00 -0.13217814277E+04  0.13217814277E+04  0.50400001928E-02 0.  1.
    10030    2    1    2    0    0  0.00000000000E+00  0.00000000000E+00  0.63158435683E+03  0.32751472122E+04  0.32136724260E+04 0.  0.
        3    1    3    3  502    0 -0.84230047805E+03  0.69632941756E+03 -0.88469603017E+03  0.14060696388E+04  0.10100000352E+00 0.  1.
       -3    1    3    3    0  502  0.84230047805E+03 -0.69632941756E+03  0.15162803870E+04  0.18690775734E+04  0.10100000352E+00 0. -1.
</event>
<event>
 5   0  0.2621528E-06  0.3187499E+04  0.7818609E-02  0.8192127E-01
        2   -1    0    0  501    0  0.00000000000E+00  0.00000000000E+00  0.12742230191E+04  0.12742230191E+04  0.25500000920E-02 0. -1.
       -2   -1    0    0    0  501  0.00000000000E+00  0.00000000000E+00 -0.19934005793E+04  0.19934005793E+04  0.25500000920E-02 0.  1.
    10030    2    1    2    0    0  0.00000000000E+00  0.00000000000E+00 -0.71917756019E+03  0.32676235983E+04  0.31874986459E+04 0.  0.
        2    1    3    3  502    0 -0.14313099939E+02 -0.62067959550E+03 -0.18643383291E+04  0.19649950205E+04  0.25500000920E-02 0.  1.
       -2    1    3    3    0  502  0.14313099939E+02  0.62067959550E+03  0.11451607689E+04  0.13026285778E+04  0.25500000920E-02 0. -1.
</event>
<event>
 5   0  0.8512855E-07  0.3183502E+04  0.7818609E-02  0.8193188E-01
        1   -1    0    0  501    0  0.00000000000E+00  0.00000000000E+00  0.23449355546E+04  0.23449355546E+04  0.50400001928E-02 0.  1.
       -1   -1    0    0    0  501  0.00000000000E+00  0.00000000000E+00 -0.10804866267E+04  0.10804866267E+04  0.50400001928E-02 0. -1.
    10030    2    1    2    0    0  0.00000000000E+00  0.00000000000E+00  0.12644489279E+04  0.34254221814E+04  0.31835021642E+04 0.  0.
        5    1    3    3  502    0 -0.92526718212E+03  0.98928554801E+03 -0.26727131037E+03  0.13806742183E+04  0.46999998093E+01 0. -1.
       -5    1    3    3    0  502  0.92526718212E+03 -0.98928554801E+03  0.15317202383E+04  0.20447479630E+04  0.46999998093E+01 0.  1.
</event>
<event>
 5   0  0.8487944E-07  0.3197583E+04  0.7818609E-02  0.8189456E-01
        1   -1    0    0  501    0  0.00000000000E+00  0.00000000000E+00  0.21983168430E+04  0.21983168430E+04  0.50400001928E-02 0. -1.
       -1   -1    0    0    0  501  0.00000000000E+00  0.00000000000E+00 -0.11627687096E+04  0.11627687096E+04  0.50400001928E-02 0.  1.
    10030    2    1    2    0    0  0.00000000000E+00  0.00000000000E+00  0.10355481334E+04  0.33610855526E+04  0.31975828614E+04 0.  0.
        2    1    3    3  502    0  0.96170908924E+03 -0.14706134426E+03  0.18513562783E+04  0.20914185331E+04  0.25500000920E-02 0. -1.
       -2    1    3    3    0  502 -0.96170908924E+03  0.14706134426E+03 -0.81580814487E+03  0.12696670196E+04  0.25500000920E-02 0.  1.
</event>
<event>
 5   0  0.8545153E-07  0.3359708E+04  0.7818609E-02  0.8147867E-01
        1   -1    0    0  501    0  0.00000000000E+00  0.00000000000E+00  0.20072346426E+04  0.20072346426E+04  0.50400001928E-02 0.  1.
       -1   -1    0    0    0  501  0.00000000000E+00  0.00000000000E+00 -0.14058694871E+04  0.14058694871E+04  0.50400001928E-02 0. -1.
    10030    2    1    2    0    0  0.00000000000E+00  0.00000000000E+00  0.60136515553E+03  0.34131041297E+04  0.33597082835E+04 0.  0.
        3    1    3    3  502    0 -0.78344742744E+03 -0.13676614181E+03  0.18038661487E+04  0.19714025316E+04  0.10100000352E+00 0.  1.
       -3    1    3    3    0  502  0.78344742744E+03  0.13676614181E+03 -0.12025009932E+04  0.14417015981E+04  0.10100000352E+00 0. -1.
</event>
<event>
 5   0  0.2337504E-06  0.3186525E+04  0.7818609E-02  0.8192385E-01
       -2   -1    0    0    0  501  0.00000000000E+00  0.00000000000E+00  0.11731860872E+04  0.11731860872E+04  0.25500000920E-02 0.  1.
        2   -1    0    0  501    0  0.00000000000E+00  0.00000000000E+00 -0.21637530099E+04  0.21637530099E+04  0.25500000920E-02 0. -1.
    10030    2    1    2    0    0  0.00000000000E+00  0.00000000000E+00 -0.99056692270E+03  0.33369390971E+04  0.31865247071E+04 0.  0.
        1    1    3    3  502    0  0.11629307311E+04 -0.30192628003E+03  0.60049232957E+03  0.13431896373E+04  0.50400001928E-02 0. -1.
       -1    1    3    3    0  502 -0.11629307311E+04  0.30192628003E+03 -0.15910592523E+04  0.19937494597E+04  0.50400001928E-02 0.  1.
</event>
<event>
 5   0  0.2621528E-06  0.3185895E+04  0.7818609E-02  0.8192552E-01
       -2   -1    0    0    0  501  0.00000000000E+00  0.00000000000E+00  0.14977313212E+04  0.14977313212E+04  0.25500000920E-02 0. -1.
        2   -1    0    0  501    0  0.00000000000E+00  0.00000000000E+00 -0.16942169060E+04  0.16942169060E+04  0.25500000920E-02 0.  1.
    10030    2    1    2    0    0  0.00000000000E+00  0.00000000000E+00 -0.19648558487E+03  0.31919482272E+04  0.31858949920E+04 0.  0.
        2    1    3    3  502    0  0.70323529419E+03  0.99900603304E+03  0.92591701753E+03  0.15329302843E+04  0.25500000920E-02 0.  1.
       -2    1    3    3    0  502 -0.70323529419E+03 -0.99900603304E+03 -0.11224026024E+04  0.16590179429E+04  0.25500000920E-02 0. -1.
</event>
<event>
 5   0  0.8545153E-07  0.2895982E+04  0.7818609E-02  0.8274074E-01
        1   -1    0    0  501    0  0.00000000000E+00  0.00000000000E+00  0.17187364955E+04  0.17187364955E+04  0.50400001928E-02 0.  1.
       -1   -1    0    0    0  501  0.00000000000E+00  0.00000000000E+00 -0.12198949670E+04  0.12198949670E+04  0.50400001928E-02 0. -1.
    10030    2    1    2    0    0  0.00000000000E+00  0.00000000000E+00  0.49884152850E+03  0.29386314625E+04  0.28959820445E+04 0.  0.
        3    1    3    3  502    0  0.69905738693E+03 -0.12673806398E+04  0.20705576813E+03  0.14621241458E+04  0.10100000352E+00 0. -1.
       -3    1    3    3    0  502 -0.69905738693E+03  0.12673806398E+04  0.29178576037E+03  0.14765073168E+04  0.10100000352E+00 0.  1.
</event>
<event>
 5   0  0.2337504E-06  0.3173957E+04  0.7818609E-02  0.8195729E-01
       -2   -1    0    0    0  501  0.00000000000E+00  0.00000000000E+00  0.14044993206E+04  0.14044993206E+04  0.25500000920E-02 0. -1.
        2   -1    0    0  501    0  0.00000000000E+00  0.00000000000E+00 -0.17931661910E+04  0.17931661910E+04  0.25500000920E-02 0.  1.
    10030    2    1    2    0    0  0.00000000000E+00  0.00000000000E+00 -0.38866687037E+03  0.31976655116E+04  0.31739569607E+04 0.  0.
        1    1    3    3  502    0  0.74752265959E+03 -0.72590174440E+03 -0.14002613122E+04  0.17454097546E+04  0.50400001928E-02 0.  1.
       -1    1    3    3    0  502 -0.74752265959E+03  0.72590174440E+03  0.10115944418E+04  0.14522557570E+04  0.50400001928E-02 0. -1.
</event>
<event>
 5   0  0.8681172E-07  0.3213642E+04  0.7818609E-02  0.8185224E-01
        1   -1    0    0  501    0  0.00000000000E+00  0.00000000000E+00  0.11716854874E+04  0.11716854874E+04  0.50400001928E-02 0.  1.
       -1   -1    0    0    0  501  0.00000000000E+00  0.00000000000E+00 -0.22035547680E+04  0.22035547680E+04  0.50400001928E-02 0. -1.
    10030    2    1    2    0    0  0.00000000000E+00  0.00000000000E+00 -0.10318692807E+04  0.33752402554E+04  0.32136416368E+04 0.  0.
        1    1    3    3  502    0 -0.14653240900E+04  0.13124954928E+03  0.16267641067E+03  0.14801570009E+04  0.50400001928E-02 0.  1.
       -1    1    3    3    0  502  0.14653240900E+04 -0.13124954928E+03 -0.11945456913E+04  0.18950832545E+04  0.50400001928E-02 0. -1.
</event>
<event>
 5   0  0.8545153E-07  0.3149828E+04  0.7818609E-02  0.8202195E-01
        1   -1    0    0  501    0  0.00000000000E+00  0.00000000000E+00  0.24715411561E+04  0.24715411561E+04  0.50400001928E-02 0. -1.
       -1   -1    0    0    0  501  0.00000000000E+00  0.00000000000E+00 -0.10035657698E+04  0.10035657698E+04  0.50400001928E-02 0.  1.
    10030    2    1    2    0    0  0.00000000000E+00  0.00000000000E+00  0.14679753863E+04  0.34751069260E+04  0.31498279972E+04 0.  0.
        3    1    3    3  502    0 -0.53269013270E+03 -0.14277113832E+04  0.29512029027E+03  0.15521644781E+04  0.10100000352E+00 0.  1.
       -3    1    3    3    0  502  0.53269013270E+03  0.14277113832E+04  0.11728550960E+04  0.19229424478E+04  0.10100000352E+00 0. -1.
</event>
<event>
 5   0  0.2404430E-06  0.3134043E+04  0.7818609E-02  0.8206457E-01
       -2   -1    0    0    0  501  0.00000000000E+00  0.00000000000E+00  0.14752582020E+04  0.14752582020E+04  0.25500000920E-02 0.  1.
        2   -1    0    0  501    0  0.00000000000E+00  0.00000000000E+00 -0.16644924552E+04  0.16644924552E+04  0.25500000920E-02 0. -1.
    10030    2    1    2    0    0  0.00000000000E+00  0.00000000000E+00 -0.18923425323E+03  0.31397506572E+04  0.31340428502E+04 0.  0.
        4    1    3    3  502    0 -0.87626721231E+03  0.12219817103E+04  0.34717468314E+03  0.15432483278E+04  0.12699999809E+01 0.  1.
       -4    1    3    3    0  502  0.87626721231E+03 -0.12219817103E+04 -0.53640893637E+03  0.15965023294E+04  0.12699999809E+01 0. -1.
</event>
<event>
 5   0  0.2401139E-06  0.3245355E+04  0.7818609E-02  0.8176941E-01
       -2   -1    0    0    0  501  0.00000000000E+00  0.00000000000E+00  0.14538395922E+04  0.14538395922E+04  0.25500000920E-02 0. -1.
        2   -1    0    0  501    0  0.00000000000E+00  0.00000000000E+00 -0.18111229814E+04  0.18111229814E+04  0.25500000920E-02 0.  1.
    10030    2    1    2    0    0  0.00000000000E+00  0.00000000000E+00 -0.35728338922E+03  0.32649625736E+04  0.32453550171E+04 0.  0.
        5    1    3    3  502    0  0.11841957416E+03  0.87265015491E+03  0.11925008118E+04  0.14824377777E+04  0.46999998093E+01 0. -1.
       -5    1    3    3    0  502 -0.11841957416E+03 -0.87265015491E+03 -0.15497842010E+04  0.17825247960E+04  0.46999998093E+01 0.  1.
</event>
<event>
 5   0  0.2337504E-06  0.3347629E+04  0.7818609E-02  0.8150881E-01
       -2   -1    0    0    0  501  0.00000000000E+00  0.00000000000E+00  0.16615205587E+04  0.16615205587E+04  0.25500000920E-02 0. -1.
        2   -1    0    0  501    0  0.00000000000E+00  0.00000000000E+00 -0.16861995405E+04  0.16861995405E+04  0.25500000920E-02 0.  1.
    10030    2    1    2    0    0  0.00000000000E+00  0.00000000000E+00 -0.24678981791E+02  0.33477200992E+04  0.33476291328E+04 0.  0.
        1    1    3    3  502    0 -0.11883432555E+04  0.71920098023E+03  0.92162670993E+03  0.16669749654E+04  0.50400001928E-02 0. -1.
       -1    1    3    3    0  502  0.11883432555E+04 -0.71920098023E+03 -0.94630569172E+03  0.16807451338E+04  0.50400001928E-02 0.  1.
</event>
<event>
 5   0  0.2401139E-06  0.3067565E+04  0.7818609E-02  0.8224696E-01
        2   -1    0    0  501    0  0.00000000000E+00  0.00000000000E+00  0.73966926411E+03  0.73966926411E+03  0.25500000920E-02 0.  1.
       -2   -1    0    0    0  501  0.00000000000E+00  0.00000000000E+00 -0.31804600234E+04  0.31804600234E+04  0.25500000920E-02 0. -1.
    10030    2    1    2    0    0  0.00000000000E+00  0.00000000000E+00 -0.24407907593E+04  0.39201292875E+04  0.30675648486E+04 0.  0.
        5    1    3    3  502    0  0.93341664051E+02  0.74948191524E+02  0.73368116692E+03  0.74339763408E+03  0.46999998093E+01 0.  1.
       -5    1    3    3    0  502 -0.93341664051E+02 -0.74948191524E+02 -0.31744719262E+04  0.31767316534E+04  0.46999998093E+01 0. -1.
</event>
<event>
 5   0  0.2404430E-06  0.3232520E+04  0.7818609E-02  0.8180281E-01
        2   -1    0    0  501    0  0.00000000000E+00  0.00000000000E+00  0.27107699680E+04  0.27107699680E+04  0.25500000920E-02 0.  1.
       -2   -1    0    0    0  501  0.00000000000E+00  0.00000000000E+00 -0.96367334931E+03  0.96367334932E+03  0.25500000920E-02 0. -1.
    10030    2    1    2    0    0  0.00000000000E+00  0.00000000000E+00  0.17470966187E+04  0.36744433174E+04  0.32325202393E+04 0.  0.
        4    1    3    3  502    0  0.12973395973E+04 -0.74510367765E+03  0.17836235817E+03  0.15066798814E+04  0.12699999809E+01 0. -1.
       -4    1    3    3    0  502 -0.12973395973E+04  0.74510367765E+03  0.15687342606E+04  0.21677634360E+04  0.12699999809E+01 0.  1.
</event>
<event>
 5   0  0.8545153E-07  0.3232213E+04  0.7818609E-02  0.8180361E-01
       -1   -1    0    0    0  501  0.00000000000E+00  0.00000000000E+00  0.11527776455E+04  0.11527776456E+04  0.50400001928E-02 0.  1.
        1   -1    0    0  501    0  0.00000000000E+00  0.00000000000E+00 -0.22656578173E+04  0.22656578173E+04  0.50400001928E-02 0. -1.
    10030    2    1    2    0    0  0.00000000000E+00  0.00000000000E+00 -0.11128801717E+04  0.34184354628E+04  0.32322126689E+04 0.  0.
        3    1    3    3  502    0  0.94076115374E+03  0.65673325852E+03 -0.17602032851E+04  0.21011058365E+04  0.10100000352E+00 0. -1.
       -3    1    3    3    0  502 -0.94076115374E+03 -0.65673325852E+03  0.64732311331E+03  0.13173296263E+04  0.10100000352E+00 0.  1.
</event>
<event>
 5   0  0.8545153E-07  0.3210104E+04  0.7818609E-02  0.8186154E-01
       -1   -1    0    0    0  501  0.00000000000E+00  0.00000000000E+00  0.17542310132E+04  0.17542310132E+04  0.50400001928E-02 0. -1.
        1   -1    0    0  501    0  0.00000000000E+00  0.00000000000E+00 -0.14685586907E+04  0.14685586907E+04  0.50400001928E-02 0.  1.
    10030    2    1    2    0    0  0.00000000000E+00  0.00000000000E+00  0.28567232249E+03  0.32227897038E+04  0.32101035496E+04 0.  0.
        3    1    3    3  502    0  0.76979060452E+03 -0.14031636037E+04  0.26474716713E+03  0.16222012040E+04  0.10100000352E+00 0.  1.
       -3    1    3    3    0  502 -0.76979060452E+03  0.14031636037E+04  0.20925155361E+02  0.16005884999E+04  0.10100000352E+00 0. -1.
</event>
<event>
 5   0  0.2466076E-06  0.3197038E+04  0.7818609E-02  0.8189600E-01
       -2   -1    0    0    0  501  0.00000000000E+00  0.00000000000E+00  0.99745043144E+03  0.99745043144E+03  0.25500000920E-02 0.  1.
        2   -1    0    0  501    0  0.00000000000E+00  0.00000000000E+00 -0.25617948148E+04  0.25617948148E+04  0.25500000920E-02 0. -1.
    10030    2    1    2    0    0  0.00000000000E+00  0.00000000000E+00 -0.15643443834E+04  0.35592452463E+04  0.31970382189E+04 0.  0.
        3    1    3    3  502    0  0.94577822833E+03  0.98846125233E+02  0.64831224827E+03  0.11509021657E+04  0.10100000352E+00 0.  1.
       -3    1    3    3    0  502 -0.94577822833E+03 -0.98846125233E+02 -0.22126566317E+04  0.24083430805E+04  0.10100000352E+00 0. -1.
</event>
<event>
 5   0  0.2404430E-06  0.2994668E+04  0.7818609E-02  0.8245255E-01
       -2   -1    0    0    0  501  0.00000000000E+00  0.00000000000E+00  0.22742319558E+04  0.22742319558E+04  0.25500000920E-02 0. -1.
        2   -1    0    0  501    0  0.00000000000E+00  0.00000000000E+00 -0.98583165508E+03  0.98583165508E+03  0.25500000920E-02 0.  1.
    10030    2    1    2    0    0  0.00000000000E+00  0.00000000000E+00  0.12884003007E+04  0.32600636108E+04  0.29946684978E+04 0.  0.
        4    1    3    3  502    0 -0.88177545031E+03 -0.32584043950E+03 -0.62455114262E+03  0.11286122804E+04  0.12699999809E+01 0.  1.
       -4    1    3    3    0  502  0.88177545031E+03  0.32584043950E+03  0.19129514433E+04  0.21314513305E+04  0.12699999809E+01 0. -1.
</event>
<event>
 5   0  0.8487944E-07  0.3180843E+04  0.7818609E-02  0.8193895E-01
        1   -1    0    0  501    0  0.00000000000E+00  0.00000000000E+00  0.16910261685E+04  0.16910261685E+04  0.50400001928E-02 0. -1.
       -1   -1    0    0    0  501  0.00000000000E+00  0.00000000000E+00 -0.14958021689E+04  0.14958021690E+04  0.50400001928E-02 0.  1.
    10030    2    1    2    0    0  0.00000000000E+00  0.00000000000E+00  0.19522399957E+03  0.31868283375E+04  0.31808430396E+04 0.  0.
        2    1    3    3  502    0 -0.14130915444E+04 -0.72888323133E+03  0.60907932358E+02  0.15911656903E+04  0.25500000920E-02 0. -1.
       -2    1    3    3    0  502  0.14130915444E+04  0.72888323133E+03  0.13431606721E+03  0.15956626472E+04  0.25500000920E-02 0.  1.
</event>
<event>
 5   0  0.8681172E-07  0.3209216E+04  0.7818609E-02  0.8186387E-01
        1   -1    0    0  501    0  0.00000000000E+00  0.00000000000E+00  0.13822119387E+04  0.13822119387E+04  0.50400001928E-02 0. -1.
       -1   -1    0    0    0  501  0.00000000000E+00  0.00000000000E+00 -0.18627874612E+04  0.18627874612E+04  0.50400001928E-02 0.  1.
    10030    2    1    2    0    0  0.00000000000E+00  0.00000000000E+00 -0.48057552249E+03  0.32449993999E+04  0.32092161461E+04 0.  0.
        1    1    3    3  502    0  0.13501185123E+04  0.77996324585E+03  0.14288932868E+03  0.15657522225E+04  0.50400001928E-02 0. -1.
       -1    1    3    3    0  502 -0.13501185123E+04 -0.77996324585E+03 -0.62346485117E+03  0.16792471774E+04  0.50400001928E-02 0.  1.
</event>
<event>
 5   0  0.8487944E-07  0.2784259E+04  0.7818609E-02  0.8308172E-01
        1   -1    0    0  501    0  0.00000000000E+00  0.00000000000E+00  0.21349705279E+04  0.21349705279E+04  0.50400001928E-02 0. -1.
       -1   -1    0    0    0  501  0.00000000000E+00  0.00000000000E+00 -0.90775203951E+03  0.90775203953E+03  0.50400001928E-02 0.  1.
    10030    2    1    2    0    0  0.00000000000E+00  0.00000000000E+00  0.12272184884E+04  0.30427225674E+04  0.27842585017E+04 0.  0.
        2    1    3    3  502    0  0.49313515597E+02 -0.16813715273E+03 -0.89565332663E+03  0.91263180224E+03  0.25500000920E-02 0.  1.
       -2    1    3    3    0  502 -0.49313515597E+02  0.16813715273E+03  0.21228718150E+04  0.21300907652E+04  0.25500000920E-02 0. -1.
</event>
<event>
 5   0  0.2404430E-06  0.3199713E+04  0.7818609E-02  0.8188893E-01
       -2   -1    0    0    0  501  0.00000000000E+00  0.00000000000E+00  0.11742431849E+04  0.11742431849E+04  0.25500000920E-02 0. -1.
        2   -1    0    0  501    0  0.00000000000E+00  0.00000000000E+00 -0.21797361233E+04  0.21797361233E+04  0.25500000920E-02 0.  1.
    10030    2    1    2    0    0  0.00000000000E+00  0.00000000000E+00 -0.10054929384E+04  0.33539793081E+04  0.31997126668E+04 0.  0.
        4    1    3    3  502    0  0.54785516761E+02  0.42380524109E+03 -0.21188056471E+04  0.21614697126E+04  0.12699999809E+01 0.  1.
       -4    1    3    3    0  502 -0.54785516761E+02 -0.42380524109E+03  0.11133127087E+04  0.11925095956E+04  0.12699999809E+01 0. -1.
</event>
<event>
 5   0  0.2404430E-06  0.3193277E+04  0.7818609E-02  0.8190595E-01
        2   -1    0    0  501    0  0.00000000000E+00  0.00000000000E+00  0.17912540088E+04  0.17912540088E+04  0.25500000920E-02 0.  1.
       -2   -1    0    0    0  501  0.00000000000E+00  0.00000000000E+00 -0.14231678413E+04  0.14231678413E+04  0.25500000920E-02 0. -1.
    10030    2    1    2    0    0  0.00000000000E+00  0.00000000000E+00  0.36808616747E+03  0.32144218501E+04  0.31932773766E+04 0.  0.
        4    1    3    3  502    0 -0.87698345826E+03  0.11650449076E+04 -0.47051165803E+03  0.15322573074E+04  0.12699999809E+01 0. -1.
       -4    1    3    3    0  502  0.87698345826E+03 -0.11650449076E+04  0.83859782550E+03  0.16821645427E+04  0.12699999809E+01 0.  1.
</event>
<event>
 5   0  0.2401139E-06  0.3217204E+04  0.7818609E-02  0.8184288E-01
        2   -1    0    0  501    0  0.00000000000E+00  0.00000000000E+00  0.16174634485E+04  0.16174634485E+04  0.25500000920E-02 0. -1.
       -2   -1    0    0    0  501  0.00000000000E+00  0.00000000000E+00 -0.15997892784E+04  0.15997892784E+04  0.25500000920E-02 0.  1.
    10030    2    1    2    0    0  0.00000000000E+00  0.00000000000E+00  0.17674170095E+02  0.32172527270E+04  0.32172041795E+04 0.  0.
        5    1    3    3  502    0 -0.49344509774E+03 -0.20498064860E+02 -0.15220910943E+04  0.16002161181E+04  0.46999998093E+01 0.  1.
       -5    1    3    3    0  502  0.49344509774E+03  0.20498064860E+02  0.15397652644E+04  0.16170366089E+04  0.46999998093E+01 0. -1.
</event>
<event>
 5   0  0.8545153E-07  0.3219376E+04  0.7818609E-02  0.8183719E-01
        1   -1    0    0  501    0  0.00000000000E+00  0.00000000000E+00  0.12853952452E+04  0.12853952453E+04  0.50400001928E-02 0.  1.
       -1   -1    0    0    0  501  0.00000000000E+00  0.00000000000E+00 -0.20157971806E+04  0.20157971806E+04  0.50400001928E-02 0. -1.
    10030    2    1    2    0    0  0.00000000000E+00  0.00000000000E+00 -0.73040193530E+03  0.33011924258E+04  0.32193764063E+04 0.  0.
        3    1    3    3  502    0 -0.28768804124E+03 -0.68080525873E+03 -0.18315194638E+04  0.19750250038E+04  0.10100000352E+00 0. -1.
       -3    1    3    3    0  502  0.28768804124E+03  0.68080525873E+03  0.11011175285E+04  0.13261674220E+04  0.10100000352E+00 0.  1.
</event>
<event>
 5   0  0.8487944E-07  0.3235405E+04  0.7818609E-02  0.8179529E-01
       -1   -1    0    0    0  501  0.00000000000E+00  0.00000000000E+00  0.11724712975E+04  0.11724712976E+04  0.50400001928E-02 0. -1.
        1   -1    0    0  501    0  0.00000000000E+00  0.00000000000E+00 -0.22320046081E+04  0.22320046081E+04  0.50400001928E-02 0.  1.
    10030    2    1    2    0    0  0.00000000000E+00  0.00000000000E+00 -0.10595333106E+04  0.34044759057E+04  0.32354049756E+04 0.  0.
        2    1    3    3  502    0 -0.72886568541E+03 -0.14279378722E+04 -0.30234876889E+03  0.16314614713E+04  0.25500000920E-02 0. -1.
       -2    1    3    3    0  502  0.72886568541E+03  0.14279378722E+04 -0.75718454168E+03  0.17730144344E+04  0.25500000920E-02 0.  1.
</event>
<event>
 5   0  0.2337504E-06  0.2992515E+04  0.7818609E-02  0.8245872E-01
       -2   -1    0    0    0  501  0.00000000000E+00  0.00000000000E+00  0.11437186032E+04  0.11437186032E+04  0.25500000920E-02 0. -1.
        2   -1    0    0  501    0  0.00000000000E+00  0.00000000000E+00 -0.19574624520E+04  0.19574624520E+04  0.25500000920E-02 0.  1.
    10030    2    1    2    0    0  0.00000000000E+00  0.00000000000E+00 -0.81374384884E+03  0.31011810553E+04  0.29925148097E+04 0.  0.
        1    1    3    3  502    0 -0.45195553776E+03  0.11859995055E+04  0.41432175006E+03  0.13351109122E+04  0.50400001928E-02 0. -1.
       -1    1    3    3    0  502  0.45195553776E+03 -0.11859995055E+04 -0.12280655989E+04  0.17660701431E+04  0.50400001928E-02 0.  1.
</event>
<event>
 5   0  0.8383008E-07  0.3162041E+04  0.7818609E-02  0.8198915E-01
        1   -1    0    0  501    0  0.00000000000E+00  0.00000000000E+00  0.27153278555E+04  0.27153278556E+04  0.50400001928E-02 0.  1.
       -1   -1    0    0    0  501  0.00000000000E+00  0.00000000000E+00 -0.92056129848E+03  0.92056129850E+03  0.50400001928E-02 0. -1.
    10030    2    1    2    0    0  0.00000000000E+00  0.00000000000E+00  0.17947665571E+04  0.36358891540E+04  0.31620409463E+04 0.  0.
        4    1    3    3  502    0  0.67814422792E+03  0.14191604315E+04  0.10818201907E+04  0.19089872870E+04  0.12699999809E+01 0.  1.
       -4    1    3    3    0  502 -0.67814422792E+03 -0.14191604315E+04  0.71294636635E+03  0.17269018670E+04  0.12699999809E+01 0. -1.
</event>
<event>
 5   0  0.2337504E-06  0.3205991E+04  0.7818609E-02  0.8187237E-01
       -2   -1    0    0    0  501  0.00000000000E+00  0.00000000000E+00  0.12091955700E+04  0.12091955700E+04  0.25500000920E-02 0.  1.
        2   -1    0    0  501    0  0.00000000000E+00  0.00000000000E+00 -0.21250448323E+04  0.21250448323E+04  0.25500000920E-02 0. -1.
    10030    2    1    2    0    0  0.00000000000E+00  0.00000000000E+00 -0.91584926222E+03  0.33342404023E+04  0.32059911399E+04 0.  0.
        1    1    3    3  502    0  0.11084210826E+04  0.23040368641E+03 -0.16381844617E+04  0.19913140098E+04  0.50400001928E-02 0. -1.
       -1    1    3    3    0  502 -0.11084210826E+04 -0.23040368641E+03  0.72233519949E+03  0.13429263925E+04  0.50400001928E-02 0.  1.
</event>
<event>
 5   0  0.2621528E-06  0.3125341E+04  0.7818609E-02  0.8208817E-01
       -2   -1    0    0    0  501  0.00000000000E+00  0.00000000000E+00  0.19343633983E+04  0.19343633983E+04  0.25500000920E-02 0. -1.
        2   -1    0    0  501    0  0.00000000000E+00  0.00000000000E+00 -0.12623997137E+04  0.12623997137E+04  0.25500000920E-02 0.  1.
    10030    2    1    2    0    0  0.00000000000E+00  0.00000000000E+00  0.67196368466E+03  0.31967631120E+04  0.31253414535E+04 0.  0.
        2    1    3    3  502    0 -0.10756112804E+04  0.59667289072E+02 -0.82189433603E+03  0.13549945061E+04  0.25500000920E-02 0.  1.
       -2    1    3    3    0  502  0.10756112804E+04 -0.59667289072E+02  0.14938580207E+04  0.18417686059E+04  0.25500000920E-02 0. -1.
</event>
<event>
 5   0  0.8383008E-07  0.3185836E+04  0.7818609E-02  0.8192568E-01
        1   -1    0    0  501    0  0.00000000000E+00  0.00000000000E+00  0.10148281019E+04  0.10148281019E+04  0.50400001928E-02 0. -1.
       -1   -1    0    0    0  501  0.00000000000E+00  0.00000000000E+00 -0.25003131119E+04  0.25003131119E+04  0.50400001928E-02 0.  1.
    10030    2    1    2    0    0  0.00000000000E+00  0.00000000000E+00 -0.14854850100E+04  0.35151412138E+04  0.31858361599E+04 0.  0.
        4    1    3    3  502    0  0.11360716676E+04  0.44286620173E+03 -0.18736769616E+04  0.22354991112E+04  0.12699999809E+01 0.  1.
       -4    1    3    3    0  502 -0.11360716676E+04 -0.44286620173E+03  0.38819195166E+03  0.12796421026E+04  0.12699999809E+01 0. -1.
</event>
<event>
 5   0  0.2404430E-06  0.3263307E+04  0.7818609E-02  0.8172295E-01
       -2   -1    0    0    0  501  0.00000000000E+00  0.00000000000E+00  0.13983239287E+04  0.13983239287E+04  0.25500000920E-02 0. -1.
        2   -1    0    0  501    0  0.00000000000E+00  0.00000000000E+00 -0.19039178964E+04  0.19039178964E+04  0.25500000920E-02 0.  1.
    10030    2    1    2    0    0  0.00000000000E+00  0.00000000000E+00 -0.50559396778E+03  0.33022418251E+04  0.32633074957E+04 0.  0.
        4    1    3    3  502    0  0.96672469084E+03 -0.12015481685E+04  0.28649453012E+03  0.15685519940E+04  0.12699999809E+01 0. -1.
       -4    1    3    3    0  502 -0.96672469084E+03  0.12015481685E+04 -0.79208849790E+03  0.17336898311E+04  0.12699999809E+01 0.  1.
</event>
<event>
 5   0  0.8545153E-07  0.3183024E+04  0.7818609E-02  0.8193315E-01
       -1   -1    0    0    0  501  0.00000000000E+00  0.00000000000E+00  0.15004056933E+04  0.15004056933E+04  0.50400001928E-02 0.  1.
        1   -1    0    0  501    0  0.00000000000E+00  0.00000000000E+00 -0.16881506490E+04  0.16881506490E+04  0.50400001928E-02 0. -1.
    10030    2    1    2    0    0  0.00000000000E+00  0.00000000000E+00 -0.18774495570E+03  0.31885563423E+04  0.31830242506E+04 0.  0.
        3    1    3    3  502    0 -0.14764513872E+04  0.44375800458E+03  0.30188499572E+03  0.15709756288E+04  0.10100000352E+00 0.  1.
       -3    1    3    3    0  502  0.14764513872E+04 -0.44375800458E+03 -0.48962995142E+03  0.16175807135E+04  0.10100000352E+00 0. -1.
</event>
<event>
 5   0  0.2401139E-06  0.3175195E+04  0.7818609E-02  0.8195399E-01
       -2   -1    0    0    0  501  0.00000000000E+00  0.00000000000E+00  0.16697585388E+04  0.16697585388E+04  0.25500000920E-02 0. -1.
        2   -1    0    0  501    0  0.00000000000E+00  0.00000000000E+00 -0.15094791645E+04  0.15094791645E+04  0.25500000920E-02 0.  1.
    10030    2    1    2    0    0  0.00000000000E+00  0.00000000000E+00  0.16027937426E+03  0.31792377034E+04  0.31751949384E+04 0.  0.
        5    1    3    3  502    0 -0.12460307717E+04  0.57406707477E+03  0.88009242541E+03  0.16299479923E+04  0.46999998093E+01 0. -1.
       -5    1    3    3    0  502  0.12460307717E+04 -0.57406707477E+03 -0.71981305114E+03  0.15492897111E+04  0.46999998093E+01 0.  1.
</event>
<event>
 5   0  0.2401139E-06  0.3206016E+04  0.7818609E-02  0.8187230E-01
       -2   -1    0    0    0  501  0.00000000000E+00  0.00000000000E+00  0.87326190665E+03  0.87326190665E+03  0.25500000920E-02 0.  1.
        2   -1    0    0  501    0  0.00000000000E+00  0.00000000000E+00 -0.29425712428E+04  0.29425712428E+04  0.25500000920E-02 0. -1.
    10030    2    1    2    0    0  0.00000000000E+00  0.00000000000E+00 -0.20693093361E+04  0.38158331494E+04  0.32060164528E+04 0.  0.
        5    1    3    3  502    0  0.23396628895E+03 -0.74716849482E+03  0.63019881654E+03  0.10050739388E+04  0.46999998093E+01 0.  1.
       -5    1    3    3    0  502 -0.23396628895E+03  0.74716849482E+03 -0.26995081527E+04  0.28107592107E+04  0.46999998093E+01 0. -1.
</event>
<event>
 5   0  0.2337504E-06  0.3189821E+04  0.7818609E-02  0.8191511E-01
        2   -1    0    0  501    0  0.00000000000E+00  0.00000000000E+00  0.15176408673E+04  0.15176408673E+04  0.25500000920E-02 0.  1.
       -2   -1    0    0    0  501  0.00000000000E+00  0.00000000000E+00 -0.16761145943E+04  0.16761145943E+04  0.25500000920E-02 0. -1.
    10030    2    1    2    0    0  0.00000000000E+00  0.00000000000E+00 -0.15847372707E+03  0.31937554616E+04  0.31898213157E+04 0.  0.
        1    1    3    3  502    0 -0.14866790272E+04 -0.32059180222E+03 -0.56018998300E+03  0.16207425615E+04  0.50400001928E-02 0.  1.
       -1    1    3    3    0  502  0.14866790272E+04  0.32059180222E+03  0.40171625593E+03  0.15730129001E+04  0.50400001928E-02 0. -1.
</event>
<event>
 5   0  0.8383008E-07  0.3133307E+04  0.7818609E-02  0.8206656E-01
       -1   -1    0    0    0  501  0.00000000000E+00  0.00000000000E+00  0.10579646573E+04  0.10579646573E+04  0.50400001928E-02 0. -1.
        1   -1    0    0  501    0  0.00000000000E+00  0.00000000000E+00 -0.23199289686E+04  0.23199289686E+04  0.50400001928E-02 0.  1.
    10030    2    1    2    0    0  0.00000000000E+00  0.00000000000E+00 -0.12619643112E+04  0.33778936259E+04  0.31333067876E+04 0.  0.
        4    1    3    3  502    0  0.84357191444E+03 -0.13075368859E+04 -0.82722158783E+03  0.17622608919E+04  0.12699999809E+01 0.  1.
       -4    1    3    3    0  502 -0.84357191444E+03  0.13075368859E+04 -0.43474272340E+03  0.16156327340E+04  0.12699999809E+01 0. -1.
</event>
<event>
 5   0  0.8545153E-07  0.3206788E+04  0.7818609E-02  0.8187027E-01
        1   -1    0    0  501    0  0.00000000000E+00  0.00000000000E+00  0.24442878902E+04  0.24442878902E+04  0.50400001928E-02 0. -1.
       -1   -1    0    0    0  501  0.00000000000E+00  0.00000000000E+00 -0.10517879452E+04  0.10517879452E+04  0.50400001928E-02 0.  1.
    10030    2    1    2    0    0  0.00000000000E+00  0.00000000000E+00  0.13924999450E+04  0.34960758354E+04  0.32067881361E+04 0.  0.
        3    1    3    3  502    0 -0.12631402914E+04  0.69776629330E+03  0.14582063639E+04  0.20515279686E+04  0.10100000352E+00 0. -1.
       -3    1    3    3    0  502  0.12631402914E+04 -0.69776629330E+03 -0.65706418925E+02  0.14445478668E+04  0.10100000352E+00 0.  1.
</event>
<event>
 5   0  0.8545153E-07  0.3206001E+04  0.7818609E-02  0.8187234E-01
        1   -1    0    0  501    0  0.00000000000E+00  0.00000000000E+00  0.29671818965E+04  0.29671818965E+04  0.50400001928E-02 0. -1.
       -1   -1    0    0    0  501  0.00000000000E+00  0.00000000000E+00 -0.86601073947E+03  0.86601073948E+03  0.50400001928E-02 0.  1.
    10030    2    1    2    0    0  0.00000000000E+00  0.00000000000E+00  0.21011711570E+04  0.38331926360E+04  0.32060014899E+04 0.  0.
        3    1    3    3  502    0 -0.32698644471E+03 -0.80423854731E+03 -0.56058634568E+03  0.10334296479E+04  0.10100000352E+00 0.  1.
       -3    1    3    3    0  502  0.32698644471E+03  0.80423854731E+03  0.26617575027E+04  0.27997629881E+04  0.10100000352E+00 0. -1.
</event>
<event>
 5   0  0.2404430E-06  0.3189917E+04  0.7818609E-02  0.8191485E-01
        2   -1    0    0  501    0  0.00000000000E+00  0.00000000000E+00  0.24059452491E+04  0.24059452491E+04  0.25500000920E-02 0.  1.
       -2   -1    0    0    0  501  0.00000000000E+00  0.00000000000E+00 -0.10573359451E+04  0.10573359451E+04  0.25500000920E-02 0. -1.
    10030    2    1    2    0    0  0.00000000000E+00  0.00000000000E+00  0.13486093040E+04  0.34632811942E+04  0.31899168602E+04 0.  0.
        4    1    3    3  502    0 -0.66255925619E+03  0.25128544358E+03  0.22256586546E+04  0.23357412532E+04  0.12699999809E+01 0.  1.
       -4    1    3    3    0  502  0.66255925619E+03 -0.25128544358E+03 -0.87704935061E+03  0.11275399409E+04  0.12699999809E+01 0. -1.
</event>
<event>
 5   0  0.8512855E-07  0.3193957E+04  0.7818609E-02  0.8190415E-01
        1   -1    0    0  501    0  0.00000000000E+00  0.00000000000E+00  0.17791187665E+04  0.17791187665E+04  0.50400001928E-02 0. -1.
       -1   -1    0    0    0  501  0.00000000000E+00  0.00000000000E+00 -0.14334852982E+04  0.14334852982E+04  0.50400001928E-02 0.  1.
    10030    2    1    2    0    0  0.00000000000E+00  0.00000000000E+00  0.34563346839E+03  0.32126040647E+04  0.31939571666E+04 0.  0.
        5    1    3    3  502    0 -0.76085957146E+03  0.13954351557E+04  0.16435761433E+02  0.15894775196E+04  0.46999998093E+01 0. -1.
       -5    1    3    3    0  502  0.76085957146E+03 -0.13954351557E+04  0.32919770695E+03  0.16231265451E+04  0.46999998093E+01 0.  1.
</event>
<event>
 5   0  0.8383008E-07  0.3217253E+04  0.7818609E-02  0.8184276E-01
        1   -1    0    0  501    0  0.00000000000E+00  0.00000000000E+00  0.25476772434E+04  0.25476772434E+04  0.50400001928E-02 0. -1.
       -1   -1    0    0    0  501  0.00000000000E+00  0.00000000000E+00 -0.10157013736E+04  0.10157013736E+04  0.50400001928E-02 0.  1.
    10030    2    1    2    0    0  0.00000000000E+00  0.00000000000E+00  0.15319758698E+04  0.35633786170E+04  0.32172530368E+04 0.  0.
        4    1    3    3  502    0  0.49151802215E+03 -0.13727802865E+04  0.15184623961E+04  0.21051948467E+04  0.12699999809E+01 0. -1.
       -4    1    3    3    0  502 -0.49151802215E+03  0.13727802865E+04  0.13513473663E+02  0.14581837703E+04  0.12699999809E+01 0.  1.
</event>
<event>
 5   0  0.8487944E-07  0.3104066E+04  0.7818609E-02  0.8214623E-01
        1   -1    0    0  501    0  0.00000000000E+00  0.00000000000E+00  0.18334334896E+04  0.18334334896E+04  0.50400001928E-02 0.  1.
       -1   -1    0    0    0  501  0.00000000000E+00  0.00000000000E+00 -0.13138226915E+04  0.13138226915E+04  0.50400001928E-02 0. -1.
    10030    2    1    2    0    0  0.00000000000E+00  0.00000000000E+00  0.51961079810E+03  0.31472561811E+04  0.31040660573E+04 0.  0.
        2    1    3    3  502    0 -0.14822851548E+04  0.45584198672E+03  0.19693189579E+03  0.15632476991E+04  0.25500000920E-02 0. -1.
       -2    1    3    3    0  502  0.14822851548E+04 -0.45584198672E+03  0.32267890231E+03  0.15840084820E+04  0.25500000920E-02 0.  1.
</event>
<event>
 5   0  0.2466076E-06  0.3121900E+04  0.7818609E-02  0.8209753E-01
        2   -1    0    0  501    0  0.00000000000E+00  0.00000000000E+00  0.17386382761E+04  0.17386382761E+04  0.25500000920E-02 0. -1.
       -2   -1    0    0    0  501  0.00000000000E+00  0.00000000000E+00 -0.14014215675E+04  0.14014215675E+04  0.25500000920E-02 0.  1.
    10030    2    1    2    0    0  0.00000000000E+00  0.00000000000E+00  0.33721670862E+03  0.31400598437E+04  0.31219001767E+04 0.  0.
        3    1    3    3  502    0 -0.53279487036E+03 -0.14549336695E+04  0.35908471273E+03  0.15904855226E+04  0.10100000352E+00 0. -1.
       -3    1    3    3    0  502  0.53279487036E+03  0.14549336695E+04 -0.21868004103E+02  0.15495743210E+04  0.10100000352E+00 0.  1.
</event>
<event>
 5   0  0.2404430E-06  0.3216810E+04  0.7818609E-02  0.8184392E-01
        2   -1    0    0  501    0  0.00000000000E+00  0.00000000000E+00  0.14147240818E+04  0.14147240818E+04  0.25500000920E-02 0.  1.
       -2   -1    0    0    0  501  0.00000000000E+00  0.00000000000E+00 -0.18286020790E+04  0.18286020790E+04  0.25500000920E-02 0. -1.
    10030    2    1    2    0    0  0.00000000000E+00  0.00000000000E+00 -0.41387799720E+03  0.32433261608E+04  0.32168104682E+04 0.  0.
        4    1    3    3  502    0 -0.14977780561E+03  0.16010547958E+04 -0.17265971840E+03  0.16172887316E+04  0.12699999809E+01 0. -1.
       -4    1    3    3    0  502  0.14977780561E+03 -0.16010547958E+04 -0.24121827881E+03  0.16260374292E+04  0.12699999809E+01 0.  1.
</event>
<event>
 5   0  0.2337504E-06  0.3210604E+04  0.7818609E-02  0.8186022E-01
        2   -1    0    0  501    0  0.00000000000E+00  0.00000000000E+00  0.10873910404E+04  0.10873910404E+04  0.25500000920E-02 0.  1.
       -2   -1    0    0    0  501  0.00000000000E+00  0.00000000000E+00 -0.23698873855E+04  0.23698873855E+04  0.25500000920E-02 0. -1.
    10030    2    1    2    0    0  0.00000000000E+00  0.00000000000E+00 -0.12824963451E+04  0.34572784259E+04  0.32106038745E+04 0.  0.
        1    1    3    3  502    0 -0.28560665413E+03 -0.54616095258E+03 -0.22374053030E+04  0.23207424323E+04  0.50400001928E-02 0. -1.
       -1    1    3    3    0  502  0.28560665413E+03  0.54616095258E+03  0.95490895786E+03  0.11365359936E+04  0.50400001928E-02 0.  1.
</event>
<event>
 5   0  0.2466076E-06  0.3184532E+04  0.7818609E-02  0.8192914E-01
       -2   -1    0    0    0  501  0.00000000000E+00  0.00000000000E+00  0.12207813529E+04  0.12207813529E+04  0.25500000920E-02 0. -1.
        2   -1    0    0  501    0  0.00000000000E+00  0.00000000000E+00 -0.20767942496E+04  0.20767942496E+04  0.25500000920E-02 0.  1.
    10030    2    1    2    0    0  0.00000000000E+00  0.00000000000E+00 -0.85601289667E+03  0.32975756025E+04  0.31845324265E+04 0.  0.
        3    1    3    3  502    0  0.45677403114E+02 -0.76733870093E+03  0.10159155842E+04  0.12739621625E+04  0.10100000352E+00 0. -1.
       -3    1    3    3    0  502 -0.45677403114E+02  0.76733870093E+03 -0.18719284808E+04  0.20236134400E+04  0.10100000352E+00 0.  1.
</event>
<event>
 5   0  0.8512855E-07  0.3215242E+04  0.7818609E-02  0.8184803E-01
        1   -1    0    0  501    0  0.00000000000E+00  0.00000000000E+00  0.17560658996E+04  0.17560658996E+04  0.50400001928E-02 0.  1.
       -1   -1    0    0    0  501  0.00000000000E+00  0.00000000000E+00 -0.14717245965E+04  0.14717245965E+04  0.50400001928E-02 0. -1.
    10030    2    1    2    0    0  0.00000000000E+00  0.00000000000E+00  0.28434130312E+03  0.32277904962E+04  0.32152420610E+04 0.  0.
        5    1    3    3  502    0  0.95167996400E+03 -0.76422158312E+03  0.11925302637E+04  0.17064231309E+04  0.46999998093E+01 0. -1.
       -5    1    3    3    0  502 -0.95167996400E+03  0.76422158312E+03 -0.90818896056E+03  0.15213673653E+04  0.46999998093E+01 0.  1.
</event>
<event>
 5   0  0.8383008E-07  0.3216036E+04  0.7818609E-02  0.8184595E-01
       -1   -1    0    0    0  501  0.00000000000E+00  0.00000000000E+00  0.83903287104E+03  0.83903287106E+03  0.50400001928E-02 0. -1.
        1   -1    0    0  501    0  0.00000000000E+00  0.00000000000E+00 -0.30817877357E+04  0.30817877357E+04  0.50400001928E-02 0.  1.
    10030    2    1    2    0    0  0.00000000000E+00  0.00000000000E+00 -0.22427548647E+04  0.39208206068E+04  0.32160355793E+04 0.  0.
        4    1    3    3  502    0  0.28383131062E+03  0.11611078397E+04 -0.24327332554E+04  0.27105210446E+04  0.12699999809E+01 0.  1.
       -4    1    3    3    0  502 -0.28383131062E+03 -0.11611078397E+04  0.18997839071E+03  0.12102995622E+04  0.12699999809E+01 0. -1.
</event>
<event>
 5   0  0.8512855E-07  0.3194998E+04  0.7818609E-02  0.8190139E-01
       -1   -1    0    0    0  501  0.00000000000E+00  0.00000000000E+00  0.15961049809E+04  0.15961049809E+04  0.50400001928E-02 0.  1.
        1   -1    0    0  501    0  0.00000000000E+00  0.00000000000E+00 -0.15988943420E+04  0.15988943421E+04  0.50400001928E-02 0. -1.
    10030    2    1    2    0    0  0.00000000000E+00  0.00000000000E+00 -0.27893611870E+01  0.31949993229E+04  0.31949981053E+04 0.  0.
        5    1    3    3  502    0  0.19377738813E+03  0.10957921122E+04  0.11447606777E+04  0.15964990223E+04  0.46999998093E+01 0.  1.
       -5    1    3    3    0  502 -0.19377738813E+03 -0.10957921122E+04 -0.11475500389E+04  0.15985003006E+04  0.46999998093E+01 0. -1.
</event>
<event>
 5   0  0.8681172E-07  0.2663315E+04  0.7818609E-02  0.8347007E-01
       -1   -1    0    0    0  501  0.00000000000E+00  0.00000000000E+00  0.19627653865E+04  0.19627653865E+04  0.50400001928E-02 0. -1.
        1   -1    0    0  501    0  0.00000000000E+00  0.00000000000E+00 -0.90347642116E+03  0.90347642118E+03  0.50400001928E-02 0.  1.
    10030    2    1    2    0    0  0.00000000000E+00  0.00000000000E+00  0.10592889654E+04  0.28662418077E+04  0.26633154128E+04 0.  0.
        1    1    3    3  502    0 -0.40285216088E+03 -0.97526887142E+03  0.14038638174E+04  0.17562097975E+04  0.50400001928E-02 0. -1.
       -1    1    3    3    0  502  0.40285216088E+03  0.97526887142E+03 -0.34457485198E+03  0.11100320102E+04  0.50400001928E-02 0.  1.
</event>
<event>
 5   0  0.2404430E-06  0.3205938E+04  0.7818609E-02  0.8187251E-01
       -2   -1    0    0    0  501  0.00000000000E+00  0.00000000000E+00  0.10621877499E+04  0.10621877499E+04  0.25500000920E-02 0.  1.
        2   -1    0    0  501    0  0.00000000000E+00  0.00000000000E+00 -0.24190723774E+04  0.24190723774E+04  0.25500000920E-02 0. -1.
    10030    2    1    2    0    0  0.00000000000E+00  0.00000000000E+00 -0.13568846275E+04  0.34812601273E+04  0.32059376447E+04 0.  0.
        4    1    3    3  502    0  0.99966051072E+03 -0.63748976513E+03 -0.18498802733E+04  0.21972193737E+04  0.12699999809E+01 0. -1.
       -4    1    3    3    0  502 -0.99966051072E+03  0.63748976513E+03  0.49299564589E+03  0.12840407537E+04  0.12699999809E+01 0.  1.
</event>
<event>
 5   0  0.2337504E-06  0.3229564E+04  0.7818609E-02  0.8181053E-01
        2   -1    0    0  501    0  0.00000000000E+00  0.00000000000E+00  0.20952673361E+04  0.20952673361E+04  0.25500000920E-02 0.  1.
       -2   -1    0    0    0  501  0.00000000000E+00  0.00000000000E+00 -0.12444811255E+04  0.12444811255E+04  0.25500000920E-02 0. -1.
    10030    2    1    2    0    0  0.00000000000E+00  0.00000000000E+00  0.85078621066E+03  0.33397484616E+04  0.32295638421E+04 0.  0.
        1    1    3    3  502    0  0.45997839096E+03  0.14224332008E+04 -0.20586284304E+03  0.15090645583E+04  0.50400001928E-02 0. -1.
       -1    1    3    3    0  502 -0.45997839096E+03 -0.14224332008E+04  0.10566490537E+04  0.18306839033E+04  0.50400001928E-02 0.  1.
</event>
<event>
 5   0  0.2404430E-06  0.3197760E+04  0.7818609E-02  0.8189409E-01
       -2   -1    0    0    0  501  0.00000000000E+00  0.00000000000E+00  0.12384335670E+04  0.12384335670E+04  0.25500000920E-02 0. -1.
        2   -1    0    0  501    0  0.00000000000E+00  0.00000000000E+00 -0.20642339177E+04  0.20642339178E+04  0.25500000920E-02 0.  1.
    10030    2    1    2    0    0  0.00000000000E+00  0.00000000000E+00 -0.82580035078E+03  0.33026674847E+04  0.31977595743E+04 0.  0.
        4    1    3    3  502    0 -0.92419525462E+03  0.26938970237E+03  0.90558073334E+03  0.13216602279E+04  0.12699999809E+01 0. -1.
       -4    1    3    3    0  502  0.92419525462E+03 -0.26938970237E+03 -0.17313810841E+04  0.19810072569E+04  0.12699999809E+01 0.  1.
</event>
<event>
 5   0  0.8545153E-07  0.3189736E+04  0.7818609E-02  0.8191533E-01
        1   -1    0    0  501    0  0.00000000000E+00  0.00000000000E+00  0.11784514369E+04  0.11784514369E+04  0.50400001928E-02 0. -1.
       -1   -1    0    0    0  501  0.00000000000E+00  0.00000000000E+00 -0.21584291321E+04  0.21584291321E+04  0.50400001928E-02 0.  1.
    10030    2    1    2    0    0  0.00000000000E+00  0.00000000000E+00 -0.97997769518E+03  0.33368805690E+04  0.31897359842E+04 0.  0.
        3    1    3    3  502    0 -0.87428662130E+03  0.38468283813E+03 -0.18261093999E+04  0.20608332133E+04  0.10100000352E+00 0.  1.
       -3    1    3    3    0  502  0.87428662130E+03 -0.38468283813E+03  0.84613170476E+03  0.12760473558E+04  0.10100000352E+00 0. -1.
</event>
<event>
 5   0  0.2466076E-06  0.3177997E+04  0.7818609E-02  0.8194652E-01
       -2   -1    0    0    0  501  0.00000000000E+00  0.00000000000E+00  0.15044567243E+04  0.15044567243E+04  0.25500000920E-02 0. -1.
        2   -1    0    0  501    0  0.00000000000E+00  0.00000000000E+00 -0.16782906582E+04  0.16782906582E+04  0.25500000920E-02 0.  1.
    10030    2    1    2    0    0  0.00000000000E+00  0.00000000000E+00 -0.17383393389E+03  0.31827473825E+04  0.31779966432E+04 0.  0.
        3    1    3    3  502    0 -0.14396467067E+04  0.55664028125E+03 -0.46495258390E+03  0.16120210787E+04  0.10100000352E+00 0.  1.
       -3    1    3    3    0  502  0.14396467067E+04 -0.55664028125E+03  0.29111865001E+03  0.15707263038E+04  0.10100000352E+00 0. -1.
</event>
<event>
 5   0  0.2401139E-06  0.3181218E+04  0.7818609E-02  0.8193795E-01
        2   -1    0    0  501    0  0.00000000000E+00  0.00000000000E+00  0.17560230085E+04  0.17560230085E+04  0.25500000920E-02 0. -1.
       -2   -1    0    0    0  501  0.00000000000E+00  0.00000000000E+00 -0.14407764914E+04  0.14407764914E+04  0.25500000920E-02 0.  1.
    10030    2    1    2    0    0  0.00000000000E+00  0.00000000000E+00  0.31524651707E+03  0.31967994998E+04  0.31812177976E+04 0.  0.
        5    1    3    3  502    0  0.14216215335E+04  0.70037320390E+03  0.29424567715E+03  0.16118725190E+04  0.46999998093E+01 0. -1.
       -5    1    3    3    0  502 -0.14216215335E+04 -0.70037320390E+03  0.21000839926E+02  0.15849269808E+04  0.46999998093E+01 0.  1.
</event>
<event>
 5   0  0.2337504E-06  0.3391828E+04  0.7818609E-02  0.8139915E-01
        2   -1    0    0  501    0  0.00000000000E+00  0.00000000000E+00  0.23124960140E+04  0.23124960140E+04  0.25500000920E-02 0. -1.
       -2   -1    0    0    0  501  0.00000000000E+00  0.00000000000E+00 -0.12437319071E+04  0.12437319071E+04  0.25500000920E-02 0.  1.
    10030    2    1    2    0    0  0.00000000000E+00  0.00000000000E+00  0.10687641069E+04  0.35562279211E+04  0.33918284613E+04 0.  0.
        1    1    3    3  502    0  0.11230470646E+04 -0.12567006170E+04  0.33657413899E+03  0.17186661401E+04  0.50400001928E-02 0.  1.
       -1    1    3    3    0  502 -0.11230470646E+04  0.12567006170E+04  0.73218996789E+03  0.18375617810E+04  0.50400001928E-02 0. -1.
</event>
<event>
 5   0  0.8545153E-07  0.3154927E+04  0.7818609E-02  0.8200823E-01
        1   -1    0    0  501    0  0.00000000000E+00  0.00000000000E+00  0.13557632380E+04  0.13557632380E+04  0.50400001928E-02 0. -1.
       -1   -1    0    0    0  501  0.00000000000E+00  0.00000000000E+00 -0.18354175336E+04  0.18354175336E+04  0.50400001928E-02 0.  1.
    10030    2    1    2    0    0  0.00000000000E+00  0.00000000000E+00 -0.47965429557E+03  0.31911807716E+04  0.31549273326E+04 0.  0.
        3    1    3    3  502    0 -0.40913948606E+03  0.88501560023E+03  0.10144804387E+04  0.14070601630E+04  0.10100000352E+00 0. -1.
       -3    1    3    3    0  502  0.40913948606E+03 -0.88501560023E+03 -0.14941347342E+04  0.17841206086E+04  0.10100000352E+00 0.  1.
</event>
<event>
 5   0  0.8383008E-07  0.3216762E+04  0.7818609E-02  0.8184404E-01
        1   -1    0    0  501    0  0.00000000000E+00  0.00000000000E+00  0.16368764363E+04  0.16368764363E+04  0.50400001928E-02 0.  1.
       -1   -1    0    0    0  501  0.00000000000E+00  0.00000000000E+00 -0.15803817920E+04  0.15803817920E+04  0.50400001928E-02 0. -1.
    10030    2    1    2    0    0  0.00000000000E+00  0.00000000000E+00  0.56494644329E+02  0.32172582283E+04  0.32167621707E+04 0.  0.
        4    1    3    3  502    0  0.86593453056E+03 -0.45583065488E+03  0.13048703843E+04  0.16310464524E+04  0.12699999809E+01 0.  1.
       -4    1    3    3    0  502 -0.86593453056E+03  0.45583065488E+03 -0.12483757399E+04  0.15862117759E+04  0.12699999809E+01 0. -1.
</event>
<event>
 5   0  0.8545153E-07  0.3195985E+04  0.7818609E-02  0.8189878E-01
        1   -1    0    0  501    0  0.00000000000E+00  0.00000000000E+00  0.24525701010E+04  0.24525701010E+04  0.50400001928E-02 0.  1.
       -1   -1    0    0    0  501  0.00000000000E+00  0.00000000000E+00 -0.10411850384E+04  0.10411850384E+04  0.50400001928E-02 0. -1.
    10030    2    1    2    0    0  0.00000000000E+00  0.00000000000E+00  0.14113850626E+04  0.34937551395E+04  0.31959845400E+04 0.  0.
        3    1    3    3  502    0  0.73452643323E+02 -0.16628682099E+03  0.24412298684E+04  0.24479889457E+04  0.10100000352E+00 0.  1.
       -3    1    3    3    0  502 -0.73452643323E+02  0.16628682099E+03 -0.10298448059E+04  0.10457661937E+04  0.10100000352E+00 0. -1.
</event>
<event>
 5   0  0.2337504E-06  0.3190473E+04  0.7818609E-02  0.8191338E-01
        2   -1    0    0  501    0  0.00000000000E+00  0.00000000000E+00  0.21677491040E+04  0.21677491040E+04  0.25500000920E-02 0.  1.
       -2   -1    0    0    0  501  0.00000000000E+00  0.00000000000E+00 -0.11739273868E+04  0.11739273868E+04  0.25500000920E-02 0. -1.
    10030    2    1    2    0    0  0.00000000000E+00  0.00000000000E+00  0.99382171723E+03  0.33416764908E+04  0.31904733448E+04 0.  0.
        1    1    3    3  502    0 -0.15516152513E+04  0.58159518900E+01  0.88492166966E+03  0.17862334884E+04  0.50400001928E-02 0.  1.
       -1    1    3    3    0  502  0.15516152513E+04 -0.58159518900E+01  0.10890004758E+03  0.15554430025E+04  0.50400001928E-02 0. -1.
</event>
<event>
 5   0  0.2401139E-06  0.3214209E+04  0.7818609E-02  0.8185075E-01
       -2   -1    0    0    0  501  0.00000000000E+00  0.00000000000E+00  0.13655813164E+04  0.13655813164E+04  0.25500000920E-02 0. -1.
        2   -1    0    0  501    0  0.00000000000E+00  0.00000000000E+00 -0.18913449109E+04  0.18913449109E+04  0.25500000920E-02 0.  1.
    10030    2    1    2    0    0  0.00000000000E+00  0.00000000000E+00 -0.52576359456E+03  0.32569262273E+04  0.32142092485E+04 0.  0.
        5    1    3    3  502    0 -0.75855679623E+03  0.37066328426E+03  0.11227579730E+04  0.14047801391E+04  0.46999998093E+01 0. -1.
       -5    1    3    3    0  502  0.75855679623E+03 -0.37066328426E+03 -0.16485215675E+04  0.18521460882E+04  0.46999998093E+01 0.  1.
</event>
<event>
 5   0  0.2404430E-06  0.3326214E+04  0.7818609E-02  0.8156257E-01
       -2   -1    0    0    0  501  0.00000000000E+00  0.00000000000E+00  0.26650353050E+04  0.26650353050E+04  0.25500000920E-02 0.  1.
        2   -1    0    0  501    0  0.00000000000E+00  0.00000000000E+00 -0.10378565644E+04  0.10378565644E+04  0.25500000920E-02 0. -1.
    10030    2    1    2    0    0  0.00000000000E+00  0.00000000000E+00  0.16271787406E+04  0.37028918694E+04  0.33262136947E+04 0.  0.
        4    1    3    3  502    0 -0.99599098472E+03 -0.12900740632E+04  0.44498302704E+03  0.16894675604E+04  0.12699999809E+01 0. -1.
       -4    1    3    3    0  502  0.99599098472E+03  0.12900740632E+04  0.11821957135E+04  0.20134243090E+04  0.12699999809E+01 0.  1.
</event>
<event>
 5   0  0.2466076E-06  0.3190171E+04  0.7818609E-02  0.8191418E-01
        2   -1    0    0  501    0  0.00000000000E+00  0.00000000000E+00  0.16273076280E+04  0.16273076280E+04  0.25500000920E-02 0. -1.
       -2   -1    0    0    0  501  0.00000000000E+00  0.00000000000E+00 -0.15635014137E+04  0.15635014137E+04  0.25500000920E-02 0.  1.
    10030    2    1    2    0    0  0.00000000000E+00  0.00000000000E+00  0.63806214310E+02  0.31908090416E+04  0.31901710153E+04 0.  0.
        3    1    3    3  502    0 -0.84557103617E+02  0.96651992295E+01  0.16250350406E+04  0.16272621833E+04  0.10100000352E+00 0. -1.
       -3    1    3    3    0  502  0.84557103617E+02 -0.96651992295E+01 -0.15612288263E+04  0.15635468583E+04  0.10100000352E+00 0.  1.
</event>
<event>
 5   0  0.2621528E-06  0.3316044E+04  0.7818609E-02  0.8158825E-01
        2   -1    0    0  501    0  0.00000000000E+00  0.00000000000E+00  0.17832863280E+04  0.17832863280E+04  0.25500000920E-02 0.  1.
       -2   -1    0    0    0  501  0.00000000000E+00  0.00000000000E+00 -0.15415562701E+04  0.15415562701E+04  0.25500000920E-02 0. -1.
    10030    2    1    2    0    0  0.00000000000E+00  0.00000000000E+00  0.24173005789E+03  0.33248425981E+04  0.33160435584E+04 0.  0.
        2    1    3    3  502    0 -0.80724389546E+03  0.73264303793E+03 -0.11317006798E+04  0.15713544974E+04  0.25500000920E-02 0. -1.
       -2    1    3    3    0  502  0.80724389546E+03 -0.73264303793E+03  0.13734307377E+04  0.17534881007E+04  0.25500000920E-02 0.  1.
</event>
<event>
 5   0  0.2466076E-06  0.3188342E+04  0.7818609E-02  0.8191903E-01
        2   -1    0    0  501    0  0.00000000000E+00  0.00000000000E+00  0.17113578850E+04  0.17113578850E+04  0.25500000920E-02 0. -1.
       -2   -1    0    0    0  501  0.00000000000E+00  0.00000000000E+00 -0.14850087639E+04  0.14850087639E+04  0.25500000920E-02 0.  1.
    10030    2    1    2    0    0  0.00000000000E+00  0.00000000000E+00  0.22634912112E+03  0.31963666489E+04  0.31883421757E+04 0.  0.
        3    1    3    3  502    0 -0.10845210643E+04 -0.54654738346E+03 -0.92213046614E+03  0.15248687117E+04  0.10100000352E+00 0.  1.
       -3    1    3    3    0  502  0.10845210643E+04  0.54654738346E+03  0.11484795873E+04  0.16714979371E+04  0.10100000352E+00 0. -1.
</event>
<event>
 5   0  0.2466076E-06  0.3204356E+04  0.7818609E-02  0.8187668E-01
        2   -1    0    0  501    0  0.00000000000E+00  0.00000000000E+00  0.15689564677E+04  0.15689564677E+04  0.25500000920E-02 0.  1.
       -2   -1    0    0    0  501  0.00000000000E+00  0.00000000000E+00 -0.16361026522E+04  0.16361026522E+04  0.25500000920E-02 0. -1.
    10030    2    1    2    0    0  0.00000000000E+00  0.00000000000E+00 -0.67146184468E+02  0.32050591199E+04  0.32043556844E+04 0.  0.
        3    1    3    3  502    0  0.15110855046E+04  0.25489286454E+03 -0.50124824728E+03  0.16123273831E+04  0.10100000352E+00 0. -1.
       -3    1    3    3    0  502 -0.15110855046E+04 -0.25489286454E+03  0.43410206281E+03  0.15927317369E+04  0.10100000352E+00 0.  1.
</event>
<event>
 5   0  0.2404430E-06  0.3189015E+04  0.7818609E-02  0.8191724E-01
        2   -1    0    0  501    0  0.00000000000E+00  0.00000000000E+00  0.14193018707E+04  0.14193018707E+04  0.25500000920E-02 0. -1.
       -2   -1    0    0    0  501  0.00000000000E+00  0.00000000000E+00 -0.17913408974E+04  0.17913408974E+04  0.25500000920E-02 0.  1.
    10030    2    1    2    0    0  0.00000000000E+00  0.00000000000E+00 -0.37203902668E+03  0.32106427680E+04  0.31890145730E+04 0.  0.
        4    1    3    3  502    0 -0.22627718024E+03 -0.52366106506E+03 -0.16850871505E+04  0.17790285526E+04  0.12699999809E+01 0.  1.
       -4    1    3    3    0  502  0.22627718024E+03  0.52366106506E+03  0.13130481238E+04  0.14316142154E+04  0.12699999809E+01 0. -1.
</event>
<event>
 5   0  0.8512855E-07  0.3204587E+04  0.7818609E-02  0.8187607E-01
        1   -1    0    0  501    0  0.00000000000E+00  0.00000000000E+00  0.13692029981E+04  0.13692029981E+04  0.50400001928E-02 0. -1.
       -1   -1    0    0    0  501  0.00000000000E+00  0.00000000000E+00 -0.18750650601E+04  0.18750650601E+04  0.50400001928E-02 0.  1.
    10030    2    1    2    0    0  0.00000000000E+00  0.00000000000E+00 -0.50586206201E+03  0.32442680582E+04  0.32045871509E+04 0.  0.
        5    1    3    3  502    0  0.76907094459E+03  0.66733551873E+03  0.99952806816E+03  0.14268445120E+04  0.46999998093E+01 0. -1.
       -5    1    3    3    0  502 -0.76907094459E+03 -0.66733551873E+03 -0.15053901302E+04  0.18174235462E+04  0.46999998093E+01 0.  1.
</event>
<event>
 5   0  0.8487944E-07  0.3200100E+04  0.7818609E-02  0.8188791E-01
        1   -1    0    0  501    0  0.00000000000E+00  0.00000000000E+00  0.10167963441E+04  0.10167963441E+04  0.50400001928E-02 0.  1.
       -1   -1    0    0    0  501  0.00000000000E+00  0.00000000000E+00 -0.25178689279E+04  0.25178689279E+04  0.50400001928E-02 0. -1.
    10030    2    1    2    0    0  0.00000000000E+00  0.00000000000E+00 -0.15010725838E+04  0.35346652721E+04  0.32000999490E+04 0.  0.
        2    1    3    3  502    0  0.18568387895E+03 -0.53022340864E+03 -0.24053490688E+04  0.24700849194E+04  0.25500000920E-02 0. -1.
       -2    1    3    3    0  502 -0.18568387895E+03  0.53022340864E+03  0.90427648502E+03  0.10645803527E+04  0.25500000920E-02 0.  1.
</event>
<event>
 5   0  0.8487944E-07  0.3195270E+04  0.7818609E-02  0.8190067E-01
        1   -1    0    0  501    0  0.00000000000E+00  0.00000000000E+00  0.31266193959E+04  0.31266193959E+04  0.50400001928E-02 0. -1.
       -1   -1    0    0    0  501  0.00000000000E+00  0.00000000000E+00 -0.81635707868E+03  0.81635707869E+03  0.50400001928E-02 0.  1.
    10030    2    1    2    0    0  0.00000000000E+00  0.00000000000E+00  0.23102623172E+04  0.39429764746E+04  0.31952701771E+04 0.  0.
        2    1    3    3  502    0  0.59216045906E+03  0.13150276228E+04  0.20033563621E+04  0.24684789591E+04  0.25500000920E-02 0. -1.
       -2    1    3    3    0  502 -0.59216045906E+03 -0.13150276228E+04  0.30690595517E+03  0.14744975155E+04  0.25500000920E-02 0.  1.
</event>
<event>
 5   0  0.8545153E-07  0.3359132E+04  0.7818609E-02  0.8148010E-01
        1   -1    0    0  501    0  0.00000000000E+00  0.00000000000E+00  0.22175354582E+04  0.22175354582E+04  0.50400001928E-02 0.  1.
       -1   -1    0    0    0  501  0.00000000000E+00  0.00000000000E+00 -0.12721068095E+04  0.12721068095E+04  0.50400001928E-02 0. -1.
    10030    2    1    2    0    0  0.00000000000E+00  0.00000000000E+00  0.94542864865E+03  0.34896422677E+04  0.33591320050E+04 0.  0.
        3    1    3    3  502    0 -0.15215031490E+04  0.71122381895E+03  0.46083348493E+03  0.17416023266E+04  0.10100000352E+00 0.  1.
       -3    1    3    3    0  502  0.15215031490E+04 -0.71122381895E+03  0.48459516372E+03  0.17480399411E+04  0.10100000352E+00 0. -1.
</event>
<event>
 5   0  0.2337504E-06  0.3207394E+04  0.7818609E-02  0.8186867E-01
        2   -1    0    0  501    0  0.00000000000E+00  0.00000000000E+00  0.19811381101E+04  0.19811381101E+04  0.25500000920E-02 0.  1.
       -2   -1    0    0    0  501  0.00000000000E+00  0.00000000000E+00 -0.12981646591E+04  0.12981646591E+04  0.25500000920E-02 0. -1.
    10030    2    1    2    0    0  0.00000000000E+00  0.00000000000E+00  0.68297345100E+03  0.32793027692E+04  0.32073936331E+04 0.  0.
        1    1    3    3  502    0 -0.37906358725E+03 -0.60088170825E+03  0.18114602690E+04  0.19457996651E+04  0.50400001928E-02 0.  1.
       -1    1    3    3    0  502  0.37906358725E+03  0.60088170825E+03 -0.11284868179E+04  0.13335031042E+04  0.50400001928E-02 0. -1.
</event>
<event>
 5   0  0.8545153E-07  0.3234337E+04  0.7818609E-02  0.8179807E-01
        1   -1    0    0  501    0  0.00000000000E+00  0.00000000000E+00  0.19136270783E+04  0.19136270783E+04  0.50400001928E-02 0. -1.
       -1   -1    0    0    0  501  0.00000000000E+00  0.00000000000E+00 -0.13666370134E+04  0.13666370134E+04  0.50400001928E-02 0.  1.
    10030    2    1    2    0    0  0.00000000000E+00  0.00000000000E+00  0.54699006490E+03  0.32802640917E+04  0.32343367760E+04 0.  0.
        3    1    3    3  502    0 -0.29082688078E+03  0.31816024806E+03  0.18542899489E+04  0.19037325029E+04  0.10100000352E+00 0. -1.
       -3    1    3    3    0  502  0.29082688078E+03 -0.31816024806E+03 -0.13072998840E+04  0.13765315888E+04  0.10100000352E+00 0.  1.
</event>
<event>
 5   0  0.2466076E-06  0.3117608E+04  0.7818609E-02  0.8210922E-01
        2   -1    0    0  501    0  0.00000000000E+00  0.00000000000E+00  0.11240755445E+04  0.11240755445E+04  0.25500000920E-02 0.  1.
       -2   -1    0    0    0  501  0.00000000000E+00  0.00000000000E+00 -0.21616600111E+04  0.21616600111E+04  0.25500000920E-02 0. -1.
    10030    2    1    2    0    0  0.00000000000E+00  0.00000000000E+00 -0.10375844666E+04  0.32857355555E+04  0.31176075147E+04 0.  0.
        3    1    3    3  502    0  0.12214118835E+04  0.57332639850E+03  0.30389266725E+03  0.13830766110E+04  0.10100000352E+00 0.  1.
       -3    1    3    3    0  502 -0.12214118835E+04 -0.57332639850E+03 -0.13414771339E+04  0.19026589445E+04  0.10100000352E+00 0. -1.
</event>
<event>
 5   0  0.8681172E-07  0.3169569E+04  0.7818609E-02  0.8196900E-01
        1   -1    0    0  501    0  0.00000000000E+00  0.00000000000E+00  0.22326802334E+04  0.22326802334E+04  0.50400001928E-02 0.  1.
       -1   -1    0    0    0  501  0.00000000000E+00  0.00000000000E+00 -0.11248998494E+04  0.11248998494E+04  0.50400001928E-02 0. -1.
    10030    2    1    2    0    0  0.00000000000E+00  0.00000000000E+00  0.11077803839E+04  0.33575800828E+04  0.31695688403E+04 0.  0.
        1    1    3    3  502    0 -0.24186727340E+03 -0.87246995217E+01  0.22129877890E+04  0.22261830232E+04  0.50400001928E-02 0.  1.
       -1    1    3    3    0  502  0.24186727340E+03  0.87246995217E+01 -0.11052074051E+04  0.11313970596E+04  0.50400001928E-02 0. -1.
</event>
<event>
 5   0  0.2404430E-06  0.3223041E+04  0.7818609E-02  0.8182758E-01
        2   -1    0    0  501    0  0.00000000000E+00  0.00000000000E+00  0.15049406950E+04  0.15049406950E+04  0.25500000920E-02 0.  1.
       -2   -1    0    0    0  501  0.00000000000E+00  0.00000000000E+00 -0.17256486126E+04  0.17256486126E+04  0.25500000920E-02 0. -1.
    10030    2    1    2    0    0  0.00000000000E+00  0.00000000000E+00 -0.22070791763E+03  0.32305893076E+04  0.32230413105E+04 0.  0.
        4    1    3    3  502    0  0.82213019730E+03 -0.12036013026E+04  0.57860065477E+03  0.15682265422E+04  0.12699999809E+01 0.  1.
       -4    1    3    3    0  502 -0.82213019730E+03  0.12036013026E+04 -0.79930857240E+03  0.16623627654E+04  0.12699999809E+01 0. -1.
</event>
<event>
 5   0  0.2404430E-06  0.3191024E+04  0.7818609E-02  0.8191192E-01
       -2   -1    0    0    0  501  0.00000000000E+00  0.00000000000E+00  0.10342423626E+04  0.10342423626E+04  0.25500000920E-02 0.  1.
        2   -1    0    0  501    0  0.00000000000E+00  0.00000000000E+00 -0.24613753815E+04  0.24613753815E+04  0.25500000920E-02 0. -1.
    10030    2    1    2    0    0  0.00000000000E+00  0.00000000000E+00 -0.14271330190E+04  0.34956177441E+04  0.31910240925E+04 0.  0.
        4    1    3    3  502    0  0.17665952239E+03  0.94556057846E+03 -0.21080073771E+04  0.23171081350E+04  0.12699999809E+01 0. -1.
       -4    1    3    3    0  502 -0.17665952239E+03 -0.94556057846E+03  0.68087435812E+03  0.11785096091E+04  0.12699999809E+01 0.  1.
</event>
<event>
 5   0  0.8512855E-07  0.3047004E+04  0.7818609E-02  0.8230435E-01
       -1   -1    0    0    0  501  0.00000000000E+00  0.00000000000E+00  0.14968351180E+04  0.14968351180E+04  0.50400001928E-02 0. -1.
        1   -1    0    0  501    0  0.00000000000E+00  0.00000000000E+00 -0.15506437917E+04  0.15506437917E+04  0.50400001928E-02 0.  1.
    10030    2    1    2    0    0  0.00000000000E+00  0.00000000000E+00 -0.53808673662E+02  0.30474789097E+04  0.30470038286E+04 0.  0.
        5    1    3    3  502    0 -0.13809941767E+04  0.49773645923E+03  0.38077361107E+03  0.15165411738E+04  0.46999998093E+01 0. -1.
       -5    1    3    3    0  502  0.13809941767E+04 -0.49773645923E+03 -0.43458228474E+03  0.15309377359E+04  0.46999998093E+01 0.  1.
</event>
<event>
 5   0  0.8545153E-07  0.3209083E+04  0.7818609E-02  0.8186422E-01
       -1   -1    0    0    0  501  0.00000000000E+00  0.00000000000E+00  0.10794745240E+04  0.10794745240E+04  0.50400001928E-02 0. -1.
        1   -1    0    0  501    0  0.00000000000E+00  0.00000000000E+00 -0.23850066402E+04  0.23850066402E+04  0.50400001928E-02 0.  1.
    10030    2    1    2    0    0  0.00000000000E+00  0.00000000000E+00 -0.13055321162E+04  0.34644811642E+04  0.32090833007E+04 0.  0.
        3    1    3    3  502    0 -0.79218968383E+03  0.12532159686E+04  0.96099589249E+01  0.14826351947E+04  0.10100000352E+00 0. -1.
       -3    1    3    3    0  502  0.79218968383E+03 -0.12532159686E+04 -0.13151420751E+04  0.19818459695E+04  0.10100000352E+00 0.  1.
</event>
<event>
 5   0  0.8487944E-07  0.3287334E+04  0.7818609E-02  0.8166126E-01
        1   -1    0    0  501    0  0.00000000000E+00  0.00000000000E+00  0.16954453164E+04  0.16954453164E+04  0.50400001928E-02 0. -1.
       -1   -1    0    0    0  501  0.00000000000E+00  0.00000000000E+00 -0.15934701558E+04  0.15934701559E+04  0.50400001928E-02 0.  1.
    10030    2    1    2    0    0  0.00000000000E+00  0.00000000000E+00  0.10197516052E+03  0.32889154722E+04  0.32873341859E+04 0.  0.
        2    1    3    3  502    0  0.60836832844E+03 -0.28118389175E+03 -0.14505558286E+04  0.15979013161E+04  0.25500000920E-02 0.  1.
       -2    1    3    3    0  502 -0.60836832844E+03  0.28118389175E+03  0.15525309891E+04  0.16910141561E+04  0.25500000920E-02 0. -1.
</event>
<event>
 5   0  0.2404430E-06  0.3187792E+04  0.7818609E-02  0.8192049E-01
        2   -1    0    0  501    0  0.00000000000E+00  0.00000000000E+00  0.18226998106E+04  0.18226998106E+04  0.25500000920E-02 0. -1.
       -2   -1    0    0    0  501  0.00000000000E+00  0.00000000000E+00 -0.13938138989E+04  0.13938138989E+04  0.25500000920E-02 0.  1.
    10030    2    1    2    0    0  0.00000000000E+00  0.00000000000E+00  0.42888591170E+03  0.32165137094E+04  0.31877919188E+04 0.  0.
        4    1    3    3  502    0 -0.13685009165E+04 -0.80660735425E+03  0.82526592725E+02  0.15906672920E+04  0.12699999809E+01 0.  1.
       -4    1    3    3    0  502  0.13685009165E+04  0.80660735425E+03  0.34635931898E+03  0.16258464174E+04  0.12699999809E+01 0. -1.
</event>
<event>
 5   0  0.8545153E-07  0.3192780E+04  0.7818609E-02  0.8190727E-01
        1   -1    0    0  501    0  0.00000000000E+00  0.00000000000E+00  0.17681552446E+04  0.17681552446E+04  0.50400001928E-02 0. -1.
       -1   -1    0    0    0  501  0.00000000000E+00  0.00000000000E+00 -0.14413105257E+04  0.14413105257E+04  0.50400001928E-02 0.  1.
    10030    2    1    2    0    0  0.00000000000E+00  0.00000000000E+00  0.32684471895E+03  0.32094657703E+04  0.31927798328E+04 0.  0.
        3    1    3    3  502    0  0.71269169334E+03  0.11358631088E+04 -0.70732998061E+03  0.15160574406E+04  0.10100000352E+00 0.  1.
       -3    1    3    3    0  502 -0.71269169334E+03 -0.11358631088E+04  0.10341746996E+04  0.16934083297E+04  0.10100000352E+00 0. -1.
</event>
<event>
 5   0  0.2621528E-06  0.3230211E+04  0.7818609E-02  0.8180884E-01
        2   -1    0    0  501    0  0.00000000000E+00  0.00000000000E+00  0.15179956474E+04  0.15179956474E+04  0.25500000920E-02 0.  1.
       -2   -1    0    0    0  501  0.00000000000E+00  0.00000000000E+00 -0.17184276029E+04  0.17184276029E+04  0.25500000920E-02 0. -1.
    10030    2    1    2    0    0  0.00000000000E+00  0.00000000000E+00 -0.20043195554E+03  0.32364232503E+04  0.32302109043E+04 0.  0.
        2    1    3    3  502    0 -0.40672666557E+03  0.23456221127E+03 -0.16485422072E+04  0.17140995947E+04  0.25500000920E-02 0. -1.
       -2    1    3    3    0  502  0.40672666557E+03 -0.23456221127E+03  0.14481102517E+04  0.15223236556E+04  0.25500000920E-02 0.  1.
</event>
<event>
 5   0  0.2404430E-06  0.3165692E+04  0.7818609E-02  0.8197937E-01
        2   -1    0    0  501    0  0.00000000000E+00  0.00000000000E+00  0.15593327045E+04  0.15593327045E+04  0.25500000920E-02 0. -1.
       -2   -1    0    0    0  501  0.00000000000E+00  0.00000000000E+00 -0.16067133487E+04  0.16067133487E+04  0.25500000920E-02 0.  1.
    10030    2    1    2    0    0  0.00000000000E+00  0.00000000000E+00 -0.47380644217E+02  0.31660460531E+04  0.31656915019E+04 0.  0.
        4    1    3    3  502    0 -0.61013538975E+03 -0.11221043101E+04  0.91130249538E+03  0.15690306331E+04  0.12699999809E+01 0. -1.
       -4    1    3    3    0  502  0.61013538975E+03  0.11221043101E+04 -0.95868313960E+03  0.15970154200E+04  0.12699999809E+01 0.  1.
</event>
<event>
 5   0  0.8512855E-07  0.3183732E+04  0.7818609E-02  0.8193127E-01
       -1   -1    0    0    0  501  0.00000000000E+00  0.00000000000E+00  0.14112705018E+04  0.14112705018E+04  0.50400001928E-02 0.  1.
        1   -1    0    0  501    0  0.00000000000E+00  0.00000000000E+00 -0.17955717901E+04  0.17955717901E+04  0.50400001928E-02 0. -1.
    10030    2    1    2    0    0  0.00000000000E+00  0.00000000000E+00 -0.38430128830E+03  0.32068422919E+04  0.31837320875E+04 0.  0.
        5    1    3    3  502    0  0.11305907176E+04 -0.71836519994E+02 -0.13185793137E+04  0.17384100071E+04  0.46999998093E+01 0. -1.
       -5    1    3    3    0  502 -0.11305907176E+04  0.71836519994E+02  0.93427802539E+03  0.14684322848E+04  0.46999998093E+01 0.  1.
</event>
<event>
 5   0  0.8487944E-07  0.3202923E+04  0.7818609E-02  0.8188046E-01
       -1   -1    0    0    0  501  0.00000000000E+00  0.00000000000E+00  0.11422207564E+04  0.11422207565E+04  0.50400001928E-02 0.  1.
        1   -1    0    0  501    0  0.00000000000E+00  0.00000000000E+00 -0.22453439603E+04  0.22453439603E+04  0.50400001928E-02 0. -1.
    10030    2    1    2    0    0  0.00000000000E+00  0.00000000000E+00 -0.11031232038E+04  0.33875647167E+04  0.32029227133E+04 0.  0.
        2    1    3    3  502    0  0.11905231984E+03  0.15078023653E+04 -0.11082473051E+04  0.18750609369E+04  0.25500000920E-02 0. -1.
       -2    1    3    3    0  502 -0.11905231984E+03 -0.15078023653E+04  0.51241012518E+01  0.15125037799E+04  0.25500000920E-02 0.  1.
</event>
<event>
 5   0  0.2621528E-06  0.2902291E+04  0.7818609E-02  0.8272196E-01
       -2   -1    0    0    0  501  0.00000000000E+00  0.00000000000E+00  0.10345757327E+04  0.10345757327E+04  0.25500000920E-02 0. -1.
        2   -1    0    0  501    0  0.00000000000E+00  0.00000000000E+00 -0.20354459736E+04  0.20354459736E+04  0.25500000920E-02 0.  1.
    10030    2    1    2    0    0  0.00000000000E+00  0.00000000000E+00 -0.10008702410E+04  0.30700217063E+04  0.29022908259E+04 0.  0.
        2    1    3    3  502    0  0.64564741174E+03 -0.97069095123E+03  0.41363570331E+03  0.12370109127E+04  0.25500000920E-02 0. -1.
       -2    1    3    3    0  502 -0.64564741174E+03  0.97069095123E+03 -0.14145059443E+04  0.18330107936E+04  0.25500000920E-02 0.  1.
</event>
<event>
 5   0  0.2466076E-06  0.3179816E+04  0.7818609E-02  0.8194168E-01
        2   -1    0    0  501    0  0.00000000000E+00  0.00000000000E+00  0.22971650548E+04  0.22971650548E+04  0.25500000920E-02 0.  1.
       -2   -1    0    0    0  501  0.00000000000E+00  0.00000000000E+00 -0.11004029040E+04  0.11004029040E+04  0.25500000920E-02 0. -1.
    10030    2    1    2    0    0  0.00000000000E+00  0.00000000000E+00  0.11967621508E+04  0.33975679587E+04  0.31798157790E+04 0.  0.
        3    1    3    3  502    0  0.73683434616E+03 -0.84904127087E+03  0.17996538802E+04  0.21219213067E+04  0.10100000352E+00 0.  1.
       -3    1    3    3    0  502 -0.73683434616E+03  0.84904127087E+03 -0.60289172934E+03  0.12756466520E+04  0.10100000352E+00 0. -1.
</event>
<event>
 5   0  0.2401139E-06  0.3177169E+04  0.7818609E-02  0.8194873E-01
        2   -1    0    0  501    0  0.00000000000E+00  0.00000000000E+00  0.16622557818E+04  0.16622557818E+04  0.25500000920E-02 0.  1.
       -2   -1    0    0    0  501  0.00000000000E+00  0.00000000000E+00 -0.15181785588E+04  0.15181785588E+04  0.25500000920E-02 0. -1.
    10030    2    1    2    0    0  0.00000000000E+00  0.00000000000E+00  0.14407722296E+03  0.31804343406E+04  0.31771692351E+04 0.  0.
        5    1    3    3  502    0 -0.26378786074E+03  0.15044913793E+04 -0.36487373552E+03  0.15704245537E+04  0.46999998093E+01 0.  1.
       -5    1    3    3    0  502  0.26378786074E+03 -0.15044913793E+04  0.50895095847E+03  0.16100097869E+04  0.46999998093E+01 0. -1.
</event>
<event>
 5   0  0.8487944E-07  0.3257266E+04  0.7818609E-02  0.8173855E-01
       -1   -1    0    0    0  501  0.00000000000E+00  0.00000000000E+00  0.12380045744E+04  0.12380045744E+04  0.50400001928E-02 0.  1.
        1   -1    0    0  501    0  0.00000000000E+00  0.00000000000E+00 -0.21425160478E+04  0.21425160478E+04  0.50400001928E-02 0. -1.
    10030    2    1    2    0    0  0.00000000000E+00  0.00000000000E+00 -0.90451147346E+03  0.33805206222E+04  0.32572655205E+04 0.  0.
        2    1    3    3  502    0  0.13447029619E+04 -0.67447473112E+03  0.19529528876E+03  0.15169978472E+04  0.25500000920E-02 0. -1.
       -2    1    3    3    0  502 -0.13447029619E+04  0.67447473112E+03 -0.10998067622E+04  0.18635227750E+04  0.25500000920E-02 0.  1.
</event>
<event>
 5   0  0.2621528E-06  0.3255977E+04  0.7818609E-02  0.8174188E-01
        2   -1    0    0  501    0  0.00000000000E+00  0.00000000000E+00  0.27196332499E+04  0.27196332499E+04  0.25500000920E-02 0.  1.
       -2   -1    0    0    0  501  0.00000000000E+00  0.00000000000E+00 -0.97452330737E+03  0.97452330738E+03  0.25500000920E-02 0. -1.
    10030    2    1    2    0    0  0.00000000000E+00  0.00000000000E+00  0.17451099425E+04  0.36941565573E+04  0.32559766520E+04 0.  0.
        2    1    3    3  502    0 -0.18513854059E+03  0.41223559090E+03  0.26470464469E+04  0.26853434331E+04  0.25500000920E-02 0.  1.
       -2    1    3    3    0  502  0.18513854059E+03 -0.41223559090E+03 -0.90193650437E+03  0.10088131242E+04  0.25500000920E-02 0. -1.
</event>
<event>
 5   0  0.8487944E-07  0.3187319E+04  0.7818609E-02  0.8192174E-01
       -1   -1    0    0    0  501  0.00000000000E+00  0.00000000000E+00  0.10308854571E+04  0.10308854571E+04  0.50400001928E-02 0.  1.
        1   -1    0    0  501    0  0.00000000000E+00  0.00000000000E+00 -0.24636592926E+04  0.24636592926E+04  0.50400001928E-02 0. -1.
    10030    2    1    2    0    0  0.00000000000E+00  0.00000000000E+00 -0.14327738355E+04  0.34945447497E+04  0.31873189586E+04 0.  0.
        2    1    3    3  502    0  0.10658339678E+04  0.51094944891E+03  0.45561205688E+03  0.12667492777E+04  0.25500000920E-02 0.  1.
       -2    1    3    3    0  502 -0.10658339678E+04 -0.51094944891E+03 -0.18883858924E+04  0.22277954719E+04  0.25500000920E-02 0. -1.
</event>
<event>
 5   0  0.2401139E-06  0.3198894E+04  0.7818609E-02  0.8189109E-01
       -2   -1    0    0    0  501  0.00000000000E+00  0.00000000000E+00  0.19469298068E+04  0.19469298068E+04  0.25500000920E-02 0. -1.
        2   -1    0    0  501    0  0.00000000000E+00  0.00000000000E+00 -0.13139817144E+04  0.13139817144E+04  0.25500000920E-02 0.  1.
    10030    2    1    2    0    0  0.00000000000E+00  0.00000000000E+00  0.63294809245E+03  0.32609115212E+04  0.31988936621E+04 0.  0.
        5    1    3    3  502    0 -0.97785934184E+03 -0.10274633516E+04 -0.43698918479E+03  0.14842073538E+04  0.46999998093E+01 0. -1.
       -5    1    3    3    0  502  0.97785934184E+03  0.10274633516E+04  0.10699372772E+04  0.17767041674E+04  0.46999998093E+01 0.  1.
</event>
<event>
 5   0  0.8681172E-07  0.3201544E+04  0.7818609E-02  0.8188410E-01
       -1   -1    0    0    0  501  0.00000000000E+00  0.00000000000E+00  0.17673283658E+04  0.17673283658E+04  0.50400001928E-02 0.  1.
        1   -1    0    0  501    0  0.00000000000E+00  0.00000000000E+00 -0.14499119567E+04  0.14499119567E+04  0.50400001928E-02 0. -1.
    10030    2    1    2    0    0  0.00000000000E+00  0.00000000000E+00  0.31741640913E+03  0.32172403225E+04  0.32015437083E+04 0.  0.
        1    1    3    3  502    0 -0.12370872537E+04  0.98568184823E+03  0.40591623973E+03  0.16330099733E+04  0.50400001928E-02 0. -1.
       -1    1    3    3    0  502  0.12370872537E+04 -0.98568184823E+03 -0.88499830598E+02  0.15842303492E+04  0.50400001928E-02 0.  1.
</event>
<event>
 5   0  0.8487944E-07  0.3574766E+04  0.7818609E-02  0.8096296E-01
       -1   -1    0    0    0  501  0.00000000000E+00  0.00000000000E+00  0.13071636863E+04  0.13071636863E+04  0.50400001928E-02 0.  1.
        1   -1    0    0  501    0  0.00000000000E+00  0.00000000000E+00 -0.24440226942E+04  0.24440226942E+04  0.50400001928E-02 0. -1.
    10030    2    1    2    0    0  0.00000000000E+00  0.00000000000E+00 -0.11368590079E+04  0.37511863805E+04  0.35747658465E+04 0.  0.
        2    1    3    3  502    0 -0.16511242036E+04 -0.60939132750E+03 -0.24132657203E+03  0.17764592425E+04  0.25500000920E-02 0. -1.
       -2    1    3    3    0  502  0.16511242036E+04  0.60939132750E+03 -0.89553243586E+03  0.19747271380E+04  0.25500000920E-02 0.  1.
</event>
<event>
 5   0  0.8681172E-07  0.3221817E+04  0.7818609E-02  0.8183079E-01
       -1   -1    0    0    0  501  0.00000000000E+00  0.00000000000E+00  0.13209297202E+04  0.13209297202E+04  0.50400001928E-02 0.  1.
        1   -1    0    0  501    0  0.00000000000E+00  0.00000000000E+00 -0.19645447475E+04  0.19645447475E+04  0.50400001928E-02 0. -1.
    10030    2    1    2    0    0  0.00000000000E+00  0.00000000000E+00 -0.64361502726E+03  0.32854744677E+04  0.32218165955E+04 0.  0.
        1    1    3    3  502    0 -0.15045504880E+04 -0.56589362688E+03 -0.42933171857E+03  0.16638009173E+04  0.50400001928E-02 0. -1.
       -1    1    3    3    0  502  0.15045504880E+04  0.56589362688E+03 -0.21428330869E+03  0.16216735504E+04  0.50400001928E-02 0.  1.
</event>
<event>
 5   0  0.2401139E-06  0.3181557E+04  0.7818609E-02  0.8193705E-01
       -2   -1    0    0    0  501  0.00000000000E+00  0.00000000000E+00  0.20370291391E+04  0.20370291391E+04  0.25500000920E-02 0. -1.
        2   -1    0    0  501    0  0.00000000000E+00  0.00000000000E+00 -0.12422877924E+04  0.12422877924E+04  0.25500000920E-02 0.  1.
    10030    2    1    2    0    0  0.00000000000E+00  0.00000000000E+00  0.79474134667E+03  0.32793169315E+04  0.31815571233E+04 0.  0.
        5    1    3    3  502    0 -0.98999610013E+03  0.32030670800E+03  0.16376165806E+04  0.19402316409E+04  0.46999998093E+01 0. -1.
       -5    1    3    3    0  502  0.98999610013E+03 -0.32030670800E+03 -0.84287523389E+03  0.13390852905E+04  0.46999998093E+01 0.  1.
</event>
<event>
 5   0  0.8512855E-07  0.3182912E+04  0.7818609E-02  0.8193345E-01
       -1   -1    0    0    0  501  0.00000000000E+00  0.00000000000E+00  0.21578719959E+04  0.21578719960E+04  0.50400001928E-02 0.  1.
        1   -1    0    0  501    0  0.00000000000E+00  0.00000000000E+00 -0.11737176210E+04  0.11737176210E+04  0.50400001928E-02 0. -1.
    10030    2    1    2    0    0  0.00000000000E+00  0.00000000000E+00  0.98415437495E+03  0.33315896170E+04  0.31829121166E+04 0.  0.
        5    1    3    3  502    0 -0.15543737148E+04  0.17341587547E+03  0.80003018338E+03  0.17567643825E+04  0.46999998093E+01 0. -1.
       -5    1    3    3    0  502  0.15543737148E+04 -0.17341587547E+03  0.18412419157E+03  0.15748252345E+04  0.46999998093E+01 0.  1.
</event>
<event>
 5   0  0.8545153E-07  0.3231477E+04  0.7818609E-02  0.8180553E-01
        1   -1    0    0  501    0  0.00000000000E+00  0.00000000000E+00  0.17316895501E+04  0.17316895501E+04  0.50400001928E-02 0.  1.
       -1   -1    0    0    0  501  0.00000000000E+00  0.00000000000E+00 -0.15075516725E+04  0.15075516725E+04  0.50400001928E-02 0. -1.
    10030    2    1    2    0    0  0.00000000000E+00  0.00000000000E+00  0.22413787759E+03  0.32392412227E+04  0.32314773573E+04 0.  0.
        3    1    3    3  502    0  0.35525190521E+02 -0.11981211793E+03 -0.15027000229E+04  0.15078873803E+04  0.10100000352E+00 0. -1.
       -3    1    3    3    0  502 -0.35525190521E+02  0.11981211793E+03  0.17268379005E+04  0.17313538424E+04  0.10100000352E+00 0.  1.
</event>
<event>
 5   0  0.2337504E-06  0.3158413E+04  0.7818609E-02  0.8199887E-01
       -2   -1    0    0    0  501  0.00000000000E+00  0.00000000000E+00  0.10032233664E+04  0.10032233664E+04  0.25500000920E-02 0.  1.
        2   -1    0    0  501    0  0.00000000000E+00  0.00000000000E+00 -0.24858808200E+04  0.24858808200E+04  0.25500000920E-02 0. -1.
    10030    2    1    2    0    0  0.00000000000E+00  0.00000000000E+00 -0.14826574536E+04  0.34891041864E+04  0.31584133516E+04 0.  0.
        1    1    3    3  502    0 -0.58833504342E+00 -0.47703486531E+03  0.92172642441E+03  0.10378546191E+04  0.50400001928E-02 0.  1.
       -1    1    3    3    0  502  0.58833504342E+00  0.47703486531E+03 -0.24043838780E+04  0.24512495674E+04  0.50400001928E-02 0. -1.
</event>
<event>
 5   0  0.8545153E-07  0.3257733E+04  0.7818609E-02  0.8173734E-01
        1   -1    0    0  501    0  0.00000000000E+00  0.00000000000E+00  0.86561572757E+03  0.86561572759E+03  0.50400001928E-02 0. -1.
       -1   -1    0    0    0  501  0.00000000000E+00  0.00000000000E+00 -0.30651082125E+04  0.30651082125E+04  0.50400001928E-02 0.  1.
    10030    2    1    2    0    0  0.00000000000E+00  0.00000000000E+00 -0.21994924849E+04  0.39307239400E+04  0.32577328776E+04 0.  0.
        3    1    3    3  502    0 -0.60566984975E+03 -0.14853148773E+04 -0.14414661540E+04  0.21565762066E+04  0.10100000352E+00 0.  1.
       -3    1    3    3    0  502  0.60566984975E+03  0.14853148773E+04 -0.75802633086E+03  0.17741477334E+04  0.10100000352E+00 0. -1.
</event>
<event>
 5   0  0.2466076E-06  0.3158604E+04  0.7818609E-02  0.8199836E-01
        2   -1    0    0  501    0  0.00000000000E+00  0.00000000000E+00  0.24740883514E+04  0.24740883514E+04  0.25500000920E-02 0. -1.
       -2   -1    0    0    0  501  0.00000000000E+00  0.00000000000E+00 -0.10081267780E+04  0.10081267780E+04  0.25500000920E-02 0.  1.
    10030    2    1    2    0    0  0.00000000000E+00  0.00000000000E+00  0.14659615734E+04  0.34822151294E+04  0.31586039437E+04 0.  0.
        3    1    3    3  502    0 -0.40652396499E+03 -0.95443248708E+03 -0.57981524157E+03  0.11884396624E+04  0.10100000352E+00 0.  1.
       -3    1    3    3    0  502  0.40652396499E+03  0.95443248708E+03  0.20457768150E+04  0.22937754671E+04  0.10100000352E+00 0. -1.
</event>
<event>
 5   0  0.8681172E-07  0.3154143E+04  0.7818609E-02  0.8201034E-01
        1   -1    0    0  501    0  0.00000000000E+00  0.00000000000E+00  0.17222984308E+04  0.17222984308E+04  0.50400001928E-02 0. -1.
       -1   -1    0    0    0  501  0.00000000000E+00  0.00000000000E+00 -0.14440903215E+04  0.14440903215E+04  0.50400001928E-02 0.  1.
    10030    2    1    2    0    0  0.00000000000E+00  0.00000000000E+00  0.27820810930E+03  0.31663887523E+04  0.31541429864E+04 0.  0.
        1    1    3    3  502    0  0.32079794358E+03  0.60137401032E+03  0.15668043532E+04  0.17086362697E+04  0.50400001928E-02 0. -1.
       -1    1    3    3    0  502 -0.32079794358E+03 -0.60137401032E+03 -0.12885962439E+04  0.14577524827E+04  0.50400001928E-02 0.  1.
</event>
<event>
 5   0  0.8681172E-07  0.3187840E+04  0.7818609E-02  0.8192036E-01
       -1   -1    0    0    0  501  0.00000000000E+00  0.00000000000E+00  0.10259808737E+04  0.10259808737E+04  0.50400001928E-02 0.  1.
        1   -1    0    0  501    0  0.00000000000E+00  0.00000000000E+00 -0.24762460361E+04  0.24762460361E+04  0.50400001928E-02 0. -1.
    10030    2    1    2    0    0  0.00000000000E+00  0.00000000000E+00 -0.14502651624E+04  0.35022269098E+04  0.31878400660E+04 0.  0.
        1    1    3    3  502    0  0.14548026023E+04 -0.48264147341E+02 -0.14386450631E+04  0.20465775474E+04  0.50400001928E-02 0. -1.
       -1    1    3    3    0  502 -0.14548026023E+04  0.48264147341E+02 -0.11620099320E+02  0.14556493625E+04  0.50400001928E-02 0.  1.
</event>
<event>
 5   0  0.2337504E-06  0.3185753E+04  0.7818609E-02  0.8192590E-01
       -2   -1    0    0    0  501  0.00000000000E+00  0.00000000000E+00  0.10242107004E+04  0.10242107004E+04  0.25500000920E-02 0. -1.
        2   -1    0    0  501    0  0.00000000000E+00  0.00000000000E+00 -0.24772792347E+04  0.24772792347E+04  0.25500000920E-02 0.  1.
    10030    2    1    2    0    0  0.00000000000E+00  0.00000000000E+00 -0.14530685343E+04  0.35014899351E+04  0.31857532234E+04 0.  0.
        1    1    3    3  502    0  0.10559118753E+04 -0.90318953984E+03  0.12946959737E+03  0.13955155356E+04  0.50400001928E-02 0. -1.
       -1    1    3    3    0  502 -0.10559118753E+04  0.90318953984E+03 -0.15825381317E+04  0.21059743996E+04  0.50400001928E-02 0.  1.
</event>
<event>
 5   0  0.8545153E-07  0.3191125E+04  0.7818609E-02  0.8191165E-01
        1   -1    0    0  501    0  0.00000000000E+00  0.00000000000E+00  0.14755842235E+04  0.14755842235E+04  0.50400001928E-02 0.  1.
       -1   -1    0    0    0  501  0.00000000000E+00  0.00000000000E+00 -0.17252958227E+04  0.17252958227E+04  0.50400001928E-02 0. -1.
    10030    2    1    2    0    0  0.00000000000E+00  0.00000000000E+00 -0.24971159925E+03  0.32008800462E+04  0.31911247527E+04 0.  0.
        3    1    3    3  502    0 -0.12907937631E+04  0.78048176045E+03 -0.64656017437E+03  0.16411399656E+04  0.10100000352E+00 0. -1.
       -3    1    3    3    0  502  0.12907937631E+04 -0.78048176045E+03  0.39684857512E+03  0.15597400806E+04  0.10100000352E+00 0.  1.
</event>
<event>
 5   0  0.8681172E-07  0.3147546E+04  0.7818609E-02  0.8202809E-01
        1   -1    0    0  501    0  0.00000000000E+00  0.00000000000E+00  0.13054763390E+04  0.13054763390E+04  0.50400001928E-02 0.  1.
       -1   -1    0    0    0  501  0.00000000000E+00  0.00000000000E+00 -0.18972090527E+04  0.18972090527E+04  0.50400001928E-02 0. -1.
    10030    2    1    2    0    0  0.00000000000E+00  0.00000000000E+00 -0.59173271369E+03  0.32026853918E+04  0.31475460464E+04 0.  0.
        1    1    3    3  502    0 -0.88289032978E+03 -0.89569692576E+03 -0.12584800987E+04  0.17791965816E+04  0.50400001928E-02 0. -1.
       -1    1    3    3    0  502  0.88289032978E+03  0.89569692576E+03  0.66674738498E+03  0.14234888102E+04  0.50400001928E-02 0.  1.
</event>
<event>
 5   0  0.2466076E-06  0.3192248E+04  0.7818609E-02  0.8190867E-01
       -2   -1    0    0    0  501  0.00000000000E+00  0.00000000000E+00  0.12307076245E+04  0.12307076245E+04  0.25500000920E-02 0. -1.
        2   -1    0    0  501    0  0.00000000000E+00  0.00000000000E+00 -0.20700382621E+04  0.20700382621E+04  0.25500000920E-02 0.  1.
    10030    2    1    2    0    0  0.00000000000E+00  0.00000000000E+00 -0.83933063764E+03  0.33007458866E+04  0.31922480306E+04 0.  0.
        3    1    3    3  502    0  0.74199913627E+03 -0.39191798582E+03 -0.18235488454E+04  0.20073596657E+04  0.10100000352E+00 0.  1.
       -3    1    3    3    0  502 -0.74199913627E+03  0.39191798582E+03  0.98421820774E+03  0.12933862209E+04  0.10100000352E+00 0. -1.
</event>
<event>
 5   0  0.2401139E-06  0.3198265E+04  0.7818609E-02  0.8189276E-01
       -2   -1    0    0    0  501  0.00000000000E+00  0.00000000000E+00  0.12235390299E+04  0.12235390299E+04  0.25500000920E-02 0.  1.
        2   -1    0    0  501    0  0.00000000000E+00  0.00000000000E+00 -0.20900226807E+04  0.20900226807E+04  0.25500000920E-02 0. -1.
    10030    2    1    2    0    0  0.00000000000E+00  0.00000000000E+00 -0.86648365076E+03  0.33135617105E+04  0.31982647315E+04 0.  0.
        5    1    3    3  502    0  0.32433530758E+03  0.14860492475E+04 -0.94466281107E+03  0.17905154773E+04  0.46999998093E+01 0. -1.
       -5    1    3    3    0  502 -0.32433530758E+03 -0.14860492475E+04  0.78179160312E+02  0.15230462333E+04  0.46999998093E+01 0.  1.
</event>
<event>
 5   0  0.2404430E-06  0.3251359E+04  0.7818609E-02  0.8175384E-01
        2   -1    0    0  501    0  0.00000000000E+00  0.00000000000E+00  0.17060226459E+04  0.17060226459E+04  0.25500000920E-02 0. -1.
       -2   -1    0    0    0  501  0.00000000000E+00  0.00000000000E+00 -0.15491200887E+04  0.15491200887E+04  0.25500000920E-02 0.  1.
    10030    2    1    2    0    0  0.00000000000E+00  0.00000000000E+00  0.15690255721E+03  0.32551427346E+04  0.32513590713E+04 0.  0.
        4    1    3    3  502    0 -0.71881151413E+03  0.40464811651E+03 -0.13240366072E+04  0.15599694360E+04  0.12699999809E+01 0.  1.
       -4    1    3    3    0  502  0.71881151413E+03 -0.40464811651E+03  0.14809391644E+04  0.16951732987E+04  0.12699999809E+01 0. -1.
</event>
<event>
 5   0  0.2621528E-06  0.3224526E+04  0.7818609E-02  0.8182370E-01
       -2   -1    0    0    0  501  0.00000000000E+00  0.00000000000E+00  0.22664252368E+04  0.22664252368E+04  0.25500000920E-02 0.  1.
        2   -1    0    0  501    0  0.00000000000E+00  0.00000000000E+00 -0.11469124813E+04  0.11469124813E+04  0.25500000920E-02 0. -1.
    10030    2    1    2    0    0  0.00000000000E+00  0.00000000000E+00  0.11195127555E+04  0.34133377181E+04  0.32245256345E+04 0.  0.
        2    1    3    3  502    0  0.10688102676E+04  0.10544859783E+04  0.11816025483E+04  0.19106231048E+04  0.25500000920E-02 0.  1.
       -2    1    3    3    0  502 -0.10688102676E+04 -0.10544859783E+04 -0.62089792713E+02  0.15027146133E+04  0.25500000920E-02 0. -1.
</event>
<event>
 5   0  0.2466076E-06  0.2846112E+04  0.7818609E-02  0.8289094E-01
       -2   -1    0    0    0  501  0.00000000000E+00  0.00000000000E+00  0.28567804798E+04  0.28567804798E+04  0.25500000920E-02 0.  1.
        2   -1    0    0  501    0  0.00000000000E+00  0.00000000000E+00 -0.70887070944E+03  0.70887070945E+03  0.25500000920E-02 0. -1.
    10030    2    1    2    0    0  0.00000000000E+00  0.00000000000E+00  0.21479097704E+04  0.35656511893E+04  0.28461117374E+04 0.  0.
        3    1    3    3  502    0  0.25807516725E+03 -0.13956297540E+04  0.94434579146E+03  0.17047504762E+04  0.10100000352E+00 0. -1.
       -3    1    3    3    0  502 -0.25807516725E+03  0.13956297540E+04  0.12035639789E+04  0.18609007130E+04  0.10100000352E+00 0.  1.
</event>
<event>
 5   0  0.8487944E-07  0.3251843E+04  0.7818609E-02  0.8175258E-01
       -1   -1    0    0    0  501  0.00000000000E+00  0.00000000000E+00  0.12966996064E+04  0.12966996064E+04  0.50400001928E-02 0.  1.
        1   -1    0    0  501    0  0.00000000000E+00  0.00000000000E+00 -0.20387306197E+04  0.20387306197E+04  0.50400001928E-02 0. -1.
    10030    2    1    2    0    0  0.00000000000E+00  0.00000000000E+00 -0.74203101325E+03  0.33354302261E+04  0.32518432878E+04 0.  0.
        2    1    3    3  502    0 -0.96146189885E+02 -0.14974612851E+04  0.27116626569E+03  0.15248493479E+04  0.25500000920E-02 0. -1.
       -2    1    3    3    0  502  0.96146189885E+02  0.14974612851E+04 -0.10131972789E+04  0.18105808781E+04  0.25500000920E-02 0.  1.
</event>
<event>
 5   0  0.2337504E-06  0.3180785E+04  0.7818609E-02  0.8193910E-01
        2   -1    0    0  501    0  0.00000000000E+00  0.00000000000E+00  0.15510159189E+04  0.15510159189E+04  0.25500000920E-02 0.  1.
       -2   -1    0    0    0  501  0.00000000000E+00  0.00000000000E+00 -0.16307684672E+04  0.16307684672E+04  0.25500000920E-02 0. -1.
    10030    2    1    2    0    0  0.00000000000E+00  0.00000000000E+00 -0.79752548287E+02  0.31817843861E+04  0.31807847162E+04 0.  0.
        1    1    3    3  502    0  0.59406143005E+03 -0.95482497654E+03  0.10850873872E+04  0.15626945819E+04  0.50400001928E-02 0.  1.
       -1    1    3    3    0  502 -0.59406143005E+03  0.95482497654E+03 -0.11648399355E+04  0.16190898041E+04  0.50400001928E-02 0. -1.
</event>
<event>
 5   0  0.8545153E-07  0.3140126E+04  0.7818609E-02  0.8204811E-01
       -1   -1    0    0    0  501  0.00000000000E+00  0.00000000000E+00  0.17903359120E+04  0.17903359120E+04  0.50400001928E-02 0.  1.
        1   -1    0    0  501    0  0.00000000000E+00  0.00000000000E+00 -0.13768909360E+04  0.13768909360E+04  0.50400001928E-02 0. -1.
    10030    2    1    2    0    0  0.00000000000E+00  0.00000000000E+00  0.41344497597E+03  0.31672268480E+04  0.31401256597E+04 0.  0.
        3    1    3    3  502    0 -0.15331356982E+04  0.23624688668E+03 -0.37815044516E+02  0.15516918664E+04  0.10100000352E+00 0. -1.
       -3    1    3    3    0  502  0.15331356982E+04 -0.23624688668E+03  0.45126002049E+03  0.16155349816E+04  0.10100000352E+00 0.  1.
</event>
<event>
 5   0  0.8545153E-07  0.3202625E+04  0.7818609E-02  0.8188124E-01
        1   -1    0    0  501    0  0.00000000000E+00  0.00000000000E+00  0.17049997915E+04  0.17049997915E+04  0.50400001928E-02 0. -1.
       -1   -1    0    0    0  501  0.00000000000E+00  0.00000000000E+00 -0.15039312223E+04  0.15039312223E+04  0.50400001928E-02 0.  1.
    10030    2    1    2    0    0  0.00000000000E+00  0.00000000000E+00  0.20106856916E+03  0.32089310138E+04  0.32026254358E+04 0.  0.
        3    1    3    3  502    0  0.10621047021E+04 -0.15538144715E+03  0.12911468048E+04  0.16790681565E+04  0.10100000352E+00 0. -1.
       -3    1    3    3    0  502 -0.10621047021E+04  0.15538144715E+03 -0.10900782356E+04  0.15298628574E+04  0.10100000352E+00 0.  1.
</event>
<event>
 5   0  0.8383008E-07  0.3203560E+04  0.7818609E-02  0.8187877E-01
       -1   -1    0    0    0  501  0.00000000000E+00  0.00000000000E+00  0.12496199773E+04  0.12496199773E+04  0.50400001928E-02 0. -1.
        1   -1    0    0  501    0  0.00000000000E+00  0.00000000000E+00 -0.20531841398E+04  0.20531841398E+04  0.50400001928E-02 0.  1.
    10030    2    1    2    0    0  0.00000000000E+00  0.00000000000E+00 -0.80356416242E+03  0.33028041171E+04  0.32035604681E+04 0.  0.
        4    1    3    3  502    0 -0.22068724262E+02 -0.15639444145E+04 -0.45699807556E+02  0.15647681124E+04  0.12699999809E+01 0. -1.
       -4    1    3    3    0  502  0.22068724262E+02  0.15639444145E+04 -0.75786435487E+03  0.17380360047E+04  0.12699999809E+01 0.  1.
</event>
<event>
 5   0  0.2404430E-06  0.3202356E+04  0.7818609E-02  0.8188195E-01
        2   -1    0    0  501    0  0.00000000000E+00  0.00000000000E+00  0.14437659302E+04  0.14437659302E+04  0.25500000920E-02 0. -1.
       -2   -1    0    0    0  501  0.00000000000E+00  0.00000000000E+00 -0.17757524929E+04  0.17757524929E+04  0.25500000920E-02 0.  1.
    10030    2    1    2    0    0  0.00000000000E+00  0.00000000000E+00 -0.33198656277E+03  0.32195184231E+04  0.32023559763E+04 0.  0.
        4    1    3    3  502    0  0.17773517545E+02 -0.10627887495E+04  0.10378939693E+04  0.14856181638E+04  0.12699999809E+01 0. -1.
       -4    1    3    3    0  502 -0.17773517545E+02  0.10627887495E+04 -0.13698805321E+04  0.17339002593E+04  0.12699999809E+01 0.  1.
</event>
<event>
 5   0  0.8545153E-07  0.3174991E+04  0.7818609E-02  0.8195453E-01
        1   -1    0    0  501    0  0.00000000000E+00  0.00000000000E+00  0.19943208146E+04  0.19943208146E+04  0.50400001928E-02 0. -1.
       -1   -1    0    0    0  501  0.00000000000E+00  0.00000000000E+00 -0.12636596302E+04  0.12636596302E+04  0.50400001928E-02 0.  1.
    10030    2    1    2    0    0  0.00000000000E+00  0.00000000000E+00  0.73066118440E+03  0.32579804447E+04  0.31749914664E+04 0.  0.
        3    1    3    3  502    0 -0.13704097709E+04  0.41055341156E+03 -0.34081785264E+03  0.14706236306E+04  0.10100000352E+00 0.  1.
       -3    1    3    3    0  502  0.13704097709E+04 -0.41055341156E+03  0.10714790370E+04  0.17873568141E+04  0.10100000352E+00 0. -1.
</event>
<event>
 5   0  0.2401139E-06  0.3271253E+04  0.7818609E-02  0.8170249E-01
       -2   -1    0    0    0  501  0.00000000000E+00  0.00000000000E+00  0.19543144824E+04  0.19543144824E+04  0.25500000920E-02 0. -1.
        2   -1    0    0  501    0  0.00000000000E+00  0.00000000000E+00 -0.13689064396E+04  0.13689064396E+04  0.25500000920E-02 0.  1.
    10030    2    1    2    0    0  0.00000000000E+00  0.00000000000E+00  0.58540804284E+03  0.33232209220E+04  0.32712527753E+04 0.  0.
        5    1    3    3  502    0  0.43003847530E+03  0.11528281989E+04 -0.80205460894E+03  0.14687612577E+04  0.46999998093E+01 0.  1.
       -5    1    3    3    0  502 -0.43003847530E+03 -0.11528281989E+04  0.13874626518E+04  0.18544596643E+04  0.46999998093E+01 0. -1.
</event>
<event>
 5   0  0.8545153E-07  0.2628184E+04  0.7818609E-02  0.8358690E-01
       -1   -1    0    0    0  501  0.00000000000E+00  0.00000000000E+00  0.89664016134E+03  0.89664016136E+03  0.50400001928E-02 0.  1.
        1   -1    0    0  501    0  0.00000000000E+00  0.00000000000E+00 -0.19258989138E+04  0.19258989139E+04  0.50400001928E-02 0. -1.
    10030    2    1    2    0    0  0.00000000000E+00  0.00000000000E+00 -0.10292587525E+04  0.28225390752E+04  0.26281844021E+04 0.  0.
        3    1    3    3  502    0 -0.59765710647E+02 -0.18787244508E+03  0.88066720733E+03  0.90246481153E+03  0.10100000352E+00 0.  1.
       -3    1    3    3    0  502  0.59765710647E+02  0.18787244508E+03 -0.19099259598E+04  0.19200742637E+04  0.10100000352E+00 0. -1.
</event>
<event>
 5   0  0.2337504E-06  0.3202486E+04  0.7818609E-02  0.8188161E-01
        2   -1    0    0  501    0  0.00000000000E+00  0.00000000000E+00  0.15970823976E+04  0.15970823976E+04  0.25500000920E-02 0. -1.
       -2   -1    0    0    0  501  0.00000000000E+00  0.00000000000E+00 -0.16054143407E+04  0.16054143407E+04  0.25500000920E-02 0.  1.
    10030    2    1    2    0    0  0.00000000000E+00  0.00000000000E+00 -0.83319430530E+01  0.32024967383E+04  0.32024858997E+04 0.  0.
        1    1    3    3  502    0 -0.64603376531E+03  0.13023188277E+04  0.66709260712E+03  0.15995019542E+04  0.50400001928E-02 0.  1.
       -1    1    3    3    0  502  0.64603376531E+03 -0.13023188277E+04 -0.67542455017E+03  0.16029947841E+04  0.50400001928E-02 0. -1.
</event>
<event>
 5   0  0.8545153E-07  0.3209685E+04  0.7818609E-02  0.8186264E-01
       -1   -1    0    0    0  501  0.00000000000E+00  0.00000000000E+00  0.15880476230E+04  0.15880476230E+04  0.50400001928E-02 0. -1.
        1   -1    0    0  501    0  0.00000000000E+00  0.00000000000E+00 -0.16218151674E+04  0.16218151674E+04  0.50400001928E-02 0.  1.
    10030    2    1    2    0    0  0.00000000000E+00  0.00000000000E+00 -0.33767544427E+02  0.32098627905E+04  0.32096851694E+04 0.  0.
        3    1    3    3  502    0 -0.52017731821E+03  0.47607292106E+03  0.14248235041E+04  0.15897647300E+04  0.10100000352E+00 0. -1.
       -3    1    3    3    0  502  0.52017731821E+03 -0.47607292106E+03 -0.14585910485E+04  0.16200980605E+04  0.10100000352E+00 0.  1.
</event>
<event>
 5   0  0.2401139E-06  0.3109443E+04  0.7818609E-02  0.8213151E-01
       -2   -1    0    0    0  501  0.00000000000E+00  0.00000000000E+00  0.94817914058E+03  0.94817914059E+03  0.25500000920E-02 0. -1.
        2   -1    0    0  501    0  0.00000000000E+00  0.00000000000E+00 -0.25492637236E+04  0.25492637236E+04  0.25500000920E-02 0.  1.
    10030    2    1    2    0    0  0.00000000000E+00  0.00000000000E+00 -0.16010845830E+04  0.34974428642E+04  0.31094428353E+04 0.  0.
        5    1    3    3  502    0  0.86747618794E+03 -0.10426524698E+03  0.64590640631E+03  0.10865557299E+04  0.46999998093E+01 0. -1.
       -5    1    3    3    0  502 -0.86747618794E+03  0.10426524698E+03 -0.22469909893E+04  0.24108871343E+04  0.46999998093E+01 0.  1.
</event>
<event>
 5   0  0.2466076E-06  0.3210822E+04  0.7818609E-02  0.8185965E-01
       -2   -1    0    0    0  501  0.00000000000E+00  0.00000000000E+00  0.90006081284E+03  0.90006081285E+03  0.25500000920E-02 0.  1.
        2   -1    0    0  501    0  0.00000000000E+00  0.00000000000E+00 -0.28635219429E+04  0.28635219429E+04  0.25500000920E-02 0. -1.
    10030    2    1    2    0    0  0.00000000000E+00  0.00000000000E+00 -0.19634611300E+04  0.37635827557E+04  0.32108216316E+04 0.  0.
        3    1    3    3  502    0  0.12347138582E+04 -0.10079265585E+04 -0.75653747150E+03  0.17643081406E+04  0.10100000352E+00 0. -1.
       -3    1    3    3    0  502 -0.12347138582E+04  0.10079265585E+04 -0.12069236585E+04  0.19992746151E+04  0.10100000352E+00 0.  1.
</event>
<event>
 5   0  0.2466076E-06  0.3193807E+04  0.7818609E-02  0.8190455E-01
       -2   -1    0    0    0  501  0.00000000000E+00  0.00000000000E+00  0.16482863882E+04  0.16482863882E+04  0.25500000920E-02 0. -1.
        2   -1    0    0  501    0  0.00000000000E+00  0.00000000000E+00 -0.15471227582E+04  0.15471227582E+04  0.25500000920E-02 0.  1.
    10030    2    1    2    0    0  0.00000000000E+00  0.00000000000E+00  0.10116362992E+03  0.31954091464E+04  0.31938073725E+04 0.  0.
        3    1    3    3  502    0 -0.13318392836E+04  0.46045082668E+02 -0.82973749481E+03  0.15698344969E+04  0.10100000352E+00 0.  1.
       -3    1    3    3    0  502  0.13318392836E+04 -0.46045082668E+02  0.93090112474E+03  0.16255746496E+04  0.10100000352E+00 0. -1.
</event>
<event>
 5   0  0.8681172E-07  0.3220234E+04  0.7818609E-02  0.8183494E-01
        1   -1    0    0  501    0  0.00000000000E+00  0.00000000000E+00  0.24030503575E+04  0.24030503575E+04  0.50400001928E-02 0.  1.
       -1   -1    0    0    0  501  0.00000000000E+00  0.00000000000E+00 -0.10788274136E+04  0.10788274137E+04  0.50400001928E-02 0. -1.
    10030    2    1    2    0    0  0.00000000000E+00  0.00000000000E+00  0.13242229439E+04  0.34818777712E+04  0.32202339059E+04 0.  0.
        1    1    3    3  502    0  0.13863693361E+04  0.26350751852E+03 -0.17613305983E+03  0.14221388833E+04  0.50400001928E-02 0. -1.
       -1    1    3    3    0  502 -0.13863693361E+04 -0.26350751852E+03  0.15003560037E+04  0.20597388879E+04  0.50400001928E-02 0.  1.
</event>
<event>
 5   0  0.8383008E-07  0.3242270E+04  0.7818609E-02  0.8177742E-01
        1   -1    0    0  501    0  0.00000000000E+00  0.00000000000E+00  0.16421210389E+04  0.16421210389E+04  0.50400001928E-02 0.  1.
       -1   -1    0    0    0  501  0.00000000000E+00  0.00000000000E+00 -0.16004169882E+04  0.16004169882E+04  0.50400001928E-02 0. -1.
    10030    2    1    2    0    0  0.00000000000E+00  0.00000000000E+00  0.41704050632E+02  0.32425380271E+04  0.32422698267E+04 0.  0.
        4    1    3    3  502    0  0.59994151024E+03  0.35468595170E+02  0.15265956977E+04  0.16406352044E+04  0.12699999809E+01 0.  1.
       -4    1    3    3    0  502 -0.59994151024E+03 -0.35468595170E+02 -0.14848916470E+04  0.16019028227E+04  0.12699999809E+01 0. -1.
</event>
<event>
 5   0  0.8681172E-07  0.3201801E+04  0.7818609E-02  0.8188342E-01
       -1   -1    0    0    0  501  0.00000000000E+00  0.00000000000E+00  0.11417782235E+04  0.11417782235E+04  0.50400001928E-02 0. -1.
        1   -1    0    0  501    0  0.00000000000E+00  0.00000000000E+00 -0.22446417798E+04  0.22446417798E+04  0.50400001928E-02 0.  1.
    10030    2    1    2    0    0  0.00000000000E+00  0.00000000000E+00 -0.11028635563E+04  0.33864200033E+04  0.32018014327E+04 0.  0.
        1    1    3    3  502    0  0.10438401991E+04 -0.87045711544E+03 -0.14461310557E+04  0.19845888696E+04  0.50400001928E-02 0.  1.
       -1    1    3    3    0  502 -0.10438401991E+04  0.87045711544E+03  0.34326749943E+03  0.14018311336E+04  0.50400001928E-02 0. -1.
</event>
<event>
 5   0  0.7934375E-07  0.3172440E+04  0.7818609E-02  0.8196134E-01
       -3   -1    0    0    0  501  0.00000000000E+00  0.00000000000E+00  0.12543868116E+04  0.12543868157E+04  0.10100000352E+00 0. -1.
        3   -1    0    0  501    0  0.00000000000E+00  0.00000000000E+00 -0.20058357431E+04  0.20058357457E+04  0.10100000352E+00 0.  1.
    10030    2    1    2    0    0  0.00000000000E+00  0.00000000000E+00 -0.75144893149E+03  0.32602225614E+04  0.31724400157E+04 0.  0.
        1    1    3    3  502    0 -0.35762549124E+02  0.11315430269E+04 -0.15175144838E+04  0.18932825436E+04  0.50400001928E-02 0.  1.
       -1    1    3    3    0  502  0.35762549124E+02 -0.11315430269E+04  0.76606555227E+03  0.13669400177E+04  0.50400001928E-02 0. -1.
</event>
<event>
 5   0  0.8512855E-07  0.3222763E+04  0.7818609E-02  0.8182831E-01
        1   -1    0    0  501    0  0.00000000000E+00  0.00000000000E+00  0.26056605580E+04  0.26056605580E+04  0.50400001928E-02 0. -1.
       -1   -1    0    0    0  501  0.00000000000E+00  0.00000000000E+00 -0.99650390461E+03  0.99650390462E+03  0.50400001928E-02 0.  1.
    10030    2    1    2    0    0  0.00000000000E+00  0.00000000000E+00  0.16091566534E+04  0.36021644627E+04  0.32227633610E+04 0.  0.
        5    1    3    3  502    0 -0.13684948754E+04  0.71975122561E+03  0.29763252177E+03  0.15746197188E+04  0.46999998093E+01 0.  1.
       -5    1    3    3    0  502  0.13684948754E+04 -0.71975122561E+03  0.13115241317E+04  0.20275447439E+04  0.46999998093E+01 0. -1.
</event>
<event>
 5   0  0.8383008E-07  0.3224654E+04  0.7818609E-02  0.8182336E-01
        1   -1    0    0  501    0  0.00000000000E+00  0.00000000000E+00  0.13020434945E+04  0.13020434945E+04  0.50400001928E-02 0. -1.
       -1   -1    0    0    0  501  0.00000000000E+00  0.00000000000E+00 -0.19965522032E+04  0.19965522032E+04  0.50400001928E-02 0.  1.
    10030    2    1    2    0    0  0.00000000000E+00  0.00000000000E+00 -0.69450870877E+03  0.32985956977E+04  0.32246536605E+04 0.  0.
        4    1    3    3  502    0 -0.22477389586E+03 -0.14662014349E+04  0.29915843055E+03  0.15131977172E+04  0.12699999809E+01 0. -1.
       -4    1    3    3    0  502  0.22477389586E+03  0.14662014349E+04 -0.99366713933E+03  0.17853979805E+04  0.12699999809E+01 0.  1.
</event>
<event>
 5   0  0.8487944E-07  0.3186477E+04  0.7818609E-02  0.8192398E-01
        1   -1    0    0  501    0  0.00000000000E+00  0.00000000000E+00  0.20708408449E+04  0.20708408449E+04  0.50400001928E-02 0. -1.
       -1   -1    0    0    0  501  0.00000000000E+00  0.00000000000E+00 -0.12257862792E+04  0.12257862792E+04  0.50400001928E-02 0.  1.
    10030    2    1    2    0    0  0.00000000000E+00  0.00000000000E+00  0.84505456573E+03  0.32966271241E+04  0.31864766085E+04 0.  0.
        2    1    3    3  502    0  0.14079353323E+04 -0.21822180485E+03 -0.31521891354E+03  0.14592003357E+04  0.25500000920E-02 0.  1.
       -2    1    3    3    0  502 -0.14079353323E+04  0.21822180485E+03  0.11602734793E+04  0.18374267884E+04  0.25500000920E-02 0. -1.
</event>
<event>
 5   0  0.2621528E-06  0.3165214E+04  0.7818609E-02  0.8198065E-01
        2   -1    0    0  501    0  0.00000000000E+00  0.00000000000E+00  0.17087197826E+04  0.17087197826E+04  0.25500000920E-02 0. -1.
       -2   -1    0    0    0  501  0.00000000000E+00  0.00000000000E+00 -0.14658023610E+04  0.14658023610E+04  0.25500000920E-02 0.  1.
    10030    2    1    2    0    0  0.00000000000E+00  0.00000000000E+00  0.24291742161E+03  0.31745221436E+04  0.31652143634E+04 0.  0.
        2    1    3    3  502    0  0.63368105682E+03 -0.14434619272E+04 -0.18635528659E+02  0.15765409288E+04  0.25500000920E-02 0. -1.
       -2    1    3    3    0  502 -0.63368105682E+03  0.14434619272E+04  0.26155295027E+03  0.15979812148E+04  0.25500000920E-02 0.  1.
</event>
<event>
 5   0  0.8512855E-07  0.3202068E+04  0.7818609E-02  0.8188271E-01
       -1   -1    0    0    0  501  0.00000000000E+00  0.00000000000E+00  0.15689054698E+04  0.15689054698E+04  0.50400001928E-02 0.  1.
        1   -1    0    0  501    0  0.00000000000E+00  0.00000000000E+00 -0.16338206732E+04  0.16338206732E+04  0.50400001928E-02 0. -1.
    10030    2    1    2    0    0  0.00000000000E+00  0.00000000000E+00 -0.64915203465E+02  0.32027261430E+04  0.32020682010E+04 0.  0.
        5    1    3    3  502    0  0.10403074261E+04 -0.55908425240E+03 -0.11136391731E+04  0.16232772529E+04  0.46999998093E+01 0. -1.
       -5    1    3    3    0  502 -0.10403074261E+04  0.55908425240E+03  0.10487239696E+04  0.15794488901E+04  0.46999998093E+01 0.  1.
</event>
<event>
 5   0  0.8545153E-07  0.3040148E+04  0.7818609E-02  0.8232358E-01
        1   -1    0    0  501    0  0.00000000000E+00  0.00000000000E+00  0.12756925006E+04  0.12756925006E+04  0.50400001928E-02 0. -1.
       -1   -1    0    0    0  501  0.00000000000E+00  0.00000000000E+00 -0.18112712356E+04  0.18112712356E+04  0.50400001928E-02 0.  1.
    10030    2    1    2    0    0  0.00000000000E+00  0.00000000000E+00 -0.53557873502E+03  0.30869637362E+04  0.30401481094E+04 0.  0.
        3    1    3    3  502    0  0.23834588960E+03 -0.39296932104E+03 -0.17390292861E+04  0.17987374791E+04  0.10100000352E+00 0.  1.
       -3    1    3    3    0  502 -0.23834588960E+03  0.39296932104E+03  0.12034505511E+04  0.12882262571E+04  0.10100000352E+00 0. -1.
</event>
<event>
 5   0  0.2621528E-06  0.3202768E+04  0.7818609E-02  0.8188087E-01
        2   -1    0    0  501    0  0.00000000000E+00  0.00000000000E+00  0.19717282721E+04  0.19717282721E+04  0.25500000920E-02 0. -1.
       -2   -1    0    0    0  501  0.00000000000E+00  0.00000000000E+00 -0.13006003066E+04  0.13006003066E+04  0.25500000920E-02 0.  1.
    10030    2    1    2    0    0  0.00000000000E+00  0.00000000000E+00  0.67112796551E+03  0.32723285786E+04  0.32027678000E+04 0.  0.
        2    1    3    3  502    0 -0.64994886734E+03  0.12574302267E+04  0.11007394605E+04  0.17930955538E+04  0.25500000920E-02 0. -1.
       -2    1    3    3    0  502  0.64994886734E+03 -0.12574302267E+04 -0.42961149502E+03  0.14792330248E+04  0.25500000920E-02 0.  1.
</event>
<event>
 5   0  0.8487944E-07  0.3360345E+04  0.7818609E-02  0.8147708E-01
        1   -1    0    0  501    0  0.00000000000E+00  0.00000000000E+00  0.21727296723E+04  0.21727296723E+04  0.50400001928E-02 0.  1.
       -1   -1    0    0    0  501  0.00000000000E+00  0.00000000000E+00 -0.12992776154E+04  0.12992776154E+04  0.50400001928E-02 0. -1.
    10030    2    1    2    0    0  0.00000000000E+00  0.00000000000E+00  0.87345205692E+03  0.34720072877E+04  0.33603446416E+04 0.  0.
        2    1    3    3  502    0 -0.17268019852E+02 -0.10672920677E+04  0.17773661127E+04  0.20732681546E+04  0.25500000920E-02 0.  1.
       -2    1    3    3    0  502  0.17268019852E+02  0.10672920677E+04 -0.90391405576E+03  0.13987391331E+04  0.25500000920E-02 0. -1.
</event>
<event>
 5   0  0.8512855E-07  0.3203670E+04  0.7818609E-02  0.8187849E-01
       -1   -1    0    0    0  501  0.00000000000E+00  0.00000000000E+00  0.83358504614E+03  0.83358504615E+03  0.50400001928E-02 0. -1.
        1   -1    0    0  501    0  0.00000000000E+00  0.00000000000E+00 -0.30781199870E+04  0.30781199870E+04  0.50400001928E-02 0.  1.
    10030    2    1    2    0    0  0.00000000000E+00  0.00000000000E+00 -0.22445349408E+04  0.39117050331E+04  0.32036696405E+04 0.  0.
        5    1    3    3  502    0 -0.12905461371E+04  0.42663679647E+03 -0.21571205266E+04  0.25496508279E+04  0.46999998093E+01 0.  1.
       -5    1    3    3    0  502  0.12905461371E+04 -0.42663679647E+03 -0.87414414219E+02  0.13620542052E+04  0.46999998093E+01 0. -1.
</event>
<event>
 5   0  0.2337504E-06  0.3224599E+04  0.7818609E-02  0.8182351E-01
       -2   -1    0    0    0  501  0.00000000000E+00  0.00000000000E+00  0.10842657260E+04  0.10842657260E+04  0.25500000920E-02 0. -1.
        2   -1    0    0  501    0  0.00000000000E+00  0.00000000000E+00 -0.23974845326E+04  0.23974845326E+04  0.25500000920E-02 0.  1.
    10030    2    1    2    0    0  0.00000000000E+00  0.00000000000E+00 -0.13132188066E+04  0.34817502586E+04  0.32245993905E+04 0.  0.
        1    1    3    3  502    0  0.41739024238E+03 -0.96739026654E+03 -0.19743656107E+04  0.22378959107E+04  0.50400001928E-02 0.  1.
       -1    1    3    3    0  502 -0.41739024238E+03  0.96739026654E+03  0.66114680412E+03  0.12438543479E+04  0.50400001928E-02 0. -1.
</event>
<event>
 5   0  0.2621528E-06  0.3193760E+04  0.7818609E-02  0.8190467E-01
       -2   -1    0    0    0  501  0.00000000000E+00  0.00000000000E+00  0.12041974133E+04  0.12041974133E+04  0.25500000920E-02 0.  1.
        2   -1    0    0  501    0  0.00000000000E+00  0.00000000000E+00 -0.21176147161E+04  0.21176147161E+04  0.25500000920E-02 0. -1.
    10030    2    1    2    0    0  0.00000000000E+00  0.00000000000E+00 -0.91341730287E+03  0.33218121294E+04  0.31937602687E+04 0.  0.
        2    1    3    3  502    0 -0.61290906572E+03 -0.14603395409E+04 -0.66929810729E+03  0.17193629791E+04  0.25500000920E-02 0. -1.
       -2    1    3    3    0  502  0.61290906572E+03  0.14603395409E+04 -0.24411919558E+03  0.16024491503E+04  0.25500000920E-02 0.  1.
</event>
<event>
 5   0  0.2404430E-06  0.2877299E+04  0.7818609E-02  0.8279664E-01
        2   -1    0    0  501    0  0.00000000000E+00  0.00000000000E+00  0.20305770992E+04  0.20305770992E+04  0.25500000920E-02 0. -1.
       -2   -1    0    0    0  501  0.00000000000E+00  0.00000000000E+00 -0.10192731178E+04  0.10192731179E+04  0.25500000920E-02 0.  1.
    10030    2    1    2    0    0  0.00000000000E+00  0.00000000000E+00  0.10113039813E+04  0.30498502170E+04  0.28772991856E+04 0.  0.
        4    1    3    3  502    0  0.61704975972E+03  0.11606480459E+04 -0.11409662474E+03  0.13194218223E+04  0.12699999809E+01 0.  1.
       -4    1    3    3    0  502 -0.61704975972E+03 -0.11606480459E+04  0.11254006061E+04  0.17304283948E+04  0.12699999809E+01 0. -1.
</event>
<event>
 5   0  0.2401139E-06  0.3160072E+04  0.7818609E-02  0.8199442E-01
       -2   -1    0    0    0  501  0.00000000000E+00  0.00000000000E+00  0.24840906464E+04  0.24840906464E+04  0.25500000920E-02 0. -1.
        2   -1    0    0  501    0  0.00000000000E+00  0.00000000000E+00 -0.10050009325E+04  0.10050009325E+04  0.25500000920E-02 0.  1.
    10030    2    1    2    0    0  0.00000000000E+00  0.00000000000E+00  0.14790897139E+04  0.34890915789E+04  0.31600717816E+04 0.  0.
        5    1    3    3  502    0  0.13191325657E+04  0.29592220590E+03 -0.16341202075E+03  0.13617658596E+04  0.46999998093E+01 0.  1.
       -5    1    3    3    0  502 -0.13191325657E+04 -0.29592220590E+03  0.16425017346E+04  0.21273257193E+04  0.46999998093E+01 0. -1.
</event>
<event>
 5   0  0.2404430E-06  0.3177438E+04  0.7818609E-02  0.8194801E-01
        2   -1    0    0  501    0  0.00000000000E+00  0.00000000000E+00  0.21135976418E+04  0.21135976418E+04  0.25500000920E-02 0.  1.
       -2   -1    0    0    0  501  0.00000000000E+00  0.00000000000E+00 -0.11941854335E+04  0.11941854336E+04  0.25500000920E-02 0. -1.
    10030    2    1    2    0    0  0.00000000000E+00  0.00000000000E+00  0.91941220827E+03  0.33077830754E+04  0.31774376571E+04 0.  0.
        4    1    3    3  502    0  0.13207672518E+04 -0.49110668926E+03  0.12235738111E+04  0.18662117773E+04  0.12699999809E+01 0.  1.
       -4    1    3    3    0  502 -0.13207672518E+04  0.49110668926E+03 -0.30416160285E+03  0.14415712980E+04  0.12699999809E+01 0. -1.
</event>
<event>
 5   0  0.2337504E-06  0.3229003E+04  0.7818609E-02  0.8181199E-01
       -2   -1    0    0    0  501  0.00000000000E+00  0.00000000000E+00  0.95611207569E+03  0.95611207569E+03  0.25500000920E-02 0. -1.
        2   -1    0    0  501    0  0.00000000000E+00  0.00000000000E+00 -0.27262656449E+04  0.27262656449E+04  0.25500000920E-02 0.  1.
    10030    2    1    2    0    0  0.00000000000E+00  0.00000000000E+00 -0.17701535692E+04  0.36823777206E+04  0.32290032546E+04 0.  0.
        1    1    3    3  502    0 -0.11694906345E+04 -0.10381581072E+04 -0.13428545187E+04  0.20612469183E+04  0.50400001928E-02 0.  1.
       -1    1    3    3    0  502  0.11694906345E+04  0.10381581072E+04 -0.42729905046E+03  0.16211308023E+04  0.50400001928E-02 0. -1.
</event>
<event>
 5   0  0.8383008E-07  0.3197923E+04  0.7818609E-02  0.8189366E-01
       -1   -1    0    0    0  501  0.00000000000E+00  0.00000000000E+00  0.14551707316E+04  0.14551707317E+04  0.50400001928E-02 0. -1.
        1   -1    0    0  501    0  0.00000000000E+00  0.00000000000E+00 -0.17569603908E+04  0.17569603909E+04  0.50400001928E-02 0.  1.
    10030    2    1    2    0    0  0.00000000000E+00  0.00000000000E+00 -0.30178965920E+03  0.32121311225E+04  0.31979226616E+04 0.  0.
        4    1    3    3  502    0 -0.90151799266E+01  0.10363969406E+04 -0.13738741678E+04  0.17209682547E+04  0.12699999809E+01 0.  1.
       -4    1    3    3    0  502  0.90151799266E+01 -0.10363969406E+04  0.10720845086E+04  0.14911628678E+04  0.12699999809E+01 0. -1.
</event>
<event>
 5   0  0.2621528E-06  0.3228510E+04  0.7818609E-02  0.8181328E-01
       -2   -1    0    0    0  501  0.00000000000E+00  0.00000000000E+00  0.14148559726E+04  0.14148559726E+04  0.25500000920E-02 0. -1.
        2   -1    0    0  501    0  0.00000000000E+00  0.00000000000E+00 -0.18417555280E+04  0.18417555280E+04  0.25500000920E-02 0.  1.
    10030    2    1    2    0    0  0.00000000000E+00  0.00000000000E+00 -0.42689955539E+03  0.32566115005E+04  0.32285097545E+04 0.  0.
        2    1    3    3  502    0 -0.11743618002E+03  0.28074924933E+03  0.13856590296E+04  0.14186833134E+04  0.25500000920E-02 0. -1.
       -2    1    3    3    0  502  0.11743618002E+03 -0.28074924933E+03 -0.18125585850E+04  0.18379281872E+04  0.25500000920E-02 0.  1.
</event>
<event>
 5   0  0.2466076E-06  0.3129797E+04  0.7818609E-02  0.8207608E-01
        2   -1    0    0  501    0  0.00000000000E+00  0.00000000000E+00  0.21147856884E+04  0.21147856884E+04  0.25500000920E-02 0. -1.
       -2   -1    0    0    0  501  0.00000000000E+00  0.00000000000E+00 -0.11579933900E+04  0.11579933900E+04  0.25500000920E-02 0.  1.
    10030    2    1    2    0    0  0.00000000000E+00  0.00000000000E+00  0.95679229843E+03  0.32727790784E+04  0.31297973407E+04 0.  0.
        3    1    3    3  502    0  0.56677961708E+02 -0.12611778875E+04 -0.48857935731E+03  0.13536956282E+04  0.10100000352E+00 0.  1.
       -3    1    3    3    0  502 -0.56677961708E+02  0.12611778875E+04  0.14453716557E+04  0.19190834502E+04  0.10100000352E+00 0. -1.
</event>
<event>
 5   0  0.2401139E-06  0.3191620E+04  0.7818609E-02  0.8191034E-01
       -2   -1    0    0    0  501  0.00000000000E+00  0.00000000000E+00  0.88372817924E+03  0.88372817924E+03  0.25500000920E-02 0. -1.
        2   -1    0    0  501    0  0.00000000000E+00  0.00000000000E+00 -0.28816659096E+04  0.28816659096E+04  0.25500000920E-02 0.  1.
    10030    2    1    2    0    0  0.00000000000E+00  0.00000000000E+00 -0.19979377304E+04  0.37653940889E+04  0.31916198818E+04 0.  0.
        5    1    3    3  502    0  0.97821470041E+03 -0.11480524867E+04 -0.38405945988E+03  0.15564229088E+04  0.46999998093E+01 0.  1.
       -5    1    3    3    0  502 -0.97821470041E+03  0.11480524867E+04 -0.16138782705E+04  0.22089711801E+04  0.46999998093E+01 0. -1.
</event>
<event>
 5   0  0.2337504E-06  0.2783873E+04  0.7818609E-02  0.8308293E-01
        2   -1    0    0  501    0  0.00000000000E+00  0.00000000000E+00  0.23239006295E+04  0.23239006295E+04  0.25500000920E-02 0. -1.
       -2   -1    0    0    0  501  0.00000000000E+00  0.00000000000E+00 -0.83372209834E+03  0.83372209834E+03  0.25500000920E-02 0.  1.
    10030    2    1    2    0    0  0.00000000000E+00  0.00000000000E+00  0.14901785311E+04  0.31576227278E+04  0.27838730640E+04 0.  0.
        1    1    3    3  502    0  0.46636642791E+03 -0.88075417178E+03 -0.35710211389E+03  0.10586536147E+04  0.50400001928E-02 0.  1.
       -1    1    3    3    0  502 -0.46636642791E+03  0.88075417178E+03  0.18472806450E+04  0.20989691131E+04  0.50400001928E-02 0. -1.
</event>
<event>
 5   0  0.8681172E-07  0.3144310E+04  0.7818609E-02  0.8203682E-01
        1   -1    0    0  501    0  0.00000000000E+00  0.00000000000E+00  0.18273665057E+04  0.18273665057E+04  0.50400001928E-02 0.  1.
       -1   -1    0    0    0  501  0.00000000000E+00  0.00000000000E+00 -0.13525864364E+04  0.13525864364E+04  0.50400001928E-02 0. -1.
    10030    2    1    2    0    0  0.00000000000E+00  0.00000000000E+00  0.47478006931E+03  0.31799529421E+04  0.31443098765E+04 0.  0.
        1    1    3    3  502    0 -0.76279393167E+03 -0.40278701142E+03 -0.10918834305E+04  0.13915104687E+04  0.50400001928E-02 0. -1.
       -1    1    3    3    0  502  0.76279393167E+03  0.40278701142E+03  0.15666634998E+04  0.17884424733E+04  0.50400001928E-02 0.  1.
</event>
<event>
 5   0  0.2621528E-06  0.3207145E+04  0.7818609E-02  0.8186933E-01
        2   -1    0    0  501    0  0.00000000000E+00  0.00000000000E+00  0.15308300760E+04  0.15308300760E+04  0.25500000920E-02 0. -1.
       -2   -1    0    0    0  501  0.00000000000E+00  0.00000000000E+00 -0.16797714229E+04  0.16797714229E+04  0.25500000920E-02 0.  1.
    10030    2    1    2    0    0  0.00000000000E+00  0.00000000000E+00 -0.14894134692E+03  0.32106014988E+04  0.32071449078E+04 0.  0.
        2    1    3    3  502    0 -0.87518623093E+03 -0.57737386434E+03  0.11401519317E+04  0.15489538229E+04  0.25500000920E-02 0. -1.
       -2    1    3    3    0  502  0.87518623093E+03  0.57737386434E+03 -0.12890932786E+04  0.16616476760E+04  0.25500000920E-02 0.  1.
</event>
<event>
 5   0  0.8512855E-07  0.3201257E+04  0.7818609E-02  0.8188485E-01
        1   -1    0    0  501    0  0.00000000000E+00  0.00000000000E+00  0.13655099113E+04  0.13655099113E+04  0.50400001928E-02 0. -1.
       -1   -1    0    0    0  501  0.00000000000E+00  0.00000000000E+00 -0.18762306424E+04  0.18762306424E+04  0.50400001928E-02 0.  1.
    10030    2    1    2    0    0  0.00000000000E+00  0.00000000000E+00 -0.51072073111E+03  0.32417405537E+04  0.32012569644E+04 0.  0.
        5    1    3    3  502    0  0.11651322727E+04  0.66233300335E+03  0.63078963080E+03  0.14812615801E+04  0.46999998093E+01 0. -1.
       -5    1    3    3    0  502 -0.11651322727E+04 -0.66233300335E+03 -0.11415103619E+04  0.17604789736E+04  0.46999998093E+01 0.  1.
</event>
<event>
 5   0  0.2401139E-06  0.3200603E+04  0.7818609E-02  0.8188658E-01
        2   -1    0    0  501    0  0.00000000000E+00  0.00000000000E+00  0.30847879530E+04  0.30847879530E+04  0.25500000920E-02 0. -1.
       -2   -1    0    0    0  501  0.00000000000E+00  0.00000000000E+00 -0.83019162433E+03  0.83019162434E+03  0.25500000920E-02 0.  1.
    10030    2    1    2    0    0  0.00000000000E+00  0.00000000000E+00  0.22545963287E+04  0.39149795774E+04  0.32006031441E+04 0.  0.
        5    1    3    3  502    0  0.99193686503E+03 -0.12538652266E+04  0.12122756666E+04  0.20064274551E+04  0.46999998093E+01 0. -1.
       -5    1    3    3    0  502 -0.99193686503E+03  0.12538652266E+04  0.10423206622E+04  0.19085521223E+04  0.46999998093E+01 0.  1.
</event>
<event>
 5   0  0.8383008E-07  0.3184371E+04  0.7818609E-02  0.8192957E-01
        1   -1    0    0  501    0  0.00000000000E+00  0.00000000000E+00  0.98201000165E+03  0.98201000166E+03  0.50400001928E-02 0. -1.
       -1   -1    0    0    0  501  0.00000000000E+00  0.00000000000E+00 -0.25814958393E+04  0.25814958393E+04  0.50400001928E-02 0.  1.
    10030    2    1    2    0    0  0.00000000000E+00  0.00000000000E+00 -0.15994858376E+04  0.35635058409E+04  0.31843710421E+04 0.  0.
        4    1    3    3  502    0 -0.14000079108E+04  0.33407742513E+02  0.48026129153E+02  0.14012302986E+04  0.12699999809E+01 0. -1.
       -4    1    3    3    0  502  0.14000079108E+04 -0.33407742513E+02 -0.16475119668E+04  0.21622755424E+04  0.12699999809E+01 0.  1.
</event>
<event>
 5   0  0.2404430E-06  0.3241948E+04  0.7818609E-02  0.8177826E-01
        2   -1    0    0  501    0  0.00000000000E+00  0.00000000000E+00  0.15211607786E+04  0.15211607786E+04  0.25500000920E-02 0. -1.
       -2   -1    0    0    0  501  0.00000000000E+00  0.00000000000E+00 -0.17273370751E+04  0.17273370751E+04  0.25500000920E-02 0.  1.
    10030    2    1    2    0    0  0.00000000000E+00  0.00000000000E+00 -0.20617629652E+03  0.32484978536E+04  0.32419484326E+04 0.  0.
        4    1    3    3  502    0 -0.10021487164E+04 -0.72883762534E+03  0.94403470102E+03  0.15577899292E+04  0.12699999809E+01 0. -1.
       -4    1    3    3    0  502  0.10021487164E+04  0.72883762534E+03 -0.11502109975E+04  0.16907079244E+04  0.12699999809E+01 0.  1.
</event>
<event>
 5   0  0.8681172E-07  0.3218639E+04  0.7818609E-02  0.8183912E-01
        1   -1    0    0  501    0  0.00000000000E+00  0.00000000000E+00  0.18738355983E+04  0.18738355983E+04  0.50400001928E-02 0.  1.
       -1   -1    0    0    0  501  0.00000000000E+00  0.00000000000E+00 -0.13821436087E+04  0.13821436087E+04  0.50400001928E-02 0. -1.
    10030    2    1    2    0    0  0.00000000000E+00  0.00000000000E+00  0.49169198956E+03  0.32559792070E+04  0.32186393994E+04 0.  0.
        1    1    3    3  502    0 -0.11935702130E+04 -0.10467767431E+04  0.51264510727E+03  0.16682794758E+04  0.50400001928E-02 0. -1.
       -1    1    3    3    0  502  0.11935702130E+04  0.10467767431E+04 -0.20953117711E+02  0.15876997312E+04  0.50400001928E-02 0.  1.
</event>
<event>
 5   0  0.2337504E-06  0.3188587E+04  0.7818609E-02  0.8191838E-01
       -2   -1    0    0    0  501  0.00000000000E+00  0.00000000000E+00  0.12559193059E+04  0.12559193059E+04  0.25500000920E-02 0.  1.
        2   -1    0    0  501    0  0.00000000000E+00  0.00000000000E+00 -0.20238338777E+04  0.20238338777E+04  0.25500000920E-02 0. -1.
    10030    2    1    2    0    0  0.00000000000E+00  0.00000000000E+00 -0.76791457184E+03  0.32797531836E+04  0.31885871723E+04 0.  0.
        1    1    3    3  502    0  0.22213676478E+03 -0.11192227074E+03 -0.20037521345E+04  0.20191319802E+04  0.50400001928E-02 0. -1.
       -1    1    3    3    0  502 -0.22213676478E+03  0.11192227074E+03  0.12358375627E+04  0.12606212033E+04  0.50400001928E-02 0.  1.
</event>
<event>
 5   0  0.8383008E-07  0.3197865E+04  0.7818609E-02  0.8189381E-01
       -1   -1    0    0    0  501  0.00000000000E+00  0.00000000000E+00  0.11936392071E+04  0.11936392071E+04  0.50400001928E-02 0. -1.
        1   -1    0    0  501    0  0.00000000000E+00  0.00000000000E+00 -0.21418411095E+04  0.21418411095E+04  0.50400001928E-02 0.  1.
    10030    2    1    2    0    0  0.00000000000E+00  0.00000000000E+00 -0.94820190236E+03  0.33354803166E+04  0.31978652402E+04 0.  0.
        4    1    3    3  502    0 -0.61727749476E+03  0.63250357645E+03 -0.18639176917E+04  0.20628337437E+04  0.12699999809E+01 0.  1.
       -4    1    3    3    0  502  0.61727749476E+03 -0.63250357645E+03  0.91571578934E+03  0.12726465729E+04  0.12699999809E+01 0. -1.
</event>
<event>
 5   0  0.2466076E-06  0.2668268E+04  0.7818609E-02  0.8345375E-01
       -2   -1    0    0    0  501  0.00000000000E+00  0.00000000000E+00  0.89555365916E+03  0.89555365917E+03  0.25500000920E-02 0. -1.
        2   -1    0    0  501    0  0.00000000000E+00  0.00000000000E+00 -0.19875007288E+04  0.19875007288E+04  0.25500000920E-02 0.  1.
    10030    2    1    2    0    0  0.00000000000E+00  0.00000000000E+00 -0.10919470696E+04  0.28830543879E+04  0.26682680152E+04 0.  0.
        3    1    3    3  502    0 -0.95208260505E+03  0.38202391249E+03  0.37562730899E+03  0.10924740006E+04  0.10100000352E+00 0. -1.
       -3    1    3    3    0  502  0.95208260505E+03 -0.38202391249E+03 -0.14675743786E+04  0.17905803873E+04  0.10100000352E+00 0.  1.
</event>
<event>
 5   0  0.8545153E-07  0.3208653E+04  0.7818609E-02  0.8186536E-01
        1   -1    0    0  501    0  0.00000000000E+00  0.00000000000E+00  0.24564483606E+04  0.24564483606E+04  0.50400001928E-02 0.  1.
       -1   -1    0    0    0  501  0.00000000000E+00  0.00000000000E+00 -0.10477986809E+04  0.10477986809E+04  0.50400001928E-02 0. -1.
    10030    2    1    2    0    0  0.00000000000E+00  0.00000000000E+00  0.14086496797E+04  0.35042470415E+04  0.32086528961E+04 0.  0.
        3    1    3    3  502    0 -0.14078910459E+04  0.12363711342E+03 -0.12484118861E+03  0.14188124138E+04  0.10100000352E+00 0. -1.
       -3    1    3    3    0  502  0.14078910459E+04 -0.12363711342E+03  0.15334908683E+04  0.20854346277E+04  0.10100000352E+00 0.  1.
</event>
<event>
 5   0  0.2337504E-06  0.3153379E+04  0.7818609E-02  0.8201239E-01
        2   -1    0    0  501    0  0.00000000000E+00  0.00000000000E+00  0.23712324984E+04  0.23712324984E+04  0.25500000920E-02 0. -1.
       -2   -1    0    0    0  501  0.00000000000E+00  0.00000000000E+00 -0.10483786871E+04  0.10483786871E+04  0.25500000920E-02 0.  1.
    10030    2    1    2    0    0  0.00000000000E+00  0.00000000000E+00  0.13228538114E+04  0.34196111855E+04  0.31533788947E+04 0.  0.
        1    1    3    3  502    0  0.24946640284E+03 -0.14925738834E+04  0.11414491703E+04  0.18954990087E+04  0.50400001928E-02 0. -1.
       -1    1    3    3    0  502 -0.24946640284E+03  0.14925738834E+04  0.18140464104E+03  0.15241121768E+04  0.50400001928E-02 0.  1.
</event>
<event>
 5   0  0.8383008E-07  0.3271487E+04  0.7818609E-02  0.8170189E-01
        1   -1    0    0  501    0  0.00000000000E+00  0.00000000000E+00  0.18780927988E+04  0.18780927988E+04  0.50400001928E-02 0. -1.
       -1   -1    0    0    0  501  0.00000000000E+00  0.00000000000E+00 -0.14246667738E+04  0.14246667738E+04  0.50400001928E-02 0.  1.
    10030    2    1    2    0    0  0.00000000000E+00  0.00000000000E+00  0.45342602494E+03  0.33027595726E+04  0.32714867621E+04 0.  0.
        4    1    3    3  502    0 -0.36725140262E+03 -0.10133136503E+04 -0.10154865763E+04  0.14808419045E+04  0.12699999809E+01 0.  1.
       -4    1    3    3    0  502  0.36725140262E+03  0.10133136503E+04  0.14689126012E+04  0.18219176681E+04  0.12699999809E+01 0. -1.
</event>
<event>
 5   0  0.2466076E-06  0.3208908E+04  0.7818609E-02  0.8186469E-01
        2   -1    0    0  501    0  0.00000000000E+00  0.00000000000E+00  0.27014895641E+04  0.27014895641E+04  0.25500000920E-02 0.  1.
       -2   -1    0    0    0  501  0.00000000000E+00  0.00000000000E+00 -0.95290837701E+03  0.95290837702E+03  0.25500000920E-02 0. -1.
    10030    2    1    2    0    0  0.00000000000E+00  0.00000000000E+00  0.17485811871E+04  0.36543979411E+04  0.32089076248E+04 0.  0.
        3    1    3    3  502    0 -0.95330580424E+02  0.13822217450E+04 -0.47139229201E+02  0.13863069607E+04  0.10100000352E+00 0. -1.
       -3    1    3    3    0  502  0.95330580424E+02 -0.13822217450E+04  0.17957204163E+04  0.22680909805E+04  0.10100000352E+00 0.  1.
</event>
<event>
 5   0  0.8383008E-07  0.3173048E+04  0.7818609E-02  0.8195971E-01
       -1   -1    0    0    0  501  0.00000000000E+00  0.00000000000E+00  0.11128412811E+04  0.11128412811E+04  0.50400001928E-02 0. -1.
        1   -1    0    0  501    0  0.00000000000E+00  0.00000000000E+00 -0.22618311880E+04  0.22618311880E+04  0.50400001928E-02 0.  1.
    10030    2    1    2    0    0  0.00000000000E+00  0.00000000000E+00 -0.11489899070E+04  0.33746724691E+04  0.31730484502E+04 0.  0.
        4    1    3    3  502    0  0.24777902047E+03 -0.94265983606E+03 -0.19058598846E+04  0.21406320380E+04  0.12699999809E+01 0.  1.
       -4    1    3    3    0  502 -0.24777902047E+03  0.94265983606E+03  0.75686997766E+03  0.12340404311E+04  0.12699999809E+01 0. -1.
</event>
<event>
 5   0  0.7934375E-07  0.3220229E+04  0.7818609E-02  0.8183495E-01
       -3   -1    0    0    0  501  0.00000000000E+00  0.00000000000E+00  0.18682912498E+04  0.18682912526E+04  0.10100000352E+00 0. -1.
        3   -1    0    0  501    0  0.00000000000E+00  0.00000000000E+00 -0.13876149747E+04  0.13876149784E+04  0.10100000352E+00 0.  1.
    10030    2    1    2    0    0  0.00000000000E+00  0.00000000000E+00  0.48067627514E+03  0.32559062309E+04  0.32202291383E+04 0.  0.
        3    1    3    3  502    0  0.90519620097E+03 -0.10103824464E+04  0.11172509504E+04  0.17574135958E+04  0.10100000352E+00 0. -1.
       -3    1    3    3    0  502 -0.90519620097E+03  0.10103824464E+04 -0.63657467524E+03  0.14984926352E+04  0.10100000352E+00 0.  1.
</event>
<event>
 5   0  0.8383008E-07  0.3150068E+04  0.7818609E-02  0.8202130E-01
        1   -1    0    0  501    0  0.00000000000E+00  0.00000000000E+00  0.14454400445E+04  0.14454400445E+04  0.50400001928E-02 0. -1.
       -1   -1    0    0    0  501  0.00000000000E+00  0.00000000000E+00 -0.17162465848E+04  0.17162465848E+04  0.50400001928E-02 0.  1.
    10030    2    1    2    0    0  0.00000000000E+00  0.00000000000E+00 -0.27080654028E+03  0.31616866293E+04  0.31500676436E+04 0.  0.
        4    1    3    3  502    0 -0.58566234367E+03  0.13281219514E+04  0.47826144870E+03  0.15282813631E+04  0.12699999809E+01 0. -1.
       -4    1    3    3    0  502  0.58566234367E+03 -0.13281219514E+04 -0.74906798898E+03  0.16334052662E+04  0.12699999809E+01 0.  1.
</event>
<event>
 5   0  0.8512855E-07  0.3231021E+04  0.7818609E-02  0.8180672E-01
        1   -1    0    0  501    0  0.00000000000E+00  0.00000000000E+00  0.18712815058E+04  0.18712815058E+04  0.50400001928E-02 0. -1.
       -1   -1    0    0    0  501  0.00000000000E+00  0.00000000000E+00 -0.13946989959E+04  0.13946989959E+04  0.50400001928E-02 0.  1.
    10030    2    1    2    0    0  0.00000000000E+00  0.00000000000E+00  0.47658250991E+03  0.32659805017E+04  0.32310211619E+04 0.  0.
        5    1    3    3  502    0 -0.15339086523E+04  0.38370353554E+03  0.57315834549E+03  0.16818551471E+04  0.46999998093E+01 0. -1.
       -5    1    3    3    0  502  0.15339086523E+04 -0.38370353554E+03 -0.96575835571E+02  0.15841253545E+04  0.46999998093E+01 0.  1.
</event>
<event>
 5   0  0.2404430E-06  0.3199209E+04  0.7818609E-02  0.8189026E-01
       -2   -1    0    0    0  501  0.00000000000E+00  0.00000000000E+00  0.21150129335E+04  0.21150129335E+04  0.25500000920E-02 0.  1.
        2   -1    0    0  501    0  0.00000000000E+00  0.00000000000E+00 -0.12097958438E+04  0.12097958438E+04  0.25500000920E-02 0. -1.
    10030    2    1    2    0    0  0.00000000000E+00  0.00000000000E+00  0.90521708972E+03  0.33248087773E+04  0.31992085625E+04 0.  0.
        4    1    3    3  502    0  0.10185973835E+03 -0.10504079845E+04  0.17018834839E+04  0.20025337315E+04  0.12699999809E+01 0.  1.
       -4    1    3    3    0  502 -0.10185973835E+03  0.10504079845E+04 -0.79666639420E+03  0.13222750458E+04  0.12699999809E+01 0. -1.
</event>
<event>
 5   0  0.2404430E-06  0.3252857E+04  0.7818609E-02  0.8174996E-01
       -2   -1    0    0    0  501  0.00000000000E+00  0.00000000000E+00  0.14728001279E+04  0.14728001279E+04  0.25500000920E-02 0.  1.
        2   -1    0    0  501    0  0.00000000000E+00  0.00000000000E+00 -0.17960813652E+04  0.17960813652E+04  0.25500000920E-02 0. -1.
    10030    2    1    2    0    0  0.00000000000E+00  0.00000000000E+00 -0.32328123730E+03  0.32688814931E+04  0.32528565073E+04 0.  0.
        4    1    3    3  502    0 -0.18541497555E+03 -0.16092512799E+04 -0.30795616935E+03  0.16489108558E+04  0.12699999809E+01 0. -1.
       -4    1    3    3    0  502  0.18541497555E+03  0.16092512799E+04 -0.15325067953E+02  0.16199706373E+04  0.12699999809E+01 0.  1.
</event>
<event>
 5   0  0.2401139E-06  0.3155147E+04  0.7818609E-02  0.8200764E-01
        2   -1    0    0  501    0  0.00000000000E+00  0.00000000000E+00  0.12045923516E+04  0.12045923516E+04  0.25500000920E-02 0.  1.
       -2   -1    0    0    0  501  0.00000000000E+00  0.00000000000E+00 -0.20660416804E+04  0.20660416804E+04  0.25500000920E-02 0. -1.
    10030    2    1    2    0    0  0.00000000000E+00  0.00000000000E+00 -0.86144932879E+03  0.32706340320E+04  0.31551469102E+04 0.  0.
        5    1    3    3  502    0  0.67692268636E+03 -0.69314167472E+03  0.85985461679E+03  0.12953925106E+04  0.46999998093E+01 0.  1.
       -5    1    3    3    0  502 -0.67692268636E+03  0.69314167472E+03 -0.17213039456E+04  0.19752415213E+04  0.46999998093E+01 0. -1.
</event>
<event>
 5   0  0.2401139E-06  0.3044424E+04  0.7818609E-02  0.8231158E-01
        2   -1    0    0  501    0  0.00000000000E+00  0.00000000000E+00  0.91965112941E+03  0.91965112941E+03  0.25500000920E-02 0. -1.
       -2   -1    0    0    0  501  0.00000000000E+00  0.00000000000E+00 -0.25195740464E+04  0.25195740464E+04  0.25500000920E-02 0.  1.
    10030    2    1    2    0    0  0.00000000000E+00  0.00000000000E+00 -0.15999229170E+04  0.34392251758E+04  0.30444238321E+04 0.  0.
        5    1    3    3  502    0  0.72481712109E+03  0.10237728777E+04 -0.17741337623E+04  0.21727962308E+04  0.46999998093E+01 0.  1.
       -5    1    3    3    0  502 -0.72481712109E+03 -0.10237728777E+04  0.17421084530E+03  0.12664289450E+04  0.46999998093E+01 0. -1.
</event>
<event>
 5   0  0.8383008E-07  0.3203754E+04  0.7818609E-02  0.8187827E-01
        1   -1    0    0  501    0  0.00000000000E+00  0.00000000000E+00  0.24509013204E+04  0.24509013204E+04  0.50400001928E-02 0. -1.
       -1   -1    0    0    0  501  0.00000000000E+00  0.00000000000E+00 -0.10469655382E+04  0.10469655382E+04  0.50400001928E-02 0.  1.
    10030    2    1    2    0    0  0.00000000000E+00  0.00000000000E+00  0.14039357823E+04  0.34978668586E+04  0.32037535610E+04 0.  0.
        4    1    3    3  502    0 -0.38724844967E+03  0.38391742184E+03  0.23464466668E+04  0.24089764468E+04  0.12699999809E+01 0. -1.
       -4    1    3    3    0  502  0.38724844967E+03 -0.38391742184E+03 -0.94251088450E+03  0.10888904118E+04  0.12699999809E+01 0.  1.
</event>
<event>
 5   0  0.8681172E-07  0.3216146E+04  0.7818609E-02  0.8184566E-01
        1   -1    0    0  501    0  0.00000000000E+00  0.00000000000E+00  0.11563803603E+04  0.11563803603E+04  0.50400001928E-02 0. -1.
       -1   -1    0    0    0  501  0.00000000000E+00  0.00000000000E+00 -0.22362012719E+04  0.22362012719E+04  0.50400001928E-02 0.  1.
    10030    2    1    2    0    0  0.00000000000E+00  0.00000000000E+00 -0.10798209116E+04  0.33925816323E+04  0.32161462856E+04 0.  0.
        1    1    3    3  502    0 -0.47243108588E+03  0.15269910286E+04 -0.35416384943E+03  0.16371697421E+04  0.50400001928E-02 0.  1.
       -1    1    3    3    0  502  0.47243108588E+03 -0.15269910286E+04 -0.72565706217E+03  0.17554118902E+04  0.50400001928E-02 0. -1.
</event>
<event>
 5   0  0.2466076E-06  0.3239042E+04  0.7818609E-02  0.8178582E-01
        2   -1    0    0  501    0  0.00000000000E+00  0.00000000000E+00  0.11459827374E+04  0.11459827374E+04  0.25500000920E-02 0. -1.
       -2   -1    0    0    0  501  0.00000000000E+00  0.00000000000E+00 -0.22887324277E+04  0.22887324277E+04  0.25500000920E-02 0.  1.
    10030    2    1    2    0    0  0.00000000000E+00  0.00000000000E+00 -0.11427496903E+04  0.34347151651E+04  0.32390417426E+04 0.  0.
        3    1    3    3  502    0 -0.12834284441E+04  0.37202037156E+03 -0.15416711646E+04  0.20401808052E+04  0.10100000352E+00 0.  1.
       -3    1    3    3    0  502  0.12834284441E+04 -0.37202037156E+03  0.39892147436E+03  0.13945343599E+04  0.10100000352E+00 0. -1.
</event>
<event>
 5   0  0.2337504E-06  0.3211393E+04  0.7818609E-02  0.8185815E-01
        2   -1    0    0  501    0  0.00000000000E+00  0.00000000000E+00  0.25179523299E+04  0.25179523299E+04  0.25500000920E-02 0.  1.
       -2   -1    0    0    0  501  0.00000000000E+00  0.00000000000E+00 -0.10239512754E+04  0.10239512754E+04  0.25500000920E-02 0. -1.
    10030    2    1    2    0    0  0.00000000000E+00  0.00000000000E+00  0.14940010545E+04  0.35419036052E+04  0.32113925325E+04 0.  0.
        1    1    3    3  502    0  0.95777135636E+03 -0.48387537679E+03  0.20644220826E+04  0.23266499278E+04  0.50400001928E-02 0.  1.
       -1    1    3    3    0  502 -0.95777135636E+03  0.48387537679E+03 -0.57042102808E+03  0.12152536775E+04  0.50400001928E-02 0. -1.
</event>
<event>
 5   0  0.2401139E-06  0.3232418E+04  0.7818609E-02  0.8180308E-01
        2   -1    0    0  501    0  0.00000000000E+00  0.00000000000E+00  0.14417900352E+04  0.14417900352E+04  0.25500000920E-02 0. -1.
       -2   -1    0    0    0  501  0.00000000000E+00  0.00000000000E+00 -0.18117283248E+04  0.18117283248E+04  0.25500000920E-02 0.  1.
    10030    2    1    2    0    0  0.00000000000E+00  0.00000000000E+00 -0.36993828965E+03  0.32535183600E+04  0.32324181940E+04 0.  0.
        5    1    3    3  502    0  0.60691250257E+03 -0.14903295708E+04 -0.33656684772E+03  0.16439964563E+04  0.46999998093E+01 0.  1.
       -5    1    3    3    0  502 -0.60691250257E+03  0.14903295708E+04 -0.33371441924E+02  0.16095219037E+04  0.46999998093E+01 0. -1.
</event>
<event>
 5   0  0.8545153E-07  0.3192484E+04  0.7818609E-02  0.8190805E-01
        1   -1    0    0  501    0  0.00000000000E+00  0.00000000000E+00  0.14070139625E+04  0.14070139625E+04  0.50400001928E-02 0. -1.
       -1   -1    0    0    0  501  0.00000000000E+00  0.00000000000E+00 -0.18109189469E+04  0.18109189469E+04  0.50400001928E-02 0.  1.
    10030    2    1    2    0    0  0.00000000000E+00  0.00000000000E+00 -0.40390498446E+03  0.32179329094E+04  0.31924838250E+04 0.  0.
        3    1    3    3  502    0  0.52812341193E+03  0.55561158433E+03  0.12093407636E+04  0.14318252909E+04  0.10100000352E+00 0. -1.
       -3    1    3    3    0  502 -0.52812341193E+03 -0.55561158433E+03 -0.16132457481E+04  0.17861076185E+04  0.10100000352E+00 0.  1.
</event>
<event>
 5   0  0.2621528E-06  0.3172089E+04  0.7818609E-02  0.8196228E-01
       -2   -1    0    0    0  501  0.00000000000E+00  0.00000000000E+00  0.16970697907E+04  0.16970697907E+04  0.25500000920E-02 0. -1.
        2   -1    0    0  501    0  0.00000000000E+00  0.00000000000E+00 -0.14822823596E+04  0.14822823596E+04  0.25500000920E-02 0.  1.
    10030    2    1    2    0    0  0.00000000000E+00  0.00000000000E+00  0.21478743110E+03  0.31793521503E+04  0.31720886581E+04 0.  0.
        2    1    3    3  502    0 -0.91123488485E+03  0.18799925106E+03  0.13947973822E+04  0.16766491795E+04  0.25500000920E-02 0. -1.
       -2    1    3    3    0  502  0.91123488485E+03 -0.18799925106E+03 -0.11800099511E+04  0.15027029708E+04  0.25500000920E-02 0.  1.
</event>
<event>
 5   0  0.8681172E-07  0.3197600E+04  0.7818609E-02  0.8189451E-01
        1   -1    0    0  501    0  0.00000000000E+00  0.00000000000E+00  0.15757625728E+04  0.15757625729E+04  0.50400001928E-02 0. -1.
       -1   -1    0    0    0  501  0.00000000000E+00  0.00000000000E+00 -0.16221739794E+04  0.16221739795E+04  0.50400001928E-02 0.  1.
    10030    2    1    2    0    0  0.00000000000E+00  0.00000000000E+00 -0.46411406601E+02  0.31979365523E+04  0.31975997520E+04 0.  0.
        1    1    3    3  502    0  0.13128966249E+03 -0.13521154657E+04 -0.86632939508E+03  0.16112044653E+04  0.50400001928E-02 0.  1.
       -1    1    3    3    0  502 -0.13128966249E+03  0.13521154657E+04  0.81991798848E+03  0.15867320870E+04  0.50400001928E-02 0. -1.
</event>
<event>
 5   0  0.2466076E-06  0.3192054E+04  0.7818609E-02  0.8190919E-01
       -2   -1    0    0    0  501  0.00000000000E+00  0.00000000000E+00  0.15278994911E+04  0.15278994911E+04  0.25500000920E-02 0. -1.
        2   -1    0    0  501    0  0.00000000000E+00  0.00000000000E+00 -0.16671924119E+04  0.16671924119E+04  0.25500000920E-02 0.  1.
    10030    2    1    2    0    0  0.00000000000E+00  0.00000000000E+00 -0.13929292078E+03  0.31950919029E+04  0.31920541584E+04 0.  0.
        3    1    3    3  502    0 -0.78250207050E+03  0.63767674222E+03 -0.13070920749E+04  0.16514935120E+04  0.10100000352E+00 0.  1.
       -3    1    3    3    0  502  0.78250207050E+03 -0.63767674222E+03  0.11677991541E+04  0.15435983909E+04  0.10100000352E+00 0. -1.
</event>
<event>
 5   0  0.2621528E-06  0.3206328E+04  0.7818609E-02  0.8187148E-01
        2   -1    0    0  501    0  0.00000000000E+00  0.00000000000E+00  0.20902055265E+04  0.20902055265E+04  0.25500000920E-02 0. -1.
       -2   -1    0    0    0  501  0.00000000000E+00  0.00000000000E+00 -0.12296085267E+04  0.12296085267E+04  0.25500000920E-02 0.  1.
    10030    2    1    2    0    0  0.00000000000E+00  0.00000000000E+00  0.86059699983E+03  0.33198140532E+04  0.32063278297E+04 0.  0.
        2    1    3    3  502    0  0.51845426780E+03  0.61026719587E+03  0.18683095681E+04  0.20326833301E+04  0.25500000920E-02 0. -1.
       -2    1    3    3    0  502 -0.51845426780E+03 -0.61026719587E+03 -0.10077125683E+04  0.12871307231E+04  0.25500000920E-02 0.  1.
</event>
<event>
 5   0  0.8681172E-07  0.3172982E+04  0.7818609E-02  0.8195989E-01
       -1   -1    0    0    0  501  0.00000000000E+00  0.00000000000E+00  0.16776981572E+04  0.16776981572E+04  0.50400001928E-02 0. -1.
        1   -1    0    0  501    0  0.00000000000E+00  0.00000000000E+00 -0.15002422088E+04  0.15002422088E+04  0.50400001928E-02 0.  1.
    10030    2    1    2    0    0  0.00000000000E+00  0.00000000000E+00  0.17745594846E+03  0.31779403660E+04  0.31729819344E+04 0.  0.
        1    1    3    3  502    0 -0.53415258155E+03  0.12129139421E+04 -0.78468660519E+03  0.15401987793E+04  0.50400001928E-02 0.  1.
       -1    1    3    3    0  502  0.53415258155E+03 -0.12129139421E+04  0.96214255364E+03  0.16377415867E+04  0.50400001928E-02 0. -1.
</event>
<event>
 5   0  0.2401139E-06  0.3043872E+04  0.7818609E-02  0.8231313E-01
        2   -1    0    0  501    0  0.00000000000E+00  0.00000000000E+00  0.28465340241E+04  0.28465340241E+04  0.25500000920E-02 0.  1.
       -2   -1    0    0    0  501  0.00000000000E+00  0.00000000000E+00 -0.81372281451E+03  0.81372281451E+03  0.25500000920E-02 0. -1.
    10030    2    1    2    0    0  0.00000000000E+00  0.00000000000E+00  0.20328112096E+04  0.36602568386E+04  0.30438723217E+04 0.  0.
        5    1    3    3  502    0  0.10587934086E+04 -0.90619311968E+03  0.28097267687E+03  0.14216881470E+04  0.46999998093E+01 0.  1.
       -5    1    3    3    0  502 -0.10587934086E+04  0.90619311968E+03  0.17518385327E+04  0.22385686916E+04  0.46999998093E+01 0. -1.
</event>
<event>
 5   0  0.2621528E-06  0.3196279E+04  0.7818609E-02  0.8189801E-01
       -2   -1    0    0    0  501  0.00000000000E+00  0.00000000000E+00  0.92041159148E+03  0.92041159148E+03  0.25500000920E-02 0.  1.
        2   -1    0    0  501    0  0.00000000000E+00  0.00000000000E+00 -0.27748992473E+04  0.27748992473E+04  0.25500000920E-02 0. -1.
    10030    2    1    2    0    0  0.00000000000E+00  0.00000000000E+00 -0.18544876558E+04  0.36953108388E+04  0.31962787315E+04 0.  0.
        2    1    3    3  502    0 -0.16635221575E+03  0.69668217947E+03 -0.25789353155E+04  0.26765549649E+04  0.25500000920E-02 0. -1.
       -2    1    3    3    0  502  0.16635221575E+03 -0.69668217947E+03  0.72444765967E+03  0.10187558738E+04  0.25500000920E-02 0.  1.
</event>
<event>
 5   0  0.2401139E-06  0.3230542E+04  0.7818609E-02  0.8180797E-01
        2   -1    0    0  501    0  0.00000000000E+00  0.00000000000E+00  0.17855849560E+04  0.17855849560E+04  0.25500000920E-02 0.  1.
       -2   -1    0    0    0  501  0.00000000000E+00  0.00000000000E+00 -0.14612016452E+04  0.14612016452E+04  0.25500000920E-02 0. -1.
    10030    2    1    2    0    0  0.00000000000E+00  0.00000000000E+00  0.32438331077E+03  0.32467866012E+04  0.32305415492E+04 0.  0.
        5    1    3    3  502    0 -0.12373101463E+04  0.96319268840E+03  0.55195753901E+03  0.16623344332E+04  0.46999998093E+01 0.  1.
       -5    1    3    3    0  502  0.12373101463E+04 -0.96319268840E+03 -0.22757422824E+03  0.15844521679E+04  0.46999998093E+01 0. -1.
</event>
<event>
 5   0  0.8681172E-07  0.3155123E+04  0.7818609E-02  0.8200771E-01
        1   -1    0    0  501    0  0.00000000000E+00  0.00000000000E+00  0.16532284606E+04  0.16532284607E+04  0.50400001928E-02 0.  1.
       -1   -1    0    0    0  501  0.00000000000E+00  0.00000000000E+00 -0.15053582219E+04  0.15053582219E+04  0.50400001928E-02 0. -1.
    10030    2    1    2    0    0  0.00000000000E+00  0.00000000000E+00  0.14787023872E+03  0.31585866826E+04  0.31551234879E+04 0.  0.
        1    1    3    3  502    0  0.13787437103E+03  0.15212490337E+04  0.46869407119E+03  0.15977741070E+04  0.50400001928E-02 0.  1.
       -1    1    3    3    0  502 -0.13787437103E+03 -0.15212490337E+04 -0.32082383247E+03  0.15608125756E+04  0.50400001928E-02 0. -1.
</event>
<event>
 5   0  0.2404430E-06  0.3211096E+04  0.7818609E-02  0.8185893E-01
        2   -1    0    0  501    0  0.00000000000E+00  0.00000000000E+00  0.18212181635E+04  0.18212181635E+04  0.25500000920E-02 0. -1.
       -2   -1    0    0    0  501  0.00000000000E+00  0.00000000000E+00 -0.14154176730E+04  0.14154176730E+04  0.25500000920E-02 0.  1.
    10030    2    1    2    0    0  0.00000000000E+00  0.00000000000E+00  0.40580049046E+03  0.32366358365E+04  0.32110959967E+04 0.  0.
        4    1    3    3  502    0 -0.13771884446E+04 -0.31408721883E+03  0.97217687307E+03  0.17147677040E+04  0.12699999809E+01 0. -1.
       -4    1    3    3    0  502  0.13771884446E+04  0.31408721883E+03 -0.56637638261E+03  0.15218681325E+04  0.12699999809E+01 0.  1.
</event>
<event>
 5   0  0.2466076E-06  0.3127683E+04  0.7818609E-02  0.8208181E-01
       -2   -1    0    0    0  501  0.00000000000E+00  0.00000000000E+00  0.29921428323E+04  0.29921428323E+04  0.25500000920E-02 0.  1.
        2   -1    0    0  501    0  0.00000000000E+00  0.00000000000E+00 -0.81734062056E+03  0.81734062056E+03  0.25500000920E-02 0. -1.
    10030    2    1    2    0    0  0.00000000000E+00  0.00000000000E+00  0.21748022118E+04  0.38094834529E+04  0.31276827712E+04 0.  0.
        3    1    3    3  502    0  0.92043539476E+03  0.58426355635E+03 -0.27817848742E+03  0.11251437687E+04  0.10100000352E+00 0. -1.
       -3    1    3    3    0  502 -0.92043539476E+03 -0.58426355635E+03  0.24529806992E+04  0.26843396842E+04  0.10100000352E+00 0.  1.
</event>
<event>
 5   0  0.2401139E-06  0.3175634E+04  0.7818609E-02  0.8195282E-01
       -2   -1    0    0    0  501  0.00000000000E+00  0.00000000000E+00  0.14547353170E+04  0.14547353170E+04  0.25500000920E-02 0. -1.
        2   -1    0    0  501    0  0.00000000000E+00  0.00000000000E+00 -0.17330729055E+04  0.17330729055E+04  0.25500000920E-02 0.  1.
    10030    2    1    2    0    0  0.00000000000E+00  0.00000000000E+00 -0.27833758857E+03  0.31878082225E+04  0.31756337085E+04 0.  0.
        5    1    3    3  502    0 -0.11469815807E+04 -0.11706280791E+03 -0.12350820895E+04  0.16895917570E+04  0.46999998093E+01 0.  1.
       -5    1    3    3    0  502  0.11469815807E+04  0.11706280791E+03  0.95674450096E+03  0.14982164655E+04  0.46999998093E+01 0. -1.
</event>
<event>
 5   0  0.2466076E-06  0.3213446E+04  0.7818609E-02  0.8185275E-01
       -2   -1    0    0    0  501  0.00000000000E+00  0.00000000000E+00  0.11648266885E+04  0.11648266885E+04  0.25500000920E-02 0.  1.
        2   -1    0    0  501    0  0.00000000000E+00  0.00000000000E+00 -0.22162602477E+04  0.22162602477E+04  0.25500000920E-02 0. -1.
    10030    2    1    2    0    0  0.00000000000E+00  0.00000000000E+00 -0.10514335592E+04  0.33810869362E+04  0.32134461783E+04 0.  0.
        3    1    3    3  502    0 -0.47346457657E+03  0.49529265087E+03  0.10033978131E+04  0.12150270354E+04  0.10100000352E+00 0.  1.
       -3    1    3    3    0  502  0.47346457657E+03 -0.49529265087E+03 -0.20548313723E+04  0.21660599008E+04  0.10100000352E+00 0. -1.
</event>
<event>
 5   0  0.8545153E-07  0.3206168E+04  0.7818609E-02  0.8187190E-01
       -1   -1    0    0    0  501  0.00000000000E+00  0.00000000000E+00  0.93244212023E+03  0.93244212024E+03  0.50400001928E-02 0.  1.
        1   -1    0    0  501    0  0.00000000000E+00  0.00000000000E+00 -0.27560722431E+04  0.27560722431E+04  0.50400001928E-02 0. -1.
    10030    2    1    2    0    0  0.00000000000E+00  0.00000000000E+00 -0.18236301229E+04  0.36885143633E+04  0.32061677098E+04 0.  0.
        3    1    3    3  502    0  0.90457602062E+03  0.12722796234E+04 -0.13312532356E+04  0.20516306697E+04  0.10100000352E+00 0. -1.
       -3    1    3    3    0  502 -0.90457602062E+03 -0.12722796234E+04 -0.49237688722E+03  0.16368836936E+04  0.10100000352E+00 0.  1.
</event>
<event>
 5   0  0.8545153E-07  0.3194716E+04  0.7818609E-02  0.8190214E-01
        1   -1    0    0  501    0  0.00000000000E+00  0.00000000000E+00  0.19732194723E+04  0.19732194723E+04  0.50400001928E-02 0.  1.
       -1   -1    0    0    0  501  0.00000000000E+00  0.00000000000E+00 -0.12930915190E+04  0.12930915190E+04  0.50400001928E-02 0. -1.
    10030    2    1    2    0    0  0.00000000000E+00  0.00000000000E+00  0.68012795338E+03  0.32663109913E+04  0.31947164912E+04 0.  0.
        3    1    3    3  502    0  0.75764957670E+03 -0.13484802049E+04 -0.67775998363E+02  0.15482329735E+04  0.10100000352E+00 0.  1.
       -3    1    3    3    0  502 -0.75764957670E+03  0.13484802049E+04  0.74790395174E+03  0.17180780178E+04  0.10100000352E+00 0. -1.
</event>
<event>
 5   0  0.2404430E-06  0.3196195E+04  0.7818609E-02  0.8189823E-01
       -2   -1    0    0    0  501  0.00000000000E+00  0.00000000000E+00  0.95277591220E+03  0.95277591221E+03  0.25500000920E-02 0.  1.
        2   -1    0    0  501    0  0.00000000000E+00  0.00000000000E+00 -0.26804999697E+04  0.26804999697E+04  0.25500000920E-02 0. -1.
    10030    2    1    2    0    0  0.00000000000E+00  0.00000000000E+00 -0.17277240575E+04  0.36332758819E+04  0.31961951153E+04 0.  0.
        4    1    3    3  502    0 -0.10714601212E+04  0.11556485499E+04 -0.56232557417E+03  0.16732489433E+04  0.12699999809E+01 0.  1.
       -4    1    3    3    0  502  0.10714601212E+04 -0.11556485499E+04 -0.11653984833E+04  0.19600269386E+04  0.12699999809E+01 0. -1.
</event>
<event>
 5   0  0.8512855E-07  0.2832449E+04  0.7818609E-02  0.8293264E-01
        1   -1    0    0  501    0  0.00000000000E+00  0.00000000000E+00  0.25405318736E+04  0.25405318736E+04  0.50400001928E-02 0. -1.
       -1   -1    0    0    0  501  0.00000000000E+00  0.00000000000E+00 -0.78947719622E+03  0.78947719624E+03  0.50400001928E-02 0.  1.
    10030    2    1    2    0    0  0.00000000000E+00  0.00000000000E+00  0.17510546774E+04  0.33300090698E+04  0.28324491032E+04 0.  0.
        5    1    3    3  502    0 -0.13254655537E+03 -0.23250647183E+03 -0.75946701393E+03  0.80525777490E+03  0.46999998093E+01 0.  1.
       -5    1    3    3    0  502  0.13254655537E+03  0.23250647183E+03  0.25105216913E+04  0.25247512949E+04  0.46999998093E+01 0. -1.
</event>
<event>
 5   0  0.8545153E-07  0.3138822E+04  0.7818609E-02  0.8205164E-01
       -1   -1    0    0    0  501  0.00000000000E+00  0.00000000000E+00  0.23744704883E+04  0.23744704883E+04  0.50400001928E-02 0. -1.
        1   -1    0    0  501    0  0.00000000000E+00  0.00000000000E+00 -0.10373050323E+04  0.10373050323E+04  0.50400001928E-02 0.  1.
    10030    2    1    2    0    0  0.00000000000E+00  0.00000000000E+00  0.13371654560E+04  0.34117755206E+04  0.31388215538E+04 0.  0.
        3    1    3    3  502    0 -0.15408232524E+04 -0.29702169251E+03  0.63998935236E+03  0.16946812569E+04  0.10100000352E+00 0. -1.
       -3    1    3    3    0  502  0.15408232524E+04  0.29702169251E+03  0.69717610365E+03  0.17170942638E+04  0.10100000352E+00 0.  1.
</event>
<event>
 5   0  0.7934375E-07  0.3225547E+04  0.7818609E-02  0.8182103E-01
       -3   -1    0    0    0  501  0.00000000000E+00  0.00000000000E+00  0.18045027734E+04  0.18045027762E+04  0.10100000352E+00 0.  1.
        3   -1    0    0  501    0  0.00000000000E+00  0.00000000000E+00 -0.14414153518E+04  0.14414153554E+04  0.10100000352E+00 0. -1.
    10030    2    1    2    0    0  0.00000000000E+00  0.00000000000E+00  0.36308742155E+03  0.32459181316E+04  0.32255467818E+04 0.  0.
        5    1    3    3  502    0  0.40248444323E+03  0.83360393357E+03  0.15105383496E+04  0.17716200046E+04  0.46999998093E+01 0.  1.
       -5    1    3    3    0  502 -0.40248444323E+03 -0.83360393357E+03 -0.11474509280E+04  0.14742981270E+04  0.46999998093E+01 0. -1.
</event>
<event>
 5   0  0.8545153E-07  0.2890834E+04  0.7818609E-02  0.8275610E-01
        1   -1    0    0  501    0  0.00000000000E+00  0.00000000000E+00  0.13084653004E+04  0.13084653004E+04  0.50400001928E-02 0. -1.
       -1   -1    0    0    0  501  0.00000000000E+00  0.00000000000E+00 -0.15967034072E+04  0.15967034072E+04  0.50400001928E-02 0.  1.
    10030    2    1    2    0    0  0.00000000000E+00  0.00000000000E+00 -0.28823810679E+03  0.29051687076E+04  0.28908344839E+04 0.  0.
        3    1    3    3  502    0 -0.71726893012E+03  0.11778607206E+04  0.29092514892E+03  0.14094211747E+04  0.10100000352E+00 0. -1.
       -3    1    3    3    0  502  0.71726893012E+03 -0.11778607206E+04 -0.57916325571E+03  0.14957475329E+04  0.10100000352E+00 0.  1.
</event>
<event>
 5   0  0.2337504E-06  0.3137075E+04  0.7818609E-02  0.8205636E-01
        2   -1    0    0  501    0  0.00000000000E+00  0.00000000000E+00  0.11113344368E+04  0.11113344368E+04  0.25500000920E-02 0. -1.
       -2   -1    0    0    0  501  0.00000000000E+00  0.00000000000E+00 -0.22138341033E+04  0.22138341033E+04  0.25500000920E-02 0.  1.
    10030    2    1    2    0    0  0.00000000000E+00  0.00000000000E+00 -0.11024996664E+04  0.33251685401E+04  0.31370751195E+04 0.  0.
        1    1    3    3  502    0  0.82839746612E+03 -0.12137135362E+04 -0.11327479391E+04  0.18553869686E+04  0.50400001928E-02 0.  1.
       -1    1    3    3    0  502 -0.82839746612E+03  0.12137135362E+04  0.30248272702E+02  0.14697815714E+04  0.50400001928E-02 0. -1.
</event>
<event>
 5   0  0.8487944E-07  0.3173780E+04  0.7818609E-02  0.8195776E-01
        1   -1    0    0  501    0  0.00000000000E+00  0.00000000000E+00  0.16518431701E+04  0.16518431701E+04  0.50400001928E-02 0.  1.
       -1   -1    0    0    0  501  0.00000000000E+00  0.00000000000E+00 -0.15244904917E+04  0.15244904917E+04  0.50400001928E-02 0. -1.
    10030    2    1    2    0    0  0.00000000000E+00  0.00000000000E+00  0.12735267845E+03  0.31763336618E+04  0.31737795807E+04 0.  0.
        2    1    3    3  502    0 -0.15258614866E+04 -0.32959670698E+03 -0.22174071838E+03  0.15767232514E+04  0.25500000920E-02 0. -1.
       -2    1    3    3    0  502  0.15258614866E+04  0.32959670698E+03  0.34909339683E+03  0.15996104104E+04  0.25500000920E-02 0.  1.
</event>
<event>
 5   0  0.8545153E-07  0.3209103E+04  0.7818609E-02  0.8186417E-01
       -1   -1    0    0    0  501  0.00000000000E+00  0.00000000000E+00  0.15158634718E+04  0.15158634719E+04  0.50400001928E-02 0. -1.
        1   -1    0    0  501    0  0.00000000000E+00  0.00000000000E+00 -0.16984278602E+04  0.16984278602E+04  0.50400001928E-02 0.  1.
    10030    2    1    2    0    0  0.00000000000E+00  0.00000000000E+00 -0.18256438834E+03  0.32142913321E+04  0.32091025243E+04 0.  0.
        3    1    3    3  502    0 -0.29601040871E+02 -0.15970304569E+04  0.61286914453E+02  0.15984800900E+04  0.10100000352E+00 0. -1.
       -3    1    3    3    0  502  0.29601040871E+02  0.15970304569E+04 -0.24385130280E+03  0.16158112421E+04  0.10100000352E+00 0.  1.
</event>
<event>
 5   0  0.8487944E-07  0.3184182E+04  0.7818609E-02  0.8193007E-01
       -1   -1    0    0    0  501  0.00000000000E+00  0.00000000000E+00  0.20893127602E+04  0.20893127602E+04  0.50400001928E-02 0. -1.
        1   -1    0    0  501    0  0.00000000000E+00  0.00000000000E+00 -0.12131995825E+04  0.12131995825E+04  0.50400001928E-02 0.  1.
    10030    2    1    2    0    0  0.00000000000E+00  0.00000000000E+00  0.87611317768E+03  0.33025123427E+04  0.31841817589E+04 0.  0.
        2    1    3    3  502    0  0.53222440907E+03  0.13864692362E+04  0.10331323948E+04  0.18091219720E+04  0.25500000920E-02 0. -1.
       -2    1    3    3    0  502 -0.53222440907E+03 -0.13864692362E+04 -0.15701921708E+03  0.14933903707E+04  0.25500000920E-02 0.  1.
</event>
<event>
 5   0  0.8545153E-07  0.3216404E+04  0.7818609E-02  0.8184498E-01
       -1   -1    0    0    0  501  0.00000000000E+00  0.00000000000E+00  0.11724835692E+04  0.11724835692E+04  0.50400001928E-02 0. -1.
        1   -1    0    0  501    0  0.00000000000E+00  0.00000000000E+00 -0.22058419988E+04  0.22058419988E+04  0.50400001928E-02 0.  1.
    10030    2    1    2    0    0  0.00000000000E+00  0.00000000000E+00 -0.10333584296E+04  0.33783255680E+04  0.32164038924E+04 0.  0.
        3    1    3    3  502    0 -0.83288796368E+02  0.60348445129E+03  0.10465970149E+04  0.12109896070E+04  0.10100000352E+00 0. -1.
       -3    1    3    3    0  502  0.83288796368E+02 -0.60348445129E+03 -0.20799554445E+04  0.21673359610E+04  0.10100000352E+00 0.  1.
</event>
<event>
 5   0  0.2401139E-06  0.3188333E+04  0.7818609E-02  0.8191905E-01
        2   -1    0    0  501    0  0.00000000000E+00  0.00000000000E+00  0.10856219048E+04  0.10856219048E+04  0.25500000920E-02 0.  1.
       -2   -1    0    0    0  501  0.00000000000E+00  0.00000000000E+00 -0.23409324049E+04  0.23409324049E+04  0.25500000920E-02 0. -1.
    10030    2    1    2    0    0  0.00000000000E+00  0.00000000000E+00 -0.12553105001E+04  0.34265543097E+04  0.31883334182E+04 0.  0.
        5    1    3    3  502    0  0.32665322665E+03 -0.15341176358E+04 -0.32154749201E+03  0.16011352630E+04  0.46999998093E+01 0.  1.
       -5    1    3    3    0  502 -0.32665322665E+03  0.15341176358E+04 -0.93376300806E+03  0.18254190467E+04  0.46999998093E+01 0. -1.
</event>
<event>
 5   0  0.2337504E-06  0.3189588E+04  0.7818609E-02  0.8191572E-01
        2   -1    0    0  501    0  0.00000000000E+00  0.00000000000E+00  0.13434398688E+04  0.13434398688E+04  0.25500000920E-02 0. -1.
       -2   -1    0    0    0  501  0.00000000000E+00  0.00000000000E+00 -0.18931760387E+04  0.18931760387E+04  0.25500000920E-02 0.  1.
    10030    2    1    2    0    0  0.00000000000E+00  0.00000000000E+00 -0.54973616994E+03  0.32366159076E+04  0.31895881672E+04 0.  0.
        1    1    3    3  502    0  0.13862969290E+04  0.75460076383E+03 -0.50654704213E+03  0.16576584069E+04  0.50400001928E-02 0. -1.
       -1    1    3    3    0  502 -0.13862969290E+04 -0.75460076383E+03 -0.43189127806E+02  0.15789575007E+04  0.50400001928E-02 0.  1.
</event>
<event>
 5   0  0.8681172E-07  0.3112367E+04  0.7818609E-02  0.8212352E-01
        1   -1    0    0  501    0  0.00000000000E+00  0.00000000000E+00  0.25458075444E+04  0.25458075444E+04  0.50400001928E-02 0.  1.
       -1   -1    0    0    0  501  0.00000000000E+00  0.00000000000E+00 -0.95125290412E+03  0.95125290414E+03  0.50400001928E-02 0. -1.
    10030    2    1    2    0    0  0.00000000000E+00  0.00000000000E+00  0.15945546402E+04  0.34970604485E+04  0.31123668293E+04 0.  0.
        1    1    3    3  502    0 -0.65277696461E+03 -0.42445845553E+03 -0.71663738145E+03  0.10582305432E+04  0.50400001928E-02 0. -1.
       -1    1    3    3    0  502  0.65277696461E+03  0.42445845553E+03  0.23111920217E+04  0.24388299053E+04  0.50400001928E-02 0.  1.
</event>
<event>
 5   0  0.2621528E-06  0.3209176E+04  0.7818609E-02  0.8186398E-01
       -2   -1    0    0    0  501  0.00000000000E+00  0.00000000000E+00  0.11776383596E+04  0.11776383596E+04  0.25500000920E-02 0. -1.
        2   -1    0    0  501    0  0.00000000000E+00  0.00000000000E+00 -0.21863271620E+04  0.21863271620E+04  0.25500000920E-02 0.  1.
    10030    2    1    2    0    0  0.00000000000E+00  0.00000000000E+00 -0.10086888024E+04  0.33639655215E+04  0.32091760516E+04 0.  0.
        2    1    3    3  502    0  0.12144102362E+03  0.15987450638E+04 -0.57038336501E+03  0.17017846175E+04  0.25500000920E-02 0.  1.
       -2    1    3    3    0  502 -0.12144102362E+03 -0.15987450638E+04 -0.43830543738E+03  0.16621809040E+04  0.25500000920E-02 0. -1.
</event>
<event>
 5   0  0.2401139E-06  0.3265937E+04  0.7818609E-02  0.8171617E-01
       -2   -1    0    0    0  501  0.00000000000E+00  0.00000000000E+00  0.15730894681E+04  0.15730894681E+04  0.25500000920E-02 0. -1.
        2   -1    0    0  501    0  0.00000000000E+00  0.00000000000E+00 -0.16951267564E+04  0.16951267564E+04  0.25500000920E-02 0.  1.
    10030    2    1    2    0    0  0.00000000000E+00  0.00000000000E+00 -0.12203728831E+03  0.32682162245E+04  0.32659369544E+04 0.  0.
        5    1    3    3  502    0  0.65103214249E+03 -0.14971914911E+04 -0.94787506136E+02  0.16353690632E+04  0.46999998093E+01 0. -1.
       -5    1    3    3    0  502 -0.65103214249E+03  0.14971914911E+04 -0.27249782176E+02  0.16328471613E+04  0.46999998093E+01 0.  1.
</event>
<event>
 5   0  0.8487944E-07  0.3207122E+04  0.7818609E-02  0.8186939E-01
       -1   -1    0    0    0  501  0.00000000000E+00  0.00000000000E+00  0.10691721478E+04  0.10691721478E+04  0.50400001928E-02 0. -1.
        1   -1    0    0  501    0  0.00000000000E+00  0.00000000000E+00 -0.24050450874E+04  0.24050450874E+04  0.50400001928E-02 0.  1.
    10030    2    1    2    0    0  0.00000000000E+00  0.00000000000E+00 -0.13358729396E+04  0.34742172352E+04  0.32071215890E+04 0.  0.
        2    1    3    3  502    0  0.33180734297E+03  0.14915885287E+04 -0.14115080161E+03  0.15345540070E+04  0.25500000920E-02 0. -1.
       -2    1    3    3    0  502 -0.33180734297E+03 -0.14915885287E+04 -0.11947221380E+04  0.19396632282E+04  0.25500000920E-02 0.  1.
</event>
<event>
 5   0  0.2621528E-06  0.3188329E+04  0.7818609E-02  0.8191906E-01
        2   -1    0    0  501    0  0.00000000000E+00  0.00000000000E+00  0.13321093088E+04  0.13321093088E+04  0.25500000920E-02 0. -1.
       -2   -1    0    0    0  501  0.00000000000E+00  0.00000000000E+00 -0.19077721516E+04  0.19077721516E+04  0.25500000920E-02 0.  1.
    10030    2    1    2    0    0  0.00000000000E+00  0.00000000000E+00 -0.57566284282E+03  0.32398814604E+04  0.31883293696E+04 0.  0.
        2    1    3    3  502    0 -0.98314983757E+03  0.93698426070E+03 -0.11360969785E+04  0.17706607390E+04  0.25500000920E-02 0. -1.
       -2    1    3    3    0  502  0.98314983757E+03 -0.93698426070E+03  0.56043413571E+03  0.14692207215E+04  0.25500000920E-02 0.  1.
</event>
<event>
 5   0  0.2466076E-06  0.3193647E+04  0.7818609E-02  0.8190497E-01
       -2   -1    0    0    0  501  0.00000000000E+00  0.00000000000E+00  0.26366117521E+04  0.26366117521E+04  0.25500000920E-02 0. -1.
        2   -1    0    0  501    0  0.00000000000E+00  0.00000000000E+00 -0.96709157257E+03  0.96709157257E+03  0.25500000920E-02 0.  1.
    10030    2    1    2    0    0  0.00000000000E+00  0.00000000000E+00  0.16695201795E+04  0.36037033246E+04  0.31936468218E+04 0.  0.
        3    1    3    3  502    0 -0.84076352019E+03 -0.10841226593E+04 -0.87244831556E+02  0.13747061170E+04  0.10100000352E+00 0.  1.
       -3    1    3    3    0  502  0.84076352019E+03  0.10841226593E+04  0.17567650111E+04  0.22289972076E+04  0.10100000352E+00 0. -1.
</event>
<event>
 5   0  0.7934375E-07  0.3187275E+04  0.7818609E-02  0.8192186E-01
        3   -1    0    0  501    0  0.00000000000E+00  0.00000000000E+00  0.13149834742E+04  0.13149834781E+04  0.10100000352E+00 0. -1.
       -3   -1    0    0    0  501  0.00000000000E+00  0.00000000000E+00 -0.19313404844E+04  0.19313404870E+04  0.10100000352E+00 0.  1.
    10030    2    1    2    0    0  0.00000000000E+00  0.00000000000E+00 -0.61635701016E+03  0.32463239651E+04  0.31872752191E+04 0.  0.
        1    1    3    3  502    0  0.45917113454E+03 -0.13878942192E+04  0.33807817208E+03  0.15004617106E+04  0.50400001928E-02 0. -1.
       -1    1    3    3    0  502 -0.45917113454E+03  0.13878942192E+04 -0.95443518223E+03  0.17458622545E+04  0.50400001928E-02 0.  1.
</event>
<event>
 5   0  0.8512855E-07  0.3193304E+04  0.7818609E-02  0.8190588E-01
       -1   -1    0    0    0  501  0.00000000000E+00  0.00000000000E+00  0.28790338359E+04  0.28790338359E+04  0.50400001928E-02 0. -1.
        1   -1    0    0  501    0  0.00000000000E+00  0.00000000000E+00 -0.88546995739E+03  0.88546995741E+03  0.50400001928E-02 0.  1.
    10030    2    1    2    0    0  0.00000000000E+00  0.00000000000E+00  0.19935638785E+04  0.37645037933E+04  0.31933042248E+04 0.  0.
        5    1    3    3  502    0  0.93199316209E+03  0.12238362454E+04  0.49262959367E+03  0.16152685276E+04  0.46999998093E+01 0.  1.
       -5    1    3    3    0  502 -0.93199316209E+03 -0.12238362454E+04  0.15009342849E+04  0.21492352657E+04  0.46999998093E+01 0. -1.
</event>
<event>
 5   0  0.2337504E-06  0.3195228E+04  0.7818609E-02  0.8190078E-01
       -2   -1    0    0    0  501  0.00000000000E+00  0.00000000000E+00  0.15123372945E+04  0.15123372945E+04  0.25500000920E-02 0.  1.
        2   -1    0    0  501    0  0.00000000000E+00  0.00000000000E+00 -0.16876995983E+04  0.16876995983E+04  0.25500000920E-02 0. -1.
    10030    2    1    2    0    0  0.00000000000E+00  0.00000000000E+00 -0.17536230373E+03  0.32000368928E+04  0.31952283451E+04 0.  0.
        1    1    3    3  502    0 -0.10110108717E+04  0.75500562384E+03  0.89368869022E+03  0.15462392926E+04  0.50400001928E-02 0.  1.
       -1    1    3    3    0  502  0.10110108717E+04 -0.75500562384E+03 -0.10690509939E+04  0.16537976002E+04  0.50400001928E-02 0. -1.
</event>
<event>
 5   0  0.8383008E-07  0.3161218E+04  0.7818609E-02  0.8199135E-01
        1   -1    0    0  501    0  0.00000000000E+00  0.00000000000E+00  0.18771644577E+04  0.18771644578E+04  0.50400001928E-02 0. -1.
       -1   -1    0    0    0  501  0.00000000000E+00  0.00000000000E+00 -0.13309033250E+04  0.13309033250E+04  0.50400001928E-02 0.  1.
    10030    2    1    2    0    0  0.00000000000E+00  0.00000000000E+00  0.54626113277E+03  0.32080677827E+04  0.31612177517E+04 0.  0.
        4    1    3    3  502    0 -0.57346751917E+03  0.28039740296E+03 -0.11942711259E+04  0.13541686875E+04  0.12699999809E+01 0.  1.
       -4    1    3    3    0  502  0.57346751917E+03 -0.28039740296E+03  0.17405322586E+04  0.18538990953E+04  0.12699999809E+01 0. -1.
</event>
<event>
 5   0  0.8487944E-07  0.3255668E+04  0.7818609E-02  0.8174268E-01
        1   -1    0    0  501    0  0.00000000000E+00  0.00000000000E+00  0.22216450889E+04  0.22216450889E+04  0.50400001928E-02 0.  1.
       -1   -1    0    0    0  501  0.00000000000E+00  0.00000000000E+00 -0.11927390623E+04  0.11927390624E+04  0.50400001928E-02 0. -1.
    10030    2    1    2    0    0  0.00000000000E+00  0.00000000000E+00  0.10289060265E+04  0.34143841512E+04  0.32556675999E+04 0.  0.
        2    1    3    3  502    0 -0.59989344605E+03  0.13368876814E+04 -0.22912691325E+03  0.14831183236E+04  0.25500000920E-02 0. -1.
       -2    1    3    3    0  502  0.59989344605E+03 -0.13368876814E+04  0.12580329398E+04  0.19312658276E+04  0.25500000920E-02 0.  1.
</event>
<event>
 5   0  0.2404430E-06  0.3202747E+04  0.7818609E-02  0.8188092E-01
       -2   -1    0    0    0  501  0.00000000000E+00  0.00000000000E+00  0.11419351866E+04  0.11419351866E+04  0.25500000920E-02 0. -1.
        2   -1    0    0  501    0  0.00000000000E+00  0.00000000000E+00 -0.22456590460E+04  0.22456590460E+04  0.25500000920E-02 0.  1.
    10030    2    1    2    0    0  0.00000000000E+00  0.00000000000E+00 -0.11037238594E+04  0.33875942326E+04  0.32027469970E+04 0.  0.
        4    1    3    3  502    0  0.14598973774E+04  0.26527386603E+03 -0.11888883317E+04  0.19013489040E+04  0.12699999809E+01 0.  1.
       -4    1    3    3    0  502 -0.14598973774E+04 -0.26527386603E+03  0.85164472314E+02  0.14862453286E+04  0.12699999809E+01 0. -1.
</event>
<event>
 5   0  0.2621528E-06  0.3140043E+04  0.7818609E-02  0.8204834E-01
        2   -1    0    0  501    0  0.00000000000E+00  0.00000000000E+00  0.19875874222E+04  0.19875874222E+04  0.25500000920E-02 0. -1.
       -2   -1    0    0    0  501  0.00000000000E+00  0.00000000000E+00 -0.12401807135E+04  0.12401807135E+04  0.25500000920E-02 0.  1.
    10030    2    1    2    0    0  0.00000000000E+00  0.00000000000E+00  0.74740670866E+03  0.32277681358E+04  0.31400430491E+04 0.  0.
        2    1    3    3  502    0 -0.10895580752E+03  0.78938616602E+03 -0.10168517470E+04  0.12918937118E+04  0.25500000920E-02 0.  1.
       -2    1    3    3    0  502  0.10895580752E+03 -0.78938616602E+03  0.17642584557E+04  0.19358744240E+04  0.25500000920E-02 0. -1.
</event>
<event>
 5   0  0.2466076E-06  0.3228890E+04  0.7818609E-02  0.8181229E-01
        2   -1    0    0  501    0  0.00000000000E+00  0.00000000000E+00  0.20145971936E+04  0.20145971936E+04  0.25500000920E-02 0.  1.
       -2   -1    0    0    0  501  0.00000000000E+00  0.00000000000E+00 -0.12937735847E+04  0.12937735847E+04  0.25500000920E-02 0. -1.
    10030    2    1    2    0    0  0.00000000000E+00  0.00000000000E+00  0.72082360893E+03  0.33083707783E+04  0.32288899845E+04 0.  0.
        3    1    3    3  502    0 -0.12231082204E+04 -0.16774300495E+03  0.14263572932E+04  0.18864322338E+04  0.10100000352E+00 0.  1.
       -3    1    3    3    0  502  0.12231082204E+04  0.16774300495E+03 -0.70553368431E+03  0.14219385445E+04  0.10100000352E+00 0. -1.
</event>
<event>
 5   0  0.8487944E-07  0.3184288E+04  0.7818609E-02  0.8192979E-01
       -1   -1    0    0    0  501  0.00000000000E+00  0.00000000000E+00  0.14353994931E+04  0.14353994931E+04  0.50400001928E-02 0. -1.
        1   -1    0    0  501    0  0.00000000000E+00  0.00000000000E+00 -0.17660053064E+04  0.17660053064E+04  0.50400001928E-02 0.  1.
    10030    2    1    2    0    0  0.00000000000E+00  0.00000000000E+00 -0.33060581333E+03  0.32014047995E+04  0.31842883799E+04 0.  0.
        2    1    3    3  502    0  0.28879663357E+03  0.14253689997E+04 -0.81673863750E+03  0.16679755042E+04  0.25500000920E-02 0.  1.
       -2    1    3    3    0  502 -0.28879663357E+03 -0.14253689997E+04  0.48613282417E+03  0.15334292952E+04  0.25500000920E-02 0. -1.
</event>
<event>
 5   0  0.2404430E-06  0.3140957E+04  0.7818609E-02  0.8204587E-01
       -2   -1    0    0    0  501  0.00000000000E+00  0.00000000000E+00  0.15477285646E+04  0.15477285646E+04  0.25500000920E-02 0.  1.
        2   -1    0    0  501    0  0.00000000000E+00  0.00000000000E+00 -0.15935630227E+04  0.15935630227E+04  0.25500000920E-02 0. -1.
    10030    2    1    2    0    0  0.00000000000E+00  0.00000000000E+00 -0.45834458099E+02  0.31412915874E+04  0.31409571852E+04 0.  0.
        4    1    3    3  502    0  0.10059663967E+04 -0.23660244217E+03 -0.12056048795E+04  0.15879023412E+04  0.12699999809E+01 0. -1.
       -4    1    3    3    0  502 -0.10059663967E+04  0.23660244217E+03  0.11597704214E+04  0.15533892462E+04  0.12699999809E+01 0.  1.
</event>
<event>
 5   0  0.2466076E-06  0.3220294E+04  0.7818609E-02  0.8183478E-01
        2   -1    0    0  501    0  0.00000000000E+00  0.00000000000E+00  0.17256507524E+04  0.17256507524E+04  0.25500000920E-02 0.  1.
       -2   -1    0    0    0  501  0.00000000000E+00  0.00000000000E+00 -0.15023742839E+04  0.15023742839E+04  0.25500000920E-02 0. -1.
    10030    2    1    2    0    0  0.00000000000E+00  0.00000000000E+00  0.22327646847E+03  0.32280250362E+04  0.32202939700E+04 0.  0.
        3    1    3    3  502    0  0.15315386054E+04 -0.47612126968E+03 -0.31081031127E+02  0.16041408928E+04  0.10100000352E+00 0. -1.
       -3    1    3    3    0  502 -0.15315386054E+04  0.47612126968E+03  0.25435749959E+03  0.16238841434E+04  0.10100000352E+00 0.  1.
</event>
<event>
 5   0  0.8545153E-07  0.3145315E+04  0.7818609E-02  0.8203410E-01
       -1   -1    0    0    0  501  0.00000000000E+00  0.00000000000E+00  0.15023589155E+04  0.15023589155E+04  0.50400001928E-02 0.  1.
        1   -1    0    0  501    0  0.00000000000E+00  0.00000000000E+00 -0.16462459390E+04  0.16462459390E+04  0.50400001928E-02 0. -1.
    10030    2    1    2    0    0  0.00000000000E+00  0.00000000000E+00 -0.14388702343E+03  0.31486048545E+04  0.31453154141E+04 0.  0.
        3    1    3    3  502    0  0.25287615083E+03 -0.11501807703E+04  0.97144693830E+03  0.15266208816E+04  0.10100000352E+00 0.  1.
       -3    1    3    3    0  502 -0.25287615083E+03  0.11501807703E+04 -0.11153339617E+04  0.16219839729E+04  0.10100000352E+00 0. -1.
</event>
<event>
 5   0  0.2466076E-06  0.3200750E+04  0.7818609E-02  0.8188619E-01
       -2   -1    0    0    0  501  0.00000000000E+00  0.00000000000E+00  0.12883316984E+04  0.12883316984E+04  0.25500000920E-02 0. -1.
        2   -1    0    0  501    0  0.00000000000E+00  0.00000000000E+00 -0.19879974504E+04  0.19879974504E+04  0.25500000920E-02 0.  1.
    10030    2    1    2    0    0  0.00000000000E+00  0.00000000000E+00 -0.69966575204E+03  0.32763291487E+04  0.32007499944E+04 0.  0.
        3    1    3    3  502    0  0.38756628264E+03 -0.18126021929E+03  0.12287021697E+04  0.13010656873E+04  0.10100000352E+00 0. -1.
       -3    1    3    3    0  502 -0.38756628264E+03  0.18126021929E+03 -0.19283679217E+04  0.19752634615E+04  0.10100000352E+00 0.  1.
</event>
<event>
 5   0  0.8487944E-07  0.3295440E+04  0.7818609E-02  0.8164057E-01
       -1   -1    0    0    0  501  0.00000000000E+00  0.00000000000E+00  0.13166458359E+04  0.13166458359E+04  0.50400001928E-02 0.  1.
        1   -1    0    0  501    0  0.00000000000E+00  0.00000000000E+00 -0.20620431225E+04  0.20620431225E+04  0.50400001928E-02 0. -1.
    10030    2    1    2    0    0  0.00000000000E+00  0.00000000000E+00 -0.74539728668E+03  0.33786889584E+04  0.32954395705E+04 0.  0.
        2    1    3    3  502    0  0.37979816985E+03 -0.99632692661E+03  0.91524692771E+03  0.14052013853E+04  0.25500000920E-02 0.  1.
       -2    1    3    3    0  502 -0.37979816985E+03  0.99632692661E+03 -0.16606442144E+04  0.19734875731E+04  0.25500000920E-02 0. -1.
</event>
<event>
 5   0  0.8681172E-07  0.3183187E+04  0.7818609E-02  0.8193272E-01
       -1   -1    0    0    0  501  0.00000000000E+00  0.00000000000E+00  0.10568843462E+04  0.10568843462E+04  0.50400001928E-02 0. -1.
        1   -1    0    0  501    0  0.00000000000E+00  0.00000000000E+00 -0.23968275038E+04  0.23968275038E+04  0.50400001928E-02 0.  1.
    10030    2    1    2    0    0  0.00000000000E+00  0.00000000000E+00 -0.13399431576E+04  0.34537118501E+04  0.31831867488E+04 0.  0.
        1    1    3    3  502    0 -0.70592250725E+03 -0.95833521663E+03  0.47644113802E+03  0.12820800021E+04  0.50400001928E-02 0. -1.
       -1    1    3    3    0  502  0.70592250725E+03  0.95833521663E+03 -0.18163842957E+04  0.21716318480E+04  0.50400001928E-02 0.  1.
</event>
<event>
 5   0  0.2404430E-06  0.3196386E+04  0.7818609E-02  0.8189772E-01
       -2   -1    0    0    0  501  0.00000000000E+00  0.00000000000E+00  0.10950670677E+04  0.10950670677E+04  0.25500000920E-02 0.  1.
        2   -1    0    0  501    0  0.00000000000E+00  0.00000000000E+00 -0.23324792549E+04  0.23324792549E+04  0.25500000920E-02 0. -1.
    10030    2    1    2    0    0  0.00000000000E+00  0.00000000000E+00 -0.12374121871E+04  0.34275463226E+04  0.31963862208E+04 0.  0.
        4    1    3    3  502    0 -0.38716426847E+03  0.15252778319E+04 -0.91790230974E+03  0.18217889281E+04  0.12699999809E+01 0. -1.
       -4    1    3    3    0  502  0.38716426847E+03 -0.15252778319E+04 -0.31950987739E+03  0.16057573945E+04  0.12699999809E+01 0.  1.
</event>
<event>
 5   0  0.2404430E-06  0.3163018E+04  0.7818609E-02  0.8198653E-01
       -2   -1    0    0    0  501  0.00000000000E+00  0.00000000000E+00  0.17518511309E+04  0.17518511310E+04  0.25500000920E-02 0.  1.
        2   -1    0    0  501    0  0.00000000000E+00  0.00000000000E+00 -0.14277300287E+04  0.14277300287E+04  0.25500000920E-02 0. -1.
    10030    2    1    2    0    0  0.00000000000E+00  0.00000000000E+00  0.32412110227E+03  0.31795811596E+04  0.31630178409E+04 0.  0.
        4    1    3    3  502    0  0.42230395648E+03 -0.51029846115E+03 -0.12815738378E+04  0.14426289425E+04  0.12699999809E+01 0. -1.
       -4    1    3    3    0  502 -0.42230395648E+03  0.51029846115E+03  0.16056949401E+04  0.17369522171E+04  0.12699999809E+01 0.  1.
</event>
<event>
 5   0  0.2404430E-06  0.3156838E+04  0.7818609E-02  0.8200310E-01
       -2   -1    0    0    0  501  0.00000000000E+00  0.00000000000E+00  0.14795917263E+04  0.14795917263E+04  0.25500000920E-02 0. -1.
        2   -1    0    0  501    0  0.00000000000E+00  0.00000000000E+00 -0.16838476282E+04  0.16838476282E+04  0.25500000920E-02 0.  1.
    10030    2    1    2    0    0  0.00000000000E+00  0.00000000000E+00 -0.20425590190E+03  0.31634393545E+04  0.31568383038E+04 0.  0.
        4    1    3    3  502    0  0.91273764809E+03  0.83867349106E+03  0.87712685372E+03  0.15184914782E+04  0.12699999809E+01 0. -1.
       -4    1    3    3    0  502 -0.91273764809E+03 -0.83867349106E+03 -0.10813827556E+04  0.16449478763E+04  0.12699999809E+01 0.  1.
</event>
<event>
 5   0  0.8681172E-07  0.3202218E+04  0.7818609E-02  0.8188232E-01
       -1   -1    0    0    0  501  0.00000000000E+00  0.00000000000E+00  0.16228791337E+04  0.16228791337E+04  0.50400001928E-02 0.  1.
        1   -1    0    0  501    0  0.00000000000E+00  0.00000000000E+00 -0.15796313464E+04  0.15796313464E+04  0.50400001928E-02 0. -1.
    10030    2    1    2    0    0  0.00000000000E+00  0.00000000000E+00  0.43247787256E+02  0.32025104801E+04  0.32022184504E+04 0.  0.
        1    1    3    3  502    0 -0.26752822486E+03  0.15340940161E+04  0.39386067100E+03  0.16062820517E+04  0.50400001928E-02 0. -1.
       -1    1    3    3    0  502  0.26752822486E+03 -0.15340940161E+04 -0.35061288375E+03  0.15962284284E+04  0.50400001928E-02 0.  1.
</event>
<event>
 5   0  0.2466076E-06  0.3142040E+04  0.7818609E-02  0.8204294E-01
        2   -1    0    0  501    0  0.00000000000E+00  0.00000000000E+00  0.15524735795E+04  0.15524735795E+04  0.25500000920E-02 0. -1.
       -2   -1    0    0    0  501  0.00000000000E+00  0.00000000000E+00 -0.15897879944E+04  0.15897879944E+04  0.25500000920E-02 0.  1.
    10030    2    1    2    0    0  0.00000000000E+00  0.00000000000E+00 -0.37314414843E+02  0.31422615739E+04  0.31420400114E+04 0.  0.
        3    1    3    3  502    0 -0.91288466366E+02  0.14518123034E+04 -0.61200444628E+03  0.15781767965E+04  0.10100000352E+00 0.  1.
       -3    1    3    3    0  502  0.91288466366E+02 -0.14518123034E+04  0.57469003144E+03  0.15640847774E+04  0.10100000352E+00 0. -1.
</event>
<event>
 5   0  0.2337504E-06  0.3187464E+04  0.7818609E-02  0.8192136E-01
       -2   -1    0    0    0  501  0.00000000000E+00  0.00000000000E+00  0.12566218966E+04  0.12566218966E+04  0.25500000920E-02 0. -1.
        2   -1    0    0  501    0  0.00000000000E+00  0.00000000000E+00 -0.20212781265E+04  0.20212781265E+04  0.25500000920E-02 0.  1.
    10030    2    1    2    0    0  0.00000000000E+00  0.00000000000E+00 -0.76465622993E+03  0.32779000231E+04  0.31874644173E+04 0.  0.
        1    1    3    3  502    0 -0.26615861895E+03 -0.55854432028E+03 -0.18927301516E+04  0.19912909368E+04  0.50400001928E-02 0.  1.
       -1    1    3    3    0  502  0.26615861895E+03  0.55854432028E+03  0.11280739217E+04  0.12866090863E+04  0.50400001928E-02 0. -1.
</event>
<event>
 5   0  0.8487944E-07  0.3263145E+04  0.7818609E-02  0.8172337E-01
        1   -1    0    0  501    0  0.00000000000E+00  0.00000000000E+00  0.21702023330E+04  0.21702023330E+04  0.50400001928E-02 0. -1.
       -1   -1    0    0    0  501  0.00000000000E+00  0.00000000000E+00 -0.12266266490E+04  0.12266266491E+04  0.50400001928E-02 0.  1.
    10030    2    1    2    0    0  0.00000000000E+00  0.00000000000E+00  0.94357568397E+03  0.33968289821E+04  0.32631445052E+04 0.  0.
        2    1    3    3  502    0 -0.40153852318E+02  0.59050375822E+03  0.20545114647E+04  0.21380655694E+04  0.25500000920E-02 0. -1.
       -2    1    3    3    0  502  0.40153852318E+02 -0.59050375822E+03 -0.11109357807E+04  0.12587634127E+04  0.25500000920E-02 0.  1.
</event>
<event>
 5   0  0.8681172E-07  0.3213983E+04  0.7818609E-02  0.8185134E-01
       -1   -1    0    0    0  501  0.00000000000E+00  0.00000000000E+00  0.16533294048E+04  0.16533294049E+04  0.50400001928E-02 0.  1.
        1   -1    0    0  501    0  0.00000000000E+00  0.00000000000E+00 -0.15619518519E+04  0.15619518519E+04  0.50400001928E-02 0. -1.
    10030    2    1    2    0    0  0.00000000000E+00  0.00000000000E+00  0.91377552936E+02  0.32152812568E+04  0.32139825300E+04 0.  0.
        1    1    3    3  502    0  0.86688822447E+03  0.57461238616E+03 -0.11798557740E+04  0.15728109345E+04  0.50400001928E-02 0. -1.
       -1    1    3    3    0  502 -0.86688822447E+03 -0.57461238616E+03  0.12712333270E+04  0.16424703223E+04  0.50400001928E-02 0.  1.
</event>
<event>
 5   0  0.8487944E-07  0.3230114E+04  0.7818609E-02  0.8180909E-01
       -1   -1    0    0    0  501  0.00000000000E+00  0.00000000000E+00  0.10841453216E+04  0.10841453216E+04  0.50400001928E-02 0. -1.
        1   -1    0    0  501    0  0.00000000000E+00  0.00000000000E+00 -0.24059589992E+04  0.24059589992E+04  0.50400001928E-02 0.  1.
    10030    2    1    2    0    0  0.00000000000E+00  0.00000000000E+00 -0.13218136776E+04  0.34901043208E+04  0.32301140493E+04 0.  0.
        2    1    3    3  502    0 -0.21139640294E+03  0.58167573849E+03  0.95093366603E+03  0.11345968188E+04  0.25500000920E-02 0. -1.
       -2    1    3    3    0  502  0.21139640294E+03 -0.58167573849E+03 -0.22727473436E+04  0.23555075020E+04  0.25500000920E-02 0.  1.
</event>
<event>
 5   0  0.2466076E-06  0.3190308E+04  0.7818609E-02  0.8191382E-01
        2   -1    0    0  501    0  0.00000000000E+00  0.00000000000E+00  0.24198311547E+04  0.24198311547E+04  0.25500000920E-02 0.  1.
       -2   -1    0    0    0  501  0.00000000000E+00  0.00000000000E+00 -0.10515261945E+04  0.10515261945E+04  0.25500000920E-02 0. -1.
    10030    2    1    2    0    0  0.00000000000E+00  0.00000000000E+00  0.13683049601E+04  0.34713573492E+04  0.31903077253E+04 0.  0.
        3    1    3    3  502    0 -0.15159391850E+04  0.18654584807E+03  0.18357579259E+03  0.15383663568E+04  0.10100000352E+00 0.  1.
       -3    1    3    3    0  502  0.15159391850E+04 -0.18654584807E+03  0.11847291675E+04  0.19329909924E+04  0.10100000352E+00 0. -1.
</event>
<event>
 5   0  0.8487944E-07  0.3122835E+04  0.7818609E-02  0.8209499E-01
       -1   -1    0    0    0  501  0.00000000000E+00  0.00000000000E+00  0.16615419623E+04  0.16615419623E+04  0.50400001928E-02 0. -1.
        1   -1    0    0  501    0  0.00000000000E+00  0.00000000000E+00 -0.14673260908E+04  0.14673260908E+04  0.50400001928E-02 0.  1.
    10030    2    1    2    0    0  0.00000000000E+00  0.00000000000E+00  0.19421587152E+03  0.31288680531E+04  0.31228345280E+04 0.  0.
        2    1    3    3  502    0  0.37717537023E+03 -0.13220560537E+04 -0.64454543672E+03  0.15183979350E+04  0.25500000920E-02 0.  1.
       -2    1    3    3    0  502 -0.37717537023E+03  0.13220560537E+04  0.83876130824E+03  0.16104701181E+04  0.25500000920E-02 0. -1.
</event>
<event>
 5   0  0.2404430E-06  0.3241309E+04  0.7818609E-02  0.8177992E-01
        2   -1    0    0  501    0  0.00000000000E+00  0.00000000000E+00  0.19200673816E+04  0.19200673816E+04  0.25500000920E-02 0. -1.
       -2   -1    0    0    0  501  0.00000000000E+00  0.00000000000E+00 -0.13679320595E+04  0.13679320595E+04  0.25500000920E-02 0.  1.
    10030    2    1    2    0    0  0.00000000000E+00  0.00000000000E+00  0.55213532212E+03  0.32879994411E+04  0.32413094438E+04 0.  0.
        4    1    3    3  502    0 -0.64161628539E+03  0.47234644995E+03  0.17076861196E+04  0.18844033863E+04  0.12699999809E+01 0. -1.
       -4    1    3    3    0  502  0.64161628539E+03 -0.47234644995E+03 -0.11555507975E+04  0.14035960548E+04  0.12699999809E+01 0.  1.
</event>
<event>
 5   0  0.8545153E-07  0.3248639E+04  0.7818609E-02  0.8176088E-01
       -1   -1    0    0    0  501  0.00000000000E+00  0.00000000000E+00  0.21522028019E+04  0.21522028019E+04  0.50400001928E-02 0.  1.
        1   -1    0    0  501    0  0.00000000000E+00  0.00000000000E+00 -0.12259133749E+04  0.12259133749E+04  0.50400001928E-02 0. -1.
    10030    2    1    2    0    0  0.00000000000E+00  0.00000000000E+00  0.92628942703E+03  0.33781161769E+04  0.32486392231E+04 0.  0.
        3    1    3    3  502    0  0.28630537830E+03  0.86428044389E+03  0.18619198998E+04  0.20726063733E+04  0.10100000352E+00 0.  1.
       -3    1    3    3    0  502 -0.28630537830E+03 -0.86428044389E+03 -0.93563047278E+03  0.13055098035E+04  0.10100000352E+00 0. -1.
</event>
<event>
 5   0  0.8681172E-07  0.3186572E+04  0.7818609E-02  0.8192373E-01
        1   -1    0    0  501    0  0.00000000000E+00  0.00000000000E+00  0.11684109955E+04  0.11684109955E+04  0.50400001928E-02 0.  1.
       -1   -1    0    0    0  501  0.00000000000E+00  0.00000000000E+00 -0.21726597949E+04  0.21726597950E+04  0.50400001928E-02 0. -1.
    10030    2    1    2    0    0  0.00000000000E+00  0.00000000000E+00 -0.10042487994E+04  0.33410707905E+04  0.31865715708E+04 0.  0.
        1    1    3    3  502    0  0.23437814135E+03  0.15530647303E+04 -0.22153690142E+03  0.15861972665E+04  0.50400001928E-02 0.  1.
       -1    1    3    3    0  502 -0.23437814135E+03 -0.15530647303E+04 -0.78271189802E+03  0.17548735239E+04  0.50400001928E-02 0. -1.
</event>
<event>
 5   0  0.2404430E-06  0.3213626E+04  0.7818609E-02  0.8185228E-01
        2   -1    0    0  501    0  0.00000000000E+00  0.00000000000E+00  0.18041822847E+04  0.18041822847E+04  0.25500000920E-02 0. -1.
       -2   -1    0    0    0  501  0.00000000000E+00  0.00000000000E+00 -0.14310353292E+04  0.14310353292E+04  0.25500000920E-02 0.  1.
    10030    2    1    2    0    0  0.00000000000E+00  0.00000000000E+00  0.37314695546E+03  0.32352176139E+04  0.32136263565E+04 0.  0.
        4    1    3    3  502    0  0.19298788582E+03 -0.12091285111E+04  0.12340500413E+04  0.17384237682E+04  0.12699999809E+01 0. -1.
       -4    1    3    3    0  502 -0.19298788582E+03  0.12091285111E+04 -0.86090308585E+03  0.14967938457E+04  0.12699999809E+01 0.  1.
</event>
<event>
 5   0  0.2401139E-06  0.3003052E+04  0.7818609E-02  0.8242860E-01
        2   -1    0    0  501    0  0.00000000000E+00  0.00000000000E+00  0.21374381034E+04  0.21374381034E+04  0.25500000920E-02 0. -1.
       -2   -1    0    0    0  501  0.00000000000E+00  0.00000000000E+00 -0.10548049008E+04  0.10548049008E+04  0.25500000920E-02 0.  1.
    10030    2    1    2    0    0  0.00000000000E+00  0.00000000000E+00  0.10826332026E+04  0.31922430041E+04  0.30030519053E+04 0.  0.
        5    1    3    3  502    0  0.38916131764E+03 -0.13154644644E+04 -0.10760509787E+03  0.13760429628E+04  0.46999998093E+01 0.  1.
       -5    1    3    3    0  502 -0.38916131764E+03  0.13154644644E+04  0.11902383005E+04  0.18162000414E+04  0.46999998093E+01 0. -1.
</event>
<event>
 5   0  0.8487944E-07  0.3157580E+04  0.7818609E-02  0.8200111E-01
        1   -1    0    0  501    0  0.00000000000E+00  0.00000000000E+00  0.20007482070E+04  0.20007482070E+04  0.50400001928E-02 0. -1.
       -1   -1    0    0    0  501  0.00000000000E+00  0.00000000000E+00 -0.12458225998E+04  0.12458225998E+04  0.50400001928E-02 0.  1.
    10030    2    1    2    0    0  0.00000000000E+00  0.00000000000E+00  0.75492560718E+03  0.32465708068E+04  0.31575796635E+04 0.  0.
        2    1    3    3  502    0  0.29014842686E+02  0.10200544365E+04  0.16160821281E+04  0.19113017447E+04  0.25500000920E-02 0. -1.
       -2    1    3    3    0  502 -0.29014842686E+02 -0.10200544365E+04 -0.86115652096E+03  0.13352690621E+04  0.25500000920E-02 0.  1.
</event>
<event>
 5   0  0.8487944E-07  0.3204659E+04  0.7818609E-02  0.8187588E-01
       -1   -1    0    0    0  501  0.00000000000E+00  0.00000000000E+00  0.14591406730E+04  0.14591406730E+04  0.50400001928E-02 0. -1.
        1   -1    0    0  501    0  0.00000000000E+00  0.00000000000E+00 -0.17595697889E+04  0.17595697889E+04  0.50400001928E-02 0.  1.
    10030    2    1    2    0    0  0.00000000000E+00  0.00000000000E+00 -0.30042911586E+03  0.32187104619E+04  0.32046590121E+04 0.  0.
        2    1    3    3  502    0  0.42177482499E+03  0.41594884874E+03  0.13451224681E+04  0.14697829438E+04  0.25500000920E-02 0. -1.
       -2    1    3    3    0  502 -0.42177482499E+03 -0.41594884874E+03 -0.16455515840E+04  0.17489275180E+04  0.25500000920E-02 0.  1.
</event>
<event>
 5   0  0.8681172E-07  0.3192178E+04  0.7818609E-02  0.8190886E-01
       -1   -1    0    0    0  501  0.00000000000E+00  0.00000000000E+00  0.94796578536E+03  0.94796578537E+03  0.50400001928E-02 0.  1.
        1   -1    0    0  501    0  0.00000000000E+00  0.00000000000E+00 -0.26873326667E+04  0.26873326667E+04  0.50400001928E-02 0. -1.
    10030    2    1    2    0    0  0.00000000000E+00  0.00000000000E+00 -0.17393668814E+04  0.36352984521E+04  0.31921775777E+04 0.  0.
        1    1    3    3  502    0 -0.12407205831E+04 -0.99996853741E+03 -0.76671809393E+03  0.17683838036E+04  0.50400001928E-02 0. -1.
       -1    1    3    3    0  502  0.12407205831E+04  0.99996853741E+03 -0.97264878744E+03  0.18669146485E+04  0.50400001928E-02 0.  1.
</event>
<event>
 5   0  0.8512855E-07  0.3193414E+04  0.7818609E-02  0.8190559E-01
       -1   -1    0    0    0  501  0.00000000000E+00  0.00000000000E+00  0.15642087830E+04  0.15642087830E+04  0.50400001928E-02 0. -1.
        1   -1    0    0  501    0  0.00000000000E+00  0.00000000000E+00 -0.16298803240E+04  0.16298803240E+04  0.50400001928E-02 0.  1.
    10030    2    1    2    0    0  0.00000000000E+00  0.00000000000E+00 -0.65671541018E+02  0.31940891070E+04  0.31934139212E+04 0.  0.
        5    1    3    3  502    0  0.56085987314E+03 -0.12706022433E+04 -0.82069334971E+03  0.16132431690E+04  0.46999998093E+01 0. -1.
       -5    1    3    3    0  502 -0.56085987314E+03  0.12706022433E+04  0.75502180869E+03  0.15808459380E+04  0.46999998093E+01 0.  1.
</event>
<event>
 5   0  0.8545153E-07  0.3174102E+04  0.7818609E-02  0.8195690E-01
        1   -1    0    0  501    0  0.00000000000E+00  0.00000000000E+00  0.88730263546E+03  0.88730263547E+03  0.50400001928E-02 0. -1.
       -1   -1    0    0    0  501  0.00000000000E+00  0.00000000000E+00 -0.28386381041E+04  0.28386381041E+04  0.50400001928E-02 0.  1.
    10030    2    1    2    0    0  0.00000000000E+00  0.00000000000E+00 -0.19513354686E+04  0.37259407396E+04  0.31741021224E+04 0.  0.
        3    1    3    3  502    0 -0.48836248982E+03  0.35881436617E+03 -0.26974738592E+04  0.27647081044E+04  0.10100000352E+00 0.  1.
       -3    1    3    3    0  502  0.48836248982E+03 -0.35881436617E+03  0.74613839061E+03  0.96123263521E+03  0.10100000352E+00 0. -1.
</event>
<event>
 5   0  0.2337504E-06  0.3180346E+04  0.7818609E-02  0.8194027E-01
       -2   -1    0    0    0  501  0.00000000000E+00  0.00000000000E+00  0.15944850388E+04  0.15944850388E+04  0.25500000920E-02 0.  1.
        2   -1    0    0  501    0  0.00000000000E+00  0.00000000000E+00 -0.15858723616E+04  0.15858723616E+04  0.25500000920E-02 0. -1.
    10030    2    1    2    0    0  0.00000000000E+00  0.00000000000E+00  0.86126772093E+01  0.31803574004E+04  0.31803457384E+04 0.  0.
        1    1    3    3  502    0 -0.10466710272E+04  0.11432105516E+04  0.35955283764E+03  0.15911407378E+04  0.50400001928E-02 0.  1.
       -1    1    3    3    0  502  0.10466710272E+04 -0.11432105516E+04 -0.35094016043E+03  0.15892166626E+04  0.50400001928E-02 0. -1.
</event>
<event>
 5   0  0.8512855E-07  0.3167573E+04  0.7818609E-02  0.8197434E-01
        1   -1    0    0  501    0  0.00000000000E+00  0.00000000000E+00  0.11426946899E+04  0.11426946899E+04  0.50400001928E-02 0. -1.
       -1   -1    0    0    0  501  0.00000000000E+00  0.00000000000E+00 -0.21951437360E+04  0.21951437360E+04  0.50400001928E-02 0.  1.
    10030    2    1    2    0    0  0.00000000000E+00  0.00000000000E+00 -0.10524490461E+04  0.33378384260E+04  0.31675726295E+04 0.  0.
        5    1    3    3  502    0  0.91532599011E+03 -0.73634061154E+03 -0.16455549365E+04  0.20218536800E+04  0.46999998093E+01 0.  1.
       -5    1    3    3    0  502 -0.91532599011E+03  0.73634061154E+03  0.59310589041E+03  0.13159847460E+04  0.46999998093E+01 0. -1.
</event>
<event>
 5   0  0.8681172E-07  0.3318500E+04  0.7818609E-02  0.8158204E-01
        1   -1    0    0  501    0  0.00000000000E+00  0.00000000000E+00  0.23826946637E+04  0.23826946637E+04  0.50400001928E-02 0. -1.
       -1   -1    0    0    0  501  0.00000000000E+00  0.00000000000E+00 -0.11554610521E+04  0.11554610521E+04  0.50400001928E-02 0.  1.
    10030    2    1    2    0    0  0.00000000000E+00  0.00000000000E+00  0.12272336116E+04  0.35381557159E+04  0.33185001932E+04 0.  0.
        1    1    3    3  502    0  0.13576302350E+04 -0.34615252882E+03  0.15613459175E+04  0.20978042097E+04  0.50400001928E-02 0. -1.
       -1    1    3    3    0  502 -0.13576302350E+04  0.34615252882E+03 -0.33411230589E+03  0.14403515061E+04  0.50400001928E-02 0.  1.
</event>
<event>
 5   0  0.8545153E-07  0.3047012E+04  0.7818609E-02  0.8230432E-01
        1   -1    0    0  501    0  0.00000000000E+00  0.00000000000E+00  0.17630043228E+04  0.17630043228E+04  0.50400001928E-02 0.  1.
       -1   -1    0    0    0  501  0.00000000000E+00  0.00000000000E+00 -0.13165424627E+04  0.13165424628E+04  0.50400001928E-02 0. -1.
    10030    2    1    2    0    0  0.00000000000E+00  0.00000000000E+00  0.44646186002E+03  0.30795467855E+04  0.30470116855E+04 0.  0.
        3    1    3    3  502    0 -0.14079278751E+04  0.57637528801E+03  0.14111892618E+03  0.15278690833E+04  0.10100000352E+00 0. -1.
       -3    1    3    3    0  502  0.14079278751E+04 -0.57637528801E+03  0.30534293383E+03  0.15516777022E+04  0.10100000352E+00 0.  1.
</event>
<event>
 5   0  0.8383008E-07  0.3186883E+04  0.7818609E-02  0.8192290E-01
       -1   -1    0    0    0  501  0.00000000000E+00  0.00000000000E+00  0.26977589982E+04  0.26977589982E+04  0.50400001928E-02 0.  1.
        1   -1    0    0  501    0  0.00000000000E+00  0.00000000000E+00 -0.94117246935E+03  0.94117246937E+03  0.50400001928E-02 0. -1.
    10030    2    1    2    0    0  0.00000000000E+00  0.00000000000E+00  0.17565865289E+04  0.36389314676E+04  0.31868834294E+04 0.  0.
        4    1    3    3  502    0 -0.83427965195E+02  0.15886917010E+04  0.98139724944E+03  0.18692361328E+04  0.12699999809E+01 0.  1.
       -4    1    3    3    0  502  0.83427965195E+02 -0.15886917010E+04  0.77518927942E+03  0.17696953348E+04  0.12699999809E+01 0. -1.
</event>
<event>
 5   0  0.8545153E-07  0.3190436E+04  0.7818609E-02  0.8191347E-01
       -1   -1    0    0    0  501  0.00000000000E+00  0.00000000000E+00  0.98313671264E+03  0.98313671265E+03  0.50400001928E-02 0. -1.
        1   -1    0    0  501    0  0.00000000000E+00  0.00000000000E+00 -0.25883694503E+04  0.25883694503E+04  0.50400001928E-02 0.  1.
    10030    2    1    2    0    0  0.00000000000E+00  0.00000000000E+00 -0.16052327377E+04  0.35715061630E+04  0.31904363542E+04 0.  0.
        3    1    3    3  502    0  0.81844582536E+03 -0.42249570755E+03 -0.22606278656E+04  0.24410642247E+04  0.10100000352E+00 0.  1.
       -3    1    3    3    0  502 -0.81844582536E+03  0.42249570755E+03  0.65539512794E+03  0.11304419383E+04  0.10100000352E+00 0. -1.
</event>
<event>
 5   0  0.2337504E-06  0.3227250E+04  0.7818609E-02  0.8181657E-01
       -2   -1    0    0    0  501  0.00000000000E+00  0.00000000000E+00  0.15053631289E+04  0.15053631289E+04  0.25500000920E-02 0.  1.
        2   -1    0    0  501    0  0.00000000000E+00  0.00000000000E+00 -0.17296722783E+04  0.17296722783E+04  0.25500000920E-02 0. -1.
    10030    2    1    2    0    0  0.00000000000E+00  0.00000000000E+00 -0.22430914942E+03  0.32350354071E+04  0.32272495241E+04 0.  0.
        1    1    3    3  502    0 -0.10172996814E+04  0.98515787662E+03  0.66324259099E+03  0.15637536309E+04  0.50400001928E-02 0.  1.
       -1    1    3    3    0  502  0.10172996814E+04 -0.98515787662E+03 -0.88755174041E+03  0.16712817762E+04  0.50400001928E-02 0. -1.
</event>
<event>
 5   0  0.2466076E-06  0.3191846E+04  0.7818609E-02  0.8190974E-01
       -2   -1    0    0    0  501  0.00000000000E+00  0.00000000000E+00  0.87461239189E+03  0.87461239189E+03  0.25500000920E-02 0. -1.
        2   -1    0    0  501    0  0.00000000000E+00  0.00000000000E+00 -0.29121137952E+04  0.29121137952E+04  0.25500000920E-02 0.  1.
    10030    2    1    2    0    0  0.00000000000E+00  0.00000000000E+00 -0.20375014033E+04  0.37867261871E+04  0.31918463697E+04 0.  0.
        3    1    3    3  502    0  0.51730614740E+03  0.70397906604E+03  0.56574987373E+03  0.10408002236E+04  0.10100000352E+00 0. -1.
       -3    1    3    3    0  502 -0.51730614740E+03 -0.70397906604E+03 -0.26032512771E+04  0.27459259635E+04  0.10100000352E+00 0.  1.
</event>
<event>
 5   0  0.8545153E-07  0.3194842E+04  0.7818609E-02  0.8190181E-01
        1   -1    0    0  501    0  0.00000000000E+00  0.00000000000E+00  0.15355422793E+04  0.15355422793E+04  0.50400001928E-02 0.  1.
       -1   -1    0    0    0  501  0.00000000000E+00  0.00000000000E+00 -0.16617932768E+04  0.16617932768E+04  0.50400001928E-02 0. -1.
    10030    2    1    2    0    0  0.00000000000E+00  0.00000000000E+00 -0.12625099753E+03  0.31973355561E+04  0.31948419905E+04 0.  0.
        3    1    3    3  502    0 -0.12257074406E+04  0.30510489853E+03 -0.10417977973E+04  0.16373119403E+04  0.10100000352E+00 0. -1.
       -3    1    3    3    0  502  0.12257074406E+04 -0.30510489853E+03  0.91554679980E+03  0.15600236158E+04  0.10100000352E+00 0.  1.
</event>
<event>
 5   0  0.7934375E-07  0.3200604E+04  0.7818609E-02  0.8188658E-01
        4   -1    0    0  501    0  0.00000000000E+00  0.00000000000E+00  0.16847638809E+04  0.16847643595E+04  0.12699999809E+01 0.  1.
       -4   -1    0    0    0  501  0.00000000000E+00  0.00000000000E+00 -0.15200739121E+04  0.15200744427E+04  0.12699999809E+01 0. -1.
    10030    2    1    2    0    0  0.00000000000E+00  0.00000000000E+00  0.16468996874E+03  0.32048388022E+04  0.32006044683E+04 0.  0.
        2    1    3    3  502    0 -0.10685239451E+04  0.35269257437E+03 -0.10570671909E+04  0.15438673905E+04  0.25500000920E-02 0. -1.
       -2    1    3    3    0  502  0.10685239451E+04 -0.35269257437E+03  0.12217571597E+04  0.16609714117E+04  0.25500000920E-02 0.  1.
</event>
<event>
 5   0  0.8383008E-07  0.3162880E+04  0.7818609E-02  0.8198690E-01
       -1   -1    0    0    0  501  0.00000000000E+00  0.00000000000E+00  0.20903835194E+04  0.20903835194E+04  0.50400001928E-02 0.  1.
        1   -1    0    0  501    0  0.00000000000E+00  0.00000000000E+00 -0.11964086225E+04  0.11964086225E+04  0.50400001928E-02 0. -1.
    10030    2    1    2    0    0  0.00000000000E+00  0.00000000000E+00  0.89397489692E+03  0.32867921419E+04  0.31628802487E+04 0.  0.
        4    1    3    3  502    0 -0.29544578572E+03 -0.19376719437E+02 -0.11673489172E+04  0.12043125744E+04  0.12699999809E+01 0. -1.
       -4    1    3    3    0  502  0.29544578572E+03  0.19376719437E+02  0.20613238141E+04  0.20824795675E+04  0.12699999809E+01 0.  1.
</event>
<event>
 5   0  0.8487944E-07  0.3230579E+04  0.7818609E-02  0.8180788E-01
       -1   -1    0    0    0  501  0.00000000000E+00  0.00000000000E+00  0.13186419201E+04  0.13186419202E+04  0.50400001928E-02 0. -1.
        1   -1    0    0  501    0  0.00000000000E+00  0.00000000000E+00 -0.19786717651E+04  0.19786717651E+04  0.50400001928E-02 0.  1.
    10030    2    1    2    0    0  0.00000000000E+00  0.00000000000E+00 -0.66002984494E+03  0.32973136852E+04  0.32305786080E+04 0.  0.
        2    1    3    3  502    0  0.13078438450E+04 -0.78063328099E+03 -0.87900683671E+03  0.17585496471E+04  0.25500000920E-02 0. -1.
       -2    1    3    3    0  502 -0.13078438450E+04  0.78063328099E+03  0.21897699177E+03  0.15387640382E+04  0.25500000920E-02 0.  1.
</event>
<event>
 5   0  0.8681172E-07  0.3137806E+04  0.7818609E-02  0.8205438E-01
        1   -1    0    0  501    0  0.00000000000E+00  0.00000000000E+00  0.14091266567E+04  0.14091266567E+04  0.50400001928E-02 0.  1.
       -1   -1    0    0    0  501  0.00000000000E+00  0.00000000000E+00 -0.17467963455E+04  0.17467963455E+04  0.50400001928E-02 0. -1.
    10030    2    1    2    0    0  0.00000000000E+00  0.00000000000E+00 -0.33766968885E+03  0.31559230022E+04  0.31378064276E+04 0.  0.
        1    1    3    3  502    0 -0.38342335039E+03  0.97761762273E+03 -0.13412009522E+04  0.17033994470E+04  0.50400001928E-02 0. -1.
       -1    1    3    3    0  502  0.38342335039E+03 -0.97761762273E+03  0.10035312634E+04  0.14525235552E+04  0.50400001928E-02 0.  1.
</event>
<event>
 5   0  0.8512855E-07  0.3255104E+04  0.7818609E-02  0.8174414E-01
       -1   -1    0    0    0  501  0.00000000000E+00  0.00000000000E+00  0.13359066619E+04  0.13359066619E+04  0.50400001928E-02 0. -1.
        1   -1    0    0  501    0  0.00000000000E+00  0.00000000000E+00 -0.19828671651E+04  0.19828671651E+04  0.50400001928E-02 0.  1.
    10030    2    1    2    0    0  0.00000000000E+00  0.00000000000E+00 -0.64696050321E+03  0.33187738270E+04  0.32551039649E+04 0.  0.
        5    1    3    3  502    0 -0.26687719877E+03  0.47935290748E+03 -0.18857378892E+04  0.19639328212E+04  0.46999998093E+01 0.  1.
       -5    1    3    3    0  502  0.26687719877E+03 -0.47935290748E+03  0.12387773860E+04  0.13548410059E+04  0.46999998093E+01 0. -1.
</event>
<event>
 5   0  0.2401139E-06  0.2784705E+04  0.7818609E-02  0.8308033E-01
        2   -1    0    0  501    0  0.00000000000E+00  0.00000000000E+00  0.21212228141E+04  0.21212228141E+04  0.25500000920E-02 0.  1.
       -2   -1    0    0    0  501  0.00000000000E+00  0.00000000000E+00 -0.91392815094E+03  0.91392815094E+03  0.25500000920E-02 0. -1.
    10030    2    1    2    0    0  0.00000000000E+00  0.00000000000E+00  0.12072946631E+04  0.30351509650E+04  0.27847048276E+04 0.  0.
        5    1    3    3  502    0  0.48257380435E+03  0.25389575866E+03  0.19999925914E+04  0.20730009620E+04  0.46999998093E+01 0.  1.
       -5    1    3    3    0  502 -0.48257380435E+03 -0.25389575866E+03 -0.79269792823E+03  0.96215000303E+03  0.46999998093E+01 0. -1.
</event>
<event>
 5   0  0.2404430E-06  0.3152877E+04  0.7818609E-02  0.8201374E-01
       -2   -1    0    0    0  501  0.00000000000E+00  0.00000000000E+00  0.12809240682E+04  0.12809240682E+04  0.25500000920E-02 0.  1.
        2   -1    0    0  501    0  0.00000000000E+00  0.00000000000E+00 -0.19401289307E+04  0.19401289307E+04  0.25500000920E-02 0. -1.
    10030    2    1    2    0    0  0.00000000000E+00  0.00000000000E+00 -0.65920486249E+03  0.32210529989E+04  0.31528766819E+04 0.  0.
        4    1    3    3  502    0 -0.95959939708E+03  0.65594066427E+03 -0.14175557380E+04  0.18331816716E+04  0.12699999809E+01 0. -1.
       -4    1    3    3    0  502  0.95959939708E+03 -0.65594066427E+03  0.75835087550E+03  0.13878713273E+04  0.12699999809E+01 0.  1.
</event>
<event>
 5   0  0.8512855E-07  0.3194461E+04  0.7818609E-02  0.8190282E-01
       -1   -1    0    0    0  501  0.00000000000E+00  0.00000000000E+00  0.12791096903E+04  0.12791096903E+04  0.50400001928E-02 0. -1.
        1   -1    0    0  501    0  0.00000000000E+00  0.00000000000E+00 -0.19944695014E+04  0.19944695014E+04  0.50400001928E-02 0.  1.
    10030    2    1    2    0    0  0.00000000000E+00  0.00000000000E+00 -0.71535981115E+03  0.32735791917E+04  0.31944609976E+04 0.  0.
        5    1    3    3  502    0 -0.33343570473E+03 -0.15389369946E+04 -0.63192098910E+03  0.16967182056E+04  0.46999998093E+01 0. -1.
       -5    1    3    3    0  502  0.33343570473E+03  0.15389369946E+04 -0.83438822053E+02  0.15768609862E+04  0.46999998093E+01 0.  1.
</event>
<event>
 5   0  0.7934375E-07  0.3220994E+04  0.7818609E-02  0.8183295E-01
       -3   -1    0    0    0  501  0.00000000000E+00  0.00000000000E+00  0.22603561848E+04  0.22603561870E+04  0.10100000352E+00 0. -1.
        3   -1    0    0  501    0  0.00000000000E+00  0.00000000000E+00 -0.11474743281E+04  0.11474743325E+04  0.10100000352E+00 0.  1.
    10030    2    1    2    0    0  0.00000000000E+00  0.00000000000E+00  0.11128818567E+04  0.34078305196E+04  0.32209940737E+04 0.  0.
        3    1    3    3  502    0 -0.47327573268E+03 -0.54790772111E+03  0.20784653015E+04  0.22009567942E+04  0.10100000352E+00 0. -1.
       -3    1    3    3    0  502  0.47327573268E+03  0.54790772111E+03 -0.96558344479E+03  0.12068737254E+04  0.10100000352E+00 0.  1.
</event>
<event>
 5   0  0.2337504E-06  0.3204648E+04  0.7818609E-02  0.8187591E-01
       -2   -1    0    0    0  501  0.00000000000E+00  0.00000000000E+00  0.96976489087E+03  0.96976489087E+03  0.25500000920E-02 0.  1.
        2   -1    0    0  501    0  0.00000000000E+00  0.00000000000E+00 -0.26474891388E+04  0.26474891388E+04  0.25500000920E-02 0. -1.
    10030    2    1    2    0    0  0.00000000000E+00  0.00000000000E+00 -0.16777242479E+04  0.36172540296E+04  0.32046478844E+04 0.  0.
        1    1    3    3  502    0  0.12195406920E+04  0.81587314514E+03 -0.15655836848E+04  0.21456888784E+04  0.50400001928E-02 0. -1.
       -1    1    3    3    0  502 -0.12195406920E+04 -0.81587314514E+03 -0.11214056306E+03  0.14715651513E+04  0.50400001928E-02 0.  1.
</event>
<event>
 5   0  0.2404430E-06  0.3194007E+04  0.7818609E-02  0.8190402E-01
        2   -1    0    0  501    0  0.00000000000E+00  0.00000000000E+00  0.18047688762E+04  0.18047688762E+04  0.25500000920E-02 0.  1.
       -2   -1    0    0    0  501  0.00000000000E+00  0.00000000000E+00 -0.14131561236E+04  0.14131561236E+04  0.25500000920E-02 0. -1.
    10030    2    1    2    0    0  0.00000000000E+00  0.00000000000E+00  0.39161275258E+03  0.32179249999E+04  0.31940070064E+04 0.  0.
        4    1    3    3  502    0  0.11380650654E+04 -0.95918418965E+03  0.77909967657E+03  0.16799477140E+04  0.12699999809E+01 0. -1.
       -4    1    3    3    0  502 -0.11380650654E+04  0.95918418965E+03 -0.38748692399E+03  0.15379772859E+04  0.12699999809E+01 0.  1.
</event>
<event>
 5   0  0.2404430E-06  0.3173443E+04  0.7818609E-02  0.8195866E-01
       -2   -1    0    0    0  501  0.00000000000E+00  0.00000000000E+00  0.10326936702E+04  0.10326936702E+04  0.25500000920E-02 0. -1.
        2   -1    0    0  501    0  0.00000000000E+00  0.00000000000E+00 -0.24379782501E+04  0.24379782501E+04  0.25500000920E-02 0.  1.
    10030    2    1    2    0    0  0.00000000000E+00  0.00000000000E+00 -0.14052845799E+04  0.34706719204E+04  0.31734427406E+04 0.  0.
        4    1    3    3  502    0  0.33566120435E+03  0.12549157394E+02  0.99336431501E+03  0.10486182340E+04  0.12699999809E+01 0. -1.
       -4    1    3    3    0  502 -0.33566120435E+03 -0.12549157394E+02 -0.23986488949E+04  0.24220536863E+04  0.12699999809E+01 0.  1.
</event>
<event>
 5   0  0.8681172E-07  0.3195607E+04  0.7818609E-02  0.8189978E-01
       -1   -1    0    0    0  501  0.00000000000E+00  0.00000000000E+00  0.32219604720E+04  0.32219604720E+04  0.50400001928E-02 0.  1.
        1   -1    0    0  501    0  0.00000000000E+00  0.00000000000E+00 -0.79236747587E+03  0.79236747589E+03  0.50400001928E-02 0. -1.
    10030    2    1    2    0    0  0.00000000000E+00  0.00000000000E+00  0.24295929962E+04  0.40143279479E+04  0.31956074143E+04 0.  0.
        1    1    3    3  502    0  0.51105622246E+03 -0.56651382950E+02 -0.68559604341E+03  0.85698878433E+03  0.50400001928E-02 0. -1.
       -1    1    3    3    0  502 -0.51105622246E+03  0.56651382950E+02  0.31151890396E+04  0.31573391636E+04  0.50400001928E-02 0.  1.
</event>
<event>
 5   0  0.8545153E-07  0.3207750E+04  0.7818609E-02  0.8186773E-01
       -1   -1    0    0    0  501  0.00000000000E+00  0.00000000000E+00  0.11171648109E+04  0.11171648109E+04  0.50400001928E-02 0. -1.
        1   -1    0    0  501    0  0.00000000000E+00  0.00000000000E+00 -0.23026280133E+04  0.23026280133E+04  0.50400001928E-02 0.  1.
    10030    2    1    2    0    0  0.00000000000E+00  0.00000000000E+00 -0.11854632024E+04  0.34197928241E+04  0.32077499834E+04 0.  0.
        3    1    3    3  502    0 -0.91383212784E+03 -0.10419676539E+03  0.80807654733E+03  0.12243095362E+04  0.10100000352E+00 0. -1.
       -3    1    3    3    0  502  0.91383212784E+03  0.10419676539E+03 -0.19935397497E+04  0.21954832880E+04  0.10100000352E+00 0.  1.
</event>
<event>
 5   0  0.8545153E-07  0.3094124E+04  0.7818609E-02  0.8217352E-01
        1   -1    0    0  501    0  0.00000000000E+00  0.00000000000E+00  0.20475904455E+04  0.20475904455E+04  0.50400001928E-02 0.  1.
       -1   -1    0    0    0  501  0.00000000000E+00  0.00000000000E+00 -0.11688862693E+04  0.11688862694E+04  0.50400001928E-02 0. -1.
    10030    2    1    2    0    0  0.00000000000E+00  0.00000000000E+00  0.87870417614E+03  0.32164767148E+04  0.30941236931E+04 0.  0.
        3    1    3    3  502    0  0.30644081046E+03  0.14321088130E+04 -0.78919314643E+02  0.14666526143E+04  0.10100000352E+00 0. -1.
       -3    1    3    3    0  502 -0.30644081046E+03 -0.14321088130E+04  0.95762349079E+03  0.17498241006E+04  0.10100000352E+00 0.  1.
</event>
<event>
 5   0  0.2337504E-06  0.2858226E+04  0.7818609E-02  0.8285416E-01
       -2   -1    0    0    0  501  0.00000000000E+00  0.00000000000E+00  0.11861919963E+04  0.11861919963E+04  0.25500000920E-02 0. -1.
        2   -1    0    0  501    0  0.00000000000E+00  0.00000000000E+00 -0.17217825475E+04  0.17217825475E+04  0.25500000920E-02 0.  1.
    10030    2    1    2    0    0  0.00000000000E+00  0.00000000000E+00 -0.53559055124E+03  0.29079745438E+04  0.28582264971E+04 0.  0.
        1    1    3    3  502    0 -0.85180028108E+03 -0.10889805447E+04 -0.63592494855E+03  0.15217893697E+04  0.50400001928E-02 0.  1.
       -1    1    3    3    0  502  0.85180028108E+03  0.10889805447E+04  0.10033439731E+03  0.13861851741E+04  0.50400001928E-02 0. -1.
</event>
<event>
 5   0  0.8383008E-07  0.2894500E+04  0.7818609E-02  0.8274516E-01
        1   -1    0    0  501    0  0.00000000000E+00  0.00000000000E+00  0.15334036755E+04  0.15334036755E+04  0.50400001928E-02 0.  1.
       -1   -1    0    0    0  501  0.00000000000E+00  0.00000000000E+00 -0.13659369666E+04  0.13659369666E+04  0.50400001928E-02 0. -1.
    10030    2    1    2    0    0  0.00000000000E+00  0.00000000000E+00  0.16746670891E+03  0.28993406420E+04  0.28945001399E+04 0.  0.
        4    1    3    3  502    0  0.35905385045E+03  0.53163458197E+03 -0.12157318351E+04  0.13746128561E+04  0.12699999809E+01 0. -1.
       -4    1    3    3    0  502 -0.35905385045E+03 -0.53163458197E+03  0.13831985440E+04  0.15247277860E+04  0.12699999809E+01 0.  1.
</event>
<event>
 5   0  0.2337504E-06  0.3196246E+04  0.7818609E-02  0.8189809E-01
        2   -1    0    0  501    0  0.00000000000E+00  0.00000000000E+00  0.31866296241E+04  0.31866296241E+04  0.25500000920E-02 0.  1.
       -2   -1    0    0    0  501  0.00000000000E+00  0.00000000000E+00 -0.80147265329E+03  0.80147265330E+03  0.25500000920E-02 0. -1.
    10030    2    1    2    0    0  0.00000000000E+00  0.00000000000E+00  0.23851569708E+04  0.39881022774E+04  0.31962456100E+04 0.  0.
        1    1    3    3  502    0  0.95137859924E+03 -0.13116886797E+03 -0.40125264759E+03  0.10408314937E+04  0.50400001928E-02 0.  1.
       -1    1    3    3    0  502 -0.95137859924E+03  0.13116886797E+03  0.27864096184E+04  0.29472707837E+04  0.50400001928E-02 0. -1.
</event>
<event>
 5   0  0.8512855E-07  0.3171843E+04  0.7818609E-02  0.8196293E-01
        1   -1    0    0  501    0  0.00000000000E+00  0.00000000000E+00  0.90993971389E+03  0.90993971390E+03  0.50400001928E-02 0. -1.
       -1   -1    0    0    0  501  0.00000000000E+00  0.00000000000E+00 -0.27640812763E+04  0.27640812763E+04  0.50400001928E-02 0.  1.
    10030    2    1    2    0    0  0.00000000000E+00  0.00000000000E+00 -0.18541415624E+04  0.36740209902E+04  0.31718432028E+04 0.  0.
        5    1    3    3  502    0 -0.10670288490E+04  0.44271886234E+03  0.33149713172E+03  0.12018581422E+04  0.46999998093E+01 0. -1.
       -5    1    3    3    0  502  0.10670288490E+04 -0.44271886234E+03 -0.21856386941E+04  0.24721628480E+04  0.46999998093E+01 0.  1.
</event>
<event>
 5   0  0.2466076E-06  0.3176953E+04  0.7818609E-02  0.8194930E-01
        2   -1    0    0  501    0  0.00000000000E+00  0.00000000000E+00  0.14859025777E+04  0.14859025777E+04  0.25500000920E-02 0.  1.
       -2   -1    0    0    0  501  0.00000000000E+00  0.00000000000E+00 -0.16981312942E+04  0.16981312942E+04  0.25500000920E-02 0. -1.
    10030    2    1    2    0    0  0.00000000000E+00  0.00000000000E+00 -0.21222871642E+03  0.31840338719E+04  0.31769530480E+04 0.  0.
        3    1    3    3  502    0 -0.57073185163E+03  0.14670862601E+04  0.10691695183E+03  0.15778175388E+04  0.10100000352E+00 0.  1.
       -3    1    3    3    0  502  0.57073185163E+03 -0.14670862601E+04 -0.31914566825E+03  0.16062163331E+04  0.10100000352E+00 0. -1.
</event>
<event>
 5   0  0.2337504E-06  0.3038308E+04  0.7818609E-02  0.8232876E-01
        2   -1    0    0  501    0  0.00000000000E+00  0.00000000000E+00  0.21332914551E+04  0.21332914551E+04  0.25500000920E-02 0. -1.
       -2   -1    0    0    0  501  0.00000000000E+00  0.00000000000E+00 -0.10818160264E+04  0.10818160264E+04  0.25500000920E-02 0.  1.
    10030    2    1    2    0    0  0.00000000000E+00  0.00000000000E+00  0.10514754287E+04  0.32151074815E+04  0.30383080062E+04 0.  0.
        1    1    3    3  502    0 -0.11693387302E+04  0.86560509162E+03  0.98845079935E+03  0.17588803892E+04  0.50400001928E-02 0. -1.
       -1    1    3    3    0  502  0.11693387302E+04 -0.86560509162E+03  0.63024629312E+02  0.14562270924E+04  0.50400001928E-02 0.  1.
</event>
<event>
 5   0  0.8512855E-07  0.3239681E+04  0.7818609E-02  0.8178416E-01
        1   -1    0    0  501    0  0.00000000000E+00  0.00000000000E+00  0.18754729345E+04  0.18754729345E+04  0.50400001928E-02 0. -1.
       -1   -1    0    0    0  501  0.00000000000E+00  0.00000000000E+00 -0.13990511573E+04  0.13990511573E+04  0.50400001928E-02 0.  1.
    10030    2    1    2    0    0  0.00000000000E+00  0.00000000000E+00  0.47642177724E+03  0.32745240918E+04  0.32396805888E+04 0.  0.
        5    1    3    3  502    0 -0.15415119173E+04 -0.48841021203E+03  0.14201925719E+03  0.16232667944E+04  0.46999998093E+01 0.  1.
       -5    1    3    3    0  502  0.15415119173E+04  0.48841021203E+03  0.33440252005E+03  0.16512572973E+04  0.46999998093E+01 0. -1.
</event>
<event>
 5   0  0.8487944E-07  0.3191521E+04  0.7818609E-02  0.8191060E-01
        1   -1    0    0  501    0  0.00000000000E+00  0.00000000000E+00  0.20469450748E+04  0.20469450748E+04  0.50400001928E-02 0.  1.
       -1   -1    0    0    0  501  0.00000000000E+00  0.00000000000E+00 -0.12440251365E+04  0.12440251365E+04  0.50400001928E-02 0. -1.
    10030    2    1    2    0    0  0.00000000000E+00  0.00000000000E+00  0.80291993831E+03  0.32909702113E+04  0.31915207197E+04 0.  0.
        2    1    3    3  502    0 -0.14954382481E+03 -0.36750059825E+03  0.19952723014E+04  0.20343381238E+04  0.25500000920E-02 0.  1.
       -2    1    3    3    0  502  0.14954382481E+03  0.36750059825E+03 -0.11923523631E+04  0.12566320874E+04  0.25500000920E-02 0. -1.
</event>
<event>
 5   0  0.2621528E-06  0.3202437E+04  0.7818609E-02  0.8188174E-01
        2   -1    0    0  501    0  0.00000000000E+00  0.00000000000E+00  0.21416621548E+04  0.21416621548E+04  0.25500000920E-02 0.  1.
       -2   -1    0    0    0  501  0.00000000000E+00  0.00000000000E+00 -0.11971545311E+04  0.11971545311E+04  0.25500000920E-02 0. -1.
    10030    2    1    2    0    0  0.00000000000E+00  0.00000000000E+00  0.94450762364E+03  0.33388166859E+04  0.32024369176E+04 0.  0.
        2    1    3    3  502    0  0.95157090178E+02 -0.12520543055E+04  0.15081490055E+04  0.19624495608E+04  0.25500000920E-02 0.  1.
       -2    1    3    3    0  502 -0.95157090178E+02  0.12520543055E+04 -0.56364138189E+03  0.13763671251E+04  0.25500000920E-02 0. -1.
</event>
<event>
 5   0  0.2621528E-06  0.3209839E+04  0.7818609E-02  0.8186224E-01
        2   -1    0    0  501    0  0.00000000000E+00  0.00000000000E+00  0.21554308852E+04  0.21554308852E+04  0.25500000920E-02 0.  1.
       -2   -1    0    0    0  501  0.00000000000E+00  0.00000000000E+00 -0.11950120796E+04  0.11950120797E+04  0.25500000920E-02 0. -1.
    10030    2    1    2    0    0  0.00000000000E+00  0.00000000000E+00  0.96041880551E+03  0.33504429648E+04  0.32098385907E+04 0.  0.
        2    1    3    3  502    0  0.41195810748E+03  0.85400317197E+03 -0.87140016019E+03  0.12877768204E+04  0.25500000920E-02 0. -1.
       -2    1    3    3    0  502 -0.41195810748E+03 -0.85400317197E+03  0.18318189657E+04  0.20626661444E+04  0.25500000920E-02 0.  1.
</event>
<event>
 5   0  0.8545153E-07  0.3188461E+04  0.7818609E-02  0.8191871E-01
        1   -1    0    0  501    0  0.00000000000E+00  0.00000000000E+00  0.20678894976E+04  0.20678894976E+04  0.50400001928E-02 0. -1.
       -1   -1    0    0    0  501  0.00000000000E+00  0.00000000000E+00 -0.12290654822E+04  0.12290654822E+04  0.50400001928E-02 0.  1.
    10030    2    1    2    0    0  0.00000000000E+00  0.00000000000E+00  0.83882401542E+03  0.32969549797E+04  0.31884614487E+04 0.  0.
        3    1    3    3  502    0  0.11559194852E+04  0.65557698509E+03  0.13300842516E+04  0.18801742383E+04  0.10100000352E+00 0.  1.
       -3    1    3    3    0  502 -0.11559194852E+04 -0.65557698509E+03 -0.49126023621E+03  0.14167807415E+04  0.10100000352E+00 0. -1.
</event>
<event>
 5   0  0.8487944E-07  0.3208763E+04  0.7818609E-02  0.8186507E-01
       -1   -1    0    0    0  501  0.00000000000E+00  0.00000000000E+00  0.19265220790E+04  0.19265220790E+04  0.50400001928E-02 0.  1.
        1   -1    0    0  501    0  0.00000000000E+00  0.00000000000E+00 -0.13361074552E+04  0.13361074552E+04  0.50400001928E-02 0. -1.
    10030    2    1    2    0    0  0.00000000000E+00  0.00000000000E+00  0.59041462383E+03  0.32626295342E+04  0.32087633209E+04 0.  0.
        2    1    3    3  502    0  0.15673119573E+03  0.15924887593E+04  0.41315198356E+03  0.16526583669E+04  0.25500000920E-02 0.  1.
       -2    1    3    3    0  502 -0.15673119573E+03 -0.15924887593E+04  0.17726264027E+03  0.16099711674E+04  0.25500000920E-02 0. -1.
</event>
<event>
 5   0  0.2337504E-06  0.3179055E+04  0.7818609E-02  0.8194371E-01
       -2   -1    0    0    0  501  0.00000000000E+00  0.00000000000E+00  0.12278720201E+04  0.12278720201E+04  0.25500000920E-02 0.  1.
        2   -1    0    0  501    0  0.00000000000E+00  0.00000000000E+00 -0.20577043256E+04  0.20577043256E+04  0.25500000920E-02 0. -1.
    10030    2    1    2    0    0  0.00000000000E+00  0.00000000000E+00 -0.82983230550E+03  0.32855763458E+04  0.31790549332E+04 0.  0.
        1    1    3    3  502    0  0.14274382267E+04 -0.61735641741E+03 -0.75446019367E+02  0.15570487915E+04  0.50400001928E-02 0.  1.
       -1    1    3    3    0  502 -0.14274382267E+04  0.61735641741E+03 -0.75438628614E+03  0.17285275543E+04  0.50400001928E-02 0. -1.
</event>
<event>
 5   0  0.8383008E-07  0.3266295E+04  0.7818609E-02  0.8171525E-01
        1   -1    0    0  501    0  0.00000000000E+00  0.00000000000E+00  0.95254085507E+03  0.95254085508E+03  0.50400001928E-02 0. -1.
       -1   -1    0    0    0  501  0.00000000000E+00  0.00000000000E+00 -0.28000591500E+04  0.28000591500E+04  0.50400001928E-02 0.  1.
    10030    2    1    2    0    0  0.00000000000E+00  0.00000000000E+00 -0.18475182949E+04  0.37526000051E+04  0.32662949879E+04 0.  0.
        4    1    3    3  502    0 -0.14826591782E+03  0.59936090962E+03  0.81328358994E+03  0.10211014117E+04  0.12699999809E+01 0. -1.
       -4    1    3    3    0  502  0.14826591782E+03 -0.59936090962E+03 -0.26608018849E+04  0.27314985934E+04  0.12699999809E+01 0.  1.
</event>
<event>
 5   0  0.2337504E-06  0.3223843E+04  0.7818609E-02  0.8182548E-01
        2   -1    0    0  501    0  0.00000000000E+00  0.00000000000E+00  0.17981749249E+04  0.17981749249E+04  0.25500000920E-02 0.  1.
       -2   -1    0    0    0  501  0.00000000000E+00  0.00000000000E+00 -0.14449602328E+04  0.14449602328E+04  0.25500000920E-02 0. -1.
    10030    2    1    2    0    0  0.00000000000E+00  0.00000000000E+00  0.35321469203E+03  0.32431351577E+04  0.32238432084E+04 0.  0.
        1    1    3    3  502    0  0.42239709734E+03  0.11692241903E+04 -0.85558667788E+03  0.15091497866E+04  0.50400001928E-02 0. -1.
       -1    1    3    3    0  502 -0.42239709734E+03 -0.11692241903E+04  0.12088013699E+04  0.17339853711E+04  0.50400001928E-02 0.  1.
</event>
<event>
 5   0  0.8681172E-07  0.3094600E+04  0.7818609E-02  0.8217222E-01
        1   -1    0    0  501    0  0.00000000000E+00  0.00000000000E+00  0.23373919997E+04  0.23373919997E+04  0.50400001928E-02 0. -1.
       -1   -1    0    0    0  501  0.00000000000E+00  0.00000000000E+00 -0.10242769077E+04  0.10242769077E+04  0.50400001928E-02 0.  1.
    10030    2    1    2    0    0  0.00000000000E+00  0.00000000000E+00  0.13131150920E+04  0.33616689074E+04  0.30945995861E+04 0.  0.
        1    1    3    3  502    0  0.61261199177E+02 -0.10198207050E+04 -0.60577435985E+03  0.11877498810E+04  0.50400001928E-02 0.  1.
       -1    1    3    3    0  502 -0.61261199177E+02  0.10198207050E+04  0.19188894518E+04  0.21739190264E+04  0.50400001928E-02 0. -1.
</event>
<event>
 5   0  0.2404430E-06  0.3193916E+04  0.7818609E-02  0.8190426E-01
       -2   -1    0    0    0  501  0.00000000000E+00  0.00000000000E+00  0.94966018437E+03  0.94966018438E+03  0.25500000920E-02 0.  1.
        2   -1    0    0  501    0  0.00000000000E+00  0.00000000000E+00 -0.26854599720E+04  0.26854599720E+04  0.25500000920E-02 0. -1.
    10030    2    1    2    0    0  0.00000000000E+00  0.00000000000E+00 -0.17357997876E+04  0.36351201564E+04  0.31939157235E+04 0.  0.
        4    1    3    3  502    0 -0.13119082994E+04  0.87666492505E+03 -0.58765867112E+03  0.16837425883E+04  0.12699999809E+01 0.  1.
       -4    1    3    3    0  502  0.13119082994E+04 -0.87666492505E+03 -0.11481411165E+04  0.19513775681E+04  0.12699999809E+01 0. -1.
</event>
<event>
 5   0  0.7934375E-07  0.3165465E+04  0.7818609E-02  0.8197998E-01
       -3   -1    0    0    0  501  0.00000000000E+00  0.00000000000E+00  0.26871463340E+04  0.26871463359E+04  0.10100000352E+00 0.  1.
        3   -1    0    0  501    0  0.00000000000E+00  0.00000000000E+00 -0.93223162201E+03  0.93223162748E+03  0.10100000352E+00 0. -1.
    10030    2    1    2    0    0  0.00000000000E+00  0.00000000000E+00  0.17549147120E+04  0.36193779634E+04  0.31654653995E+04 0.  0.
        3    1    3    3  502    0 -0.49542315717E+02 -0.33507331198E+03  0.26452196446E+04  0.26668174935E+04  0.10100000352E+00 0.  1.
       -3    1    3    3    0  502  0.49542315717E+02  0.33507331198E+03 -0.89030493262E+03  0.95256046984E+03  0.10100000352E+00 0. -1.
</event>
<event>
 5   0  0.2466076E-06  0.3111235E+04  0.7818609E-02  0.8212661E-01
       -2   -1    0    0    0  501  0.00000000000E+00  0.00000000000E+00  0.19767259559E+04  0.19767259559E+04  0.25500000920E-02 0. -1.
        2   -1    0    0  501    0  0.00000000000E+00  0.00000000000E+00 -0.12242193740E+04  0.12242193740E+04  0.25500000920E-02 0.  1.
    10030    2    1    2    0    0  0.00000000000E+00  0.00000000000E+00  0.75250658182E+03  0.32009453299E+04  0.31112352610E+04 0.  0.
        3    1    3    3  502    0 -0.71433359191E+02 -0.64403957387E+03 -0.10787585820E+04  0.12584155855E+04  0.10100000352E+00 0.  1.
       -3    1    3    3    0  502  0.71433359191E+02  0.64403957387E+03  0.18312651638E+04  0.19425297444E+04  0.10100000352E+00 0. -1.
</event>
<event>
 5   0  0.2621528E-06  0.3165072E+04  0.7818609E-02  0.8198103E-01
        2   -1    0    0  501    0  0.00000000000E+00  0.00000000000E+00  0.24445436582E+04  0.24445436582E+04  0.25500000920E-02 0.  1.
       -2   -1    0    0    0  501  0.00000000000E+00  0.00000000000E+00 -0.10244941643E+04  0.10244941643E+04  0.25500000920E-02 0. -1.
    10030    2    1    2    0    0  0.00000000000E+00  0.00000000000E+00  0.14200494939E+04  0.34690378225E+04  0.31650723291E+04 0.  0.
        2    1    3    3  502    0  0.27440589227E+02  0.87755109790E+03 -0.73307487292E+03  0.11437865556E+04  0.25500000920E-02 0. -1.
       -2    1    3    3    0  502 -0.27440589227E+02 -0.87755109790E+03  0.21531243668E+04  0.23252512669E+04  0.25500000920E-02 0.  1.
</event>
<event>
 5   0  0.2337504E-06  0.3217694E+04  0.7818609E-02  0.8184160E-01
        2   -1    0    0  501    0  0.00000000000E+00  0.00000000000E+00  0.19355148713E+04  0.19355148713E+04  0.25500000920E-02 0.  1.
       -2   -1    0    0    0  501  0.00000000000E+00  0.00000000000E+00 -0.13373127804E+04  0.13373127804E+04  0.25500000920E-02 0. -1.
    10030    2    1    2    0    0  0.00000000000E+00  0.00000000000E+00  0.59820209086E+03  0.32728276517E+04  0.32176940650E+04 0.  0.
        1    1    3    3  502    0  0.89165404195E+03 -0.33573068282E+03  0.16177039331E+04  0.18774259073E+04  0.50400001928E-02 0.  1.
       -1    1    3    3    0  502 -0.89165404195E+03  0.33573068282E+03 -0.10195018423E+04  0.13954017444E+04  0.50400001928E-02 0. -1.
</event>
<event>
 5   0  0.8383008E-07  0.3195331E+04  0.7818609E-02  0.8190051E-01
       -1   -1    0    0    0  501  0.00000000000E+00  0.00000000000E+00  0.16415584511E+04  0.16415584511E+04  0.50400001928E-02 0. -1.
        1   -1    0    0  501    0  0.00000000000E+00  0.00000000000E+00 -0.15549464174E+04  0.15549464174E+04  0.50400001928E-02 0.  1.
    10030    2    1    2    0    0  0.00000000000E+00  0.00000000000E+00  0.86612033686E+02  0.31965048685E+04  0.31953312395E+04 0.  0.
        4    1    3    3  502    0 -0.12674092222E+04 -0.84026959216E+03 -0.44692978672E+03  0.15849690758E+04  0.12699999809E+01 0.  1.
       -4    1    3    3    0  502  0.12674092222E+04  0.84026959216E+03  0.53354182041E+03  0.16115357927E+04  0.12699999809E+01 0. -1.
</event>
<event>
 5   0  0.2621528E-06  0.3218847E+04  0.7818609E-02  0.8183857E-01
        2   -1    0    0  501    0  0.00000000000E+00  0.00000000000E+00  0.15715130980E+04  0.15715130980E+04  0.25500000920E-02 0. -1.
       -2   -1    0    0    0  501  0.00000000000E+00  0.00000000000E+00 -0.16482482282E+04  0.16482482282E+04  0.25500000920E-02 0.  1.
    10030    2    1    2    0    0  0.00000000000E+00  0.00000000000E+00 -0.76735130146E+02  0.32197613262E+04  0.32188467994E+04 0.  0.
        2    1    3    3  502    0 -0.83567673990E+03 -0.12125200876E+04 -0.68792337575E+03  0.16253612359E+04  0.25500000920E-02 0.  1.
       -2    1    3    3    0  502  0.83567673990E+03  0.12125200876E+04  0.61118824560E+03  0.15944000903E+04  0.25500000920E-02 0. -1.
</event>
<event>
 5   0  0.8512855E-07  0.3206108E+04  0.7818609E-02  0.8187206E-01
       -1   -1    0    0    0  501  0.00000000000E+00  0.00000000000E+00  0.12551800981E+04  0.12551800982E+04  0.50400001928E-02 0.  1.
        1   -1    0    0  501    0  0.00000000000E+00  0.00000000000E+00 -0.20473415138E+04  0.20473415138E+04  0.50400001928E-02 0. -1.
    10030    2    1    2    0    0  0.00000000000E+00  0.00000000000E+00 -0.79216141563E+03  0.33025216119E+04  0.32061081218E+04 0.  0.
        5    1    3    3  502    0  0.11978209629E+04  0.32530252861E+03  0.64890338291E+03  0.14006050423E+04  0.46999998093E+01 0.  1.
       -5    1    3    3    0  502 -0.11978209629E+04 -0.32530252861E+03 -0.14410647985E+04  0.19019165696E+04  0.46999998093E+01 0. -1.
</event>
<event>
 5   0  0.8383008E-07  0.3205831E+04  0.7818609E-02  0.8187279E-01
       -1   -1    0    0    0  501  0.00000000000E+00  0.00000000000E+00  0.15177490563E+04  0.15177490563E+04  0.50400001928E-02 0. -1.
        1   -1    0    0  501    0  0.00000000000E+00  0.00000000000E+00 -0.16928606195E+04  0.16928606195E+04  0.50400001928E-02 0.  1.
    10030    2    1    2    0    0  0.00000000000E+00  0.00000000000E+00 -0.17511156319E+03  0.32106096758E+04  0.32058306928E+04 0.  0.
        4    1    3    3  502    0 -0.67144515655E+03  0.13684639029E+04 -0.58408104479E+03  0.16323860853E+04  0.12699999809E+01 0.  1.
       -4    1    3    3    0  502  0.67144515655E+03 -0.13684639029E+04  0.40896948160E+03  0.15782235905E+04  0.12699999809E+01 0. -1.
</event>
<event>
 5   0  0.8487944E-07  0.3181962E+04  0.7818609E-02  0.8193597E-01
       -1   -1    0    0    0  501  0.00000000000E+00  0.00000000000E+00  0.16478610355E+04  0.16478610355E+04  0.50400001928E-02 0.  1.
        1   -1    0    0  501    0  0.00000000000E+00  0.00000000000E+00 -0.15360646860E+04  0.15360646861E+04  0.50400001928E-02 0. -1.
    10030    2    1    2    0    0  0.00000000000E+00  0.00000000000E+00  0.11179634946E+03  0.31839257216E+04  0.31819623783E+04 0.  0.
        2    1    3    3  502    0 -0.68654290843E+03 -0.10548307206E+03 -0.13763316726E+04  0.15416733495E+04  0.25500000920E-02 0. -1.
       -2    1    3    3    0  502  0.68654290843E+03  0.10548307206E+03  0.14881280220E+04  0.16422523721E+04  0.25500000920E-02 0.  1.
</event>
<event>
 5   0  0.8512855E-07  0.3157050E+04  0.7818609E-02  0.8200253E-01
       -1   -1    0    0    0  501  0.00000000000E+00  0.00000000000E+00  0.18275629433E+04  0.18275629433E+04  0.50400001928E-02 0. -1.
        1   -1    0    0  501    0  0.00000000000E+00  0.00000000000E+00 -0.13634225035E+04  0.13634225035E+04  0.50400001928E-02 0.  1.
    10030    2    1    2    0    0  0.00000000000E+00  0.00000000000E+00  0.46414043983E+03  0.31909854468E+04  0.31570495361E+04 0.  0.
        5    1    3    3  502    0  0.13855919039E+04 -0.32430569552E+03 -0.45841227136E+03  0.14950595335E+04  0.46999998093E+01 0.  1.
       -5    1    3    3    0  502 -0.13855919039E+04  0.32430569552E+03  0.92255271119E+03  0.16959259132E+04  0.46999998093E+01 0. -1.
</event>
<event>
 5   0  0.2466076E-06  0.3160025E+04  0.7818609E-02  0.8199455E-01
        2   -1    0    0  501    0  0.00000000000E+00  0.00000000000E+00  0.19241790565E+04  0.19241790565E+04  0.25500000920E-02 0. -1.
       -2   -1    0    0    0  501  0.00000000000E+00  0.00000000000E+00 -0.12974052436E+04  0.12974052436E+04  0.25500000920E-02 0.  1.
    10030    2    1    2    0    0  0.00000000000E+00  0.00000000000E+00  0.62677381293E+03  0.32215843001E+04  0.31600253148E+04 0.  0.
        3    1    3    3  502    0  0.34742120109E+03 -0.15410865916E+04  0.28472130211E+03  0.16052151269E+04  0.10100000352E+00 0.  1.
       -3    1    3    3    0  502 -0.34742120109E+03  0.15410865916E+04  0.34205251082E+03  0.16163691732E+04  0.10100000352E+00 0. -1.
</event>
<event>
 5   0  0.2404430E-06  0.3211164E+04  0.7818609E-02  0.8185875E-01
       -2   -1    0    0    0  501  0.00000000000E+00  0.00000000000E+00  0.92751401426E+03  0.92751401426E+03  0.25500000920E-02 0. -1.
        2   -1    0    0  501    0  0.00000000000E+00  0.00000000000E+00 -0.27793572481E+04  0.27793572481E+04  0.25500000920E-02 0.  1.
    10030    2    1    2    0    0  0.00000000000E+00  0.00000000000E+00 -0.18518432339E+04  0.37068712624E+04  0.32111635264E+04 0.  0.
        4    1    3    3  502    0  0.10766147906E+04 -0.10674879678E+04 -0.31589273933E+03  0.15486832485E+04  0.12699999809E+01 0. -1.
       -4    1    3    3    0  502 -0.10766147906E+04  0.10674879678E+04 -0.15359504945E+04  0.21581880139E+04  0.12699999809E+01 0.  1.
</event>
<event>
 5   0  0.2466076E-06  0.3069525E+04  0.7818609E-02  0.8224152E-01
       -2   -1    0    0    0  501  0.00000000000E+00  0.00000000000E+00  0.11312289842E+04  0.11312289842E+04  0.25500000920E-02 0.  1.
        2   -1    0    0  501    0  0.00000000000E+00  0.00000000000E+00 -0.20822446982E+04  0.20822446982E+04  0.25500000920E-02 0. -1.
    10030    2    1    2    0    0  0.00000000000E+00  0.00000000000E+00 -0.95101571397E+03  0.32134736824E+04  0.30695247546E+04 0.  0.
        3    1    3    3  502    0 -0.77410214994E+03 -0.12025061555E+04 -0.10586208917E+04  0.17793069985E+04  0.10100000352E+00 0. -1.
       -3    1    3    3    0  502  0.77410214994E+03  0.12025061555E+04  0.10760517768E+03  0.14341666839E+04  0.10100000352E+00 0.  1.
</event>
<event>
 5   0  0.8487944E-07  0.3210004E+04  0.7818609E-02  0.8186180E-01
       -1   -1    0    0    0  501  0.00000000000E+00  0.00000000000E+00  0.12340662507E+04  0.12340662507E+04  0.50400001928E-02 0.  1.
        1   -1    0    0  501    0  0.00000000000E+00  0.00000000000E+00 -0.20874339420E+04  0.20874339420E+04  0.50400001928E-02 0. -1.
    10030    2    1    2    0    0  0.00000000000E+00  0.00000000000E+00 -0.85336769128E+03  0.33215001926E+04  0.32100042232E+04 0.  0.
        2    1    3    3  502    0  0.95064630898E+03 -0.12600856709E+04 -0.12592054297E+03  0.15834772767E+04  0.25500000920E-02 0.  1.
       -2    1    3    3    0  502 -0.95064630898E+03  0.12600856709E+04 -0.72744714831E+03  0.17380229159E+04  0.25500000920E-02 0. -1.
</event>
<event>
 5   0  0.8487944E-07  0.3188516E+04  0.7818609E-02  0.8191857E-01
       -1   -1    0    0    0  501  0.00000000000E+00  0.00000000000E+00  0.18714263335E+04  0.18714263335E+04  0.50400001928E-02 0. -1.
        1   -1    0    0  501    0  0.00000000000E+00  0.00000000000E+00 -0.13581398618E+04  0.13581398618E+04  0.50400001928E-02 0.  1.
    10030    2    1    2    0    0  0.00000000000E+00  0.00000000000E+00  0.51328647167E+03  0.32295661953E+04  0.31885160824E+04 0.  0.
        2    1    3    3  502    0 -0.68384869317E+03 -0.51112844927E+03 -0.11070774212E+04  0.13980421107E+04  0.25500000920E-02 0.  1.
       -2    1    3    3    0  502  0.68384869317E+03  0.51112844927E+03  0.16203638929E+04  0.18315240845E+04  0.25500000920E-02 0. -1.
</event>
<event>
 5   0  0.7934375E-07  0.3062772E+04  0.7818609E-02  0.8226030E-01
        3   -1    0    0  501    0  0.00000000000E+00  0.00000000000E+00  0.17402534199E+04  0.17402534228E+04  0.10100000352E+00 0.  1.
       -3   -1    0    0    0  501  0.00000000000E+00  0.00000000000E+00 -0.13475871471E+04  0.13475871509E+04  0.10100000352E+00 0. -1.
    10030    2    1    2    0    0  0.00000000000E+00  0.00000000000E+00  0.39266627282E+03  0.30878405737E+04  0.30627720461E+04 0.  0.
        3    1    3    3  502    0 -0.10738553663E+03  0.15275906859E+04  0.20524769603E+03  0.15450539098E+04  0.10100000352E+00 0. -1.
       -3    1    3    3    0  502  0.10738553663E+03 -0.15275906859E+04  0.18741857679E+03  0.15427866639E+04  0.10100000352E+00 0.  1.
</event>
<event>
 5   0  0.8383008E-07  0.3195510E+04  0.7818609E-02  0.8190004E-01
        1   -1    0    0  501    0  0.00000000000E+00  0.00000000000E+00  0.23096786558E+04  0.23096786558E+04  0.50400001928E-02 0. -1.
       -1   -1    0    0    0  501  0.00000000000E+00  0.00000000000E+00 -0.11052713277E+04  0.11052713278E+04  0.50400001928E-02 0.  1.
    10030    2    1    2    0    0  0.00000000000E+00  0.00000000000E+00  0.12044073280E+04  0.34149499835E+04  0.31955103471E+04 0.  0.
        4    1    3    3  502    0 -0.46896512097E+03 -0.86901328027E+03  0.19445277409E+04  0.21808947966E+04  0.12699999809E+01 0. -1.
       -4    1    3    3    0  502  0.46896512097E+03  0.86901328027E+03 -0.74012041284E+03  0.12340551869E+04  0.12699999809E+01 0.  1.
</event>
<event>
 5   0  0.8545153E-07  0.3212319E+04  0.7818609E-02  0.8185571E-01
        1   -1    0    0  501    0  0.00000000000E+00  0.00000000000E+00  0.18786288015E+04  0.18786288015E+04  0.50400001928E-02 0.  1.
       -1   -1    0    0    0  501  0.00000000000E+00  0.00000000000E+00 -0.13732080200E+04  0.13732080200E+04  0.50400001928E-02 0. -1.
    10030    2    1    2    0    0  0.00000000000E+00  0.00000000000E+00  0.50542078157E+03  0.32518368215E+04  0.32123188739E+04 0.  0.
        3    1    3    3  502    0 -0.97416567430E+03 -0.99061227178E+03 -0.56307985104E+03  0.14991231980E+04  0.10100000352E+00 0. -1.
       -3    1    3    3    0  502  0.97416567430E+03  0.99061227178E+03  0.10685006326E+04  0.17527136235E+04  0.10100000352E+00 0.  1.
</event>
<event>
 5   0  0.2404430E-06  0.3219767E+04  0.7818609E-02  0.8183616E-01
       -2   -1    0    0    0  501  0.00000000000E+00  0.00000000000E+00  0.17156282511E+04  0.17156282511E+04  0.25500000920E-02 0.  1.
        2   -1    0    0  501    0  0.00000000000E+00  0.00000000000E+00 -0.15106565535E+04  0.15106565535E+04  0.25500000920E-02 0. -1.
    10030    2    1    2    0    0  0.00000000000E+00  0.00000000000E+00  0.20497169757E+03  0.32262848046E+04  0.32197671101E+04 0.  0.
        4    1    3    3  502    0 -0.58294920034E+03  0.75342283415E+03 -0.11979269217E+04  0.15305248315E+04  0.12699999809E+01 0. -1.
       -4    1    3    3    0  502  0.58294920034E+03 -0.75342283415E+03  0.14028986193E+04  0.16957599730E+04  0.12699999809E+01 0.  1.
</event>
<event>
 5   0  0.2401139E-06  0.3216704E+04  0.7818609E-02  0.8184420E-01
       -2   -1    0    0    0  501  0.00000000000E+00  0.00000000000E+00  0.10460492629E+04  0.10460492629E+04  0.25500000920E-02 0. -1.
        2   -1    0    0  501    0  0.00000000000E+00  0.00000000000E+00 -0.24729193582E+04  0.24729193582E+04  0.25500000920E-02 0.  1.
    10030    2    1    2    0    0  0.00000000000E+00  0.00000000000E+00 -0.14268700953E+04  0.35189686211E+04  0.32167035747E+04 0.  0.
        5    1    3    3  502    0  0.27940068681E+03  0.15814274401E+04 -0.81002616758E+03  0.17986500421E+04  0.46999998093E+01 0.  1.
       -5    1    3    3    0  502 -0.27940068681E+03 -0.15814274401E+04 -0.61684392776E+03  0.17203185790E+04  0.46999998093E+01 0. -1.
</event>
<event>
 5   0  0.8512855E-07  0.3261206E+04  0.7818609E-02  0.8172837E-01
       -1   -1    0    0    0  501  0.00000000000E+00  0.00000000000E+00  0.15192591076E+04  0.15192591076E+04  0.50400001928E-02 0.  1.
        1   -1    0    0  501    0  0.00000000000E+00  0.00000000000E+00 -0.17501073515E+04  0.17501073515E+04  0.50400001928E-02 0. -1.
    10030    2    1    2    0    0  0.00000000000E+00  0.00000000000E+00 -0.23084824393E+03  0.32693664592E+04  0.32612062389E+04 0.  0.
        5    1    3    3  502    0  0.59331367584E+03 -0.19066936728E+03  0.13951536177E+04  0.15280221309E+04  0.46999998093E+01 0.  1.
       -5    1    3    3    0  502 -0.59331367584E+03  0.19066936728E+03 -0.16260018616E+04  0.17413443283E+04  0.46999998093E+01 0. -1.
</event>
<event>
 5   0  0.2337504E-06  0.3199863E+04  0.7818609E-02  0.8188853E-01
       -2   -1    0    0    0  501  0.00000000000E+00  0.00000000000E+00  0.10241540572E+04  0.10241540572E+04  0.25500000920E-02 0. -1.
        2   -1    0    0  501    0  0.00000000000E+00  0.00000000000E+00 -0.24994100983E+04  0.24994100983E+04  0.25500000920E-02 0.  1.
    10030    2    1    2    0    0  0.00000000000E+00  0.00000000000E+00 -0.14752560411E+04  0.35235641555E+04  0.31998631176E+04 0.  0.
        1    1    3    3  502    0 -0.86449401727E+03 -0.16476967072E+03  0.73368202778E+03  0.11457697274E+04  0.50400001928E-02 0. -1.
       -1    1    3    3    0  502  0.86449401727E+03  0.16476967072E+03 -0.22089380688E+04  0.23777944281E+04  0.50400001928E-02 0.  1.
</event>
<event>
 5   0  0.2621528E-06  0.3224626E+04  0.7818609E-02  0.8182344E-01
        2   -1    0    0  501    0  0.00000000000E+00  0.00000000000E+00  0.15022384901E+04  0.15022384902E+04  0.25500000920E-02 0.  1.
       -2   -1    0    0    0  501  0.00000000000E+00  0.00000000000E+00 -0.17304529183E+04  0.17304529183E+04  0.25500000920E-02 0. -1.
    10030    2    1    2    0    0  0.00000000000E+00  0.00000000000E+00 -0.22821442811E+03  0.32326914084E+04  0.32246258569E+04 0.  0.
        2    1    3    3  502    0 -0.59215687835E+03  0.54247289940E+03 -0.15156836685E+04  0.17152911118E+04  0.25500000920E-02 0. -1.
       -2    1    3    3    0  502  0.59215687835E+03 -0.54247289940E+03  0.12874692404E+04  0.15174002966E+04  0.25500000920E-02 0.  1.
</event>
<event>
 5   0  0.2621528E-06  0.3169833E+04  0.7818609E-02  0.8196830E-01
       -2   -1    0    0    0  501  0.00000000000E+00  0.00000000000E+00  0.13537056474E+04  0.13537056474E+04  0.25500000920E-02 0.  1.
        2   -1    0    0  501    0  0.00000000000E+00  0.00000000000E+00 -0.18556181493E+04  0.18556181493E+04  0.25500000920E-02 0. -1.
    10030    2    1    2    0    0  0.00000000000E+00  0.00000000000E+00 -0.50191250181E+03  0.32093237967E+04  0.31698332878E+04 0.  0.
        2    1    3    3  502    0  0.34332872681E+02 -0.42649290088E+03 -0.17960371141E+04  0.18463001532E+04  0.25500000920E-02 0. -1.
       -2    1    3    3    0  502 -0.34332872681E+02  0.42649290088E+03  0.12941246123E+04  0.13630236435E+04  0.25500000920E-02 0.  1.
</event>
<event>
 5   0  0.8383008E-07  0.3179508E+04  0.7818609E-02  0.8194250E-01
       -1   -1    0    0    0  501  0.00000000000E+00  0.00000000000E+00  0.10944609261E+04  0.10944609261E+04  0.50400001928E-02 0. -1.
        1   -1    0    0  501    0  0.00000000000E+00  0.00000000000E+00 -0.23091899277E+04  0.23091899277E+04  0.50400001928E-02 0.  1.
    10030    2    1    2    0    0  0.00000000000E+00  0.00000000000E+00 -0.12147290016E+04  0.34036508539E+04  0.31795082305E+04 0.  0.
        4    1    3    3  502    0 -0.23342182852E+03  0.13543702119E+04  0.24803623718E+03  0.13965414454E+04  0.12699999809E+01 0. -1.
       -4    1    3    3    0  502  0.23342182852E+03 -0.13543702119E+04 -0.14627652388E+04  0.20071094085E+04  0.12699999809E+01 0.  1.
</event>
<event>
 5   0  0.8681172E-07  0.3200754E+04  0.7818609E-02  0.8188618E-01
       -1   -1    0    0    0  501  0.00000000000E+00  0.00000000000E+00  0.11850522034E+04  0.11850522034E+04  0.50400001928E-02 0. -1.
        1   -1    0    0  501    0  0.00000000000E+00  0.00000000000E+00 -0.21612609876E+04  0.21612609876E+04  0.50400001928E-02 0.  1.
    10030    2    1    2    0    0  0.00000000000E+00  0.00000000000E+00 -0.97620878414E+03  0.33463131910E+04  0.32007543458E+04 0.  0.
        1    1    3    3  502    0  0.17723742642E+03  0.12957368360E+04 -0.14524735356E+04  0.19544887887E+04  0.50400001928E-02 0.  1.
       -1    1    3    3    0  502 -0.17723742642E+03 -0.12957368360E+04  0.47626475142E+03  0.13918244023E+04  0.50400001928E-02 0. -1.
</event>
<event>
 5   0  0.2401139E-06  0.3187849E+04  0.7818609E-02  0.8192034E-01
       -2   -1    0    0    0  501  0.00000000000E+00  0.00000000000E+00  0.14780639719E+04  0.14780639719E+04  0.25500000920E-02 0.  1.
        2   -1    0    0  501    0  0.00000000000E+00  0.00000000000E+00 -0.17188665090E+04  0.17188665090E+04  0.25500000920E-02 0. -1.
    10030    2    1    2    0    0  0.00000000000E+00  0.00000000000E+00 -0.24080253714E+03  0.31969304809E+04  0.31878485908E+04 0.  0.
        5    1    3    3  502    0  0.24869774565E+03  0.12594283167E+04  0.82704541465E+03  0.15271006717E+04  0.46999998093E+01 0.  1.
       -5    1    3    3    0  502 -0.24869774565E+03 -0.12594283167E+04 -0.10678479518E+04  0.16698298092E+04  0.46999998093E+01 0. -1.
</event>
<event>
 5   0  0.8512855E-07  0.3261328E+04  0.7818609E-02  0.8172806E-01
       -1   -1    0    0    0  501  0.00000000000E+00  0.00000000000E+00  0.14220861206E+04  0.14220861206E+04  0.50400001928E-02 0.  1.
        1   -1    0    0  501    0  0.00000000000E+00  0.00000000000E+00 -0.18698337278E+04  0.18698337278E+04  0.50400001928E-02 0. -1.
    10030    2    1    2    0    0  0.00000000000E+00  0.00000000000E+00 -0.44774760720E+03  0.32919198484E+04  0.32613277003E+04 0.  0.
        5    1    3    3  502    0 -0.11590365039E+04 -0.81052947860E+02 -0.13787686313E+04  0.18030419370E+04  0.46999998093E+01 0. -1.
       -5    1    3    3    0  502  0.11590365039E+04  0.81052947860E+02  0.93102102412E+03  0.14888779114E+04  0.46999998093E+01 0.  1.
</event>
<event>
 5   0  0.2621528E-06  0.3203743E+04  0.7818609E-02  0.8187829E-01
        2   -1    0    0  501    0  0.00000000000E+00  0.00000000000E+00  0.99750791395E+03  0.99750791395E+03  0.25500000920E-02 0.  1.
       -2   -1    0    0    0  501  0.00000000000E+00  0.00000000000E+00 -0.25724026152E+04  0.25724026152E+04  0.25500000920E-02 0. -1.
    10030    2    1    2    0    0  0.00000000000E+00  0.00000000000E+00 -0.15748947013E+04  0.35699105292E+04  0.32037427903E+04 0.  0.
        2    1    3    3  502    0 -0.38001949713E+03  0.30049688235E+03 -0.24888096087E+04  0.25355248890E+04  0.25500000920E-02 0. -1.
       -2    1    3    3    0  502  0.38001949713E+03 -0.30049688235E+03  0.91391490744E+03  0.10343856401E+04  0.25500000920E-02 0.  1.
</event>
<event>
 5   0  0.2404430E-06  0.3215025E+04  0.7818609E-02  0.8184860E-01
        2   -1    0    0  501    0  0.00000000000E+00  0.00000000000E+00  0.14142626445E+04  0.14142626445E+04  0.25500000920E-02 0.  1.
       -2   -1    0    0    0  501  0.00000000000E+00  0.00000000000E+00 -0.18271689414E+04  0.18271689414E+04  0.25500000920E-02 0. -1.
    10030    2    1    2    0    0  0.00000000000E+00  0.00000000000E+00 -0.41290629695E+03  0.32414315859E+04  0.32150252123E+04 0.  0.
        4    1    3    3  502    0  0.11455923582E+04  0.10453249450E+04 -0.63302284510E+03  0.16750539177E+04  0.12699999809E+01 0. -1.
       -4    1    3    3    0  502 -0.11455923582E+04 -0.10453249450E+04  0.22011654815E+03  0.15663776682E+04  0.12699999809E+01 0.  1.
</event>
<event>
 5   0  0.8383008E-07  0.3313279E+04  0.7818609E-02  0.8159525E-01
       -1   -1    0    0    0  501  0.00000000000E+00  0.00000000000E+00  0.28570001318E+04  0.28570001318E+04  0.50400001928E-02 0. -1.
        1   -1    0    0  501    0  0.00000000000E+00  0.00000000000E+00 -0.96060729599E+03  0.96060729600E+03  0.50400001928E-02 0.  1.
    10030    2    1    2    0    0  0.00000000000E+00  0.00000000000E+00  0.18963928358E+04  0.38176074278E+04  0.33132794457E+04 0.  0.
        4    1    3    3  502    0  0.47313623541E+03 -0.12285351234E+04  0.21069006258E+04  0.24843889201E+04  0.12699999809E+01 0. -1.
       -4    1    3    3    0  502 -0.47313623541E+03  0.12285351234E+04 -0.21050778999E+03  0.13332185077E+04  0.12699999809E+01 0.  1.
</event>
<event>
 5   0  0.2401139E-06  0.3200487E+04  0.7818609E-02  0.8188689E-01
       -2   -1    0    0    0  501  0.00000000000E+00  0.00000000000E+00  0.14105890002E+04  0.14105890002E+04  0.25500000920E-02 0.  1.
        2   -1    0    0  501    0  0.00000000000E+00  0.00000000000E+00 -0.18153973883E+04  0.18153973883E+04  0.25500000920E-02 0. -1.
    10030    2    1    2    0    0  0.00000000000E+00  0.00000000000E+00 -0.40480838809E+03  0.32259863885E+04  0.32004872047E+04 0.  0.
        5    1    3    3  502    0 -0.15361380796E+04 -0.12243000180E+03  0.23236539835E+03  0.15584367403E+04  0.46999998093E+01 0.  1.
       -5    1    3    3    0  502  0.15361380796E+04  0.12243000180E+03 -0.63717378644E+03  0.16675496482E+04  0.46999998093E+01 0. -1.
</event>
<event>
 5   0  0.2466076E-06  0.3157496E+04  0.7818609E-02  0.8200133E-01
        2   -1    0    0  501    0  0.00000000000E+00  0.00000000000E+00  0.19300130633E+04  0.19300130633E+04  0.25500000920E-02 0. -1.
       -2   -1    0    0    0  501  0.00000000000E+00  0.00000000000E+00 -0.12914136036E+04  0.12914136036E+04  0.25500000920E-02 0.  1.
    10030    2    1    2    0    0  0.00000000000E+00  0.00000000000E+00  0.63859945966E+03  0.32214266669E+04  0.31574959225E+04 0.  0.
        3    1    3    3  502    0 -0.15427661751E+04 -0.17388430251E+03  0.26999515758E+02  0.15527692056E+04  0.10100000352E+00 0. -1.
       -3    1    3    3    0  502  0.15427661751E+04  0.17388430251E+03  0.61159994390E+03  0.16686574613E+04  0.10100000352E+00 0.  1.
</event>
<event>
 5   0  0.2404430E-06  0.3201447E+04  0.7818609E-02  0.8188435E-01
        2   -1    0    0  501    0  0.00000000000E+00  0.00000000000E+00  0.16459408773E+04  0.16459408773E+04  0.25500000920E-02 0.  1.
       -2   -1    0    0    0  501  0.00000000000E+00  0.00000000000E+00 -0.15567486846E+04  0.15567486846E+04  0.25500000920E-02 0. -1.
    10030    2    1    2    0    0  0.00000000000E+00  0.00000000000E+00  0.89192192709E+02  0.32026895619E+04  0.32014473575E+04 0.  0.
        4    1    3    3  502    0  0.55647267556E+03 -0.35273936893E+02 -0.14564555636E+04  0.15595417631E+04  0.12699999809E+01 0. -1.
       -4    1    3    3    0  502 -0.55647267556E+03  0.35273936893E+02  0.15456477563E+04  0.16431477988E+04  0.12699999809E+01 0.  1.
</event>
<event>
 5   0  0.8487944E-07  0.3198572E+04  0.7818609E-02  0.8189194E-01
        1   -1    0    0  501    0  0.00000000000E+00  0.00000000000E+00  0.21606352907E+04  0.21606352907E+04  0.50400001928E-02 0.  1.
       -1   -1    0    0    0  501  0.00000000000E+00  0.00000000000E+00 -0.11837793391E+04  0.11837793391E+04  0.50400001928E-02 0. -1.
    10030    2    1    2    0    0  0.00000000000E+00  0.00000000000E+00  0.97685595157E+03  0.33444146298E+04  0.31985718166E+04 0.  0.
        2    1    3    3  502    0  0.60430399996E+02  0.14106514415E+04  0.12737578214E+04  0.19015909944E+04  0.25500000920E-02 0.  1.
       -2    1    3    3    0  502 -0.60430399996E+02 -0.14106514415E+04 -0.29690186980E+03  0.14428236354E+04  0.25500000920E-02 0. -1.
</event>
<event>
 5   0  0.2401139E-06  0.3235825E+04  0.7818609E-02  0.8179420E-01
       -2   -1    0    0    0  501  0.00000000000E+00  0.00000000000E+00  0.12232589659E+04  0.12232589659E+04  0.25500000920E-02 0.  1.
        2   -1    0    0  501    0  0.00000000000E+00  0.00000000000E+00 -0.21398905464E+04  0.21398905464E+04  0.25500000920E-02 0. -1.
    10030    2    1    2    0    0  0.00000000000E+00  0.00000000000E+00 -0.91663158049E+03  0.33631495123E+04  0.32358246534E+04 0.  0.
        5    1    3    3  502    0  0.12125363882E+03 -0.17588120085E+03 -0.21251604230E+04  0.21358758286E+04  0.46999998093E+01 0. -1.
       -5    1    3    3    0  502 -0.12125363882E+03  0.17588120085E+03  0.12085288425E+04  0.12272736837E+04  0.46999998093E+01 0.  1.
</event>
<event>
 5   0  0.8512855E-07  0.3259231E+04  0.7818609E-02  0.8173347E-01
        1   -1    0    0  501    0  0.00000000000E+00  0.00000000000E+00  0.11407834963E+04  0.11407834963E+04  0.50400001928E-02 0.  1.
       -1   -1    0    0    0  501  0.00000000000E+00  0.00000000000E+00 -0.23279139996E+04  0.23279139996E+04  0.50400001928E-02 0. -1.
    10030    2    1    2    0    0  0.00000000000E+00  0.00000000000E+00 -0.11871305032E+04  0.34686974959E+04  0.32592305052E+04 0.  0.
        5    1    3    3  502    0 -0.63679735023E+03 -0.10929055183E+04 -0.16870570542E+04  0.21085864771E+04  0.46999998093E+01 0. -1.
       -5    1    3    3    0  502  0.63679735023E+03  0.10929055183E+04  0.49992655093E+03  0.13601110188E+04  0.46999998093E+01 0.  1.
</event>
<event>
 5   0  0.2404430E-06  0.3110692E+04  0.7818609E-02  0.8212810E-01
       -2   -1    0    0    0  501  0.00000000000E+00  0.00000000000E+00  0.13159741223E+04  0.13159741223E+04  0.25500000920E-02 0.  1.
        2   -1    0    0  501    0  0.00000000000E+00  0.00000000000E+00 -0.18382591824E+04  0.18382591824E+04  0.25500000920E-02 0. -1.
    10030    2    1    2    0    0  0.00000000000E+00  0.00000000000E+00 -0.52228506017E+03  0.31542333047E+04  0.31106922150E+04 0.  0.
        4    1    3    3  502    0 -0.71209398223E+03  0.14408624284E+03  0.11333382379E+04  0.13462153837E+04  0.12699999809E+01 0.  1.
       -4    1    3    3    0  502  0.71209398223E+03 -0.14408624284E+03 -0.16556232980E+04  0.18080179210E+04  0.12699999809E+01 0. -1.
</event>
<event>
 5   0  0.8681172E-07  0.3198251E+04  0.7818609E-02  0.8189279E-01
       -1   -1    0    0    0  501  0.00000000000E+00  0.00000000000E+00  0.13188433606E+04  0.13188433606E+04  0.50400001928E-02 0.  1.
        1   -1    0    0  501    0  0.00000000000E+00  0.00000000000E+00 -0.19389730337E+04  0.19389730337E+04  0.50400001928E-02 0. -1.
    10030    2    1    2    0    0  0.00000000000E+00  0.00000000000E+00 -0.62012967313E+03  0.32578163943E+04  0.31982505917E+04 0.  0.
        1    1    3    3  502    0  0.75961129746E+03  0.87425277197E+03  0.81313876409E+03  0.14151049015E+04  0.50400001928E-02 0.  1.
       -1    1    3    3    0  502 -0.75961129746E+03 -0.87425277197E+03 -0.14332684372E+04  0.18427114928E+04  0.50400001928E-02 0. -1.
</event>
<event>
 5   0  0.2401139E-06  0.3181921E+04  0.7818609E-02  0.8193608E-01
       -2   -1    0    0    0  501  0.00000000000E+00  0.00000000000E+00  0.17329539077E+04  0.17329539077E+04  0.25500000920E-02 0.  1.
        2   -1    0    0  501    0  0.00000000000E+00  0.00000000000E+00 -0.14606017603E+04  0.14606017603E+04  0.25500000920E-02 0. -1.
    10030    2    1    2    0    0  0.00000000000E+00  0.00000000000E+00  0.27235214742E+03  0.31935556680E+04  0.31819211355E+04 0.  0.
        5    1    3    3  502    0 -0.13057157668E+03  0.15720560242E+04 -0.71278423189E+02  0.15790857429E+04  0.46999998093E+01 0. -1.
       -5    1    3    3    0  502  0.13057157668E+03 -0.15720560242E+04  0.34363057061E+03  0.16144699251E+04  0.46999998093E+01 0.  1.
</event>
<event>
 5   0  0.8512855E-07  0.3264264E+04  0.7818609E-02  0.8172048E-01
       -1   -1    0    0    0  501  0.00000000000E+00  0.00000000000E+00  0.14367142185E+04  0.14367142185E+04  0.50400001928E-02 0.  1.
        1   -1    0    0  501    0  0.00000000000E+00  0.00000000000E+00 -0.18541297509E+04  0.18541297509E+04  0.50400001928E-02 0. -1.
    10030    2    1    2    0    0  0.00000000000E+00  0.00000000000E+00 -0.41741553239E+03  0.32908439694E+04  0.32642638227E+04 0.  0.
        5    1    3    3  502    0 -0.40596200319E+03 -0.99167526155E+03  0.10324169212E+04  0.14879958876E+04  0.46999998093E+01 0.  1.
       -5    1    3    3    0  502  0.40596200319E+03  0.99167526155E+03 -0.14498324536E+04  0.18028480818E+04  0.46999998093E+01 0. -1.
</event>
<event>
 5   0  0.8512855E-07  0.2982451E+04  0.7818609E-02  0.8248760E-01
        1   -1    0    0  501    0  0.00000000000E+00  0.00000000000E+00  0.16817599275E+04  0.16817599275E+04  0.50400001928E-02 0. -1.
       -1   -1    0    0    0  501  0.00000000000E+00  0.00000000000E+00 -0.13222778562E+04  0.13222778562E+04  0.50400001928E-02 0.  1.
    10030    2    1    2    0    0  0.00000000000E+00  0.00000000000E+00  0.35948207126E+03  0.30040377838E+04  0.29824512815E+04 0.  0.
        5    1    3    3  502    0 -0.48940597129E+03  0.11396374767E+04  0.10136463994E+04  0.16018092570E+04  0.46999998093E+01 0. -1.
       -5    1    3    3    0  502  0.48940597129E+03 -0.11396374767E+04 -0.65416432812E+03  0.14022285267E+04  0.46999998093E+01 0.  1.
</event>
<event>
 5   0  0.2401139E-06  0.3147681E+04  0.7818609E-02  0.8202773E-01
        2   -1    0    0  501    0  0.00000000000E+00  0.00000000000E+00  0.13950132779E+04  0.13950132779E+04  0.25500000920E-02 0. -1.
       -2   -1    0    0    0  501  0.00000000000E+00  0.00000000000E+00 -0.17755912873E+04  0.17755912873E+04  0.25500000920E-02 0.  1.
    10030    2    1    2    0    0  0.00000000000E+00  0.00000000000E+00 -0.38057800939E+03  0.31706045653E+04  0.31476806839E+04 0.  0.
        5    1    3    3  502    0 -0.99575057742E+03 -0.69716781078E+03  0.81668609049E+03  0.14644317769E+04  0.46999998093E+01 0. -1.
       -5    1    3    3    0  502  0.99575057742E+03  0.69716781078E+03 -0.11972640999E+04  0.17061727883E+04  0.46999998093E+01 0.  1.
</event>
<event>
 5   0  0.8383008E-07  0.3254888E+04  0.7818609E-02  0.8174470E-01
       -1   -1    0    0    0  501  0.00000000000E+00  0.00000000000E+00  0.12644562806E+04  0.12644562806E+04  0.50400001928E-02 0.  1.
        1   -1    0    0  501    0  0.00000000000E+00  0.00000000000E+00 -0.20946341874E+04  0.20946341874E+04  0.50400001928E-02 0. -1.
    10030    2    1    2    0    0  0.00000000000E+00  0.00000000000E+00 -0.83017790676E+03  0.33590904680E+04  0.32548876195E+04 0.  0.
        4    1    3    3  502    0 -0.13834029386E+04 -0.84753115406E+03 -0.54748875587E+03  0.17122670055E+04  0.12699999809E+01 0. -1.
       -4    1    3    3    0  502  0.13834029386E+04  0.84753115406E+03 -0.28268915089E+03  0.16468234625E+04  0.12699999809E+01 0.  1.
</event>
<event>
 5   0  0.8383008E-07  0.2736481E+04  0.7818609E-02  0.8323264E-01
        1   -1    0    0  501    0  0.00000000000E+00  0.00000000000E+00  0.13047988434E+04  0.13047988434E+04  0.50400001928E-02 0. -1.
       -1   -1    0    0    0  501  0.00000000000E+00  0.00000000000E+00 -0.14347664923E+04  0.14347664923E+04  0.50400001928E-02 0.  1.
    10030    2    1    2    0    0  0.00000000000E+00  0.00000000000E+00 -0.12996764884E+03  0.27395653357E+04  0.27364807032E+04 0.  0.
        4    1    3    3  502    0 -0.12922287545E+04  0.25510734651E+03 -0.43573238608E+03  0.13873713409E+04  0.12699999809E+01 0.  1.
       -4    1    3    3    0  502  0.12922287545E+04 -0.25510734651E+03  0.30576473724E+03  0.13521939949E+04  0.12699999809E+01 0. -1.
</event>
<event>
 5   0  0.8512855E-07  0.3139867E+04  0.7818609E-02  0.8204881E-01
        1   -1    0    0  501    0  0.00000000000E+00  0.00000000000E+00  0.19219254895E+04  0.19219254895E+04  0.50400001928E-02 0. -1.
       -1   -1    0    0    0  501  0.00000000000E+00  0.00000000000E+00 -0.12824070524E+04  0.12824070524E+04  0.50400001928E-02 0.  1.
    10030    2    1    2    0    0  0.00000000000E+00  0.00000000000E+00  0.63951843709E+03  0.32043325419E+04  0.31398667500E+04 0.  0.
        5    1    3    3  502    0 -0.10454813296E+04  0.10198215478E+04 -0.26791226003E+03  0.14848792102E+04  0.46999998093E+01 0.  1.
       -5    1    3    3    0  502  0.10454813296E+04 -0.10198215478E+04  0.90743069712E+03  0.17194533317E+04  0.46999998093E+01 0. -1.
</event>
<event>
 5   0  0.8383008E-07  0.3223472E+04  0.7818609E-02  0.8182646E-01
        1   -1    0    0  501    0  0.00000000000E+00  0.00000000000E+00  0.13318893740E+04  0.13318893740E+04  0.50400001928E-02 0. -1.
       -1   -1    0    0    0  501  0.00000000000E+00  0.00000000000E+00 -0.19503817689E+04  0.19503817689E+04  0.50400001928E-02 0.  1.
    10030    2    1    2    0    0  0.00000000000E+00  0.00000000000E+00 -0.61849239493E+03  0.32822711429E+04  0.32234718881E+04 0.  0.
        4    1    3    3  502    0  0.12918838029E+04  0.88116502828E+03  0.88096914634E+02  0.15662625088E+04  0.12699999809E+01 0. -1.
       -4    1    3    3    0  502 -0.12918838029E+04 -0.88116502828E+03 -0.70658930956E+03  0.17160086341E+04  0.12699999809E+01 0.  1.
</event>
<event>
 5   0  0.8383008E-07  0.3102627E+04  0.7818609E-02  0.8215017E-01
        1   -1    0    0  501    0  0.00000000000E+00  0.00000000000E+00  0.16942502077E+04  0.16942502077E+04  0.50400001928E-02 0.  1.
       -1   -1    0    0    0  501  0.00000000000E+00  0.00000000000E+00 -0.14204359869E+04  0.14204359869E+04  0.50400001928E-02 0. -1.
    10030    2    1    2    0    0  0.00000000000E+00  0.00000000000E+00  0.27381422084E+03  0.31146861946E+04  0.31026272518E+04 0.  0.
        4    1    3    3  502    0 -0.14817312179E+04 -0.26843117038E+03 -0.23735506499E+03  0.15244414502E+04  0.12699999809E+01 0. -1.
       -4    1    3    3    0  502  0.14817312179E+04  0.26843117038E+03  0.51116928583E+03  0.15902447444E+04  0.12699999809E+01 0.  1.
</event>
<event>
 5   0  0.8383008E-07  0.3245967E+04  0.7818609E-02  0.8176782E-01
        1   -1    0    0  501    0  0.00000000000E+00  0.00000000000E+00  0.21439955877E+04  0.21439955877E+04  0.50400001928E-02 0.  1.
       -1   -1    0    0    0  501  0.00000000000E+00  0.00000000000E+00 -0.12285826513E+04  0.12285826513E+04  0.50400001928E-02 0. -1.
    10030    2    1    2    0    0  0.00000000000E+00  0.00000000000E+00  0.91541293636E+03  0.33725782390E+04  0.32459672109E+04 0.  0.
        4    1    3    3  502    0  0.11585257666E+04 -0.64312287706E+01  0.16386363011E+04  0.20068268119E+04  0.12699999809E+01 0.  1.
       -4    1    3    3    0  502 -0.11585257666E+04  0.64312287706E+01 -0.72322336474E+03  0.13657514272E+04  0.12699999809E+01 0. -1.
</event>
<event>
 5   0  0.8681172E-07  0.3191553E+04  0.7818609E-02  0.8191052E-01
        1   -1    0    0  501    0  0.00000000000E+00  0.00000000000E+00  0.18057923705E+04  0.18057923705E+04  0.50400001928E-02 0. -1.
       -1   -1    0    0    0  501  0.00000000000E+00  0.00000000000E+00 -0.14101853966E+04  0.14101853966E+04  0.50400001928E-02 0.  1.
    10030    2    1    2    0    0  0.00000000000E+00  0.00000000000E+00  0.39560697398E+03  0.32159777671E+04  0.31915526191E+04 0.  0.
        1    1    3    3  502    0  0.13479834533E+03 -0.56435566099E+03 -0.13001242632E+04  0.14237243434E+04  0.50400001928E-02 0.  1.
       -1    1    3    3    0  502 -0.13479834533E+03  0.56435566099E+03  0.16957312372E+04  0.17922534237E+04  0.50400001928E-02 0. -1.
</event>
<event>
 5   0  0.2621528E-06  0.3197934E+04  0.7818609E-02  0.8189363E-01
        2   -1    0    0  501    0  0.00000000000E+00  0.00000000000E+00  0.28280175496E+04  0.28280175496E+04  0.25500000920E-02 0.  1.
       -2   -1    0    0    0  501  0.00000000000E+00  0.00000000000E+00 -0.90405942032E+03  0.90405942033E+03  0.25500000920E-02 0. -1.
    10030    2    1    2    0    0  0.00000000000E+00  0.00000000000E+00  0.19239581293E+04  0.37320769699E+04  0.31979342748E+04 0.  0.
        2    1    3    3  502    0 -0.58700984583E+03 -0.14031838559E+04  0.38646719609E+03  0.15693509442E+04  0.25500000920E-02 0. -1.
       -2    1    3    3    0  502  0.58700984583E+03  0.14031838559E+04  0.15374909332E+04  0.21627260257E+04  0.25500000920E-02 0.  1.
</event>
<event>
 5   0  0.8681172E-07  0.3195554E+04  0.7818609E-02  0.8189992E-01
       -1   -1    0    0    0  501  0.00000000000E+00  0.00000000000E+00  0.17073622463E+04  0.17073622463E+04  0.50400001928E-02 0. -1.
        1   -1    0    0  501    0  0.00000000000E+00  0.00000000000E+00 -0.14952258222E+04  0.14952258222E+04  0.50400001928E-02 0.  1.
    10030    2    1    2    0    0  0.00000000000E+00  0.00000000000E+00  0.21213642415E+03  0.32025880685E+04  0.31955544861E+04 0.  0.
        1    1    3    3  502    0  0.10328973367E+04  0.86555338183E+03 -0.75421065955E+03  0.15443099702E+04  0.50400001928E-02 0.  1.
       -1    1    3    3    0  502 -0.10328973367E+04 -0.86555338183E+03  0.96634708370E+03  0.16582780983E+04  0.50400001928E-02 0. -1.
</event>
<event>
 5   0  0.8681172E-07  0.3112052E+04  0.7818609E-02  0.8212438E-01
        1   -1    0    0  501    0  0.00000000000E+00  0.00000000000E+00  0.19361671184E+04  0.19361671184E+04  0.50400001928E-02 0. -1.
       -1   -1    0    0    0  501  0.00000000000E+00  0.00000000000E+00 -0.12505208145E+04  0.12505208145E+04  0.50400001928E-02 0.  1.
    10030    2    1    2    0    0  0.00000000000E+00  0.00000000000E+00  0.68564630394E+03  0.31866879329E+04  0.31120522373E+04 0.  0.
        1    1    3    3  502    0  0.11931076871E+04 -0.84031363513E+03  0.89575899513E+03  0.17123133871E+04  0.50400001928E-02 0. -1.
       -1    1    3    3    0  502 -0.11931076871E+04  0.84031363513E+03 -0.21011269119E+03  0.14743745458E+04  0.50400001928E-02 0.  1.
</event>
<event>
 5   0  0.2401139E-06  0.3087067E+04  0.7818609E-02  0.8219296E-01
        2   -1    0    0  501    0  0.00000000000E+00  0.00000000000E+00  0.20607376818E+04  0.20607376818E+04  0.25500000920E-02 0.  1.
       -2   -1    0    0    0  501  0.00000000000E+00  0.00000000000E+00 -0.11561374419E+04  0.11561374419E+04  0.25500000920E-02 0. -1.
    10030    2    1    2    0    0  0.00000000000E+00  0.00000000000E+00  0.90460023985E+03  0.32168751237E+04  0.30870672114E+04 0.  0.
        5    1    3    3  502    0  0.90290057109E+03  0.29558744221E+03  0.17199527763E+04  0.19649073821E+04  0.46999998093E+01 0.  1.
       -5    1    3    3    0  502 -0.90290057109E+03 -0.29558744221E+03 -0.81535253649E+03  0.12519677416E+04  0.46999998093E+01 0. -1.
</event>
<event>
 5   0  0.7934375E-07  0.2957103E+04  0.7818609E-02  0.8256088E-01
        4   -1    0    0  501    0  0.00000000000E+00  0.00000000000E+00  0.22239353345E+04  0.22239356972E+04  0.12699999809E+01 0.  1.
       -4   -1    0    0    0  501  0.00000000000E+00  0.00000000000E+00 -0.98299298541E+03  0.98299380581E+03  0.12699999809E+01 0. -1.
    10030    2    1    2    0    0  0.00000000000E+00  0.00000000000E+00  0.12409423491E+04  0.32069295030E+04  0.29571031303E+04 0.  0.
        3    1    3    3  502    0  0.54410006496E+03  0.10249631025E+03  0.21072677126E+04  0.21787903977E+04  0.10100000352E+00 0.  1.
       -3    1    3    3    0  502 -0.54410006496E+03 -0.10249631025E+03 -0.86632536345E+03  0.10281391053E+04  0.10100000352E+00 0. -1.
</event>
<event>
 5   0  0.8545153E-07  0.2677711E+04  0.7818609E-02  0.8342273E-01
       -1   -1    0    0    0  501  0.00000000000E+00  0.00000000000E+00  0.10408606387E+04  0.10408606387E+04  0.50400001928E-02 0.  1.
        1   -1    0    0  501    0  0.00000000000E+00  0.00000000000E+00 -0.17221653608E+04  0.17221653608E+04  0.50400001928E-02 0. -1.
    10030    2    1    2    0    0  0.00000000000E+00  0.00000000000E+00 -0.68130472203E+03  0.27630259995E+04  0.26777110654E+04 0.  0.
        3    1    3    3  502    0 -0.32627056534E+02 -0.23837755280E+03 -0.16996748887E+04  0.17166196783E+04  0.10100000352E+00 0. -1.
       -3    1    3    3    0  502  0.32627056534E+02  0.23837755280E+03  0.10183701667E+04  0.10464063212E+04  0.10100000352E+00 0.  1.
</event>
<event>
 5   0  0.8383008E-07  0.3144146E+04  0.7818609E-02  0.8203726E-01
       -1   -1    0    0    0  501  0.00000000000E+00  0.00000000000E+00  0.11976953538E+04  0.11976953538E+04  0.50400001928E-02 0.  1.
        1   -1    0    0  501    0  0.00000000000E+00  0.00000000000E+00 -0.20634743154E+04  0.20634743154E+04  0.50400001928E-02 0. -1.
    10030    2    1    2    0    0  0.00000000000E+00  0.00000000000E+00 -0.86577896163E+03  0.32611696693E+04  0.31441460528E+04 0.  0.
        4    1    3    3  502    0  0.10125697800E+04  0.57587885867E+03 -0.15278700850E+04  0.19212815069E+04  0.12699999809E+01 0. -1.
       -4    1    3    3    0  502 -0.10125697800E+04 -0.57587885867E+03  0.66209112334E+03  0.13398881624E+04  0.12699999809E+01 0.  1.
</event>
<event>
 5   0  0.8383008E-07  0.2826773E+04  0.7818609E-02  0.8295004E-01
        1   -1    0    0  501    0  0.00000000000E+00  0.00000000000E+00  0.87461212181E+03  0.87461212182E+03  0.50400001928E-02 0. -1.
       -1   -1    0    0    0  501  0.00000000000E+00  0.00000000000E+00 -0.22840540884E+04  0.22840540884E+04  0.50400001928E-02 0.  1.
    10030    2    1    2    0    0  0.00000000000E+00  0.00000000000E+00 -0.14094419666E+04  0.31586662102E+04  0.28267729959E+04 0.  0.
        4    1    3    3  502    0 -0.12640680288E+04  0.36130384392E+03 -0.12490293477E+03  0.13206100125E+04  0.12699999809E+01 0. -1.
       -4    1    3    3    0  502  0.12640680288E+04 -0.36130384392E+03 -0.12845390318E+04  0.18380561978E+04  0.12699999809E+01 0.  1.
</event>
<event>
 5   0  0.2404430E-06  0.3167144E+04  0.7818609E-02  0.8197549E-01
       -2   -1    0    0    0  501  0.00000000000E+00  0.00000000000E+00  0.12748879102E+04  0.12748879102E+04  0.25500000920E-02 0.  1.
        2   -1    0    0  501    0  0.00000000000E+00  0.00000000000E+00 -0.19669971215E+04  0.19669971215E+04  0.25500000920E-02 0. -1.
    10030    2    1    2    0    0  0.00000000000E+00  0.00000000000E+00 -0.69210921129E+03  0.32418850317E+04  0.31671443602E+04 0.  0.
        4    1    3    3  502    0  0.42477560052E+02 -0.15200329012E+04 -0.79852100326E+03  0.17175394521E+04  0.12699999809E+01 0. -1.
       -4    1    3    3    0  502 -0.42477560052E+02  0.15200329012E+04  0.10641179197E+03  0.15243455797E+04  0.12699999809E+01 0.  1.
</event>
<event>
 5   0  0.8545153E-07  0.2921727E+04  0.7818609E-02  0.8266442E-01
       -1   -1    0    0    0  501  0.00000000000E+00  0.00000000000E+00  0.10542967577E+04  0.10542967577E+04  0.50400001928E-02 0.  1.
        1   -1    0    0  501    0  0.00000000000E+00  0.00000000000E+00 -0.20242145069E+04  0.20242145069E+04  0.50400001928E-02 0. -1.
    10030    2    1    2    0    0  0.00000000000E+00  0.00000000000E+00 -0.96991774922E+03  0.30785112646E+04  0.29217274284E+04 0.  0.
        3    1    3    3  502    0  0.95823019693E+03  0.11023313241E+04 -0.45546910094E+03  0.15299645651E+04  0.10100000352E+00 0. -1.
       -3    1    3    3    0  502 -0.95823019693E+03 -0.11023313241E+04 -0.51444864828E+03  0.15485466994E+04  0.10100000352E+00 0.  1.
</event>
<event>
 5   0  0.2621528E-06  0.3172475E+04  0.7818609E-02  0.8196124E-01
       -2   -1    0    0    0  501  0.00000000000E+00  0.00000000000E+00  0.12804478090E+04  0.12804478090E+04  0.25500000920E-02 0.  1.
        2   -1    0    0  501    0  0.00000000000E+00  0.00000000000E+00 -0.19650546920E+04  0.19650546920E+04  0.25500000920E-02 0. -1.
    10030    2    1    2    0    0  0.00000000000E+00  0.00000000000E+00 -0.68460688309E+03  0.32455025010E+04  0.31724753584E+04 0.  0.
        2    1    3    3  502    0  0.77834612425E+03  0.81984742063E+03  0.79604480593E+03  0.13826278658E+04  0.25500000920E-02 0.  1.
       -2    1    3    3    0  502 -0.77834612425E+03 -0.81984742063E+03 -0.14806516890E+04  0.18628746352E+04  0.25500000920E-02 0. -1.
</event>
<event>
 5   0  0.2401139E-06  0.3219165E+04  0.7818609E-02  0.8183774E-01
       -2   -1    0    0    0  501  0.00000000000E+00  0.00000000000E+00  0.10712763114E+04  0.10712763114E+04  0.25500000920E-02 0.  1.
        2   -1    0    0  501    0  0.00000000000E+00  0.00000000000E+00 -0.24183826634E+04  0.24183826634E+04  0.25500000920E-02 0. -1.
    10030    2    1    2    0    0  0.00000000000E+00  0.00000000000E+00 -0.13471063519E+04  0.34896589748E+04  0.32191651460E+04 0.  0.
        5    1    3    3  502    0 -0.14940626501E+04 -0.36752548890E+03 -0.11859614015E+04  0.19426334506E+04  0.46999998093E+01 0. -1.
       -5    1    3    3    0  502  0.14940626501E+04  0.36752548890E+03 -0.16114495045E+03  0.15470255242E+04  0.46999998093E+01 0.  1.
</event>
<event>
 5   0  0.2466076E-06  0.3245693E+04  0.7818609E-02  0.8176853E-01
       -2   -1    0    0    0  501  0.00000000000E+00  0.00000000000E+00  0.14427412128E+04  0.14427412129E+04  0.25500000920E-02 0.  1.
        2   -1    0    0  501    0  0.00000000000E+00  0.00000000000E+00 -0.18254354600E+04  0.18254354600E+04  0.25500000920E-02 0. -1.
    10030    2    1    2    0    0  0.00000000000E+00  0.00000000000E+00 -0.38269424711E+03  0.32681766728E+04  0.32456931275E+04 0.  0.
        3    1    3    3  502    0 -0.11173580151E+04  0.58439399090E+03  0.83730955529E+03  0.15136355480E+04  0.10100000352E+00 0.  1.
       -3    1    3    3    0  502  0.11173580151E+04 -0.58439399090E+03 -0.12200038024E+04  0.17545411248E+04  0.10100000352E+00 0. -1.
</event>
<event>
 5   0  0.8487944E-07  0.3166339E+04  0.7818609E-02  0.8197764E-01
       -1   -1    0    0    0  501  0.00000000000E+00  0.00000000000E+00  0.12736065826E+04  0.12736065826E+04  0.50400001928E-02 0.  1.
        1   -1    0    0  501    0  0.00000000000E+00  0.00000000000E+00 -0.19679752318E+04  0.19679752318E+04  0.50400001928E-02 0. -1.
    10030    2    1    2    0    0  0.00000000000E+00  0.00000000000E+00 -0.69436864927E+03  0.32415818144E+04  0.31663393436E+04 0.  0.
        2    1    3    3  502    0 -0.11314101418E+04 -0.51105587452E+03  0.65858643615E+03  0.14053480387E+04  0.25500000920E-02 0.  1.
       -2    1    3    3    0  502  0.11314101418E+04  0.51105587452E+03 -0.13529550854E+04  0.18362337757E+04  0.25500000920E-02 0. -1.
</event>
<event>
 5   0  0.2466076E-06  0.3227833E+04  0.7818609E-02  0.8181505E-01
        2   -1    0    0  501    0  0.00000000000E+00  0.00000000000E+00  0.19296146161E+04  0.19296146161E+04  0.25500000920E-02 0.  1.
       -2   -1    0    0    0  501  0.00000000000E+00  0.00000000000E+00 -0.13498687459E+04  0.13498687459E+04  0.25500000920E-02 0. -1.
    10030    2    1    2    0    0  0.00000000000E+00  0.00000000000E+00  0.57974587018E+03  0.32794833619E+04  0.32278329956E+04 0.  0.
        3    1    3    3  502    0  0.55174736178E+03  0.14386155285E+04  0.77785697402E+03  0.17260073210E+04  0.10100000352E+00 0. -1.
       -3    1    3    3    0  502 -0.55174736178E+03 -0.14386155285E+04 -0.19811110384E+03  0.15534760409E+04  0.10100000352E+00 0.  1.
</event>
<event>
 5   0  0.8512855E-07  0.3320382E+04  0.7818609E-02  0.8157729E-01
        1   -1    0    0  501    0  0.00000000000E+00  0.00000000000E+00  0.17580077725E+04  0.17580077726E+04  0.50400001928E-02 0. -1.
       -1   -1    0    0    0  501  0.00000000000E+00  0.00000000000E+00 -0.15678166773E+04  0.15678166773E+04  0.50400001928E-02 0.  1.
    10030    2    1    2    0    0  0.00000000000E+00  0.00000000000E+00  0.19019109527E+03  0.33258244498E+04  0.33203818483E+04 0.  0.
        5    1    3    3  502    0  0.11784675735E+03 -0.49161639574E+01  0.17537990272E+04  0.17577670906E+04  0.46999998093E+01 0. -1.
       -5    1    3    3    0  502 -0.11784675735E+03  0.49161639574E+01 -0.15636079320E+04  0.15680573592E+04  0.46999998093E+01 0.  1.
</event>
<event>
 5   0  0.8545153E-07  0.3263053E+04  0.7818609E-02  0.8172361E-01
       -1   -1    0    0    0  501  0.00000000000E+00  0.00000000000E+00  0.14489762708E+04  0.14489762709E+04  0.50400001928E-02 0. -1.
        1   -1    0    0  501    0  0.00000000000E+00  0.00000000000E+00 -0.18370759131E+04  0.18370759132E+04  0.50400001928E-02 0.  1.
    10030    2    1    2    0    0  0.00000000000E+00  0.00000000000E+00 -0.38809964230E+03  0.32860521840E+04  0.32630534203E+04 0.  0.
        3    1    3    3  502    0 -0.14598785974E+04  0.61892935900E+03 -0.58089311615E+03  0.16887142722E+04  0.10100000352E+00 0.  1.
       -3    1    3    3    0  502  0.14598785974E+04 -0.61892935900E+03  0.19279347385E+03  0.15973379118E+04  0.10100000352E+00 0. -1.
</event>
<event>
 5   0  0.8383008E-07  0.3202293E+04  0.7818609E-02  0.8188212E-01
        1   -1    0    0  501    0  0.00000000000E+00  0.00000000000E+00  0.12786722751E+04  0.12786722751E+04  0.50400001928E-02 0. -1.
       -1   -1    0    0    0  501  0.00000000000E+00  0.00000000000E+00 -0.20049469227E+04  0.20049469228E+04  0.50400001928E-02 0.  1.
    10030    2    1    2    0    0  0.00000000000E+00  0.00000000000E+00 -0.72627464769E+03  0.32836191978E+04  0.32022929554E+04 0.  0.
        4    1    3    3  502    0  0.46870149278E+03 -0.15302930676E+04 -0.41112836831E+03  0.16524243130E+04  0.12699999809E+01 0.  1.
       -4    1    3    3    0  502 -0.46870149278E+03  0.15302930676E+04 -0.31514627938E+03  0.16311948848E+04  0.12699999809E+01 0. -1.
</event>
<event>
 5   0  0.2404430E-06  0.3166520E+04  0.7818609E-02  0.8197715E-01
       -2   -1    0    0    0  501  0.00000000000E+00  0.00000000000E+00  0.14190785300E+04  0.14190785300E+04  0.25500000920E-02 0. -1.
        2   -1    0    0  501    0  0.00000000000E+00  0.00000000000E+00 -0.17664370576E+04  0.17664370576E+04  0.25500000920E-02 0.  1.
    10030    2    1    2    0    0  0.00000000000E+00  0.00000000000E+00 -0.34735852766E+03  0.31855155876E+04  0.31665204266E+04 0.  0.
        4    1    3    3  502    0  0.22051062549E+03  0.96857773001E+02 -0.17479001424E+04  0.17644157347E+04  0.12699999809E+01 0.  1.
       -4    1    3    3    0  502 -0.22051062549E+03 -0.96857773001E+02  0.14005416148E+04  0.14210998528E+04  0.12699999809E+01 0. -1.
</event>
<event>
 5   0  0.8383008E-07  0.3185148E+04  0.7818609E-02  0.8192751E-01
       -1   -1    0    0    0  501  0.00000000000E+00  0.00000000000E+00  0.11227568900E+04  0.11227568900E+04  0.50400001928E-02 0. -1.
        1   -1    0    0  501    0  0.00000000000E+00  0.00000000000E+00 -0.22589856639E+04  0.22589856639E+04  0.50400001928E-02 0.  1.
    10030    2    1    2    0    0  0.00000000000E+00  0.00000000000E+00 -0.11362287740E+04  0.33817425539E+04  0.31851478575E+04 0.  0.
        4    1    3    3  502    0 -0.15024195544E+04 -0.28255461730E+03 -0.94262024992E+02  0.15316620291E+04  0.12699999809E+01 0.  1.
       -4    1    3    3    0  502  0.15024195544E+04  0.28255461730E+03 -0.10419667490E+04  0.18500805248E+04  0.12699999809E+01 0. -1.
</event>
<event>
 5   0  0.2401139E-06  0.3206336E+04  0.7818609E-02  0.8187146E-01
        2   -1    0    0  501    0  0.00000000000E+00  0.00000000000E+00  0.32178131010E+04  0.32178131010E+04  0.25500000920E-02 0.  1.
       -2   -1    0    0    0  501  0.00000000000E+00  0.00000000000E+00 -0.79872507724E+03  0.79872507725E+03  0.25500000920E-02 0. -1.
    10030    2    1    2    0    0  0.00000000000E+00  0.00000000000E+00  0.24190880237E+04  0.40165381782E+04  0.32063362379E+04 0.  0.
        5    1    3    3  502    0 -0.12793089818E+03  0.15898815173E+04  0.10074129368E+04  0.18865292123E+04  0.46999998093E+01 0. -1.
       -5    1    3    3    0  502  0.12793089818E+03 -0.15898815173E+04  0.14116750869E+04  0.21300089659E+04  0.46999998093E+01 0.  1.
</event>
<event>
 5   0  0.8545153E-07  0.3205400E+04  0.7818609E-02  0.8187393E-01
        1   -1    0    0  501    0  0.00000000000E+00  0.00000000000E+00  0.14685166163E+04  0.14685166163E+04  0.50400001928E-02 0.  1.
       -1   -1    0    0    0  501  0.00000000000E+00  0.00000000000E+00 -0.17491438001E+04  0.17491438001E+04  0.50400001928E-02 0. -1.
    10030    2    1    2    0    0  0.00000000000E+00  0.00000000000E+00 -0.28062718379E+03  0.32176604164E+04  0.32053996536E+04 0.  0.
        3    1    3    3  502    0  0.94633378230E+03 -0.79092559237E+03  0.88709326569E+03  0.15192252606E+04  0.10100000352E+00 0.  1.
       -3    1    3    3    0  502 -0.94633378230E+03  0.79092559237E+03 -0.11677204495E+04  0.16984351558E+04  0.10100000352E+00 0. -1.
</event>
<event>
 5   0  0.2621528E-06  0.2604581E+04  0.7818609E-02  0.8366647E-01
        2   -1    0    0  501    0  0.00000000000E+00  0.00000000000E+00  0.14559634043E+04  0.14559634043E+04  0.25500000920E-02 0.  1.
       -2   -1    0    0    0  501  0.00000000000E+00  0.00000000000E+00 -0.11648369996E+04  0.11648369996E+04  0.25500000920E-02 0. -1.
    10030    2    1    2    0    0  0.00000000000E+00  0.00000000000E+00  0.29112640469E+03  0.26208004039E+04  0.26045806138E+04 0.  0.
        2    1    3    3  502    0 -0.15449760902E+02 -0.46169220515E+03  0.13707506116E+04  0.14464977106E+04  0.25500000920E-02 0.  1.
       -2    1    3    3    0  502  0.15449760902E+02  0.46169220515E+03 -0.10796242069E+04  0.11743026934E+04  0.25500000920E-02 0. -1.
</event>
<event>
 5   0  0.2404430E-06  0.3181135E+04  0.7818609E-02  0.8193817E-01
       -2   -1    0    0    0  501  0.00000000000E+00  0.00000000000E+00  0.11835205562E+04  0.11835205562E+04  0.25500000920E-02 0.  1.
        2   -1    0    0  501    0  0.00000000000E+00  0.00000000000E+00 -0.21376089939E+04  0.21376089939E+04  0.25500000920E-02 0. -1.
    10030    2    1    2    0    0  0.00000000000E+00  0.00000000000E+00 -0.95408843772E+03  0.33211295501E+04  0.31811345054E+04 0.  0.
        4    1    3    3  502    0 -0.13254687819E+04  0.82864469388E+03 -0.17019992139E+03  0.15724150682E+04  0.12699999809E+01 0.  1.
       -4    1    3    3    0  502  0.13254687819E+04 -0.82864469388E+03 -0.78388851633E+03  0.17487144819E+04  0.12699999809E+01 0. -1.
</event>
<event>
 5   0  0.2621528E-06  0.3218016E+04  0.7818609E-02  0.8184075E-01
       -2   -1    0    0    0  501  0.00000000000E+00  0.00000000000E+00  0.27665404785E+04  0.27665404785E+04  0.25500000920E-02 0. -1.
        2   -1    0    0  501    0  0.00000000000E+00  0.00000000000E+00 -0.93579238814E+03  0.93579238815E+03  0.25500000920E-02 0.  1.
    10030    2    1    2    0    0  0.00000000000E+00  0.00000000000E+00  0.18307480904E+04  0.37023328666E+04  0.32180164830E+04 0.  0.
        2    1    3    3  502    0  0.81285557682E+03  0.13766881677E+04  0.70668238735E+03  0.17479715376E+04  0.25500000920E-02 0.  1.
       -2    1    3    3    0  502 -0.81285557682E+03 -0.13766881677E+04  0.11240657030E+04  0.19543613290E+04  0.25500000920E-02 0. -1.
</event>
<event>
 5   0  0.8383008E-07  0.3277015E+04  0.7818609E-02  0.8168769E-01
       -1   -1    0    0    0  501  0.00000000000E+00  0.00000000000E+00  0.29560560534E+04  0.29560560534E+04  0.50400001928E-02 0.  1.
        1   -1    0    0  501    0  0.00000000000E+00  0.00000000000E+00 -0.90820574287E+03  0.90820574288E+03  0.50400001928E-02 0. -1.
    10030    2    1    2    0    0  0.00000000000E+00  0.00000000000E+00  0.20478503105E+04  0.38642617963E+04  0.32770151565E+04 0.  0.
        4    1    3    3  502    0  0.16038666838E+04 -0.31515389677E+02  0.63048170412E+03  0.17236270917E+04  0.12699999809E+01 0.  1.
       -4    1    3    3    0  502 -0.16038666838E+04  0.31515389677E+02  0.14173686064E+04  0.21406347046E+04  0.12699999809E+01 0. -1.
</event>
<event>
 5   0  0.2401139E-06  0.3228878E+04  0.7818609E-02  0.8181232E-01
       -2   -1    0    0    0  501  0.00000000000E+00  0.00000000000E+00  0.18445065827E+04  0.18445065827E+04  0.25500000920E-02 0.  1.
        2   -1    0    0  501    0  0.00000000000E+00  0.00000000000E+00 -0.14130683392E+04  0.14130683392E+04  0.25500000920E-02 0. -1.
    10030    2    1    2    0    0  0.00000000000E+00  0.00000000000E+00  0.43143824349E+03  0.32575749219E+04  0.32288783523E+04 0.  0.
        5    1    3    3  502    0 -0.16570824345E+03 -0.16033594675E+04  0.30691585089E+03  0.16408656963E+04  0.46999998093E+01 0. -1.
       -5    1    3    3    0  502  0.16570824345E+03  0.16033594675E+04  0.12452239260E+03  0.16167092256E+04  0.46999998093E+01 0.  1.
</event>
<event>
 5   0  0.8487944E-07  0.3133592E+04  0.7818609E-02  0.8206579E-01
        1   -1    0    0  501    0  0.00000000000E+00  0.00000000000E+00  0.25913453231E+04  0.25913453231E+04  0.50400001928E-02 0.  1.
       -1   -1    0    0    0  501  0.00000000000E+00  0.00000000000E+00 -0.94732662633E+03  0.94732662635E+03  0.50400001928E-02 0. -1.
    10030    2    1    2    0    0  0.00000000000E+00  0.00000000000E+00  0.16440186968E+04  0.35386719494E+04  0.31335924576E+04 0.  0.
        2    1    3    3  502    0  0.15235753047E+04 -0.36453290821E+03  0.79246491080E+03  0.17556100322E+04  0.25500000920E-02 0. -1.
       -2    1    3    3    0  502 -0.15235753047E+04  0.36453290821E+03  0.85155378596E+03  0.17830619172E+04  0.25500000920E-02 0.  1.
</event>
<event>
 5   0  0.8681172E-07  0.3192224E+04  0.7818609E-02  0.8190874E-01
       -1   -1    0    0    0  501  0.00000000000E+00  0.00000000000E+00  0.11715174136E+04  0.11715174136E+04  0.50400001928E-02 0. -1.
        1   -1    0    0  501    0  0.00000000000E+00  0.00000000000E+00 -0.21745928004E+04  0.21745928004E+04  0.50400001928E-02 0.  1.
    10030    2    1    2    0    0  0.00000000000E+00  0.00000000000E+00 -0.10030753868E+04  0.33461102140E+04  0.31922238851E+04 0.  0.
        1    1    3    3  502    0 -0.41367220434E+03 -0.81090094427E+03 -0.18758034544E+04  0.20850236530E+04  0.50400001928E-02 0.  1.
       -1    1    3    3    0  502  0.41367220434E+03  0.81090094427E+03  0.87272806765E+03  0.12610865609E+04  0.50400001928E-02 0. -1.
</event>
<event>
 5   0  0.8512855E-07  0.3160492E+04  0.7818609E-02  0.8199330E-01
        1   -1    0    0  501    0  0.00000000000E+00  0.00000000000E+00  0.20914529008E+04  0.20914529008E+04  0.50400001928E-02 0. -1.
       -1   -1    0    0    0  501  0.00000000000E+00  0.00000000000E+00 -0.11939913746E+04  0.11939913746E+04  0.50400001928E-02 0.  1.
    10030    2    1    2    0    0  0.00000000000E+00  0.00000000000E+00  0.89746152617E+03  0.32854442754E+04  0.31604915592E+04 0.  0.
        5    1    3    3  502    0  0.74693757896E+03 -0.45084523893E+03 -0.92092525919E+03  0.12685829099E+04  0.46999998093E+01 0.  1.
       -5    1    3    3    0  502 -0.74693757896E+03  0.45084523893E+03  0.18183867854E+04  0.20168613655E+04  0.46999998093E+01 0. -1.
</event>
<event>
 5   0  0.8383008E-07  0.3213901E+04  0.7818609E-02  0.8185156E-01
        1   -1    0    0  501    0  0.00000000000E+00  0.00000000000E+00  0.10155594411E+04  0.10155594411E+04  0.50400001928E-02 0. -1.
       -1   -1    0    0    0  501  0.00000000000E+00  0.00000000000E+00 -0.25427263737E+04  0.25427263737E+04  0.50400001928E-02 0.  1.
    10030    2    1    2    0    0  0.00000000000E+00  0.00000000000E+00 -0.15271669326E+04  0.35582858149E+04  0.32139009164E+04 0.  0.
        4    1    3    3  502    0  0.15681533657E+04  0.28777572768E+03 -0.98603154209E+03  0.18746145371E+04  0.12699999809E+01 0. -1.
       -4    1    3    3    0  502 -0.15681533657E+04 -0.28777572768E+03 -0.54113539052E+03  0.16836712778E+04  0.12699999809E+01 0.  1.
</event>
<event>
 5   0  0.2337504E-06  0.3269175E+04  0.7818609E-02  0.8170783E-01
       -2   -1    0    0    0  501  0.00000000000E+00  0.00000000000E+00  0.22896214469E+04  0.22896214469E+04  0.25500000920E-02 0. -1.
        2   -1    0    0  501    0  0.00000000000E+00  0.00000000000E+00 -0.11669513595E+04  0.11669513595E+04  0.25500000920E-02 0.  1.
    10030    2    1    2    0    0  0.00000000000E+00  0.00000000000E+00  0.11226700875E+04  0.34565728064E+04  0.32691753457E+04 0.  0.
        1    1    3    3  502    0  0.13397084609E+04 -0.34271583824E+03  0.14828472714E+04  0.20275869738E+04  0.50400001928E-02 0. -1.
       -1    1    3    3    0  502 -0.13397084609E+04  0.34271583824E+03 -0.36017718396E+03  0.14289858326E+04  0.50400001928E-02 0.  1.
</event>
<event>
 5   0  0.8681172E-07  0.3197311E+04  0.7818609E-02  0.8189528E-01
       -1   -1    0    0    0  501  0.00000000000E+00  0.00000000000E+00  0.12607703776E+04  0.12607703776E+04  0.50400001928E-02 0.  1.
        1   -1    0    0  501    0  0.00000000000E+00  0.00000000000E+00 -0.20270939182E+04  0.20270939182E+04  0.50400001928E-02 0. -1.
    10030    2    1    2    0    0  0.00000000000E+00  0.00000000000E+00 -0.76632354065E+03  0.32878642958E+04  0.31973113484E+04 0.  0.
        1    1    3    3  502    0  0.93060779786E+03  0.93752439838E+02  0.95004421400E+03  0.13331933101E+04  0.50400001928E-02 0.  1.
       -1    1    3    3    0  502 -0.93060779786E+03 -0.93752439838E+02 -0.17163677546E+04  0.19546709858E+04  0.50400001928E-02 0. -1.
</event>
<event>
 5   0  0.2466076E-06  0.3186757E+04  0.7818609E-02  0.8192323E-01
        2   -1    0    0  501    0  0.00000000000E+00  0.00000000000E+00  0.16801880721E+04  0.16801880721E+04  0.25500000920E-02 0.  1.
       -2   -1    0    0    0  501  0.00000000000E+00  0.00000000000E+00 -0.15110538220E+04  0.15110538220E+04  0.25500000920E-02 0. -1.
    10030    2    1    2    0    0  0.00000000000E+00  0.00000000000E+00  0.16913425005E+03  0.31912418941E+04  0.31867567263E+04 0.  0.
        3    1    3    3  502    0  0.14285684008E+04 -0.29433653085E+03 -0.55775041444E+03  0.15615784335E+04  0.10100000352E+00 0. -1.
       -3    1    3    3    0  502 -0.14285684008E+04  0.29433653085E+03  0.72688466449E+03  0.16296634606E+04  0.10100000352E+00 0.  1.
</event>
<event>
 5   0  0.2337504E-06  0.3195230E+04  0.7818609E-02  0.8190078E-01
        2   -1    0    0  501    0  0.00000000000E+00  0.00000000000E+00  0.26676937485E+04  0.26676937485E+04  0.25500000920E-02 0.  1.
       -2   -1    0    0    0  501  0.00000000000E+00  0.00000000000E+00 -0.95677167544E+03  0.95677167545E+03  0.25500000920E-02 0. -1.
    10030    2    1    2    0    0  0.00000000000E+00  0.00000000000E+00  0.17109220731E+04  0.36244654240E+04  0.31952300808E+04 0.  0.
        1    1    3    3  502    0 -0.12874954792E+04 -0.59982716710E+03  0.25814752128E+02  0.14205997469E+04  0.50400001928E-02 0. -1.
       -1    1    3    3    0  502  0.12874954792E+04  0.59982716710E+03  0.16851073209E+04  0.22038656771E+04  0.50400001928E-02 0.  1.
</event>
<event>
 5   0  0.2337504E-06  0.3203538E+04  0.7818609E-02  0.8187884E-01
        2   -1    0    0  501    0  0.00000000000E+00  0.00000000000E+00  0.15727386231E+04  0.15727386232E+04  0.25500000920E-02 0. -1.
       -2   -1    0    0    0  501  0.00000000000E+00  0.00000000000E+00 -0.16313349214E+04  0.16313349214E+04  0.25500000920E-02 0.  1.
    10030    2    1    2    0    0  0.00000000000E+00  0.00000000000E+00 -0.58596298207E+02  0.32040735445E+04  0.32035376933E+04 0.  0.
        1    1    3    3  502    0  0.29056255219E+03  0.39406611804E+03 -0.15546593907E+04  0.16299326744E+04  0.50400001928E-02 0.  1.
       -1    1    3    3    0  502 -0.29056255219E+03 -0.39406611804E+03  0.14960630925E+04  0.15741408701E+04  0.50400001928E-02 0. -1.
</event>
<event>
 5   0  0.2401139E-06  0.3214916E+04  0.7818609E-02  0.8184889E-01
        2   -1    0    0  501    0  0.00000000000E+00  0.00000000000E+00  0.24691121108E+04  0.24691121108E+04  0.25500000920E-02 0. -1.
       -2   -1    0    0    0  501  0.00000000000E+00  0.00000000000E+00 -0.10464978724E+04  0.10464978724E+04  0.25500000920E-02 0.  1.
    10030    2    1    2    0    0  0.00000000000E+00  0.00000000000E+00  0.14226142384E+04  0.35156099832E+04  0.32149155949E+04 0.  0.
        5    1    3    3  502    0 -0.45415849069E+03  0.56186872282E+03 -0.85894484395E+03  0.11223924141E+04  0.46999998093E+01 0.  1.
       -5    1    3    3    0  502  0.45415849069E+03 -0.56186872282E+03  0.22815590824E+04  0.23932175690E+04  0.46999998093E+01 0. -1.
</event>
<event>
 5   0  0.8512855E-07  0.3252392E+04  0.7818609E-02  0.8175116E-01
       -1   -1    0    0    0  501  0.00000000000E+00  0.00000000000E+00  0.12246915035E+04  0.12246915035E+04  0.50400001928E-02 0.  1.
        1   -1    0    0  501    0  0.00000000000E+00  0.00000000000E+00 -0.21593308093E+04  0.21593308093E+04  0.50400001928E-02 0. -1.
    10030    2    1    2    0    0  0.00000000000E+00  0.00000000000E+00 -0.93463930584E+03  0.33840223128E+04  0.32523924090E+04 0.  0.
        5    1    3    3  502    0  0.32680078200E+02 -0.16218261457E+04 -0.34821417388E+03  0.16591151965E+04  0.46999998093E+01 0.  1.
       -5    1    3    3    0  502 -0.32680078200E+02  0.16218261457E+04 -0.58642513196E+03  0.17249071163E+04  0.46999998093E+01 0. -1.
</event>
<event>
 5   0  0.2466076E-06  0.3206983E+04  0.7818609E-02  0.8186976E-01
       -2   -1    0    0    0  501  0.00000000000E+00  0.00000000000E+00  0.15345315264E+04  0.15345315264E+04  0.25500000920E-02 0. -1.
        2   -1    0    0  501    0  0.00000000000E+00  0.00000000000E+00 -0.16755500432E+04  0.16755500432E+04  0.25500000920E-02 0.  1.
    10030    2    1    2    0    0  0.00000000000E+00  0.00000000000E+00 -0.14101851676E+03  0.32100815696E+04  0.32069826101E+04 0.  0.
        3    1    3    3  502    0 -0.94429481386E+03 -0.98493044570E+03 -0.91358419924E+03  0.16420769707E+04  0.10100000352E+00 0.  1.
       -3    1    3    3    0  502  0.94429481386E+03  0.98493044570E+03  0.77256568248E+03  0.15680045989E+04  0.10100000352E+00 0. -1.
</event>
<event>
 5   0  0.8487944E-07  0.3180254E+04  0.7818609E-02  0.8194052E-01
       -1   -1    0    0    0  501  0.00000000000E+00  0.00000000000E+00  0.19652186429E+04  0.19652186429E+04  0.50400001928E-02 0.  1.
        1   -1    0    0  501    0  0.00000000000E+00  0.00000000000E+00 -0.12866272093E+04  0.12866272094E+04  0.50400001928E-02 0. -1.
    10030    2    1    2    0    0  0.00000000000E+00  0.00000000000E+00  0.67859143357E+03  0.32518458523E+04  0.31802539385E+04 0.  0.
        2    1    3    3  502    0 -0.29170355825E+03 -0.23763986985E+03 -0.12404562767E+04  0.12962621062E+04  0.25500000920E-02 0. -1.
       -2    1    3    3    0  502  0.29170355825E+03  0.23763986985E+03  0.19190477102E+04  0.19555837461E+04  0.25500000920E-02 0.  1.
</event>
<event>
 5   0  0.8681172E-07  0.3195627E+04  0.7818609E-02  0.8189973E-01
       -1   -1    0    0    0  501  0.00000000000E+00  0.00000000000E+00  0.12494566035E+04  0.12494566035E+04  0.50400001928E-02 0.  1.
        1   -1    0    0  501    0  0.00000000000E+00  0.00000000000E+00 -0.20432947749E+04  0.20432947749E+04  0.50400001928E-02 0. -1.
    10030    2    1    2    0    0  0.00000000000E+00  0.00000000000E+00 -0.79383817140E+03  0.32927513784E+04  0.31956271055E+04 0.  0.
        1    1    3    3  502    0 -0.15918253626E+04  0.13794723704E+03 -0.38825373702E+03  0.16442865899E+04  0.50400001928E-02 0. -1.
       -1    1    3    3    0  502  0.15918253626E+04 -0.13794723704E+03 -0.40558443438E+03  0.16484647885E+04  0.50400001928E-02 0.  1.
</event>
<event>
 5   0  0.8545153E-07  0.3247447E+04  0.7818609E-02  0.8176398E-01
        1   -1    0    0  501    0  0.00000000000E+00  0.00000000000E+00  0.25725494143E+04  0.25725494143E+04  0.50400001928E-02 0. -1.
       -1   -1    0    0    0  501  0.00000000000E+00  0.00000000000E+00 -0.10248503931E+04  0.10248503931E+04  0.50400001928E-02 0.  1.
    10030    2    1    2    0    0  0.00000000000E+00  0.00000000000E+00  0.15476990212E+04  0.35973998074E+04  0.32474471688E+04 0.  0.
        3    1    3    3  502    0 -0.96851376816E+03 -0.13431500061E+02 -0.66976462232E+03  0.11776179278E+04  0.10100000352E+00 0.  1.
       -3    1    3    3    0  502  0.96851376816E+03  0.13431500061E+02  0.22174636435E+04  0.24197818796E+04  0.10100000352E+00 0. -1.
</event>
<event>
 5   0  0.8545153E-07  0.2671265E+04  0.7818609E-02  0.8344389E-01
        1   -1    0    0  501    0  0.00000000000E+00  0.00000000000E+00  0.14208845188E+04  0.14208845188E+04  0.50400001928E-02 0. -1.
       -1   -1    0    0    0  501  0.00000000000E+00  0.00000000000E+00 -0.12554955578E+04  0.12554955578E+04  0.50400001928E-02 0.  1.
    10030    2    1    2    0    0  0.00000000000E+00  0.00000000000E+00  0.16538896101E+03  0.26763800767E+04  0.26712650199E+04 0.  0.
        3    1    3    3  502    0  0.38566737275E+03  0.80858454893E+01 -0.11984680556E+04  0.12590196161E+04  0.10100000352E+00 0.  1.
       -3    1    3    3    0  502 -0.38566737275E+03 -0.80858454893E+01  0.13638570166E+04  0.14173604606E+04  0.10100000352E+00 0. -1.
</event>
<event>
 5   0  0.2621528E-06  0.3214013E+04  0.7818609E-02  0.8185126E-01
       -2   -1    0    0    0  501  0.00000000000E+00  0.00000000000E+00  0.11002553465E+04  0.11002553465E+04  0.25500000920E-02 0.  1.
        2   -1    0    0  501    0  0.00000000000E+00  0.00000000000E+00 -0.23471551293E+04  0.23471551293E+04  0.25500000920E-02 0. -1.
    10030    2    1    2    0    0  0.00000000000E+00  0.00000000000E+00 -0.12468997827E+04  0.34474104758E+04  0.32140130554E+04 0.  0.
        2    1    3    3  502    0 -0.12126344875E+04  0.99172890867E+03 -0.23900720449E+03  0.15846555059E+04  0.25500000920E-02 0.  1.
       -2    1    3    3    0  502  0.12126344875E+04 -0.99172890867E+03 -0.10078925783E+04  0.18627549699E+04  0.25500000920E-02 0. -1.
</event>
<event>
 5   0  0.8512855E-07  0.3120000E+04  0.7818609E-02  0.8210271E-01
       -1   -1    0    0    0  501  0.00000000000E+00  0.00000000000E+00  0.99455976735E+03  0.99455976736E+03  0.50400001928E-02 0. -1.
        1   -1    0    0  501    0  0.00000000000E+00  0.00000000000E+00 -0.24469113313E+04  0.24469113313E+04  0.50400001928E-02 0.  1.
    10030    2    1    2    0    0  0.00000000000E+00  0.00000000000E+00 -0.14523515639E+04  0.34414710986E+04  0.31199997208E+04 0.  0.
        5    1    3    3  502    0 -0.67882701932E+03  0.42408563263E+03 -0.22031413059E+04  0.23440367850E+04  0.46999998093E+01 0.  1.
       -5    1    3    3    0  502  0.67882701932E+03 -0.42408563263E+03  0.75078974198E+03  0.10974343136E+04  0.46999998093E+01 0. -1.
</event>
<event>
 5   0  0.2401139E-06  0.3183625E+04  0.7818609E-02  0.8193155E-01
        2   -1    0    0  501    0  0.00000000000E+00  0.00000000000E+00  0.18293891639E+04  0.18293891639E+04  0.25500000920E-02 0.  1.
       -2   -1    0    0    0  501  0.00000000000E+00  0.00000000000E+00 -0.13850894263E+04  0.13850894263E+04  0.25500000920E-02 0. -1.
    10030    2    1    2    0    0  0.00000000000E+00  0.00000000000E+00  0.44429973762E+03  0.32144785902E+04  0.31836253470E+04 0.  0.
        5    1    3    3  502    0 -0.28027433693E+02 -0.25651522637E+03  0.18081237610E+04  0.18264498963E+04  0.46999998093E+01 0.  1.
       -5    1    3    3    0  502  0.28027433693E+02  0.25651522637E+03 -0.13638240234E+04  0.13880286939E+04  0.46999998093E+01 0. -1.
</event>
<event>
 5   0  0.8487944E-07  0.3123734E+04  0.7818609E-02  0.8209254E-01
        1   -1    0    0  501    0  0.00000000000E+00  0.00000000000E+00  0.18333826366E+04  0.18333826366E+04  0.50400001928E-02 0. -1.
       -1   -1    0    0    0  501  0.00000000000E+00  0.00000000000E+00 -0.13305618305E+04  0.13305618306E+04  0.50400001928E-02 0.  1.
    10030    2    1    2    0    0  0.00000000000E+00  0.00000000000E+00  0.50282080605E+03  0.31639444672E+04  0.31237342762E+04 0.  0.
        2    1    3    3  502    0 -0.83232479093E+02 -0.35278585533E+03  0.17901912057E+04  0.18265185622E+04  0.25500000920E-02 0. -1.
       -2    1    3    3    0  502  0.83232479093E+02  0.35278585533E+03 -0.12873703996E+04  0.13374259049E+04  0.25500000920E-02 0.  1.
</event>
<event>
 5   0  0.8487944E-07  0.3247957E+04  0.7818609E-02  0.8176265E-01
        1   -1    0    0  501    0  0.00000000000E+00  0.00000000000E+00  0.19211656110E+04  0.19211656110E+04  0.50400001928E-02 0.  1.
       -1   -1    0    0    0  501  0.00000000000E+00  0.00000000000E+00 -0.13727635276E+04  0.13727635276E+04  0.50400001928E-02 0. -1.
    10030    2    1    2    0    0  0.00000000000E+00  0.00000000000E+00  0.54840208345E+03  0.32939291386E+04  0.32479569463E+04 0.  0.
        2    1    3    3  502    0  0.53409171730E+03  0.91225061261E+03 -0.97607090389E+03  0.14388083792E+04  0.25500000920E-02 0. -1.
       -2    1    3    3    0  502 -0.53409171730E+03 -0.91225061261E+03  0.15244729873E+04  0.18551207594E+04  0.25500000920E-02 0.  1.
</event>
<event>
 5   0  0.8681172E-07  0.3191844E+04  0.7818609E-02  0.8190974E-01
       -1   -1    0    0    0  501  0.00000000000E+00  0.00000000000E+00  0.16746640259E+04  0.16746640259E+04  0.50400001928E-02 0. -1.
        1   -1    0    0  501    0  0.00000000000E+00  0.00000000000E+00 -0.15208823464E+04  0.15208823464E+04  0.50400001928E-02 0.  1.
    10030    2    1    2    0    0  0.00000000000E+00  0.00000000000E+00  0.15378167952E+03  0.31955463724E+04  0.31918439518E+04 0.  0.
        1    1    3    3  502    0  0.73538275189E+03 -0.99550782740E+03  0.10856027660E+04  0.16463161882E+04  0.50400001928E-02 0. -1.
       -1    1    3    3    0  502 -0.73538275189E+03  0.99550782740E+03 -0.93182108644E+03  0.15492301841E+04  0.50400001928E-02 0.  1.
</event>
<event>
 5   0  0.8487944E-07  0.3033277E+04  0.7818609E-02  0.8234292E-01
       -1   -1    0    0    0  501  0.00000000000E+00  0.00000000000E+00  0.14878766511E+04  0.14878766512E+04  0.50400001928E-02 0. -1.
        1   -1    0    0  501    0  0.00000000000E+00  0.00000000000E+00 -0.15459562433E+04  0.15459562434E+04  0.50400001928E-02 0.  1.
    10030    2    1    2    0    0  0.00000000000E+00  0.00000000000E+00 -0.58079592197E+02  0.30338328945E+04  0.30332769067E+04 0.  0.
        2    1    3    3  502    0  0.27875281699E+03 -0.75721384054E+03  0.12553748073E+04  0.14923276584E+04  0.25500000920E-02 0. -1.
       -2    1    3    3    0  502 -0.27875281699E+03  0.75721384054E+03 -0.13134543995E+04  0.15415052361E+04  0.25500000920E-02 0.  1.
</event>
<event>
 5   0  0.2337504E-06  0.3161794E+04  0.7818609E-02  0.8198981E-01
       -2   -1    0    0    0  501  0.00000000000E+00  0.00000000000E+00  0.12080242297E+04  0.12080242297E+04  0.25500000920E-02 0. -1.
        2   -1    0    0  501    0  0.00000000000E+00  0.00000000000E+00 -0.20688614591E+04  0.20688614591E+04  0.25500000920E-02 0.  1.
    10030    2    1    2    0    0  0.00000000000E+00  0.00000000000E+00 -0.86083722944E+03  0.32768856888E+04  0.31617936495E+04 0.  0.
        1    1    3    3  502    0  0.81131715625E+03  0.13568206642E+04 -0.42412060621E+03  0.16367883588E+04  0.50400001928E-02 0. -1.
       -1    1    3    3    0  502 -0.81131715625E+03 -0.13568206642E+04 -0.43671662323E+03  0.16400973300E+04  0.50400001928E-02 0.  1.
</event>
<event>
 5   0  0.2337504E-06  0.3151384E+04  0.7818609E-02  0.8201776E-01
       -2   -1    0    0    0  501  0.00000000000E+00  0.00000000000E+00  0.10334458837E+04  0.10334458837E+04  0.25500000920E-02 0. -1.
        2   -1    0    0  501    0  0.00000000000E+00  0.00000000000E+00 -0.24024533476E+04  0.24024533476E+04  0.25500000920E-02 0.  1.
    10030    2    1    2    0    0  0.00000000000E+00  0.00000000000E+00 -0.13690074639E+04  0.34358992313E+04  0.31513841548E+04 0.  0.
        1    1    3    3  502    0 -0.81330829870E+03  0.67775449506E+03  0.58790039973E+03  0.12109700345E+04  0.50400001928E-02 0. -1.
       -1    1    3    3    0  502  0.81330829870E+03 -0.67775449506E+03 -0.19569078636E+04  0.22249291968E+04  0.50400001928E-02 0.  1.
</event>
<event>
 5   0  0.8383008E-07  0.3211081E+04  0.7818609E-02  0.8185897E-01
       -1   -1    0    0    0  501  0.00000000000E+00  0.00000000000E+00  0.13143815643E+04  0.13143815643E+04  0.50400001928E-02 0. -1.
        1   -1    0    0  501    0  0.00000000000E+00  0.00000000000E+00 -0.19611957669E+04  0.19611957669E+04  0.50400001928E-02 0.  1.
    10030    2    1    2    0    0  0.00000000000E+00  0.00000000000E+00 -0.64681420263E+03  0.32755773312E+04  0.32110805409E+04 0.  0.
        4    1    3    3  502    0 -0.96135181602E+03  0.12858706792E+04 -0.33346564741E+03  0.16397748836E+04  0.12699999809E+01 0. -1.
       -4    1    3    3    0  502  0.96135181602E+03 -0.12858706792E+04 -0.31334855521E+03  0.16358024477E+04  0.12699999809E+01 0.  1.
</event>
<event>
 5   0  0.2401139E-06  0.3137681E+04  0.7818609E-02  0.8205472E-01
        2   -1    0    0  501    0  0.00000000000E+00  0.00000000000E+00  0.19800644548E+04  0.19800644548E+04  0.25500000920E-02 0.  1.
       -2   -1    0    0    0  501  0.00000000000E+00  0.00000000000E+00 -0.12430203683E+04  0.12430203683E+04  0.25500000920E-02 0. -1.
    10030    2    1    2    0    0  0.00000000000E+00  0.00000000000E+00  0.73704408646E+03  0.32230848232E+04  0.31376809576E+04 0.  0.
        5    1    3    3  502    0 -0.15043016046E+04 -0.44499104818E+03  0.38625481311E+03  0.16155974811E+04  0.46999998093E+01 0.  1.
       -5    1    3    3    0  502  0.15043016046E+04  0.44499104818E+03  0.35078927335E+03  0.16074873420E+04  0.46999998093E+01 0. -1.
</event>
<event>
 5   0  0.8512855E-07  0.3219031E+04  0.7818609E-02  0.8183809E-01
        1   -1    0    0  501    0  0.00000000000E+00  0.00000000000E+00  0.20171394453E+04  0.20171394453E+04  0.50400001928E-02 0. -1.
       -1   -1    0    0    0  501  0.00000000000E+00  0.00000000000E+00 -0.12842641474E+04  0.12842641474E+04  0.50400001928E-02 0.  1.
    10030    2    1    2    0    0  0.00000000000E+00  0.00000000000E+00  0.73287529786E+03  0.33014035927E+04  0.32190308293E+04 0.  0.
        5    1    3    3  502    0 -0.54728074258E+03  0.43828482892E+03  0.18522712748E+04  0.19805405242E+04  0.46999998093E+01 0. -1.
       -5    1    3    3    0  502  0.54728074258E+03 -0.43828482892E+03 -0.11193959770E+04  0.13208630685E+04  0.46999998093E+01 0.  1.
</event>
<event>
 5   0  0.8487944E-07  0.3165571E+04  0.7818609E-02  0.8197969E-01
        1   -1    0    0  501    0  0.00000000000E+00  0.00000000000E+00  0.24271573091E+04  0.24271573091E+04  0.50400001928E-02 0. -1.
       -1   -1    0    0    0  501  0.00000000000E+00  0.00000000000E+00 -0.10321580686E+04  0.10321580686E+04  0.50400001928E-02 0.  1.
    10030    2    1    2    0    0  0.00000000000E+00  0.00000000000E+00  0.13949992405E+04  0.34593153777E+04  0.31655710387E+04 0.  0.
        2    1    3    3  502    0 -0.64747924046E+03  0.78217242116E+03 -0.62932760028E+03  0.11946029850E+04  0.25500000920E-02 0.  1.
       -2    1    3    3    0  502  0.64747924046E+03 -0.78217242116E+03  0.20243268408E+04  0.22647123927E+04  0.25500000920E-02 0. -1.
</event>
<event>
 5   0  0.2401139E-06  0.3173309E+04  0.7818609E-02  0.8195902E-01
        2   -1    0    0  501    0  0.00000000000E+00  0.00000000000E+00  0.22672511751E+04  0.22672511751E+04  0.25500000920E-02 0. -1.
       -2   -1    0    0    0  501  0.00000000000E+00  0.00000000000E+00 -0.11103634914E+04  0.11103634914E+04  0.25500000920E-02 0.  1.
    10030    2    1    2    0    0  0.00000000000E+00  0.00000000000E+00  0.11568876837E+04  0.33776146665E+04  0.31733092699E+04 0.  0.
        5    1    3    3  502    0 -0.67713756952E+03 -0.20814563815E+03 -0.93268347156E+03  0.11712217736E+04  0.46999998093E+01 0.  1.
       -5    1    3    3    0  502  0.67713756952E+03  0.20814563815E+03  0.20895711553E+04  0.22063928929E+04  0.46999998093E+01 0. -1.
</event>
<event>
 5   0  0.2337504E-06  0.3148170E+04  0.7818609E-02  0.8202641E-01
        2   -1    0    0  501    0  0.00000000000E+00  0.00000000000E+00  0.20178175092E+04  0.20178175092E+04  0.25500000920E-02 0.  1.
       -2   -1    0    0    0  501  0.00000000000E+00  0.00000000000E+00 -0.12279326823E+04  0.12279326823E+04  0.25500000920E-02 0. -1.
    10030    2    1    2    0    0  0.00000000000E+00  0.00000000000E+00  0.78988482691E+03  0.32457501915E+04  0.31481703045E+04 0.  0.
        1    1    3    3  502    0 -0.32691647512E+03 -0.55491560338E+03  0.18757546650E+04  0.19832451366E+04  0.50400001928E-02 0.  1.
       -1    1    3    3    0  502  0.32691647512E+03  0.55491560338E+03 -0.10858698381E+04  0.12625050550E+04  0.50400001928E-02 0. -1.
</event>
<event>
 5   0  0.8487944E-07  0.3186012E+04  0.7818609E-02  0.8192521E-01
        1   -1    0    0  501    0  0.00000000000E+00  0.00000000000E+00  0.28201438687E+04  0.28201438687E+04  0.50400001928E-02 0. -1.
       -1   -1    0    0    0  501  0.00000000000E+00  0.00000000000E+00 -0.89983629168E+03  0.89983629169E+03  0.50400001928E-02 0.  1.
    10030    2    1    2    0    0  0.00000000000E+00  0.00000000000E+00  0.19203075770E+04  0.37199801604E+04  0.31860118021E+04 0.  0.
        2    1    3    3  502    0 -0.11433010652E+03  0.29599649940E+03  0.27828716469E+04  0.28009034086E+04  0.25500000920E-02 0. -1.
       -2    1    3    3    0  502  0.11433010652E+03 -0.29599649940E+03 -0.86256406994E+03  0.91907675178E+03  0.25500000920E-02 0.  1.
</event>
<event>
 5   0  0.7934375E-07  0.3242934E+04  0.7818609E-02  0.8177570E-01
       -3   -1    0    0    0  501  0.00000000000E+00  0.00000000000E+00  0.21704627157E+04  0.21704627180E+04  0.10100000352E+00 0. -1.
        3   -1    0    0  501    0  0.00000000000E+00  0.00000000000E+00 -0.12113339688E+04  0.12113339730E+04  0.10100000352E+00 0.  1.
    10030    2    1    2    0    0  0.00000000000E+00  0.00000000000E+00  0.95912874684E+03  0.33817966911E+04  0.32429339967E+04 0.  0.
        2    1    3    3  502    0 -0.15245206942E+04  0.50477316461E+03  0.24592628427E+03  0.16246350458E+04  0.25500000920E-02 0.  1.
       -2    1    3    3    0  502  0.15245206942E+04 -0.50477316461E+03  0.71320246257E+03  0.17571616452E+04  0.25500000920E-02 0. -1.
</event>
<event>
 5   0  0.8545153E-07  0.3184566E+04  0.7818609E-02  0.8192905E-01
        1   -1    0    0  501    0  0.00000000000E+00  0.00000000000E+00  0.17618845564E+04  0.17618845564E+04  0.50400001928E-02 0.  1.
       -1   -1    0    0    0  501  0.00000000000E+00  0.00000000000E+00 -0.14390079073E+04  0.14390079073E+04  0.50400001928E-02 0. -1.
    10030    2    1    2    0    0  0.00000000000E+00  0.00000000000E+00  0.32287664909E+03  0.32008924638E+04  0.31845664123E+04 0.  0.
        3    1    3    3  502    0  0.87970926928E+03 -0.12361833245E+04 -0.32407860505E+03  0.15514717408E+04  0.10100000352E+00 0. -1.
       -3    1    3    3    0  502 -0.87970926928E+03  0.12361833245E+04  0.64695525414E+03  0.16494207229E+04  0.10100000352E+00 0.  1.
</event>
<event>
 5   0  0.8545153E-07  0.3056719E+04  0.7818609E-02  0.8227717E-01
        1   -1    0    0  501    0  0.00000000000E+00  0.00000000000E+00  0.27384353998E+04  0.27384353998E+04  0.50400001928E-02 0.  1.
       -1   -1    0    0    0  501  0.00000000000E+00  0.00000000000E+00 -0.85299889761E+03  0.85299889762E+03  0.50400001928E-02 0. -1.
    10030    2    1    2    0    0  0.00000000000E+00  0.00000000000E+00  0.18854365022E+04  0.35914342974E+04  0.30567187488E+04 0.  0.
        3    1    3    3  502    0 -0.92514585818E+03 -0.41341025335E+03  0.22870159371E+04  0.25014485410E+04  0.10100000352E+00 0.  1.
       -3    1    3    3    0  502  0.92514585818E+03  0.41341025335E+03 -0.40157943491E+03  0.10899857564E+04  0.10100000352E+00 0. -1.
</event>
<event>
 5   0  0.8512855E-07  0.3234234E+04  0.7818609E-02  0.8179834E-01
        1   -1    0    0  501    0  0.00000000000E+00  0.00000000000E+00  0.13569853630E+04  0.13569853630E+04  0.50400001928E-02 0.  1.
       -1   -1    0    0    0  501  0.00000000000E+00  0.00000000000E+00 -0.19271153790E+04  0.19271153791E+04  0.50400001928E-02 0. -1.
    10030    2    1    2    0    0  0.00000000000E+00  0.00000000000E+00 -0.57013001603E+03  0.32841007421E+04  0.32342339818E+04 0.  0.
        5    1    3    3  502    0 -0.11102452561E+03  0.16868290075E+03  0.13441246821E+04  0.13592180169E+04  0.46999998093E+01 0.  1.
       -5    1    3    3    0  502  0.11102452561E+03 -0.16868290075E+03 -0.19142546982E+04  0.19248827252E+04  0.46999998093E+01 0. -1.
</event>
<event>
 5   0  0.8383008E-07  0.3216559E+04  0.7818609E-02  0.8184458E-01
        1   -1    0    0  501    0  0.00000000000E+00  0.00000000000E+00  0.92275826070E+03  0.92275826071E+03  0.50400001928E-02 0.  1.
       -1   -1    0    0    0  501  0.00000000000E+00  0.00000000000E+00 -0.28030771254E+04  0.28030771254E+04  0.50400001928E-02 0. -1.
    10030    2    1    2    0    0  0.00000000000E+00  0.00000000000E+00 -0.18803188647E+04  0.37258353861E+04  0.32165587654E+04 0.  0.
        4    1    3    3  502    0  0.98961743170E+03 -0.65620773434E+03 -0.21966186206E+04  0.24970154643E+04  0.12699999809E+01 0. -1.
       -4    1    3    3    0  502 -0.98961743170E+03  0.65620773434E+03  0.31629975590E+03  0.12288199218E+04  0.12699999809E+01 0.  1.
</event>
<event>
 5   0  0.8512855E-07  0.3188414E+04  0.7818609E-02  0.8191884E-01
        1   -1    0    0  501    0  0.00000000000E+00  0.00000000000E+00  0.22672708653E+04  0.22672708653E+04  0.50400001928E-02 0. -1.
       -1   -1    0    0    0  501  0.00000000000E+00  0.00000000000E+00 -0.11209492028E+04  0.11209492028E+04  0.50400001928E-02 0.  1.
    10030    2    1    2    0    0  0.00000000000E+00  0.00000000000E+00  0.11463216624E+04  0.33882200681E+04  0.31884136928E+04 0.  0.
        5    1    3    3  502    0  0.89061118247E+03 -0.67859677100E+03 -0.63276257845E+03  0.12861152463E+04  0.46999998093E+01 0.  1.
       -5    1    3    3    0  502 -0.89061118247E+03  0.67859677100E+03  0.17790842409E+04  0.21021048219E+04  0.46999998093E+01 0. -1.
</event>
<event>
 5   0  0.2404430E-06  0.3215982E+04  0.7818609E-02  0.8184609E-01
       -2   -1    0    0    0  501  0.00000000000E+00  0.00000000000E+00  0.14408763091E+04  0.14408763091E+04  0.25500000920E-02 0.  1.
        2   -1    0    0  501    0  0.00000000000E+00  0.00000000000E+00 -0.17944876609E+04  0.17944876609E+04  0.25500000920E-02 0. -1.
    10030    2    1    2    0    0  0.00000000000E+00  0.00000000000E+00 -0.35361135179E+03  0.32353639699E+04  0.32159818143E+04 0.  0.
        4    1    3    3  502    0 -0.17642754101E+03  0.15215910717E+04 -0.66890303382E+03  0.16714661074E+04  0.12699999809E+01 0. -1.
       -4    1    3    3    0  502  0.17642754101E+03 -0.15215910717E+04  0.31529168203E+03  0.15638978625E+04  0.12699999809E+01 0.  1.
</event>
<event>
 5   0  0.8512855E-07  0.3218211E+04  0.7818609E-02  0.8184024E-01
        1   -1    0    0  501    0  0.00000000000E+00  0.00000000000E+00  0.22007809066E+04  0.22007809066E+04  0.50400001928E-02 0. -1.
       -1   -1    0    0    0  501  0.00000000000E+00  0.00000000000E+00 -0.11765010028E+04  0.11765010028E+04  0.50400001928E-02 0.  1.
    10030    2    1    2    0    0  0.00000000000E+00  0.00000000000E+00  0.10242799038E+04  0.33772819095E+04  0.32182112694E+04 0.  0.
        5    1    3    3  502    0  0.53223201719E+03 -0.27685977562E+03  0.20790163576E+04  0.21638515108E+04  0.46999998093E+01 0. -1.
       -5    1    3    3    0  502 -0.53223201719E+03  0.27685977562E+03 -0.10547364538E+04  0.12134303987E+04  0.46999998093E+01 0.  1.
</event>
<event>
 5   0  0.2466076E-06  0.3245044E+04  0.7818609E-02  0.8177022E-01
       -2   -1    0    0    0  501  0.00000000000E+00  0.00000000000E+00  0.11044893952E+04  0.11044893953E+04  0.25500000920E-02 0.  1.
        2   -1    0    0  501    0  0.00000000000E+00  0.00000000000E+00 -0.23835239167E+04  0.23835239167E+04  0.25500000920E-02 0. -1.
    10030    2    1    2    0    0  0.00000000000E+00  0.00000000000E+00 -0.12790345214E+04  0.34880133119E+04  0.32450435370E+04 0.  0.
        3    1    3    3  502    0 -0.10865158501E+04 -0.11475760466E+04 -0.24439405542E+03  0.15991172377E+04  0.10100000352E+00 0.  1.
       -3    1    3    3    0  502  0.10865158501E+04  0.11475760466E+04 -0.10346404660E+04  0.18888960743E+04  0.10100000352E+00 0. -1.
</event>
<event>
 5   0  0.2466076E-06  0.3101440E+04  0.7818609E-02  0.8215343E-01
       -2   -1    0    0    0  501  0.00000000000E+00  0.00000000000E+00  0.10006484111E+04  0.10006484111E+04  0.25500000920E-02 0.  1.
        2   -1    0    0  501    0  0.00000000000E+00  0.00000000000E+00 -0.24031745274E+04  0.24031745274E+04  0.25500000920E-02 0. -1.
    10030    2    1    2    0    0  0.00000000000E+00  0.00000000000E+00 -0.14025261163E+04  0.34038229385E+04  0.31014401639E+04 0.  0.
        3    1    3    3  502    0  0.97248442800E+03  0.12078934787E+04 -0.70084706038E+03  0.17017400597E+04  0.10100000352E+00 0. -1.
       -3    1    3    3    0  502 -0.97248442800E+03 -0.12078934787E+04 -0.70167905588E+03  0.17020828788E+04  0.10100000352E+00 0.  1.
</event>
<event>
 5   0  0.8487944E-07  0.3180138E+04  0.7818609E-02  0.8194082E-01
        1   -1    0    0  501    0  0.00000000000E+00  0.00000000000E+00  0.13079800511E+04  0.13079800511E+04  0.50400001928E-02 0.  1.
       -1   -1    0    0    0  501  0.00000000000E+00  0.00000000000E+00 -0.19329952080E+04  0.19329952080E+04  0.50400001928E-02 0. -1.
    10030    2    1    2    0    0  0.00000000000E+00  0.00000000000E+00 -0.62501515697E+03  0.32409752591E+04  0.31801378404E+04 0.  0.
        2    1    3    3  502    0  0.95681556290E+03  0.37305414107E+03 -0.15496722195E+04  0.18590721884E+04  0.25500000920E-02 0. -1.
       -2    1    3    3    0  502 -0.95681556290E+03 -0.37305414107E+03  0.92465706255E+03  0.13819030707E+04  0.25500000920E-02 0.  1.
</event>
<event>
 5   0  0.2401139E-06  0.2747476E+04  0.7818609E-02  0.8319763E-01
        2   -1    0    0  501    0  0.00000000000E+00  0.00000000000E+00  0.10978181534E+04  0.10978181534E+04  0.25500000920E-02 0. -1.
       -2   -1    0    0    0  501  0.00000000000E+00  0.00000000000E+00 -0.17190064649E+04  0.17190064649E+04  0.25500000920E-02 0.  1.
    10030    2    1    2    0    0  0.00000000000E+00  0.00000000000E+00 -0.62118831154E+03  0.28168246183E+04  0.27474762987E+04 0.  0.
        5    1    3    3  502    0  0.87426430536E+03  0.22235489105E+03  0.75158426010E+03  0.11741723737E+04  0.46999998093E+01 0. -1.
       -5    1    3    3    0  502 -0.87426430536E+03 -0.22235489105E+03 -0.13727725716E+04  0.16426522446E+04  0.46999998093E+01 0.  1.
</event>
<event>
 5   0  0.8512855E-07  0.3218777E+04  0.7818609E-02  0.8183876E-01
        1   -1    0    0  501    0  0.00000000000E+00  0.00000000000E+00  0.20546042807E+04  0.20546042807E+04  0.50400001928E-02 0.  1.
       -1   -1    0    0    0  501  0.00000000000E+00  0.00000000000E+00 -0.12606472254E+04  0.12606472255E+04  0.50400001928E-02 0. -1.
    10030    2    1    2    0    0  0.00000000000E+00  0.00000000000E+00  0.79395705525E+03  0.33152515062E+04  0.32187769018E+04 0.  0.
        5    1    3    3  502    0  0.13293832819E+04 -0.89650310247E+03  0.25451664687E+03  0.16235080956E+04  0.46999998093E+01 0. -1.
       -5    1    3    3    0  502 -0.13293832819E+04  0.89650310247E+03  0.53944040838E+03  0.16917434106E+04  0.46999998093E+01 0.  1.
</event>
<event>
 5   0  0.8487944E-07  0.3206680E+04  0.7818609E-02  0.8187055E-01
        1   -1    0    0  501    0  0.00000000000E+00  0.00000000000E+00  0.97162567446E+03  0.97162567447E+03  0.50400001928E-02 0. -1.
       -1   -1    0    0    0  501  0.00000000000E+00  0.00000000000E+00 -0.26457707941E+04  0.26457707941E+04  0.50400001928E-02 0.  1.
    10030    2    1    2    0    0  0.00000000000E+00  0.00000000000E+00 -0.16741451197E+04  0.36173964686E+04  0.32066797984E+04 0.  0.
        2    1    3    3  502    0 -0.10825249860E+04 -0.11607598540E+04 -0.10930129902E+04  0.19271484584E+04  0.25500000920E-02 0.  1.
       -2    1    3    3    0  502  0.10825249860E+04  0.11607598540E+04 -0.58113212944E+03  0.16902480102E+04  0.25500000920E-02 0. -1.
</event>
<event>
 5   0  0.2401139E-06  0.3147321E+04  0.7818609E-02  0.8202870E-01
        2   -1    0    0  501    0  0.00000000000E+00  0.00000000000E+00  0.16356093239E+04  0.16356093239E+04  0.25500000920E-02 0.  1.
       -2   -1    0    0    0  501  0.00000000000E+00  0.00000000000E+00 -0.15140584529E+04  0.15140584529E+04  0.25500000920E-02 0. -1.
    10030    2    1    2    0    0  0.00000000000E+00  0.00000000000E+00  0.12155087107E+03  0.31496677768E+04  0.31473214787E+04 0.  0.
        5    1    3    3  502    0  0.84327593545E+03  0.66987539917E+03  0.12090360090E+04  0.16191471566E+04  0.46999998093E+01 0.  1.
       -5    1    3    3    0  502 -0.84327593545E+03 -0.66987539917E+03 -0.10874851379E+04  0.15305206202E+04  0.46999998093E+01 0. -1.
</event>
<event>
 5   0  0.2337504E-06  0.3218260E+04  0.7818609E-02  0.8184011E-01
        2   -1    0    0  501    0  0.00000000000E+00  0.00000000000E+00  0.15621055574E+04  0.15621055574E+04  0.25500000920E-02 0.  1.
       -2   -1    0    0    0  501  0.00000000000E+00  0.00000000000E+00 -0.16575703418E+04  0.16575703418E+04  0.25500000920E-02 0. -1.
    10030    2    1    2    0    0  0.00000000000E+00  0.00000000000E+00 -0.95464784330E+02  0.32196758992E+04  0.32182603019E+04 0.  0.
        1    1    3    3  502    0 -0.26445457928E+03 -0.74270758278E+03  0.13556494268E+04  0.15682270711E+04  0.50400001928E-02 0.  1.
       -1    1    3    3    0  502  0.26445457928E+03  0.74270758278E+03 -0.14511142112E+04  0.16514488281E+04  0.50400001928E-02 0. -1.
</event>
<event>
 5   0  0.8487944E-07  0.3247229E+04  0.7818609E-02  0.8176454E-01
        1   -1    0    0  501    0  0.00000000000E+00  0.00000000000E+00  0.14462562423E+04  0.14462562423E+04  0.50400001928E-02 0. -1.
       -1   -1    0    0    0  501  0.00000000000E+00  0.00000000000E+00 -0.18227226962E+04  0.18227226962E+04  0.50400001928E-02 0.  1.
    10030    2    1    2    0    0  0.00000000000E+00  0.00000000000E+00 -0.37646645383E+03  0.32689789385E+04  0.32472290202E+04 0.  0.
        2    1    3    3  502    0 -0.61642751247E+02 -0.63891512231E+03  0.13131014015E+04  0.14615907953E+04  0.25500000920E-02 0. -1.
       -2    1    3    3    0  502  0.61642751247E+02  0.63891512231E+03 -0.16895678553E+04  0.18073881432E+04  0.25500000920E-02 0.  1.
</event>
<event>
 5   0  0.2337504E-06  0.3194632E+04  0.7818609E-02  0.8190236E-01
       -2   -1    0    0    0  501  0.00000000000E+00  0.00000000000E+00  0.14863580881E+04  0.14863580881E+04  0.25500000920E-02 0.  1.
        2   -1    0    0  501    0  0.00000000000E+00  0.00000000000E+00 -0.17165569075E+04  0.17165569075E+04  0.25500000920E-02 0. -1.
    10030    2    1    2    0    0  0.00000000000E+00  0.00000000000E+00 -0.23019881940E+03  0.32029149956E+04  0.31946318994E+04 0.  0.
        1    1    3    3  502    0 -0.64585693999E+03 -0.11658613062E+04 -0.99775383263E+03  0.16648953369E+04  0.50400001928E-02 0. -1.
       -1    1    3    3    0  502  0.64585693999E+03  0.11658613062E+04  0.76755501323E+03  0.15380196587E+04  0.50400001928E-02 0.  1.
</event>
<event>
 5   0  0.8383008E-07  0.3178053E+04  0.7818609E-02  0.8194637E-01
       -1   -1    0    0    0  501  0.00000000000E+00  0.00000000000E+00  0.13530839819E+04  0.13530839819E+04  0.50400001928E-02 0.  1.
        1   -1    0    0  501    0  0.00000000000E+00  0.00000000000E+00 -0.18661111307E+04  0.18661111307E+04  0.50400001928E-02 0. -1.
    10030    2    1    2    0    0  0.00000000000E+00  0.00000000000E+00 -0.51302714884E+03  0.32191951127E+04  0.31780529130E+04 0.  0.
        4    1    3    3  502    0  0.13680103321E+04 -0.45534090498E+02  0.56107723592E+03  0.14793021664E+04  0.12699999809E+01 0.  1.
       -4    1    3    3    0  502 -0.13680103321E+04  0.45534090498E+02 -0.10741043848E+04  0.17398929462E+04  0.12699999809E+01 0. -1.
</event>
<event>
 5   0  0.2466076E-06  0.3236242E+04  0.7818609E-02  0.8179311E-01
       -2   -1    0    0    0  501  0.00000000000E+00  0.00000000000E+00  0.14207390867E+04  0.14207390867E+04  0.25500000920E-02 0.  1.
        2   -1    0    0  501    0  0.00000000000E+00  0.00000000000E+00 -0.18429255485E+04  0.18429255485E+04  0.25500000920E-02 0. -1.
    10030    2    1    2    0    0  0.00000000000E+00  0.00000000000E+00 -0.42218646178E+03  0.32636646352E+04  0.32362424882E+04 0.  0.
        3    1    3    3  502    0  0.83402793180E+03  0.48114141429E+03 -0.15225805606E+04  0.18014858382E+04  0.10100000352E+00 0. -1.
       -3    1    3    3    0  502 -0.83402793180E+03 -0.48114141429E+03  0.11003940988E+04  0.14621787970E+04  0.10100000352E+00 0.  1.
</event>
<event>
 5   0  0.8383008E-07  0.3187694E+04  0.7818609E-02  0.8192075E-01
        1   -1    0    0  501    0  0.00000000000E+00  0.00000000000E+00  0.27416794194E+04  0.27416794194E+04  0.50400001928E-02 0.  1.
       -1   -1    0    0    0  501  0.00000000000E+00  0.00000000000E+00 -0.92656664210E+03  0.92656664212E+03  0.50400001928E-02 0. -1.
    10030    2    1    2    0    0  0.00000000000E+00  0.00000000000E+00  0.18151127773E+04  0.36682460615E+04  0.31876942723E+04 0.  0.
        4    1    3    3  502    0 -0.47757761954E+03  0.88398111641E+03 -0.51623800290E+03  0.11296044818E+04  0.12699999809E+01 0. -1.
       -4    1    3    3    0  502  0.47757761954E+03 -0.88398111641E+03  0.23313507802E+04  0.25386415797E+04  0.12699999809E+01 0.  1.
</event>
<event>
 5   0  0.2466076E-06  0.3212054E+04  0.7818609E-02  0.8185641E-01
        2   -1    0    0  501    0  0.00000000000E+00  0.00000000000E+00  0.14613609768E+04  0.14613609768E+04  0.25500000920E-02 0. -1.
       -2   -1    0    0    0  501  0.00000000000E+00  0.00000000000E+00 -0.17650144986E+04  0.17650144986E+04  0.25500000920E-02 0.  1.
    10030    2    1    2    0    0  0.00000000000E+00  0.00000000000E+00 -0.30365352179E+03  0.32263754754E+04  0.32120543655E+04 0.  0.
        3    1    3    3  502    0  0.12131975359E+04  0.86039255791E+03  0.45684502548E+03  0.15559019900E+04  0.10100000352E+00 0. -1.
       -3    1    3    3    0  502 -0.12131975359E+04 -0.86039255791E+03 -0.76049854727E+03  0.16704734854E+04  0.10100000352E+00 0.  1.
</event>
<event>
 5   0  0.2404430E-06  0.3146395E+04  0.7818609E-02  0.8203119E-01
        2   -1    0    0  501    0  0.00000000000E+00  0.00000000000E+00  0.14609377455E+04  0.14609377455E+04  0.25500000920E-02 0.  1.
       -2   -1    0    0    0  501  0.00000000000E+00  0.00000000000E+00 -0.16940835265E+04  0.16940835265E+04  0.25500000920E-02 0. -1.
    10030    2    1    2    0    0  0.00000000000E+00  0.00000000000E+00 -0.23314578101E+03  0.31550212719E+04  0.31463951232E+04 0.  0.
        4    1    3    3  502    0 -0.39002956647E+03  0.10644091448E+03  0.14079558833E+04  0.14648529323E+04  0.12699999809E+01 0.  1.
       -4    1    3    3    0  502  0.39002956647E+03 -0.10644091448E+03 -0.16411016643E+04  0.16901683397E+04  0.12699999809E+01 0. -1.
</event>
<event>
 5   0  0.2621528E-06  0.3238813E+04  0.7818609E-02  0.8178641E-01
        2   -1    0    0  501    0  0.00000000000E+00  0.00000000000E+00  0.31186837528E+04  0.31186837528E+04  0.25500000920E-02 0. -1.
       -2   -1    0    0    0  501  0.00000000000E+00  0.00000000000E+00 -0.84089234733E+03  0.84089234734E+03  0.25500000920E-02 0.  1.
    10030    2    1    2    0    0  0.00000000000E+00  0.00000000000E+00  0.22777914054E+04  0.39595761001E+04  0.32388129316E+04 0.  0.
        2    1    3    3  502    0  0.83421340645E+03  0.71063646774E+03 -0.31872858354E+03  0.11412730203E+04  0.25500000920E-02 0.  1.
       -2    1    3    3    0  502 -0.83421340645E+03 -0.71063646774E+03  0.25965199890E+04  0.28183030798E+04  0.25500000920E-02 0. -1.
</event>
<event>
 5   0  0.2621528E-06  0.3210715E+04  0.7818609E-02  0.8185993E-01
        2   -1    0    0  501    0  0.00000000000E+00  0.00000000000E+00  0.17748828549E+04  0.17748828549E+04  0.25500000920E-02 0. -1.
       -2   -1    0    0    0  501  0.00000000000E+00  0.00000000000E+00 -0.14520241472E+04  0.14520241472E+04  0.25500000920E-02 0.  1.
    10030    2    1    2    0    0  0.00000000000E+00  0.00000000000E+00  0.32285870772E+03  0.32269070022E+04  0.32107150381E+04 0.  0.
        2    1    3    3  502    0  0.74913644255E+03 -0.39215971941E+03 -0.12100690160E+04  0.14762322576E+04  0.25500000920E-02 0.  1.
       -2    1    3    3    0  502 -0.74913644255E+03  0.39215971941E+03  0.15329277237E+04  0.17506747445E+04  0.25500000920E-02 0. -1.
</event>
<event>
 5   0  0.8383008E-07  0.3215551E+04  0.7818609E-02  0.8184722E-01
        1   -1    0    0  501    0  0.00000000000E+00  0.00000000000E+00  0.15998704749E+04  0.15998704749E+04  0.50400001928E-02 0. -1.
       -1   -1    0    0    0  501  0.00000000000E+00  0.00000000000E+00 -0.16157198786E+04  0.16157198786E+04  0.50400001928E-02 0.  1.
    10030    2    1    2    0    0  0.00000000000E+00  0.00000000000E+00 -0.15849403647E+02  0.32155903535E+04  0.32155512930E+04 0.  0.
        4    1    3    3  502    0  0.14007240526E+03  0.15950662422E+04 -0.15313087637E+03  0.16085108871E+04  0.12699999809E+01 0.  1.
       -4    1    3    3    0  502 -0.14007240526E+03 -0.15950662422E+04  0.13728147272E+03  0.16070794664E+04  0.12699999809E+01 0. -1.
</event>
<event>
 5   0  0.2621528E-06  0.3183634E+04  0.7818609E-02  0.8193153E-01
       -2   -1    0    0    0  501  0.00000000000E+00  0.00000000000E+00  0.15214932991E+04  0.15214932991E+04  0.25500000920E-02 0. -1.
        2   -1    0    0  501    0  0.00000000000E+00  0.00000000000E+00 -0.16653914510E+04  0.16653914510E+04  0.25500000920E-02 0.  1.
    10030    2    1    2    0    0  0.00000000000E+00  0.00000000000E+00 -0.14389815189E+03  0.31868847500E+04  0.31836343590E+04 0.  0.
        2    1    3    3  502    0 -0.93417241356E+03 -0.12859016533E+04  0.15666125024E+02  0.15894862654E+04  0.25500000920E-02 0.  1.
       -2    1    3    3    0  502  0.93417241356E+03  0.12859016533E+04 -0.15956427691E+03  0.15973984847E+04  0.25500000920E-02 0. -1.
</event>
<event>
 5   0  0.2401139E-06  0.3207909E+04  0.7818609E-02  0.8186732E-01
       -2   -1    0    0    0  501  0.00000000000E+00  0.00000000000E+00  0.12208620352E+04  0.12208620352E+04  0.25500000920E-02 0.  1.
        2   -1    0    0  501    0  0.00000000000E+00  0.00000000000E+00 -0.21072571836E+04  0.21072571836E+04  0.25500000920E-02 0. -1.
    10030    2    1    2    0    0  0.00000000000E+00  0.00000000000E+00 -0.88639514843E+03  0.33281192188E+04  0.32079091594E+04 0.  0.
        5    1    3    3  502    0 -0.11963653725E+04 -0.71287632924E+03 -0.12687324282E+04  0.18839285628E+04  0.46999998093E+01 0. -1.
       -5    1    3    3    0  502  0.11963653725E+04  0.71287632924E+03  0.38233727979E+03  0.14441906560E+04  0.46999998093E+01 0.  1.
</event>
<event>
 5   0  0.2401139E-06  0.3176061E+04  0.7818609E-02  0.8195168E-01
        2   -1    0    0  501    0  0.00000000000E+00  0.00000000000E+00  0.18943634968E+04  0.18943634968E+04  0.25500000920E-02 0. -1.
       -2   -1    0    0    0  501  0.00000000000E+00  0.00000000000E+00 -0.13312338291E+04  0.13312338291E+04  0.25500000920E-02 0.  1.
    10030    2    1    2    0    0  0.00000000000E+00  0.00000000000E+00  0.56312966772E+03  0.32255973259E+04  0.31760609387E+04 0.  0.
        5    1    3    3  502    0  0.34171745171E+01  0.10119368254E+04 -0.96136585922E+03  0.13958059396E+04  0.46999998093E+01 0.  1.
       -5    1    3    3    0  502 -0.34171745171E+01 -0.10119368254E+04  0.15244955269E+04  0.18297913863E+04  0.46999998093E+01 0. -1.
</event>
<event>
 5   0  0.2466076E-06  0.3238117E+04  0.7818609E-02  0.8178822E-01
       -2   -1    0    0    0  501  0.00000000000E+00  0.00000000000E+00  0.19326051798E+04  0.19326051798E+04  0.25500000920E-02 0. -1.
        2   -1    0    0  501    0  0.00000000000E+00  0.00000000000E+00 -0.13563821757E+04  0.13563821757E+04  0.25500000920E-02 0.  1.
    10030    2    1    2    0    0  0.00000000000E+00  0.00000000000E+00  0.57622300413E+03  0.32889873554E+04  0.32381174892E+04 0.  0.
        3    1    3    3  502    0 -0.34940051667E+03  0.14406672082E+04  0.94929754820E+03  0.17603319491E+04  0.10100000352E+00 0. -1.
       -3    1    3    3    0  502  0.34940051667E+03 -0.14406672082E+04 -0.37307454406E+03  0.15286554064E+04  0.10100000352E+00 0.  1.
</event>
<event>
 5   0  0.8512855E-07  0.3195453E+04  0.7818609E-02  0.8190019E-01
       -1   -1    0    0    0  501  0.00000000000E+00  0.00000000000E+00  0.27963959743E+04  0.27963959743E+04  0.50400001928E-02 0.  1.
        1   -1    0    0  501    0  0.00000000000E+00  0.00000000000E+00 -0.91286416195E+03  0.91286416196E+03  0.50400001928E-02 0. -1.
    10030    2    1    2    0    0  0.00000000000E+00  0.00000000000E+00  0.18835318123E+04  0.37092601362E+04  0.31954528115E+04 0.  0.
        5    1    3    3  502    0 -0.63124385483E+02  0.12079101468E+04  0.21534895156E+04  0.24699333584E+04  0.46999998093E+01 0.  1.
       -5    1    3    3    0  502  0.63124385483E+02 -0.12079101468E+04 -0.26995770333E+03  0.12393267779E+04  0.46999998093E+01 0. -1.
</event>
<event>
 5   0  0.8681172E-07  0.3186310E+04  0.7818609E-02  0.8192442E-01
       -1   -1    0    0    0  501  0.00000000000E+00  0.00000000000E+00  0.12307557415E+04  0.12307557415E+04  0.50400001928E-02 0. -1.
        1   -1    0    0  501    0  0.00000000000E+00  0.00000000000E+00 -0.20622634108E+04  0.20622634108E+04  0.50400001928E-02 0.  1.
    10030    2    1    2    0    0  0.00000000000E+00  0.00000000000E+00 -0.83150766928E+03  0.32930191523E+04  0.31863097988E+04 0.  0.
        1    1    3    3  502    0  0.50048261289E+03 -0.77892530004E+03  0.92417497776E+03  0.13081692774E+04  0.50400001928E-02 0. -1.
       -1    1    3    3    0  502 -0.50048261289E+03  0.77892530004E+03 -0.17556826470E+04  0.19848498749E+04  0.50400001928E-02 0.  1.
</event>
<event>
 5   0  0.2466076E-06  0.3205995E+04  0.7818609E-02  0.8187236E-01
        2   -1    0    0  501    0  0.00000000000E+00  0.00000000000E+00  0.19745881725E+04  0.19745881725E+04  0.25500000920E-02 0.  1.
       -2   -1    0    0    0  501  0.00000000000E+00  0.00000000000E+00 -0.13013351713E+04  0.13013351713E+04  0.25500000920E-02 0. -1.
    10030    2    1    2    0    0  0.00000000000E+00  0.00000000000E+00  0.67325300113E+03  0.32759233438E+04  0.32059950329E+04 0.  0.
        3    1    3    3  502    0 -0.11506268213E+04  0.10800014588E+04  0.62429108507E+03  0.16970812008E+04  0.10100000352E+00 0.  1.
       -3    1    3    3    0  502  0.11506268213E+04 -0.10800014588E+04  0.48961916060E+02  0.15788421430E+04  0.10100000352E+00 0. -1.
</event>
<event>
 5   0  0.8487944E-07  0.3218005E+04  0.7818609E-02  0.8184078E-01
       -1   -1    0    0    0  501  0.00000000000E+00  0.00000000000E+00  0.84151379415E+03  0.84151379417E+03  0.50400001928E-02 0.  1.
        1   -1    0    0  501    0  0.00000000000E+00  0.00000000000E+00 -0.30764669327E+04  0.30764669327E+04  0.50400001928E-02 0. -1.
    10030    2    1    2    0    0  0.00000000000E+00  0.00000000000E+00 -0.22349531385E+04  0.39179807268E+04  0.32180051965E+04 0.  0.
        2    1    3    3  502    0  0.11636225885E+04  0.65677522660E+03 -0.22088500473E+04  0.25815479384E+04  0.25500000920E-02 0. -1.
       -2    1    3    3    0  502 -0.11636225885E+04 -0.65677522660E+03 -0.26103091205E+02  0.13364327884E+04  0.25500000920E-02 0.  1.
</event>
<event>
 5   0  0.2404430E-06  0.3232836E+04  0.7818609E-02  0.8180199E-01
        2   -1    0    0  501    0  0.00000000000E+00  0.00000000000E+00  0.18652351981E+04  0.18652351981E+04  0.25500000920E-02 0. -1.
       -2   -1    0    0    0  501  0.00000000000E+00  0.00000000000E+00 -0.14007925462E+04  0.14007925462E+04  0.25500000920E-02 0.  1.
    10030    2    1    2    0    0  0.00000000000E+00  0.00000000000E+00  0.46444265192E+03  0.32660277443E+04  0.32328362547E+04 0.  0.
        4    1    3    3  502    0 -0.28077950788E+03  0.91523117220E+03  0.15480221229E+04  0.18201261870E+04  0.12699999809E+01 0. -1.
       -4    1    3    3    0  502  0.28077950788E+03 -0.91523117220E+03 -0.10835794710E+04  0.14459015573E+04  0.12699999809E+01 0.  1.
</event>
<event>
 5   0  0.8383008E-07  0.3188418E+04  0.7818609E-02  0.8191883E-01
       -1   -1    0    0    0  501  0.00000000000E+00  0.00000000000E+00  0.12799932788E+04  0.12799932788E+04  0.50400001928E-02 0. -1.
        1   -1    0    0  501    0  0.00000000000E+00  0.00000000000E+00 -0.19855588847E+04  0.19855588847E+04  0.50400001928E-02 0.  1.
    10030    2    1    2    0    0  0.00000000000E+00  0.00000000000E+00 -0.70556560589E+03  0.32655521635E+04  0.31884178064E+04 0.  0.
        4    1    3    3  502    0 -0.60552290180E+03 -0.14991300745E+03  0.11498045024E+04  0.13081222807E+04  0.12699999809E+01 0. -1.
       -4    1    3    3    0  502  0.60552290180E+03  0.14991300745E+03 -0.18553701083E+04  0.19574298828E+04  0.12699999809E+01 0.  1.
</event>
<event>
 5   0  0.2404430E-06  0.3193377E+04  0.7818609E-02  0.8190568E-01
        2   -1    0    0  501    0  0.00000000000E+00  0.00000000000E+00  0.19479765668E+04  0.19479765668E+04  0.25500000920E-02 0.  1.
       -2   -1    0    0    0  501  0.00000000000E+00  0.00000000000E+00 -0.13087498682E+04  0.13087498682E+04  0.25500000920E-02 0. -1.
    10030    2    1    2    0    0  0.00000000000E+00  0.00000000000E+00  0.63922669858E+03  0.32567264350E+04  0.31933769431E+04 0.  0.
        4    1    3    3  502    0  0.11606583274E+04 -0.10623548226E+04  0.59645176510E+03  0.16827007586E+04  0.12699999809E+01 0.  1.
       -4    1    3    3    0  502 -0.11606583274E+04  0.10623548226E+04  0.42774933477E+02  0.15740256764E+04  0.12699999809E+01 0. -1.
</event>
<event>
 5   0  0.2337504E-06  0.3169720E+04  0.7818609E-02  0.8196860E-01
       -2   -1    0    0    0  501  0.00000000000E+00  0.00000000000E+00  0.14109023229E+04  0.14109023229E+04  0.25500000920E-02 0.  1.
        2   -1    0    0  501    0  0.00000000000E+00  0.00000000000E+00 -0.17802662451E+04  0.17802662451E+04  0.25500000920E-02 0. -1.
    10030    2    1    2    0    0  0.00000000000E+00  0.00000000000E+00 -0.36936392222E+03  0.31911685680E+04  0.31697203540E+04 0.  0.
        1    1    3    3  502    0  0.92003307437E+03 -0.99624017325E+03 -0.10104923113E+04  0.16911682507E+04  0.50400001928E-02 0. -1.
       -1    1    3    3    0  502 -0.92003307437E+03  0.99624017325E+03  0.64112838911E+03  0.15000003174E+04  0.50400001928E-02 0.  1.
</event>
<event>
 5   0  0.2621528E-06  0.3174975E+04  0.7818609E-02  0.8195458E-01
       -2   -1    0    0    0  501  0.00000000000E+00  0.00000000000E+00  0.22762276905E+04  0.22762276905E+04  0.25500000920E-02 0. -1.
        2   -1    0    0  501    0  0.00000000000E+00  0.00000000000E+00 -0.11071459903E+04  0.11071459903E+04  0.25500000920E-02 0.  1.
    10030    2    1    2    0    0  0.00000000000E+00  0.00000000000E+00  0.11690817002E+04  0.33833736808E+04  0.31749748727E+04 0.  0.
        2    1    3    3  502    0 -0.33516571742E+03  0.98118973311E+03 -0.69646366927E+03  0.12490520378E+04  0.25500000920E-02 0.  1.
       -2    1    3    3    0  502  0.33516571742E+03 -0.98118973311E+03  0.18655453694E+04  0.21343216430E+04  0.25500000920E-02 0. -1.
</event>
<event>
 5   0  0.8545153E-07  0.3146713E+04  0.7818609E-02  0.8203034E-01
        1   -1    0    0  501    0  0.00000000000E+00  0.00000000000E+00  0.21971371923E+04  0.21971371923E+04  0.50400001928E-02 0. -1.
       -1   -1    0    0    0  501  0.00000000000E+00  0.00000000000E+00 -0.11266709743E+04  0.11266709743E+04  0.50400001928E-02 0.  1.
    10030    2    1    2    0    0  0.00000000000E+00  0.00000000000E+00  0.10704662180E+04  0.33238081666E+04  0.31467130160E+04 0.  0.
        3    1    3    3  502    0 -0.83466967436E+03  0.66531223924E+03 -0.68573489980E+03  0.12686789208E+04  0.10100000352E+00 0.  1.
       -3    1    3    3    0  502  0.83466967436E+03 -0.66531223924E+03  0.17562011178E+04  0.20551292459E+04  0.10100000352E+00 0. -1.
</event>
<event>
 5   0  0.8681172E-07  0.3183842E+04  0.7818609E-02  0.8193097E-01
        1   -1    0    0  501    0  0.00000000000E+00  0.00000000000E+00  0.16710663896E+04  0.16710663897E+04  0.50400001928E-02 0.  1.
       -1   -1    0    0    0  501  0.00000000000E+00  0.00000000000E+00 -0.15165245517E+04  0.15165245518E+04  0.50400001928E-02 0. -1.
    10030    2    1    2    0    0  0.00000000000E+00  0.00000000000E+00  0.15454183790E+03  0.31875909414E+04  0.31838424631E+04 0.  0.
        1    1    3    3  502    0  0.12337527097E+04  0.26946646733E+03 -0.89312524161E+03  0.15467484032E+04  0.50400001928E-02 0. -1.
       -1    1    3    3    0  502 -0.12337527097E+04 -0.26946646733E+03  0.10476670795E+04  0.16408425382E+04  0.50400001928E-02 0.  1.
</event>
<event>
 5   0  0.8487944E-07  0.3104992E+04  0.7818609E-02  0.8214369E-01
        1   -1    0    0  501    0  0.00000000000E+00  0.00000000000E+00  0.22918897809E+04  0.22918897809E+04  0.50400001928E-02 0.  1.
       -1   -1    0    0    0  501  0.00000000000E+00  0.00000000000E+00 -0.10516403873E+04  0.10516403873E+04  0.50400001928E-02 0. -1.
    10030    2    1    2    0    0  0.00000000000E+00  0.00000000000E+00  0.12402493936E+04  0.33435301682E+04  0.31049920173E+04 0.  0.
        2    1    3    3  502    0 -0.19066407448E+03  0.81272815942E+03 -0.78938990005E+03  0.11489196076E+04  0.25500000920E-02 0. -1.
       -2    1    3    3    0  502  0.19066407448E+03 -0.81272815942E+03  0.20296392937E+04  0.21946105606E+04  0.25500000920E-02 0.  1.
</event>
<event>
 5   0  0.2621528E-06  0.3180053E+04  0.7818609E-02  0.8194105E-01
        2   -1    0    0  501    0  0.00000000000E+00  0.00000000000E+00  0.16426832182E+04  0.16426832182E+04  0.25500000920E-02 0.  1.
       -2   -1    0    0    0  501  0.00000000000E+00  0.00000000000E+00 -0.15390579455E+04  0.15390579455E+04  0.25500000920E-02 0. -1.
    10030    2    1    2    0    0  0.00000000000E+00  0.00000000000E+00  0.10362527270E+03  0.31817411637E+04  0.31800532442E+04 0.  0.
        2    1    3    3  502    0 -0.77146970245E+03 -0.35398945787E+03 -0.12934123024E+04  0.15470583124E+04  0.25500000920E-02 0. -1.
       -2    1    3    3    0  502  0.77146970245E+03  0.35398945787E+03  0.13970375751E+04  0.16346828513E+04  0.25500000920E-02 0.  1.
</event>
<event>
 5   0  0.2401139E-06  0.3218695E+04  0.7818609E-02  0.8183897E-01
        2   -1    0    0  501    0  0.00000000000E+00  0.00000000000E+00  0.11705795263E+04  0.11705795263E+04  0.25500000920E-02 0.  1.
       -2   -1    0    0    0  501  0.00000000000E+00  0.00000000000E+00 -0.22125790179E+04  0.22125790179E+04  0.25500000920E-02 0. -1.
    10030    2    1    2    0    0  0.00000000000E+00  0.00000000000E+00 -0.10419994916E+04  0.33831585443E+04  0.32186952007E+04 0.  0.
        5    1    3    3  502    0 -0.17144792625E+03 -0.14698785055E+04 -0.11858049686E+04  0.18963366594E+04  0.46999998093E+01 0. -1.
       -5    1    3    3    0  502  0.17144792625E+03  0.14698785055E+04  0.14380547698E+03  0.14868218849E+04  0.46999998093E+01 0.  1.
</event>
<event>
 5   0  0.8681172E-07  0.3184794E+04  0.7818609E-02  0.8192845E-01
       -1   -1    0    0    0  501  0.00000000000E+00  0.00000000000E+00  0.90300991755E+03  0.90300991756E+03  0.50400001928E-02 0.  1.
        1   -1    0    0  501    0  0.00000000000E+00  0.00000000000E+00 -0.28080849832E+04  0.28080849832E+04  0.50400001928E-02 0. -1.
    10030    2    1    2    0    0  0.00000000000E+00  0.00000000000E+00 -0.19050750656E+04  0.37110949008E+04  0.31847942409E+04 0.  0.
        1    1    3    3  502    0  0.47230806982E+03 -0.14352250137E+04 -0.15383983760E+04  0.21562966670E+04  0.50400001928E-02 0.  1.
       -1    1    3    3    0  502 -0.47230806982E+03  0.14352250137E+04 -0.36667668965E+03  0.15547982337E+04  0.50400001928E-02 0. -1.
</event>
<event>
 5   0  0.2337504E-06  0.3147755E+04  0.7818609E-02  0.8202753E-01
        2   -1    0    0  501    0  0.00000000000E+00  0.00000000000E+00  0.84336524157E+03  0.84336524158E+03  0.25500000920E-02 0. -1.
       -2   -1    0    0    0  501  0.00000000000E+00  0.00000000000E+00 -0.29371507997E+04  0.29371507997E+04  0.25500000920E-02 0.  1.
    10030    2    1    2    0    0  0.00000000000E+00  0.00000000000E+00 -0.20937855582E+04  0.37805160413E+04  0.31477553233E+04 0.  0.
        1    1    3    3  502    0 -0.99663832264E+03  0.11697967015E+04 -0.14548482833E+04  0.21161984303E+04  0.50400001928E-02 0. -1.
       -1    1    3    3    0  502  0.99663832264E+03 -0.11697967015E+04 -0.63893727485E+03  0.16643176110E+04  0.50400001928E-02 0.  1.
</event>
<event>
 5   0  0.8681172E-07  0.3181888E+04  0.7818609E-02  0.8193617E-01
        1   -1    0    0  501    0  0.00000000000E+00  0.00000000000E+00  0.18924037921E+04  0.18924037921E+04  0.50400001928E-02 0.  1.
       -1   -1    0    0    0  501  0.00000000000E+00  0.00000000000E+00 -0.13375065606E+04  0.13375065606E+04  0.50400001928E-02 0. -1.
    10030    2    1    2    0    0  0.00000000000E+00  0.00000000000E+00  0.55489723148E+03  0.32299103527E+04  0.31818877964E+04 0.  0.
        1    1    3    3  502    0  0.75453921935E+03 -0.53112377920E+03 -0.10381365223E+04  0.13889382065E+04  0.50400001928E-02 0. -1.
       -1    1    3    3    0  502 -0.75453921935E+03  0.53112377920E+03  0.15930337538E+04  0.18409721462E+04  0.50400001928E-02 0.  1.
</event>
<event>
 5   0  0.2401139E-06  0.3184543E+04  0.7818609E-02  0.8192911E-01
        2   -1    0    0  501    0  0.00000000000E+00  0.00000000000E+00  0.19331268149E+04  0.19331268149E+04  0.25500000920E-02 0. -1.
       -2   -1    0    0    0  501  0.00000000000E+00  0.00000000000E+00 -0.13115168515E+04  0.13115168515E+04  0.25500000920E-02 0.  1.
    10030    2    1    2    0    0  0.00000000000E+00  0.00000000000E+00  0.62160996332E+03  0.32446436664E+04  0.31845429147E+04 0.  0.
        5    1    3    3  502    0  0.14499088811E+04 -0.12540229206E+03 -0.34740946352E+03  0.14962208806E+04  0.46999998093E+01 0.  1.
       -5    1    3    3    0  502 -0.14499088811E+04  0.12540229206E+03  0.96901942683E+03  0.17484227858E+04  0.46999998093E+01 0. -1.
</event>
<event>
 5   0  0.2337504E-06  0.3240732E+04  0.7818609E-02  0.8178142E-01
       -2   -1    0    0    0  501  0.00000000000E+00  0.00000000000E+00  0.14820106269E+04  0.14820106269E+04  0.25500000920E-02 0.  1.
        2   -1    0    0  501    0  0.00000000000E+00  0.00000000000E+00 -0.17716379720E+04  0.17716379720E+04  0.25500000920E-02 0. -1.
    10030    2    1    2    0    0  0.00000000000E+00  0.00000000000E+00 -0.28962734508E+03  0.32536485989E+04  0.32407322021E+04 0.  0.
        1    1    3    3  502    0 -0.27385989269E+03  0.83286578646E+02  0.14564255258E+04  0.14842881147E+04  0.50400001928E-02 0.  1.
       -1    1    3    3    0  502  0.27385989269E+03 -0.83286578646E+02 -0.17460528709E+04  0.17693604842E+04  0.50400001928E-02 0. -1.
</event>
<event>
 5   0  0.2401139E-06  0.3230053E+04  0.7818609E-02  0.8180925E-01
       -2   -1    0    0    0  501  0.00000000000E+00  0.00000000000E+00  0.14023146735E+04  0.14023146735E+04  0.25500000920E-02 0.  1.
        2   -1    0    0  501    0  0.00000000000E+00  0.00000000000E+00 -0.18600040834E+04  0.18600040834E+04  0.25500000920E-02 0. -1.
    10030    2    1    2    0    0  0.00000000000E+00  0.00000000000E+00 -0.45768940991E+03  0.32623187569E+04  0.32300532620E+04 0.  0.
        5    1    3    3  502    0 -0.21723648866E+03  0.66108778534E+03 -0.17008186330E+04  0.18376710435E+04  0.46999998093E+01 0. -1.
       -5    1    3    3    0  502  0.21723648866E+03 -0.66108778534E+03  0.12431292230E+04  0.14246477133E+04  0.46999998093E+01 0.  1.
</event>
<event>
 5   0  0.2401139E-06  0.3185903E+04  0.7818609E-02  0.8192550E-01
        2   -1    0    0  501    0  0.00000000000E+00  0.00000000000E+00  0.16549318985E+04  0.16549318985E+04  0.25500000920E-02 0.  1.
       -2   -1    0    0    0  501  0.00000000000E+00  0.00000000000E+00 -0.15332926506E+04  0.15332926506E+04  0.25500000920E-02 0. -1.
    10030    2    1    2    0    0  0.00000000000E+00  0.00000000000E+00  0.12163924793E+03  0.31882245491E+04  0.31859032736E+04 0.  0.
        5    1    3    3  502    0 -0.40690738806E+03  0.10572192506E+04  0.11815403512E+04  0.16368707517E+04  0.46999998093E+01 0.  1.
       -5    1    3    3    0  502  0.40690738806E+03 -0.10572192506E+04 -0.10599011032E+04  0.15513537975E+04  0.46999998093E+01 0. -1.
</event>
<event>
 5   0  0.8487944E-07  0.3161003E+04  0.7818609E-02  0.8199193E-01
       -1   -1    0    0    0  501  0.00000000000E+00  0.00000000000E+00  0.18458618732E+04  0.18458618732E+04  0.50400001928E-02 0. -1.
        1   -1    0    0  501    0  0.00000000000E+00  0.00000000000E+00 -0.13532888621E+04  0.13532888621E+04  0.50400001928E-02 0.  1.
    10030    2    1    2    0    0  0.00000000000E+00  0.00000000000E+00  0.49257301113E+03  0.31991507353E+04  0.31610025713E+04 0.  0.
        2    1    3    3  502    0 -0.94029535383E+03 -0.58226820480E+03  0.13889796926E+04  0.17755157564E+04  0.25500000920E-02 0. -1.
       -2    1    3    3    0  502  0.94029535383E+03  0.58226820480E+03 -0.89640668143E+03  0.14236349789E+04  0.25500000920E-02 0.  1.
</event>
<event>
 5   0  0.2337504E-06  0.3178548E+04  0.7818609E-02  0.8194506E-01
       -2   -1    0    0    0  501  0.00000000000E+00  0.00000000000E+00  0.12659078631E+04  0.12659078631E+04  0.25500000920E-02 0. -1.
        2   -1    0    0  501    0  0.00000000000E+00  0.00000000000E+00 -0.19952411292E+04  0.19952411292E+04  0.25500000920E-02 0.  1.
    10030    2    1    2    0    0  0.00000000000E+00  0.00000000000E+00 -0.72933326608E+03  0.32611489923E+04  0.31785477403E+04 0.  0.
        1    1    3    3  502    0 -0.57914565999E+03  0.73077391776E+03  0.95577168325E+03  0.13352676604E+04  0.50400001928E-02 0. -1.
       -1    1    3    3    0  502  0.57914565999E+03 -0.73077391776E+03 -0.16851049493E+04  0.19258813319E+04  0.50400001928E-02 0.  1.
</event>
<event>
 5   0  0.8487944E-07  0.3071131E+04  0.7818609E-02  0.8223706E-01
       -1   -1    0    0    0  501  0.00000000000E+00  0.00000000000E+00  0.87856243581E+03  0.87856243582E+03  0.50400001928E-02 0.  1.
        1   -1    0    0  501    0  0.00000000000E+00  0.00000000000E+00 -0.26838860584E+04  0.26838860584E+04  0.50400001928E-02 0. -1.
    10030    2    1    2    0    0  0.00000000000E+00  0.00000000000E+00 -0.18053236226E+04  0.35624484942E+04  0.30711310444E+04 0.  0.
        2    1    3    3  502    0 -0.12171210667E+04 -0.96167599214E+02 -0.19829567061E+04  0.23286797110E+04  0.25500000920E-02 0. -1.
       -2    1    3    3    0  502  0.12171210667E+04  0.96167599214E+02  0.17763308352E+03  0.12337687832E+04  0.25500000920E-02 0.  1.
</event>
<event>
 5   0  0.2404430E-06  0.3174227E+04  0.7818609E-02  0.8195657E-01
       -2   -1    0    0    0  501  0.00000000000E+00  0.00000000000E+00  0.13321765162E+04  0.13321765162E+04  0.25500000920E-02 0. -1.
        2   -1    0    0  501    0  0.00000000000E+00  0.00000000000E+00 -0.18908373671E+04  0.18908373671E+04  0.25500000920E-02 0.  1.
    10030    2    1    2    0    0  0.00000000000E+00  0.00000000000E+00 -0.55866085093E+03  0.32230138833E+04  0.31742269209E+04 0.  0.
        4    1    3    3  502    0 -0.10765449892E+04 -0.11108366405E+04 -0.63978004960E+03  0.16739854481E+04  0.12699999809E+01 0.  1.
       -4    1    3    3    0  502  0.10765449892E+04  0.11108366405E+04  0.81119198679E+02  0.15490284352E+04  0.12699999809E+01 0. -1.
</event>
<event>
 5   0  0.8545153E-07  0.2795727E+04  0.7818609E-02  0.8304596E-01
       -1   -1    0    0    0  501  0.00000000000E+00  0.00000000000E+00  0.19389024196E+04  0.19389024196E+04  0.50400001928E-02 0.  1.
        1   -1    0    0  501    0  0.00000000000E+00  0.00000000000E+00 -0.10077980385E+04  0.10077980385E+04  0.50400001928E-02 0. -1.
    10030    2    1    2    0    0  0.00000000000E+00  0.00000000000E+00  0.93110438103E+03  0.29467004581E+04  0.27957267788E+04 0.  0.
        3    1    3    3  502    0 -0.48655322508E+03 -0.13125471391E+03  0.18398264590E+04  0.19075961968E+04  0.10100000352E+00 0.  1.
       -3    1    3    3    0  502  0.48655322508E+03  0.13125471391E+03 -0.90872207793E+03  0.10391042613E+04  0.10100000352E+00 0. -1.
</event>
<event>
 5   0  0.2466076E-06  0.3193931E+04  0.7818609E-02  0.8190422E-01
        2   -1    0    0  501    0  0.00000000000E+00  0.00000000000E+00  0.23007091440E+04  0.23007091440E+04  0.25500000920E-02 0. -1.
       -2   -1    0    0    0  501  0.00000000000E+00  0.00000000000E+00 -0.11084837020E+04  0.11084837020E+04  0.25500000920E-02 0.  1.
    10030    2    1    2    0    0  0.00000000000E+00  0.00000000000E+00  0.11922254420E+04  0.34091928461E+04  0.31939308629E+04 0.  0.
        3    1    3    3  502    0  0.81472578289E+03 -0.31282835703E+03 -0.83143232414E+03  0.12053710641E+04  0.10100000352E+00 0.  1.
       -3    1    3    3    0  502 -0.81472578289E+03  0.31282835703E+03  0.20236577661E+04  0.22038217820E+04  0.10100000352E+00 0. -1.
</event>
<event>
 5   0  0.8383008E-07  0.3187432E+04  0.7818609E-02  0.8192144E-01
       -1   -1    0    0    0  501  0.00000000000E+00  0.00000000000E+00  0.18774315379E+04  0.18774315379E+04  0.50400001928E-02 0.  1.
        1   -1    0    0  501    0  0.00000000000E+00  0.00000000000E+00 -0.13528751350E+04  0.13528751350E+04  0.50400001928E-02 0. -1.
    10030    2    1    2    0    0  0.00000000000E+00  0.00000000000E+00  0.52455640287E+03  0.32303066729E+04  0.31874318473E+04 0.  0.
        4    1    3    3  502    0 -0.82767364888E+03  0.12155959816E+04 -0.36015872737E+03  0.15140783273E+04  0.12699999809E+01 0.  1.
       -4    1    3    3    0  502  0.82767364888E+03 -0.12155959816E+04  0.88471513024E+03  0.17162283455E+04  0.12699999809E+01 0. -1.
</event>
<event>
 5   0  0.2337504E-06  0.3166517E+04  0.7818609E-02  0.8197716E-01
        2   -1    0    0  501    0  0.00000000000E+00  0.00000000000E+00  0.25494271540E+04  0.25494271540E+04  0.25500000920E-02 0. -1.
       -2   -1    0    0    0  501  0.00000000000E+00  0.00000000000E+00 -0.98324365393E+03  0.98324365393E+03  0.25500000920E-02 0.  1.
    10030    2    1    2    0    0  0.00000000000E+00  0.00000000000E+00  0.15661835001E+04  0.35326708080E+04  0.31665173743E+04 0.  0.
        1    1    3    3  502    0  0.11527773653E+04 -0.10535788136E+04  0.49263250042E+03  0.16375624418E+04  0.50400001928E-02 0. -1.
       -1    1    3    3    0  502 -0.11527773653E+04  0.10535788136E+04  0.10735509997E+04  0.18951083661E+04  0.50400001928E-02 0.  1.
</event>
<event>
 5   0  0.8512855E-07  0.3217724E+04  0.7818609E-02  0.8184152E-01
       -1   -1    0    0    0  501  0.00000000000E+00  0.00000000000E+00  0.18248902968E+04  0.18248902968E+04  0.50400001928E-02 0. -1.
        1   -1    0    0  501    0  0.00000000000E+00  0.00000000000E+00 -0.14184070614E+04  0.14184070614E+04  0.50400001928E-02 0.  1.
    10030    2    1    2    0    0  0.00000000000E+00  0.00000000000E+00  0.40648323540E+03  0.32432973582E+04  0.32177242165E+04 0.  0.
        5    1    3    3  502    0 -0.29222887801E+03 -0.97913295284E+03  0.14558232935E+04  0.17786350408E+04  0.46999998093E+01 0. -1.
       -5    1    3    3    0  502  0.29222887801E+03  0.97913295284E+03 -0.10493400581E+04  0.14646623174E+04  0.46999998093E+01 0.  1.
</event>
<event>
 5   0  0.8383008E-07  0.3178432E+04  0.7818609E-02  0.8194537E-01
       -1   -1    0    0    0  501  0.00000000000E+00  0.00000000000E+00  0.14399311481E+04  0.14399311481E+04  0.50400001928E-02 0.  1.
        1   -1    0    0  501    0  0.00000000000E+00  0.00000000000E+00 -0.17539774344E+04  0.17539774344E+04  0.50400001928E-02 0. -1.
    10030    2    1    2    0    0  0.00000000000E+00  0.00000000000E+00 -0.31404628637E+03  0.31939085825E+04  0.31784315257E+04 0.  0.
        4    1    3    3  502    0 -0.75935053168E+03 -0.13960098792E+04 -0.16926092128E+03  0.15981575908E+04  0.12699999809E+01 0. -1.
       -4    1    3    3    0  502  0.75935053168E+03  0.13960098792E+04 -0.14478536509E+03  0.15957509917E+04  0.12699999809E+01 0.  1.
</event>
<event>
 5   0  0.2466076E-06  0.3213849E+04  0.7818609E-02  0.8185169E-01
       -2   -1    0    0    0  501  0.00000000000E+00  0.00000000000E+00  0.14283461499E+04  0.14283461500E+04  0.25500000920E-02 0. -1.
        2   -1    0    0  501    0  0.00000000000E+00  0.00000000000E+00 -0.18078300484E+04  0.18078300484E+04  0.25500000920E-02 0.  1.
    10030    2    1    2    0    0  0.00000000000E+00  0.00000000000E+00 -0.37948389843E+03  0.32361761983E+04  0.32138494609E+04 0.  0.
        3    1    3    3  502    0 -0.55440131481E+03 -0.14968965734E+04 -0.36693889309E+01  0.15962686628E+04  0.10100000352E+00 0.  1.
       -3    1    3    3    0  502  0.55440131481E+03  0.14968965734E+04 -0.37581450950E+03  0.16399075355E+04  0.10100000352E+00 0. -1.
</event>
<event>
 5   0  0.8512855E-07  0.3197324E+04  0.7818609E-02  0.8189524E-01
       -1   -1    0    0    0  501  0.00000000000E+00  0.00000000000E+00  0.15985451878E+04  0.15985451878E+04  0.50400001928E-02 0. -1.
        1   -1    0    0  501    0  0.00000000000E+00  0.00000000000E+00 -0.15987791380E+04  0.15987791380E+04  0.50400001928E-02 0.  1.
    10030    2    1    2    0    0  0.00000000000E+00  0.00000000000E+00 -0.23395016186E+00  0.31973243258E+04  0.31973243173E+04 0.  0.
        5    1    3    3  502    0 -0.70228646329E+02 -0.13334299820E+04  0.87893423617E+03  0.15985978422E+04  0.46999998093E+01 0. -1.
       -5    1    3    3    0  502  0.70228646329E+02  0.13334299820E+04 -0.87916818633E+03  0.15987264836E+04  0.46999998093E+01 0.  1.
</event>
<event>
 5   0  0.8545153E-07  0.3182466E+04  0.7818609E-02  0.8193463E-01
        1   -1    0    0  501    0  0.00000000000E+00  0.00000000000E+00  0.11759578467E+04  0.11759578467E+04  0.50400001928E-02 0.  1.
       -1   -1    0    0    0  501  0.00000000000E+00  0.00000000000E+00 -0.21531568647E+04  0.21531568647E+04  0.50400001928E-02 0. -1.
    10030    2    1    2    0    0  0.00000000000E+00  0.00000000000E+00 -0.97719901802E+03  0.33291147115E+04  0.31824655287E+04 0.  0.
        3    1    3    3  502    0  0.80160351652E+03 -0.75542249131E+03 -0.16899035390E+04  0.20171775627E+04  0.10100000352E+00 0.  1.
       -3    1    3    3    0  502 -0.80160351652E+03  0.75542249131E+03  0.71270452096E+03  0.13119371488E+04  0.10100000352E+00 0. -1.
</event>
<event>
 5   0  0.8487944E-07  0.3197232E+04  0.7818609E-02  0.8189549E-01
        1   -1    0    0  501    0  0.00000000000E+00  0.00000000000E+00  0.14826653271E+04  0.14826653271E+04  0.50400001928E-02 0.  1.
       -1   -1    0    0    0  501  0.00000000000E+00  0.00000000000E+00 -0.17236341218E+04  0.17236341218E+04  0.50400001928E-02 0. -1.
    10030    2    1    2    0    0  0.00000000000E+00  0.00000000000E+00 -0.24096879469E+03  0.32062994489E+04  0.31972316456E+04 0.  0.
        2    1    3    3  502    0  0.11551094444E+04 -0.65724550408E+03  0.77047389669E+03  0.15361899318E+04  0.25500000920E-02 0.  1.
       -2    1    3    3    0  502 -0.11551094444E+04  0.65724550408E+03 -0.10114426914E+04  0.16701095171E+04  0.25500000920E-02 0. -1.
</event>
<event>
 5   0  0.2621528E-06  0.3209732E+04  0.7818609E-02  0.8186252E-01
       -2   -1    0    0    0  501  0.00000000000E+00  0.00000000000E+00  0.17354211942E+04  0.17354211942E+04  0.25500000920E-02 0. -1.
        2   -1    0    0  501    0  0.00000000000E+00  0.00000000000E+00 -0.14841325430E+04  0.14841325430E+04  0.25500000920E-02 0.  1.
    10030    2    1    2    0    0  0.00000000000E+00  0.00000000000E+00  0.25128865115E+03  0.32195537372E+04  0.32097321197E+04 0.  0.
        2    1    3    3  502    0  0.33854998627E+03  0.68693565763E+03 -0.12890252768E+04  0.14993608156E+04  0.25500000920E-02 0.  1.
       -2    1    3    3    0  502 -0.33854998627E+03 -0.68693565763E+03  0.15403139280E+04  0.17201929216E+04  0.25500000920E-02 0. -1.
</event>
<event>
 5   0  0.8487944E-07  0.3180273E+04  0.7818609E-02  0.8194046E-01
        1   -1    0    0  501    0  0.00000000000E+00  0.00000000000E+00  0.19671207516E+04  0.19671207516E+04  0.50400001928E-02 0.  1.
       -1   -1    0    0    0  501  0.00000000000E+00  0.00000000000E+00 -0.12853986412E+04  0.12853986412E+04  0.50400001928E-02 0. -1.
    10030    2    1    2    0    0  0.00000000000E+00  0.00000000000E+00  0.68172211046E+03  0.32525193928E+04  0.31802731588E+04 0.  0.
        2    1    3    3  502    0 -0.10301361998E+04  0.17858412212E+03 -0.88446379016E+03  0.13694338520E+04  0.25500000920E-02 0. -1.
       -2    1    3    3    0  502  0.10301361998E+04 -0.17858412212E+03  0.15661859006E+04  0.18830855408E+04  0.25500000920E-02 0.  1.
</event>
<event>
 5   0  0.8487944E-07  0.3212996E+04  0.7818609E-02  0.8185393E-01
       -1   -1    0    0    0  501  0.00000000000E+00  0.00000000000E+00  0.25790455692E+04  0.25790455692E+04  0.50400001928E-02 0. -1.
        1   -1    0    0  501    0  0.00000000000E+00  0.00000000000E+00 -0.10006942901E+04  0.10006942901E+04  0.50400001928E-02 0.  1.
    10030    2    1    2    0    0  0.00000000000E+00  0.00000000000E+00  0.15783512791E+04  0.35797398593E+04  0.32129962185E+04 0.  0.
        2    1    3    3  502    0  0.13887933177E+04 -0.15669549473E+03  0.16717687086E+04  0.21790160560E+04  0.25500000920E-02 0. -1.
       -2    1    3    3    0  502 -0.13887933177E+04  0.15669549473E+03 -0.93417429418E+02  0.14007238034E+04  0.25500000920E-02 0.  1.
</event>
<event>
 5   0  0.8545153E-07  0.3117732E+04  0.7818609E-02  0.8210888E-01
        1   -1    0    0  501    0  0.00000000000E+00  0.00000000000E+00  0.85911420047E+03  0.85911420049E+03  0.50400001928E-02 0. -1.
       -1   -1    0    0    0  501  0.00000000000E+00  0.00000000000E+00 -0.28285688033E+04  0.28285688033E+04  0.50400001928E-02 0.  1.
    10030    2    1    2    0    0  0.00000000000E+00  0.00000000000E+00 -0.19694546029E+04  0.36876830038E+04  0.31177322695E+04 0.  0.
        3    1    3    3  502    0  0.10840193093E+04 -0.10892895312E+04 -0.67535069047E+03  0.16786149383E+04  0.10100000352E+00 0.  1.
       -3    1    3    3    0  502 -0.10840193093E+04  0.10892895312E+04 -0.12941039124E+04  0.20090680656E+04  0.10100000352E+00 0. -1.
</event>
<event>
 5   0  0.2337504E-06  0.3244618E+04  0.7818609E-02  0.8177132E-01
        2   -1    0    0  501    0  0.00000000000E+00  0.00000000000E+00  0.23286956844E+04  0.23286956844E+04  0.25500000920E-02 0. -1.
       -2   -1    0    0    0  501  0.00000000000E+00  0.00000000000E+00 -0.11301978208E+04  0.11301978208E+04  0.25500000920E-02 0.  1.
    10030    2    1    2    0    0  0.00000000000E+00  0.00000000000E+00  0.11984978636E+04  0.34588935052E+04  0.32446181827E+04 0.  0.
        1    1    3    3  502    0 -0.15363300375E+04  0.44322805928E+03  0.89144060375E+03  0.18306904290E+04  0.50400001928E-02 0. -1.
       -1    1    3    3    0  502  0.15363300375E+04 -0.44322805928E+03  0.30705725985E+03  0.16282030762E+04  0.50400001928E-02 0.  1.
</event>
<event>
 5   0  0.2404430E-06  0.3184337E+04  0.7818609E-02  0.8192966E-01
        2   -1    0    0  501    0  0.00000000000E+00  0.00000000000E+00  0.21285069976E+04  0.21285069976E+04  0.25500000920E-02 0.  1.
       -2   -1    0    0    0  501  0.00000000000E+00  0.00000000000E+00 -0.11909755636E+04  0.11909755636E+04  0.25500000920E-02 0. -1.
    10030    2    1    2    0    0  0.00000000000E+00  0.00000000000E+00  0.93753143400E+03  0.33194825612E+04  0.31843365533E+04 0.  0.
        4    1    3    3  502    0 -0.11949362679E+04  0.80147550546E+03  0.11794340871E+04  0.18604574837E+04  0.12699999809E+01 0.  1.
       -4    1    3    3    0  502  0.11949362679E+04 -0.80147550546E+03 -0.24190265307E+03  0.14590250775E+04  0.12699999809E+01 0. -1.
</event>
<event>
 5   0  0.8681172E-07  0.3189122E+04  0.7818609E-02  0.8191696E-01
        1   -1    0    0  501    0  0.00000000000E+00  0.00000000000E+00  0.15133469200E+04  0.15133469200E+04  0.50400001928E-02 0.  1.
       -1   -1    0    0    0  501  0.00000000000E+00  0.00000000000E+00 -0.16801337556E+04  0.16801337557E+04  0.50400001928E-02 0. -1.
    10030    2    1    2    0    0  0.00000000000E+00  0.00000000000E+00 -0.16678683563E+03  0.31934806757E+04  0.31891222895E+04 0.  0.
        1    1    3    3  502    0  0.15004553257E+04  0.52762390658E+03  0.30216793625E+02  0.15908067846E+04  0.50400001928E-02 0.  1.
       -1    1    3    3    0  502 -0.15004553257E+04 -0.52762390658E+03 -0.19700362925E+03  0.16026738911E+04  0.50400001928E-02 0. -1.
</event>
<event>
 5   0  0.2337504E-06  0.3184632E+04  0.7818609E-02  0.8192888E-01
        2   -1    0    0  501    0  0.00000000000E+00  0.00000000000E+00  0.19948590824E+04  0.19948590824E+04  0.25500000920E-02 0.  1.
       -2   -1    0    0    0  501  0.00000000000E+00  0.00000000000E+00 -0.12710023637E+04  0.12710023637E+04  0.25500000920E-02 0. -1.
    10030    2    1    2    0    0  0.00000000000E+00  0.00000000000E+00  0.72385671878E+03  0.32658614461E+04  0.31846322293E+04 0.  0.
        1    1    3    3  502    0 -0.51233148809E+03 -0.14972357578E+04  0.54327824108E+03  0.16731257321E+04  0.50400001928E-02 0. -1.
       -1    1    3    3    0  502  0.51233148809E+03  0.14972357578E+04  0.18057847770E+03  0.15927357140E+04  0.50400001928E-02 0.  1.
</event>
<event>
 5   0  0.2404430E-06  0.2859959E+04  0.7818609E-02  0.8284892E-01
       -2   -1    0    0    0  501  0.00000000000E+00  0.00000000000E+00  0.83233358773E+03  0.83233358773E+03  0.25500000920E-02 0. -1.
        2   -1    0    0  501    0  0.00000000000E+00  0.00000000000E+00 -0.24567561629E+04  0.24567561629E+04  0.25500000920E-02 0.  1.
    10030    2    1    2    0    0  0.00000000000E+00  0.00000000000E+00 -0.16244225751E+04  0.32890897506E+04  0.28599585110E+04 0.  0.
        4    1    3    3  502    0 -0.15905429053E+03 -0.80345405169E+03 -0.21602728744E+04  0.23103283718E+04  0.12699999809E+01 0.  1.
       -4    1    3    3    0  502  0.15905429053E+03  0.80345405169E+03  0.53585029930E+03  0.97876137882E+03  0.12699999809E+01 0. -1.
</event>
<event>
 5   0  0.2401139E-06  0.3197630E+04  0.7818609E-02  0.8189443E-01
       -2   -1    0    0    0  501  0.00000000000E+00  0.00000000000E+00  0.23084434933E+04  0.23084434933E+04  0.25500000920E-02 0. -1.
        2   -1    0    0  501    0  0.00000000000E+00  0.00000000000E+00 -0.11073303147E+04  0.11073303147E+04  0.25500000920E-02 0.  1.
    10030    2    1    2    0    0  0.00000000000E+00  0.00000000000E+00  0.12011131786E+04  0.34157738080E+04  0.31976300348E+04 0.  0.
        5    1    3    3  502    0  0.35406481610E+03  0.13121421799E+04 -0.29897661093E+03  0.13915775574E+04  0.46999998093E+01 0.  1.
       -5    1    3    3    0  502 -0.35406481610E+03 -0.13121421799E+04  0.15000897896E+04  0.20241962506E+04  0.46999998093E+01 0. -1.
</event>
<event>
 5   0  0.2337504E-06  0.3219265E+04  0.7818609E-02  0.8183748E-01
       -2   -1    0    0    0  501  0.00000000000E+00  0.00000000000E+00  0.17727624670E+04  0.17727624670E+04  0.25500000920E-02 0.  1.
        2   -1    0    0  501    0  0.00000000000E+00  0.00000000000E+00 -0.14615138712E+04  0.14615138712E+04  0.25500000920E-02 0. -1.
    10030    2    1    2    0    0  0.00000000000E+00  0.00000000000E+00  0.31124859581E+03  0.32342763382E+04  0.32192650937E+04 0.  0.
        1    1    3    3  502    0  0.25145036657E+03  0.53119188438E+03 -0.13498706894E+04  0.14722577842E+04  0.50400001928E-02 0. -1.
       -1    1    3    3    0  502 -0.25145036657E+03 -0.53119188438E+03  0.16611192852E+04  0.17620185540E+04  0.50400001928E-02 0.  1.
</event>
<event>
 5   0  0.2401139E-06  0.3392885E+04  0.7818609E-02  0.8139655E-01
        2   -1    0    0  501    0  0.00000000000E+00  0.00000000000E+00  0.19694742978E+04  0.19694742978E+04  0.25500000920E-02 0. -1.
       -2   -1    0    0    0  501  0.00000000000E+00  0.00000000000E+00 -0.14612615836E+04  0.14612615837E+04  0.25500000920E-02 0.  1.
    10030    2    1    2    0    0  0.00000000000E+00  0.00000000000E+00  0.50821271412E+03  0.34307358814E+04  0.33928849856E+04 0.  0.
        5    1    3    3  502    0 -0.16542281785E+03 -0.33577733326E+02  0.19609552526E+04  0.19682123274E+04  0.46999998093E+01 0. -1.
       -5    1    3    3    0  502  0.16542281785E+03  0.33577733326E+02 -0.14527425385E+04  0.14625235540E+04  0.46999998093E+01 0.  1.
</event>
<event>
 5   0  0.2337504E-06  0.3159313E+04  0.7818609E-02  0.8199646E-01
       -2   -1    0    0    0  501  0.00000000000E+00  0.00000000000E+00  0.11884881118E+04  0.11884881118E+04  0.25500000920E-02 0.  1.
        2   -1    0    0  501    0  0.00000000000E+00  0.00000000000E+00 -0.20995703652E+04  0.20995703652E+04  0.25500000920E-02 0. -1.
    10030    2    1    2    0    0  0.00000000000E+00  0.00000000000E+00 -0.91108225341E+03  0.32880584771E+04  0.31593128487E+04 0.  0.
        1    1    3    3  502    0 -0.32954847874E+03 -0.35260180277E+03 -0.20209582404E+04  0.20777878719E+04  0.50400001928E-02 0. -1.
       -1    1    3    3    0  502  0.32954847874E+03  0.35260180277E+03  0.11098759870E+04  0.12102706052E+04  0.50400001928E-02 0.  1.
</event>
<event>
 5   0  0.8383008E-07  0.3176605E+04  0.7818609E-02  0.8195023E-01
       -1   -1    0    0    0  501  0.00000000000E+00  0.00000000000E+00  0.25122879157E+04  0.25122879157E+04  0.50400001928E-02 0.  1.
        1   -1    0    0  501    0  0.00000000000E+00  0.00000000000E+00 -0.10041466000E+04  0.10041466000E+04  0.50400001928E-02 0. -1.
    10030    2    1    2    0    0  0.00000000000E+00  0.00000000000E+00  0.15081413156E+04  0.35164345157E+04  0.31766053383E+04 0.  0.
        4    1    3    3  502    0 -0.76274114554E+03  0.60896265910E+03  0.21411526222E+04  0.23531140515E+04  0.12699999809E+01 0.  1.
       -4    1    3    3    0  502  0.76274114554E+03 -0.60896265910E+03 -0.63301130653E+03  0.11633204642E+04  0.12699999809E+01 0. -1.
</event>
<event>
 5   0  0.8545153E-07  0.3166789E+04  0.7818609E-02  0.8197643E-01
       -1   -1    0    0    0  501  0.00000000000E+00  0.00000000000E+00  0.10979127001E+04  0.10979127001E+04  0.50400001928E-02 0. -1.
        1   -1    0    0  501    0  0.00000000000E+00  0.00000000000E+00 -0.22835500862E+04  0.22835500862E+04  0.50400001928E-02 0.  1.
    10030    2    1    2    0    0  0.00000000000E+00  0.00000000000E+00 -0.11856373861E+04  0.33814627863E+04  0.31667893147E+04 0.  0.
        3    1    3    3  502    0  0.13655727297E+04 -0.48539940614E+02 -0.14470456361E+04  0.19902477457E+04  0.10100000352E+00 0.  1.
       -3    1    3    3    0  502 -0.13655727297E+04  0.48539940614E+02  0.26140825009E+03  0.13912150406E+04  0.10100000352E+00 0. -1.
</event>
<event>
 5   0  0.2337504E-06  0.3178611E+04  0.7818609E-02  0.8194489E-01
       -2   -1    0    0    0  501  0.00000000000E+00  0.00000000000E+00  0.20070126369E+04  0.20070126369E+04  0.25500000920E-02 0.  1.
        2   -1    0    0  501    0  0.00000000000E+00  0.00000000000E+00 -0.12585329645E+04  0.12585329645E+04  0.25500000920E-02 0. -1.
    10030    2    1    2    0    0  0.00000000000E+00  0.00000000000E+00  0.74847967243E+03  0.32655456015E+04  0.31786107430E+04 0.  0.
        1    1    3    3  502    0  0.50381608551E+03 -0.60988736985E+03  0.17903806581E+04  0.19573594848E+04  0.50400001928E-02 0.  1.
       -1    1    3    3    0  502 -0.50381608551E+03  0.60988736985E+03 -0.10419009856E+04  0.13081861167E+04  0.50400001928E-02 0. -1.
</event>
<event>
 5   0  0.8487944E-07  0.3201394E+04  0.7818609E-02  0.8188449E-01
       -1   -1    0    0    0  501  0.00000000000E+00  0.00000000000E+00  0.17431030514E+04  0.17431030514E+04  0.50400001928E-02 0. -1.
        1   -1    0    0  501    0  0.00000000000E+00  0.00000000000E+00 -0.14699253424E+04  0.14699253424E+04  0.50400001928E-02 0.  1.
    10030    2    1    2    0    0  0.00000000000E+00  0.00000000000E+00  0.27317770897E+03  0.32130283939E+04  0.32013942898E+04 0.  0.
        2    1    3    3  502    0 -0.88685794111E+03  0.88157626139E+03  0.11394888216E+04  0.16917826358E+04  0.25500000920E-02 0.  1.
       -2    1    3    3    0  502  0.88685794111E+03 -0.88157626139E+03 -0.86631111265E+03  0.15212457580E+04  0.25500000920E-02 0. -1.
</event>
<event>
 5   0  0.2621528E-06  0.3181470E+04  0.7818609E-02  0.8193728E-01
        2   -1    0    0  501    0  0.00000000000E+00  0.00000000000E+00  0.81452920321E+03  0.81452920321E+03  0.25500000920E-02 0.  1.
       -2   -1    0    0    0  501  0.00000000000E+00  0.00000000000E+00 -0.31066256523E+04  0.31066256523E+04  0.25500000920E-02 0. -1.
    10030    2    1    2    0    0  0.00000000000E+00  0.00000000000E+00 -0.22920964491E+04  0.39211548555E+04  0.31814696712E+04 0.  0.
        2    1    3    3  502    0 -0.58942551510E+03 -0.42532850311E+02  0.67421641244E+03  0.89654852184E+03  0.25500000920E-02 0.  1.
       -2    1    3    3    0  502  0.58942551510E+03  0.42532850311E+02 -0.29663128615E+04  0.30246063337E+04  0.25500000920E-02 0. -1.
</event>
<event>
 5   0  0.8383008E-07  0.3166670E+04  0.7818609E-02  0.8197675E-01
        1   -1    0    0  501    0  0.00000000000E+00  0.00000000000E+00  0.31747469388E+04  0.31747469388E+04  0.50400001928E-02 0.  1.
       -1   -1    0    0    0  501  0.00000000000E+00  0.00000000000E+00 -0.78965361363E+03  0.78965361365E+03  0.50400001928E-02 0. -1.
    10030    2    1    2    0    0  0.00000000000E+00  0.00000000000E+00  0.23850933252E+04  0.39644005525E+04  0.31666704234E+04 0.  0.
        4    1    3    3  502    0 -0.28948567004E+03 -0.14253433720E+04  0.19759121767E+04  0.24534946962E+04  0.12699999809E+01 0.  1.
       -4    1    3    3    0  502  0.28948567004E+03  0.14253433720E+04  0.40918114850E+03  0.15109058563E+04  0.12699999809E+01 0. -1.
</event>
<event>
 5   0  0.2401139E-06  0.3200955E+04  0.7818609E-02  0.8188565E-01
        2   -1    0    0  501    0  0.00000000000E+00  0.00000000000E+00  0.26256788324E+04  0.26256788324E+04  0.25500000920E-02 0.  1.
       -2   -1    0    0    0  501  0.00000000000E+00  0.00000000000E+00 -0.97556801492E+03  0.97556801492E+03  0.25500000920E-02 0. -1.
    10030    2    1    2    0    0  0.00000000000E+00  0.00000000000E+00  0.16501108175E+04  0.36012468473E+04  0.32009550365E+04 0.  0.
        5    1    3    3  502    0 -0.45881550962E+03 -0.13298377700E+04  0.16837346930E+04  0.21940749242E+04  0.46999998093E+01 0.  1.
       -5    1    3    3    0  502  0.45881550962E+03  0.13298377700E+04 -0.33623875518E+02  0.14071719232E+04  0.46999998093E+01 0. -1.
</event>
<event>
 5   0  0.8383008E-07  0.3186792E+04  0.7818609E-02  0.8192314E-01
       -1   -1    0    0    0  501  0.00000000000E+00  0.00000000000E+00  0.14082858223E+04  0.14082858223E+04  0.50400001928E-02 0. -1.
        1   -1    0    0  501    0  0.00000000000E+00  0.00000000000E+00 -0.18028382642E+04  0.18028382642E+04  0.50400001928E-02 0.  1.
    10030    2    1    2    0    0  0.00000000000E+00  0.00000000000E+00 -0.39455244196E+03  0.32111240865E+04  0.31867924735E+04 0.  0.
        4    1    3    3  502    0  0.32452876810E+03  0.15260498033E+04  0.12886623178E+03  0.15654887550E+04  0.12699999809E+01 0. -1.
       -4    1    3    3    0  502 -0.32452876810E+03 -0.15260498033E+04 -0.52341867373E+03  0.16456353315E+04  0.12699999809E+01 0.  1.
</event>
<event>
 5   0  0.2337504E-06  0.3213179E+04  0.7818609E-02  0.8185345E-01
       -2   -1    0    0    0  501  0.00000000000E+00  0.00000000000E+00  0.17967057439E+04  0.17967057439E+04  0.25500000920E-02 0.  1.
        2   -1    0    0  501    0  0.00000000000E+00  0.00000000000E+00 -0.14365897904E+04  0.14365897904E+04  0.25500000920E-02 0. -1.
    10030    2    1    2    0    0  0.00000000000E+00  0.00000000000E+00  0.36011595351E+03  0.32332955343E+04  0.32131785684E+04 0.  0.
        1    1    3    3  502    0 -0.79554506030E+03  0.11590788072E+04 -0.60248269474E+03  0.15294904451E+04  0.50400001928E-02 0. -1.
       -1    1    3    3    0  502  0.79554506030E+03 -0.11590788072E+04  0.96259864825E+03  0.17038050892E+04  0.50400001928E-02 0.  1.
</event>
<event>
 5   0  0.8487944E-07  0.3207239E+04  0.7818609E-02  0.8186908E-01
       -1   -1    0    0    0  501  0.00000000000E+00  0.00000000000E+00  0.15713526612E+04  0.15713526612E+04  0.50400001928E-02 0.  1.
        1   -1    0    0  501    0  0.00000000000E+00  0.00000000000E+00 -0.16365492581E+04  0.16365492581E+04  0.50400001928E-02 0. -1.
    10030    2    1    2    0    0  0.00000000000E+00  0.00000000000E+00 -0.65196596876E+02  0.32079019193E+04  0.32072393312E+04 0.  0.
        2    1    3    3  502    0 -0.96254573677E+03  0.11064882649E+04  0.61621549255E+03  0.15907646303E+04  0.25500000920E-02 0.  1.
       -2    1    3    3    0  502  0.96254573677E+03 -0.11064882649E+04 -0.68141208943E+03  0.16171372890E+04  0.25500000920E-02 0. -1.
</event>
<event>
 5   0  0.8487944E-07  0.3246035E+04  0.7818609E-02  0.8176764E-01
       -1   -1    0    0    0  501  0.00000000000E+00  0.00000000000E+00  0.14343514827E+04  0.14343514827E+04  0.50400001928E-02 0.  1.
        1   -1    0    0  501    0  0.00000000000E+00  0.00000000000E+00 -0.18364992049E+04  0.18364992050E+04  0.50400001928E-02 0. -1.
    10030    2    1    2    0    0  0.00000000000E+00  0.00000000000E+00 -0.40214772222E+03  0.32708506877E+04  0.32460347242E+04 0.  0.
        2    1    3    3  502    0  0.58612796913E+03 -0.38152508956E+03  0.12747315523E+04  0.14539765887E+04  0.25500000920E-02 0.  1.
       -2    1    3    3    0  502 -0.58612796913E+03  0.38152508956E+03 -0.16768792745E+04  0.18168740990E+04  0.25500000920E-02 0. -1.
</event>
<event>
 5   0  0.8512855E-07  0.2738910E+04  0.7818609E-02  0.8322489E-01
       -1   -1    0    0    0  501  0.00000000000E+00  0.00000000000E+00  0.11137497859E+04  0.11137497859E+04  0.50400001928E-02 0.  1.
        1   -1    0    0  501    0  0.00000000000E+00  0.00000000000E+00 -0.16838679494E+04  0.16838679494E+04  0.50400001928E-02 0. -1.
    10030    2    1    2    0    0  0.00000000000E+00  0.00000000000E+00 -0.57011816352E+03  0.27976177353E+04  0.27389104170E+04 0.  0.
        5    1    3    3  502    0 -0.12697583386E+03 -0.52405365757E+03  0.10007442109E+04  0.11367788545E+04  0.46999998093E+01 0.  1.
       -5    1    3    3    0  502  0.12697583386E+03  0.52405365757E+03 -0.15708623744E+04  0.16608388808E+04  0.46999998093E+01 0. -1.
</event>
<event>
 5   0  0.8512855E-07  0.3088280E+04  0.7818609E-02  0.8218962E-01
       -1   -1    0    0    0  501  0.00000000000E+00  0.00000000000E+00  0.23491129337E+04  0.23491129337E+04  0.50400001928E-02 0. -1.
        1   -1    0    0  501    0  0.00000000000E+00  0.00000000000E+00 -0.10150079185E+04  0.10150079186E+04  0.50400001928E-02 0.  1.
    10030    2    1    2    0    0  0.00000000000E+00  0.00000000000E+00  0.13341050151E+04  0.33641208522E+04  0.30882799285E+04 0.  0.
        5    1    3    3  502    0  0.41297124016E+03  0.15847994114E+03  0.22786128108E+04  0.23211547920E+04  0.46999998093E+01 0. -1.
       -5    1    3    3    0  502 -0.41297124016E+03 -0.15847994114E+03 -0.94450779560E+03  0.10429660603E+04  0.46999998093E+01 0.  1.
</event>
<event>
 5   0  0.8383008E-07  0.3213997E+04  0.7818609E-02  0.8185130E-01
        1   -1    0    0  501    0  0.00000000000E+00  0.00000000000E+00  0.17550569793E+04  0.17550569793E+04  0.50400001928E-02 0. -1.
       -1   -1    0    0    0  501  0.00000000000E+00  0.00000000000E+00 -0.14714300604E+04  0.14714300604E+04  0.50400001928E-02 0.  1.
    10030    2    1    2    0    0  0.00000000000E+00  0.00000000000E+00  0.28362691890E+03  0.32264870396E+04  0.32139966378E+04 0.  0.
        4    1    3    3  502    0 -0.78577038797E+03 -0.31840894106E+03 -0.12286374843E+04  0.14927729356E+04  0.12699999809E+01 0.  1.
       -4    1    3    3    0  502  0.78577038797E+03  0.31840894106E+03  0.15122644032E+04  0.17337141040E+04  0.12699999809E+01 0. -1.
</event>
<event>
 5   0  0.2404430E-06  0.3185005E+04  0.7818609E-02  0.8192789E-01
        2   -1    0    0  501    0  0.00000000000E+00  0.00000000000E+00  0.13134839183E+04  0.13134839183E+04  0.25500000920E-02 0. -1.
       -2   -1    0    0    0  501  0.00000000000E+00  0.00000000000E+00 -0.19307919509E+04  0.19307919509E+04  0.25500000920E-02 0.  1.
    10030    2    1    2    0    0  0.00000000000E+00  0.00000000000E+00 -0.61730803257E+03  0.32442758691E+04  0.31850049777E+04 0.  0.
        4    1    3    3  502    0 -0.13901867351E+04 -0.52114225786E+03  0.27813407219E+03  0.15104862086E+04  0.12699999809E+01 0. -1.
       -4    1    3    3    0  502  0.13901867351E+04  0.52114225786E+03 -0.89544210476E+03  0.17337896606E+04  0.12699999809E+01 0.  1.
</event>
<event>
 5   0  0.2337504E-06  0.3198496E+04  0.7818609E-02  0.8189214E-01
        2   -1    0    0  501    0  0.00000000000E+00  0.00000000000E+00  0.12808158182E+04  0.12808158182E+04  0.25500000920E-02 0. -1.
       -2   -1    0    0    0  501  0.00000000000E+00  0.00000000000E+00 -0.19968480245E+04  0.19968480245E+04  0.25500000920E-02 0.  1.
    10030    2    1    2    0    0  0.00000000000E+00  0.00000000000E+00 -0.71603220634E+03  0.32776638428E+04  0.31984962319E+04 0.  0.
        1    1    3    3  502    0 -0.61212429043E+03  0.11491282181E+04 -0.13096581614E+04  0.18467258346E+04  0.50400001928E-02 0.  1.
       -1    1    3    3    0  502  0.61212429043E+03 -0.11491282181E+04  0.59362595511E+03  0.14309380081E+04  0.50400001928E-02 0. -1.
</event>
<event>
 5   0  0.2401139E-06  0.3271822E+04  0.7818609E-02  0.8170102E-01
        2   -1    0    0  501    0  0.00000000000E+00  0.00000000000E+00  0.23200238941E+04  0.23200238941E+04  0.25500000920E-02 0.  1.
       -2   -1    0    0    0  501  0.00000000000E+00  0.00000000000E+00 -0.11535248912E+04  0.11535248912E+04  0.25500000920E-02 0. -1.
    10030    2    1    2    0    0  0.00000000000E+00  0.00000000000E+00  0.11664990029E+04  0.34735487852E+04  0.32718223117E+04 0.  0.
        5    1    3    3  502    0 -0.71926009031E+03 -0.14573460721E+04  0.78184033223E+03  0.18034658429E+04  0.46999998093E+01 0. -1.
       -5    1    3    3    0  502  0.71926009031E+03  0.14573460721E+04  0.38465867068E+03  0.16700829423E+04  0.46999998093E+01 0.  1.
</event>
<event>
 5   0  0.2404430E-06  0.3150179E+04  0.7818609E-02  0.8202100E-01
       -2   -1    0    0    0  501  0.00000000000E+00  0.00000000000E+00  0.24568296481E+04  0.24568296482E+04  0.25500000920E-02 0. -1.
        2   -1    0    0  501    0  0.00000000000E+00  0.00000000000E+00 -0.10098003568E+04  0.10098003568E+04  0.25500000920E-02 0.  1.
    10030    2    1    2    0    0  0.00000000000E+00  0.00000000000E+00  0.14470292913E+04  0.34666300050E+04  0.31501793316E+04 0.  0.
        4    1    3    3  502    0 -0.59692035372E+03 -0.73804598336E+03  0.21067123926E+04  0.23106848552E+04  0.12699999809E+01 0. -1.
       -4    1    3    3    0  502  0.59692035372E+03  0.73804598336E+03 -0.65968310125E+03  0.11559451497E+04  0.12699999809E+01 0.  1.
</event>
<event>
 5   0  0.8487944E-07  0.3199539E+04  0.7818609E-02  0.8188939E-01
       -1   -1    0    0    0  501  0.00000000000E+00  0.00000000000E+00  0.20549946014E+04  0.20549946014E+04  0.50400001928E-02 0.  1.
        1   -1    0    0  501    0  0.00000000000E+00  0.00000000000E+00 -0.12453865169E+04  0.12453865169E+04  0.50400001928E-02 0. -1.
    10030    2    1    2    0    0  0.00000000000E+00  0.00000000000E+00  0.80960808450E+03  0.33003811184E+04  0.31995390724E+04 0.  0.
        2    1    3    3  502    0  0.11230014420E+04  0.39905969286E+02 -0.76973991420E+03  0.13620661734E+04  0.25500000920E-02 0. -1.
       -2    1    3    3    0  502 -0.11230014420E+04 -0.39905969286E+02  0.15793479987E+04  0.19383149450E+04  0.25500000920E-02 0.  1.
</event>
<event>
 5   0  0.8681172E-07  0.3160668E+04  0.7818609E-02  0.8199283E-01
        1   -1    0    0  501    0  0.00000000000E+00  0.00000000000E+00  0.24082532113E+04  0.24082532113E+04  0.50400001928E-02 0.  1.
       -1   -1    0    0    0  501  0.00000000000E+00  0.00000000000E+00 -0.10370402197E+04  0.10370402197E+04  0.50400001928E-02 0. -1.
    10030    2    1    2    0    0  0.00000000000E+00  0.00000000000E+00  0.13712129916E+04  0.34452934310E+04  0.31606679290E+04 0.  0.
        1    1    3    3  502    0  0.13512188032E+04  0.74680144088E+03  0.10535710814E+04  0.18690951474E+04  0.50400001928E-02 0.  1.
       -1    1    3    3    0  502 -0.13512188032E+04 -0.74680144088E+03  0.31764191022E+03  0.15761982836E+04  0.50400001928E-02 0. -1.
</event>
<event>
 5   0  0.2401139E-06  0.3173107E+04  0.7818609E-02  0.8195956E-01
        2   -1    0    0  501    0  0.00000000000E+00  0.00000000000E+00  0.20018978391E+04  0.20018978391E+04  0.25500000920E-02 0.  1.
       -2   -1    0    0    0  501  0.00000000000E+00  0.00000000000E+00 -0.12573830329E+04  0.12573830329E+04  0.25500000920E-02 0. -1.
    10030    2    1    2    0    0  0.00000000000E+00  0.00000000000E+00  0.74451480625E+03  0.32592808720E+04  0.31731072320E+04 0.  0.
        5    1    3    3  502    0  0.28307664066E+03  0.43529313034E+03 -0.11676287304E+04  0.12778855332E+04  0.46999998093E+01 0. -1.
       -5    1    3    3    0  502 -0.28307664066E+03 -0.43529313034E+03  0.19121435367E+04  0.19813953388E+04  0.46999998093E+01 0.  1.
</event>
<event>
 5   0  0.2337504E-06  0.3205180E+04  0.7818609E-02  0.8187451E-01
        2   -1    0    0  501    0  0.00000000000E+00  0.00000000000E+00  0.26422247244E+04  0.26422247244E+04  0.25500000920E-02 0. -1.
       -2   -1    0    0    0  501  0.00000000000E+00  0.00000000000E+00 -0.97201976476E+03  0.97201976476E+03  0.25500000920E-02 0.  1.
    10030    2    1    2    0    0  0.00000000000E+00  0.00000000000E+00  0.16702049597E+04  0.36142444892E+04  0.32051799669E+04 0.  0.
        1    1    3    3  502    0  0.60583595917E+03  0.44596016036E+03  0.24307539250E+04  0.25445004064E+04  0.50400001928E-02 0. -1.
       -1    1    3    3    0  502 -0.60583595917E+03 -0.44596016036E+03 -0.76054896533E+03  0.10697440828E+04  0.50400001928E-02 0.  1.
</event>
<event>
 5   0  0.8512855E-07  0.3151865E+04  0.7818609E-02  0.8201646E-01
       -1   -1    0    0    0  501  0.00000000000E+00  0.00000000000E+00  0.11763394629E+04  0.11763394629E+04  0.50400001928E-02 0. -1.
        1   -1    0    0  501    0  0.00000000000E+00  0.00000000000E+00 -0.21112639535E+04  0.21112639535E+04  0.50400001928E-02 0.  1.
    10030    2    1    2    0    0  0.00000000000E+00  0.00000000000E+00 -0.93492449062E+03  0.32876034164E+04  0.31518649115E+04 0.  0.
        5    1    3    3  502    0  0.11037931782E+04  0.44734593289E+03  0.60900179765E+03  0.13376782287E+04  0.46999998093E+01 0. -1.
       -5    1    3    3    0  502 -0.11037931782E+04 -0.44734593289E+03 -0.15439262883E+04  0.19499251877E+04  0.46999998093E+01 0.  1.
</event>
<event>
 5   0  0.8545153E-07  0.3204858E+04  0.7818609E-02  0.8187535E-01
       -1   -1    0    0    0  501  0.00000000000E+00  0.00000000000E+00  0.20264710138E+04  0.20264710138E+04  0.50400001928E-02 0.  1.
        1   -1    0    0  501    0  0.00000000000E+00  0.00000000000E+00 -0.12671184171E+04  0.12671184171E+04  0.50400001928E-02 0. -1.
    10030    2    1    2    0    0  0.00000000000E+00  0.00000000000E+00  0.75935259666E+03  0.32935894309E+04  0.32048580270E+04 0.  0.
        3    1    3    3  502    0  0.52928544920E+03  0.12775332874E+04  0.12117498217E+04  0.18386331956E+04  0.10100000352E+00 0. -1.
       -3    1    3    3    0  502 -0.52928544920E+03 -0.12775332874E+04 -0.45239722509E+03  0.14549562353E+04  0.10100000352E+00 0.  1.
</event>
<event>
 5   0  0.2401139E-06  0.3223475E+04  0.7818609E-02  0.8182645E-01
        2   -1    0    0  501    0  0.00000000000E+00  0.00000000000E+00  0.21906426633E+04  0.21906426633E+04  0.25500000920E-02 0. -1.
       -2   -1    0    0    0  501  0.00000000000E+00  0.00000000000E+00 -0.11858151809E+04  0.11858151809E+04  0.25500000920E-02 0.  1.
    10030    2    1    2    0    0  0.00000000000E+00  0.00000000000E+00  0.10048274824E+04  0.33764578441E+04  0.32234747252E+04 0.  0.
        5    1    3    3  502    0 -0.11658149665E+04 -0.79243732919E+03 -0.31607601841E+03  0.14446479143E+04  0.46999998093E+01 0.  1.
       -5    1    3    3    0  502  0.11658149665E+04  0.79243732919E+03  0.13209035008E+04  0.19318099299E+04  0.46999998093E+01 0. -1.
</event>
<event>
 5   0  0.8545153E-07  0.3196213E+04  0.7818609E-02  0.8189818E-01
       -1   -1    0    0    0  501  0.00000000000E+00  0.00000000000E+00  0.80182439523E+03  0.80182439524E+03  0.50400001928E-02 0. -1.
        1   -1    0    0  501    0  0.00000000000E+00  0.00000000000E+00 -0.31851670894E+04  0.31851670894E+04  0.50400001928E-02 0.  1.
    10030    2    1    2    0    0  0.00000000000E+00  0.00000000000E+00 -0.23833426942E+04  0.39869914847E+04  0.31962131814E+04 0.  0.
        3    1    3    3  502    0 -0.11706245308E+03 -0.61488421963E+03 -0.30258993855E+04  0.30899600843E+04  0.10100000352E+00 0.  1.
       -3    1    3    3    0  502  0.11706245308E+03  0.61488421963E+03  0.64255669129E+03  0.89703140034E+03  0.10100000352E+00 0. -1.
</event>
<event>
 5   0  0.2401139E-06  0.3178872E+04  0.7818609E-02  0.8194419E-01
       -2   -1    0    0    0  501  0.00000000000E+00  0.00000000000E+00  0.14209551060E+04  0.14209551060E+04  0.25500000920E-02 0. -1.
        2   -1    0    0  501    0  0.00000000000E+00  0.00000000000E+00 -0.17778935079E+04  0.17778935079E+04  0.25500000920E-02 0.  1.
    10030    2    1    2    0    0  0.00000000000E+00  0.00000000000E+00 -0.35693840191E+03  0.31988486140E+04  0.31788720377E+04 0.  0.
        5    1    3    3  502    0  0.10780917157E+03  0.27888835653E+03  0.13923926812E+04  0.14241421985E+04  0.46999998093E+01 0. -1.
       -5    1    3    3    0  502 -0.10780917157E+03 -0.27888835653E+03 -0.17493310831E+04  0.17747064155E+04  0.46999998093E+01 0.  1.
</event>
<event>
 5   0  0.8487944E-07  0.3180808E+04  0.7818609E-02  0.8193904E-01
       -1   -1    0    0    0  501  0.00000000000E+00  0.00000000000E+00  0.14345254644E+04  0.14345254644E+04  0.50400001928E-02 0. -1.
        1   -1    0    0  501    0  0.00000000000E+00  0.00000000000E+00 -0.17632209057E+04  0.17632209057E+04  0.50400001928E-02 0.  1.
    10030    2    1    2    0    0  0.00000000000E+00  0.00000000000E+00 -0.32869544130E+03  0.31977463701E+04  0.31808082549E+04 0.  0.
        2    1    3    3  502    0 -0.70198082697E+03  0.14232490718E+04 -0.59050838464E+02  0.15880497484E+04  0.25500000920E-02 0.  1.
       -2    1    3    3    0  502  0.70198082697E+03 -0.14232490718E+04 -0.26964460283E+03  0.16096966217E+04  0.25500000920E-02 0. -1.
</event>
<event>
 5   0  0.2337504E-06  0.3214417E+04  0.7818609E-02  0.8185020E-01
       -2   -1    0    0    0  501  0.00000000000E+00  0.00000000000E+00  0.11716928456E+04  0.11716928456E+04  0.25500000920E-02 0. -1.
        2   -1    0    0  501    0  0.00000000000E+00  0.00000000000E+00 -0.22046043129E+04  0.22046043129E+04  0.25500000920E-02 0.  1.
    10030    2    1    2    0    0  0.00000000000E+00  0.00000000000E+00 -0.10329114673E+04  0.33762971585E+04  0.32144169616E+04 0.  0.
        1    1    3    3  502    0 -0.92151366952E+03 -0.10150746861E+04 -0.13974792306E+04  0.19576803267E+04  0.50400001928E-02 0. -1.
       -1    1    3    3    0  502  0.92151366952E+03  0.10150746861E+04  0.36456776330E+03  0.14186168318E+04  0.50400001928E-02 0.  1.
</event>
<event>
 5   0  0.8487944E-07  0.2891188E+04  0.7818609E-02  0.8275504E-01
       -1   -1    0    0    0  501  0.00000000000E+00  0.00000000000E+00  0.17147971892E+04  0.17147971892E+04  0.50400001928E-02 0.  1.
        1   -1    0    0  501    0  0.00000000000E+00  0.00000000000E+00 -0.12186527895E+04  0.12186527895E+04  0.50400001928E-02 0. -1.
    10030    2    1    2    0    0  0.00000000000E+00  0.00000000000E+00  0.49614439973E+03  0.29334499787E+04  0.28911882526E+04 0.  0.
        2    1    3    3  502    0  0.12216021492E+03 -0.74469514607E+03 -0.10029343796E+04  0.12551379799E+04  0.25500000920E-02 0. -1.
       -2    1    3    3    0  502 -0.12216021492E+03  0.74469514607E+03  0.14990787793E+04  0.16783119988E+04  0.25500000920E-02 0.  1.
</event>
<event>
 5   0  0.2404430E-06  0.3174109E+04  0.7818609E-02  0.8195689E-01
       -2   -1    0    0    0  501  0.00000000000E+00  0.00000000000E+00  0.12864053142E+04  0.12864053142E+04  0.25500000920E-02 0. -1.
        2   -1    0    0  501    0  0.00000000000E+00  0.00000000000E+00 -0.19579687511E+04  0.19579687511E+04  0.25500000920E-02 0.  1.
    10030    2    1    2    0    0  0.00000000000E+00  0.00000000000E+00 -0.67156343692E+03  0.32443740652E+04  0.31741086348E+04 0.  0.
        4    1    3    3  502    0 -0.28964776975E+02  0.14296407899E+04  0.36795652688E+03  0.14765179867E+04  0.12699999809E+01 0. -1.
       -4    1    3    3    0  502  0.28964776975E+02 -0.14296407899E+04 -0.10395199638E+04  0.17678560786E+04  0.12699999809E+01 0.  1.
</event>
<event>
 5   0  0.8383008E-07  0.3189754E+04  0.7818609E-02  0.8191528E-01
       -1   -1    0    0    0  501  0.00000000000E+00  0.00000000000E+00  0.20153148918E+04  0.20153148918E+04  0.50400001928E-02 0.  1.
        1   -1    0    0  501    0  0.00000000000E+00  0.00000000000E+00 -0.12621511501E+04  0.12621511501E+04  0.50400001928E-02 0. -1.
    10030    2    1    2    0    0  0.00000000000E+00  0.00000000000E+00  0.75316374167E+03  0.32774660419E+04  0.31897536008E+04 0.  0.
        4    1    3    3  502    0 -0.43177918689E+03 -0.11666332040E+04 -0.64894373085E+03  0.14030665977E+04  0.12699999809E+01 0. -1.
       -4    1    3    3    0  502  0.43177918689E+03  0.11666332040E+04  0.14021074725E+04  0.18743994442E+04  0.12699999809E+01 0.  1.
</event>
<event>
 5   0  0.8487944E-07  0.3271295E+04  0.7818609E-02  0.8170238E-01
       -1   -1    0    0    0  501  0.00000000000E+00  0.00000000000E+00  0.12304379778E+04  0.12304379779E+04  0.50400001928E-02 0. -1.
        1   -1    0    0  501    0  0.00000000000E+00  0.00000000000E+00 -0.21743013624E+04  0.21743013624E+04  0.50400001928E-02 0.  1.
    10030    2    1    2    0    0  0.00000000000E+00  0.00000000000E+00 -0.94386338459E+03  0.34047393403E+04  0.32712951390E+04 0.  0.
        2    1    3    3  502    0  0.18803128366E+03 -0.14374872976E+03 -0.21563839686E+04  0.21693342944E+04  0.25500000920E-02 0.  1.
       -2    1    3    3    0  502 -0.18803128366E+03  0.14374872976E+03  0.12125205840E+04  0.12354050459E+04  0.25500000920E-02 0. -1.
</event>
<event>
 5   0  0.8512855E-07  0.3178737E+04  0.7818609E-02  0.8194455E-01
       -1   -1    0    0    0  501  0.00000000000E+00  0.00000000000E+00  0.12183026076E+04  0.12183026076E+04  0.50400001928E-02 0. -1.
        1   -1    0    0  501    0  0.00000000000E+00  0.00000000000E+00 -0.20734520465E+04  0.20734520465E+04  0.50400001928E-02 0.  1.
    10030    2    1    2    0    0  0.00000000000E+00  0.00000000000E+00 -0.85514943894E+03  0.32917546541E+04  0.31787368781E+04 0.  0.
        5    1    3    3  502    0 -0.88028209763E+03  0.43306278163E+03  0.86733614632E+03  0.13094785317E+04  0.46999998093E+01 0. -1.
       -5    1    3    3    0  502  0.88028209763E+03 -0.43306278163E+03 -0.17224855853E+04  0.19822761225E+04  0.46999998093E+01 0.  1.
</event>
<event>
 5   0  0.8487944E-07  0.3070639E+04  0.7818609E-02  0.8223842E-01
       -1   -1    0    0    0  501  0.00000000000E+00  0.00000000000E+00  0.10743938675E+04  0.10743938675E+04  0.50400001928E-02 0. -1.
        1   -1    0    0  501    0  0.00000000000E+00  0.00000000000E+00 -0.21939864015E+04  0.21939864015E+04  0.50400001928E-02 0.  1.
    10030    2    1    2    0    0  0.00000000000E+00  0.00000000000E+00 -0.11195925340E+04  0.32683802690E+04  0.30706387187E+04 0.  0.
        2    1    3    3  502    0 -0.65155406522E+03 -0.78645549458E+03  0.66040010734E+03  0.12162085539E+04  0.25500000920E-02 0. -1.
       -2    1    3    3    0  502  0.65155406522E+03  0.78645549458E+03 -0.17799926413E+04  0.20521717151E+04  0.25500000920E-02 0.  1.
</event>
<event>
 5   0  0.8545153E-07  0.3219922E+04  0.7818609E-02  0.8183575E-01
        1   -1    0    0  501    0  0.00000000000E+00  0.00000000000E+00  0.23516747268E+04  0.23516747268E+04  0.50400001928E-02 0.  1.
       -1   -1    0    0    0  501  0.00000000000E+00  0.00000000000E+00 -0.11021825765E+04  0.11021825765E+04  0.50400001928E-02 0. -1.
    10030    2    1    2    0    0  0.00000000000E+00  0.00000000000E+00  0.12494921503E+04  0.34538573033E+04  0.32199223031E+04 0.  0.
        3    1    3    3  502    0 -0.74390025398E+03 -0.21688384443E+03  0.21384971510E+04  0.22745540805E+04  0.10100000352E+00 0.  1.
       -3    1    3    3    0  502  0.74390025398E+03  0.21688384443E+03 -0.88900500072E+03  0.11793032228E+04  0.10100000352E+00 0. -1.
</event>
<event>
 5   0  0.8512855E-07  0.3195523E+04  0.7818609E-02  0.8190001E-01
       -1   -1    0    0    0  501  0.00000000000E+00  0.00000000000E+00  0.85810202275E+03  0.85810202276E+03  0.50400001928E-02 0.  1.
        1   -1    0    0  501    0  0.00000000000E+00  0.00000000000E+00 -0.29749861735E+04  0.29749861735E+04  0.50400001928E-02 0. -1.
    10030    2    1    2    0    0  0.00000000000E+00  0.00000000000E+00 -0.21168841508E+04  0.38330881963E+04  0.31955229013E+04 0.  0.
        5    1    3    3  502    0 -0.12667343020E+04  0.57220372225E+03 -0.11334140812E+03  0.13945971663E+04  0.46999998093E+01 0. -1.
       -5    1    3    3    0  502  0.12667343020E+04 -0.57220372225E+03 -0.20035427427E+04  0.24384910300E+04  0.46999998093E+01 0.  1.
</event>
<event>
 5   0  0.8512855E-07  0.3178052E+04  0.7818609E-02  0.8194638E-01
       -1   -1    0    0    0  501  0.00000000000E+00  0.00000000000E+00  0.10094257739E+04  0.10094257739E+04  0.50400001928E-02 0. -1.
        1   -1    0    0  501    0  0.00000000000E+00  0.00000000000E+00 -0.25014262995E+04  0.25014262996E+04  0.50400001928E-02 0.  1.
    10030    2    1    2    0    0  0.00000000000E+00  0.00000000000E+00 -0.14920005256E+04  0.35108520735E+04  0.31780523459E+04 0.  0.
        5    1    3    3  502    0  0.51625197943E+03  0.13789751284E+04 -0.14059651823E+04  0.20358901481E+04  0.46999998093E+01 0. -1.
       -5    1    3    3    0  502 -0.51625197943E+03 -0.13789751284E+04 -0.86035343278E+02  0.14749619254E+04  0.46999998093E+01 0.  1.
</event>
<event>
 5   0  0.8512855E-07  0.3225614E+04  0.7818609E-02  0.8182085E-01
        1   -1    0    0  501    0  0.00000000000E+00  0.00000000000E+00  0.22578069922E+04  0.22578069922E+04  0.50400001928E-02 0. -1.
       -1   -1    0    0    0  501  0.00000000000E+00  0.00000000000E+00 -0.11520673592E+04  0.11520673592E+04  0.50400001928E-02 0.  1.
    10030    2    1    2    0    0  0.00000000000E+00  0.00000000000E+00  0.11057396330E+04  0.34098743514E+04  0.32256135783E+04 0.  0.
        5    1    3    3  502    0  0.90405666390E+03  0.12073199241E+04 -0.50880304185E+02  0.15091556401E+04  0.46999998093E+01 0.  1.
       -5    1    3    3    0  502 -0.90405666390E+03 -0.12073199241E+04  0.11566199372E+04  0.19007187113E+04  0.46999998093E+01 0. -1.
</event>
<event>
 5   0  0.2404430E-06  0.3232404E+04  0.7818609E-02  0.8180311E-01
        2   -1    0    0  501    0  0.00000000000E+00  0.00000000000E+00  0.16597916429E+04  0.16597916429E+04  0.25500000920E-02 0.  1.
       -2   -1    0    0    0  501  0.00000000000E+00  0.00000000000E+00 -0.15737572213E+04  0.15737572213E+04  0.25500000920E-02 0. -1.
    10030    2    1    2    0    0  0.00000000000E+00  0.00000000000E+00  0.86034421531E+02  0.32335488642E+04  0.32324041108E+04 0.  0.
        4    1    3    3  502    0 -0.91008345559E+03 -0.25226682716E+03  0.13550521438E+04  0.16516834968E+04  0.12699999809E+01 0.  1.
       -4    1    3    3    0  502  0.91008345559E+03  0.25226682716E+03 -0.12690177223E+04  0.15818653674E+04  0.12699999809E+01 0. -1.
</event>
<event>
 5   0  0.8383008E-07  0.3220533E+04  0.7818609E-02  0.8183416E-01
        1   -1    0    0  501    0  0.00000000000E+00  0.00000000000E+00  0.14473333470E+04  0.14473333470E+04  0.50400001928E-02 0.  1.
       -1   -1    0    0    0  501  0.00000000000E+00  0.00000000000E+00 -0.17915412579E+04  0.17915412579E+04  0.50400001928E-02 0. -1.
    10030    2    1    2    0    0  0.00000000000E+00  0.00000000000E+00 -0.34420791096E+03  0.32388746049E+04  0.32205325057E+04 0.  0.
        4    1    3    3  502    0  0.10280698317E+04 -0.69816632720E+01 -0.14185088702E+04  0.17518976426E+04  0.12699999809E+01 0. -1.
       -4    1    3    3    0  502 -0.10280698317E+04  0.69816632720E+01  0.10743009592E+04  0.14869769623E+04  0.12699999809E+01 0.  1.
</event>
<event>
 5   0  0.2466076E-06  0.3022947E+04  0.7818609E-02  0.8237208E-01
        2   -1    0    0  501    0  0.00000000000E+00  0.00000000000E+00  0.16299007523E+04  0.16299007523E+04  0.25500000920E-02 0.  1.
       -2   -1    0    0    0  501  0.00000000000E+00  0.00000000000E+00 -0.14016510584E+04  0.14016510584E+04  0.25500000920E-02 0. -1.
    10030    2    1    2    0    0  0.00000000000E+00  0.00000000000E+00  0.22824969384E+03  0.30315518107E+04  0.30229469824E+04 0.  0.
        3    1    3    3  502    0 -0.19766814203E+03 -0.67688788743E+03 -0.12265808637E+04  0.14148323335E+04  0.10100000352E+00 0. -1.
       -3    1    3    3    0  502  0.19766814203E+03  0.67688788743E+03  0.14548305575E+04  0.16167194772E+04  0.10100000352E+00 0.  1.
</event>
<event>
 5   0  0.2337504E-06  0.3199981E+04  0.7818609E-02  0.8188822E-01
        2   -1    0    0  501    0  0.00000000000E+00  0.00000000000E+00  0.21282133263E+04  0.21282133263E+04  0.25500000920E-02 0. -1.
       -2   -1    0    0    0  501  0.00000000000E+00  0.00000000000E+00 -0.12028726857E+04  0.12028726857E+04  0.25500000920E-02 0.  1.
    10030    2    1    2    0    0  0.00000000000E+00  0.00000000000E+00  0.92534064064E+03  0.33310860120E+04  0.31999810496E+04 0.  0.
        1    1    3    3  502    0  0.95931885522E+03  0.64736638044E+03 -0.68739899709E+03  0.13460658519E+04  0.50400001928E-02 0.  1.
       -1    1    3    3    0  502 -0.95931885522E+03 -0.64736638044E+03  0.16127396377E+04  0.19850201600E+04  0.50400001928E-02 0. -1.
</event>
<event>
 5   0  0.8383008E-07  0.3191190E+04  0.7818609E-02  0.8191148E-01
        1   -1    0    0  501    0  0.00000000000E+00  0.00000000000E+00  0.10947859035E+04  0.10947859035E+04  0.50400001928E-02 0.  1.
       -1   -1    0    0    0  501  0.00000000000E+00  0.00000000000E+00 -0.23254985079E+04  0.23254985079E+04  0.50400001928E-02 0. -1.
    10030    2    1    2    0    0  0.00000000000E+00  0.00000000000E+00 -0.12307126044E+04  0.34202844114E+04  0.31911897374E+04 0.  0.
        4    1    3    3  502    0 -0.12651967400E+04 -0.92895603044E+03 -0.92271763459E+03  0.18207392849E+04  0.12699999809E+01 0. -1.
       -4    1    3    3    0  502  0.12651967400E+04  0.92895603044E+03 -0.30799496977E+03  0.15995451265E+04  0.12699999809E+01 0.  1.
</event>
<event>
 5   0  0.2337504E-06  0.3216126E+04  0.7818609E-02  0.8184571E-01
       -2   -1    0    0    0  501  0.00000000000E+00  0.00000000000E+00  0.10376991899E+04  0.10376991899E+04  0.25500000920E-02 0. -1.
        2   -1    0    0  501    0  0.00000000000E+00  0.00000000000E+00 -0.24919238565E+04  0.24919238565E+04  0.25500000920E-02 0.  1.
    10030    2    1    2    0    0  0.00000000000E+00  0.00000000000E+00 -0.14542246666E+04  0.35296230465E+04  0.32161264697E+04 0.  0.
        1    1    3    3  502    0 -0.12011687976E+04 -0.97423202015E+03 -0.12104169087E+04  0.19639357430E+04  0.50400001928E-02 0.  1.
       -1    1    3    3    0  502  0.12011687976E+04  0.97423202015E+03 -0.24380775785E+03  0.15656873035E+04  0.50400001928E-02 0. -1.
</event>
<event>
 5   0  0.2466076E-06  0.3409213E+04  0.7818609E-02  0.8135649E-01
        2   -1    0    0  501    0  0.00000000000E+00  0.00000000000E+00  0.30049812594E+04  0.30049812594E+04  0.25500000920E-02 0.  1.
       -2   -1    0    0    0  501  0.00000000000E+00  0.00000000000E+00 -0.96695529760E+03  0.96695529761E+03  0.25500000920E-02 0. -1.
    10030    2    1    2    0    0  0.00000000000E+00  0.00000000000E+00  0.20380259618E+04  0.39719365570E+04  0.34092125472E+04 0.  0.
        3    1    3    3  502    0 -0.24923604043E+03  0.36822869221E+03  0.29362255814E+04  0.29697022828E+04  0.10100000352E+00 0.  1.
       -3    1    3    3    0  502  0.24923604043E+03 -0.36822869221E+03 -0.89819961957E+03  0.10022342742E+04  0.10100000352E+00 0. -1.
</event>
<event>
 5   0  0.8487944E-07  0.3224440E+04  0.7818609E-02  0.8182392E-01
        1   -1    0    0  501    0  0.00000000000E+00  0.00000000000E+00  0.13543942440E+04  0.13543942440E+04  0.50400001928E-02 0.  1.
       -1   -1    0    0    0  501  0.00000000000E+00  0.00000000000E+00 -0.19191264397E+04  0.19191264397E+04  0.50400001928E-02 0. -1.
    10030    2    1    2    0    0  0.00000000000E+00  0.00000000000E+00 -0.56473219571E+03  0.32735206838E+04  0.32244402947E+04 0.  0.
        2    1    3    3  502    0  0.10785100262E+03  0.13601944625E+04  0.58947973805E+03  0.14863536511E+04  0.25500000920E-02 0.  1.
       -2    1    3    3    0  502 -0.10785100262E+03 -0.13601944625E+04 -0.11542119338E+04  0.17871670327E+04  0.25500000920E-02 0. -1.
</event>
<event>
 5   0  0.2466076E-06  0.3231066E+04  0.7818609E-02  0.8180660E-01
       -2   -1    0    0    0  501  0.00000000000E+00  0.00000000000E+00  0.13204482567E+04  0.13204482567E+04  0.25500000920E-02 0. -1.
        2   -1    0    0  501    0  0.00000000000E+00  0.00000000000E+00 -0.19765616690E+04  0.19765616690E+04  0.25500000920E-02 0.  1.
    10030    2    1    2    0    0  0.00000000000E+00  0.00000000000E+00 -0.65611341228E+03  0.32970099257E+04  0.32310663318E+04 0.  0.
        3    1    3    3  502    0  0.12967178164E+04 -0.89257642871E+03  0.42363966768E+02  0.15747903011E+04  0.10100000352E+00 0.  1.
       -3    1    3    3    0  502 -0.12967178164E+04  0.89257642871E+03 -0.69847737904E+03  0.17222196247E+04  0.10100000352E+00 0. -1.
</event>
<event>
 5   0  0.8383008E-07  0.3192719E+04  0.7818609E-02  0.8190743E-01
       -1   -1    0    0    0  501  0.00000000000E+00  0.00000000000E+00  0.19797380047E+04  0.19797380047E+04  0.50400001928E-02 0. -1.
        1   -1    0    0  501    0  0.00000000000E+00  0.00000000000E+00 -0.12872227627E+04  0.12872227627E+04  0.50400001928E-02 0.  1.
    10030    2    1    2    0    0  0.00000000000E+00  0.00000000000E+00  0.69251524201E+03  0.32669607674E+04  0.31927191069E+04 0.  0.
        4    1    3    3  502    0  0.12768331004E+04 -0.46829191371E+03 -0.50910031140E+03  0.14521655631E+04  0.12699999809E+01 0.  1.
       -4    1    3    3    0  502 -0.12768331004E+04  0.46829191371E+03  0.12016155534E+04  0.18147952044E+04  0.12699999809E+01 0. -1.
</event>
<event>
 5   0  0.8487944E-07  0.3198035E+04  0.7818609E-02  0.8189336E-01
       -1   -1    0    0    0  501  0.00000000000E+00  0.00000000000E+00  0.15223668060E+04  0.15223668060E+04  0.50400001928E-02 0.  1.
        1   -1    0    0  501    0  0.00000000000E+00  0.00000000000E+00 -0.16795272064E+04  0.16795272064E+04  0.50400001928E-02 0. -1.
    10030    2    1    2    0    0  0.00000000000E+00  0.00000000000E+00 -0.15716040036E+03  0.32018940124E+04  0.31980346895E+04 0.  0.
        2    1    3    3  502    0  0.80103513661E+03 -0.10314750864E+04  0.84516983465E+03  0.15556060534E+04  0.25500000920E-02 0.  1.
       -2    1    3    3    0  502 -0.80103513661E+03  0.10314750864E+04 -0.10023302350E+04  0.16462879590E+04  0.25500000920E-02 0. -1.
</event>
<event>
 5   0  0.8681172E-07  0.2916639E+04  0.7818609E-02  0.8267944E-01
        1   -1    0    0  501    0  0.00000000000E+00  0.00000000000E+00  0.18578850371E+04  0.18578850371E+04  0.50400001928E-02 0. -1.
       -1   -1    0    0    0  501  0.00000000000E+00  0.00000000000E+00 -0.11446867236E+04  0.11446867237E+04  0.50400001928E-02 0.  1.
    10030    2    1    2    0    0  0.00000000000E+00  0.00000000000E+00  0.71319831342E+03  0.30025717607E+04  0.29166393922E+04 0.  0.
        1    1    3    3  502    0 -0.58351129833E+03  0.13237685753E+04  0.16720133418E+03  0.14562983769E+04  0.50400001928E-02 0.  1.
       -1    1    3    3    0  502  0.58351129833E+03 -0.13237685753E+04  0.54599697924E+03  0.15462733839E+04  0.50400001928E-02 0. -1.
</event>
<event>
 5   0  0.2337504E-06  0.3146302E+04  0.7818609E-02  0.8203144E-01
       -2   -1    0    0    0  501  0.00000000000E+00  0.00000000000E+00  0.99491956481E+03  0.99491956482E+03  0.25500000920E-02 0.  1.
        2   -1    0    0  501    0  0.00000000000E+00  0.00000000000E+00 -0.24874409599E+04  0.24874409599E+04  0.25500000920E-02 0. -1.
    10030    2    1    2    0    0  0.00000000000E+00  0.00000000000E+00 -0.14925213951E+04  0.34823605247E+04  0.31463017512E+04 0.  0.
        1    1    3    3  502    0  0.15586887431E+04 -0.18007031642E+03 -0.87181304651E+03  0.17949913384E+04  0.50400001928E-02 0. -1.
       -1    1    3    3    0  502 -0.15586887431E+04  0.18007031642E+03 -0.62070834857E+03  0.16873691863E+04  0.50400001928E-02 0.  1.
</event>
<event>
 5   0  0.8681172E-07  0.3219800E+04  0.7818609E-02  0.8183607E-01
        1   -1    0    0  501    0  0.00000000000E+00  0.00000000000E+00  0.20621701217E+04  0.20621701217E+04  0.50400001928E-02 0. -1.
       -1   -1    0    0    0  501  0.00000000000E+00  0.00000000000E+00 -0.12568208806E+04  0.12568208806E+04  0.50400001928E-02 0.  1.
    10030    2    1    2    0    0  0.00000000000E+00  0.00000000000E+00  0.80534924105E+03  0.33189910023E+04  0.32198002847E+04 0.  0.
        1    1    3    3  502    0  0.12674186567E+04 -0.96481319130E+03  0.16188934045E+03  0.16010692377E+04  0.50400001928E-02 0.  1.
       -1    1    3    3    0  502 -0.12674186567E+04  0.96481319130E+03  0.64345990060E+03  0.17179217646E+04  0.50400001928E-02 0. -1.
</event>
<event>
 5   0  0.8383008E-07  0.3206580E+04  0.7818609E-02  0.8187082E-01
        1   -1    0    0  501    0  0.00000000000E+00  0.00000000000E+00  0.28527381423E+04  0.28527381423E+04  0.50400001928E-02 0. -1.
       -1   -1    0    0    0  501  0.00000000000E+00  0.00000000000E+00 -0.90107757238E+03  0.90107757239E+03  0.50400001928E-02 0.  1.
    10030    2    1    2    0    0  0.00000000000E+00  0.00000000000E+00  0.19516605699E+04  0.37538157147E+04  0.32065797105E+04 0.  0.
        4    1    3    3  502    0  0.10368070790E+04 -0.17073755135E+03 -0.44178889211E+03  0.11398680927E+04  0.12699999809E+01 0.  1.
       -4    1    3    3    0  502 -0.10368070790E+04  0.17073755135E+03  0.23934494621E+04  0.26139476221E+04  0.12699999809E+01 0. -1.
</event>
<event>
 5   0  0.2621528E-06  0.3198746E+04  0.7818609E-02  0.8189149E-01
       -2   -1    0    0    0  501  0.00000000000E+00  0.00000000000E+00  0.11596182281E+04  0.11596182281E+04  0.25500000920E-02 0. -1.
        2   -1    0    0  501    0  0.00000000000E+00  0.00000000000E+00 -0.22058927353E+04  0.22058927353E+04  0.25500000920E-02 0.  1.
    10030    2    1    2    0    0  0.00000000000E+00  0.00000000000E+00 -0.10462745073E+04  0.33655109634E+04  0.31987456448E+04 0.  0.
        2    1    3    3  502    0 -0.78351189824E+03 -0.10470149473E+04 -0.14919368445E+04  0.19839371821E+04  0.25500000920E-02 0.  1.
       -2    1    3    3    0  502  0.78351189824E+03  0.10470149473E+04  0.44566233720E+03  0.13815737813E+04  0.25500000920E-02 0. -1.
</event>
<event>
 5   0  0.2621528E-06  0.3237952E+04  0.7818609E-02  0.8178865E-01
        2   -1    0    0  501    0  0.00000000000E+00  0.00000000000E+00  0.14408750462E+04  0.14408750462E+04  0.25500000920E-02 0. -1.
       -2   -1    0    0    0  501  0.00000000000E+00  0.00000000000E+00 -0.18190911376E+04  0.18190911376E+04  0.25500000920E-02 0.  1.
    10030    2    1    2    0    0  0.00000000000E+00  0.00000000000E+00 -0.37821609140E+03  0.32599661837E+04  0.32379518383E+04 0.  0.
        2    1    3    3  502    0  0.78527501630E+03 -0.88556438270E+03 -0.13012457348E+04  0.17590115376E+04  0.25500000920E-02 0.  1.
       -2    1    3    3    0  502 -0.78527501630E+03  0.88556438270E+03  0.92302964339E+03  0.15009546461E+04  0.25500000920E-02 0. -1.
</event>
<event>
 5   0  0.2401139E-06  0.3182657E+04  0.7818609E-02  0.8193412E-01
       -2   -1    0    0    0  501  0.00000000000E+00  0.00000000000E+00  0.10591014822E+04  0.10591014822E+04  0.25500000920E-02 0.  1.
        2   -1    0    0  501    0  0.00000000000E+00  0.00000000000E+00 -0.23910140717E+04  0.23910140717E+04  0.25500000920E-02 0. -1.
    10030    2    1    2    0    0  0.00000000000E+00  0.00000000000E+00 -0.13319125895E+04  0.34501155539E+04  0.31826570957E+04 0.  0.
        5    1    3    3  502    0  0.10333810834E+04  0.12092066525E+04 -0.71734538852E+03  0.17448964693E+04  0.46999998093E+01 0. -1.
       -5    1    3    3    0  502 -0.10333810834E+04 -0.12092066525E+04 -0.61456720103E+03  0.17052190846E+04  0.46999998093E+01 0.  1.
</event>
<event>
 5   0  0.2337504E-06  0.2812332E+04  0.7818609E-02  0.8299450E-01
       -2   -1    0    0    0  501  0.00000000000E+00  0.00000000000E+00  0.16808056220E+04  0.16808056220E+04  0.25500000920E-02 0.  1.
        2   -1    0    0  501    0  0.00000000000E+00  0.00000000000E+00 -0.11764018229E+04  0.11764018229E+04  0.25500000920E-02 0. -1.
    10030    2    1    2    0    0  0.00000000000E+00  0.00000000000E+00  0.50440379910E+03  0.28572074449E+04  0.28123319845E+04 0.  0.
        1    1    3    3  502    0  0.12350307874E+04  0.60639365468E+03  0.54715931359E+03  0.14806747194E+04  0.50400001928E-02 0.  1.
       -1    1    3    3    0  502 -0.12350307874E+04 -0.60639365468E+03 -0.42755514495E+02  0.13765327255E+04  0.50400001928E-02 0. -1.
</event>
<event>
 5   0  0.8545153E-07  0.3236495E+04  0.7818609E-02  0.8179245E-01
        1   -1    0    0  501    0  0.00000000000E+00  0.00000000000E+00  0.15493210163E+04  0.15493210163E+04  0.50400001928E-02 0. -1.
       -1   -1    0    0    0  501  0.00000000000E+00  0.00000000000E+00 -0.16902399428E+04  0.16902399428E+04  0.50400001928E-02 0.  1.
    10030    2    1    2    0    0  0.00000000000E+00  0.00000000000E+00 -0.14091892652E+03  0.32395609591E+04  0.32364945642E+04 0.  0.
        3    1    3    3  502    0  0.16753035708E+03 -0.14638800805E+04 -0.74020696214E+03  0.16489140874E+04  0.10100000352E+00 0.  1.
       -3    1    3    3    0  502 -0.16753035708E+03  0.14638800805E+04  0.59928803563E+03  0.15906468717E+04  0.10100000352E+00 0. -1.
</event>
<event>
 5   0  0.2404430E-06  0.3174260E+04  0.7818609E-02  0.8195648E-01
       -2   -1    0    0    0  501  0.00000000000E+00  0.00000000000E+00  0.16830544256E+04  0.16830544256E+04  0.25500000920E-02 0. -1.
        2   -1    0    0  501    0  0.00000000000E+00  0.00000000000E+00 -0.14966724535E+04  0.14966724535E+04  0.25500000920E-02 0.  1.
    10030    2    1    2    0    0  0.00000000000E+00  0.00000000000E+00  0.18638197207E+03  0.31797268791E+04  0.31742597226E+04 0.  0.
        4    1    3    3  502    0 -0.12359497378E+04  0.45925788593E+03 -0.79178408602E+03  0.15379899908E+04  0.12699999809E+01 0.  1.
       -4    1    3    3    0  502  0.12359497378E+04 -0.45925788593E+03  0.97816605810E+03  0.16417368883E+04  0.12699999809E+01 0. -1.
</event>
<event>
 5   0  0.2401139E-06  0.3197684E+04  0.7818609E-02  0.8189429E-01
       -2   -1    0    0    0  501  0.00000000000E+00  0.00000000000E+00  0.12157859182E+04  0.12157859182E+04  0.25500000920E-02 0. -1.
        2   -1    0    0  501    0  0.00000000000E+00  0.00000000000E+00 -0.21025868728E+04  0.21025868728E+04  0.25500000920E-02 0.  1.
    10030    2    1    2    0    0  0.00000000000E+00  0.00000000000E+00 -0.88680095453E+03  0.33183727910E+04  0.31976838566E+04 0.  0.
        5    1    3    3  502    0  0.12193379216E+04 -0.94905407398E+03 -0.86974073271E+03  0.17731214381E+04  0.46999998093E+01 0.  1.
       -5    1    3    3    0  502 -0.12193379216E+04  0.94905407398E+03 -0.17060221826E+02  0.15452513528E+04  0.46999998093E+01 0. -1.
</event>
<event>
 5   0  0.2466076E-06  0.3180550E+04  0.7818609E-02  0.8193973E-01
        2   -1    0    0  501    0  0.00000000000E+00  0.00000000000E+00  0.19542041610E+04  0.19542041610E+04  0.25500000920E-02 0.  1.
       -2   -1    0    0    0  501  0.00000000000E+00  0.00000000000E+00 -0.12941198892E+04  0.12941198892E+04  0.25500000920E-02 0. -1.
    10030    2    1    2    0    0  0.00000000000E+00  0.00000000000E+00  0.66008427185E+03  0.32483240502E+04  0.31805499350E+04 0.  0.
        3    1    3    3  502    0  0.26510811926E+03  0.11504106561E+04  0.14182262973E+04  0.18452893630E+04  0.10100000352E+00 0.  1.
       -3    1    3    3    0  502 -0.26510811926E+03 -0.11504106561E+04 -0.75814202547E+03  0.14030346872E+04  0.10100000352E+00 0. -1.
</event>
<event>
 5   0  0.8681172E-07  0.3134409E+04  0.7818609E-02  0.8206358E-01
       -1   -1    0    0    0  501  0.00000000000E+00  0.00000000000E+00  0.13529581420E+04  0.13529581420E+04  0.50400001928E-02 0.  1.
        1   -1    0    0  501    0  0.00000000000E+00  0.00000000000E+00 -0.18153771265E+04  0.18153771265E+04  0.50400001928E-02 0. -1.
    10030    2    1    2    0    0  0.00000000000E+00  0.00000000000E+00 -0.46241898454E+03  0.31683352685E+04  0.31344085656E+04 0.  0.
        1    1    3    3  502    0  0.20101629471E+03  0.13653010427E+04  0.51957810551E+03  0.14745900772E+04  0.50400001928E-02 0.  1.
       -1    1    3    3    0  502 -0.20101629471E+03 -0.13653010427E+04 -0.98199709005E+03  0.16937451913E+04  0.50400001928E-02 0. -1.
</event>
<event>
 5   0  0.8487944E-07  0.3099782E+04  0.7818609E-02  0.8215798E-01
        1   -1    0    0  501    0  0.00000000000E+00  0.00000000000E+00  0.19238930344E+04  0.19238930344E+04  0.50400001928E-02 0.  1.
       -1   -1    0    0    0  501  0.00000000000E+00  0.00000000000E+00 -0.12485942460E+04  0.12485942460E+04  0.50400001928E-02 0. -1.
    10030    2    1    2    0    0  0.00000000000E+00  0.00000000000E+00  0.67529878841E+03  0.31724872804E+04  0.30997817811E+04 0.  0.
        2    1    3    3  502    0 -0.11347376664E+04 -0.45733487618E+03  0.13114801801E+04  0.17935342269E+04  0.25500000920E-02 0.  1.
       -2    1    3    3    0  502  0.11347376664E+04  0.45733487618E+03 -0.63618139165E+03  0.13789530535E+04  0.25500000920E-02 0. -1.
</event>
<event>
 5   0  0.8487944E-07  0.3208696E+04  0.7818609E-02  0.8186524E-01
       -1   -1    0    0    0  501  0.00000000000E+00  0.00000000000E+00  0.10101012441E+04  0.10101012441E+04  0.50400001928E-02 0.  1.
        1   -1    0    0  501    0  0.00000000000E+00  0.00000000000E+00 -0.25481930144E+04  0.25481930144E+04  0.50400001928E-02 0. -1.
    10030    2    1    2    0    0  0.00000000000E+00  0.00000000000E+00 -0.15380917703E+04  0.35582942585E+04  0.32086962674E+04 0.  0.
        2    1    3    3  502    0 -0.92579725121E+03  0.72851107992E+03  0.43869740747E+03  0.12570936159E+04  0.25500000920E-02 0.  1.
       -2    1    3    3    0  502  0.92579725121E+03 -0.72851107992E+03 -0.19767891778E+04  0.23012006426E+04  0.25500000920E-02 0. -1.
</event>
<event>
 5   0  0.2621528E-06  0.3193965E+04  0.7818609E-02  0.8190413E-01
       -2   -1    0    0    0  501  0.00000000000E+00  0.00000000000E+00  0.12775599051E+04  0.12775599051E+04  0.25500000920E-02 0.  1.
        2   -1    0    0  501    0  0.00000000000E+00  0.00000000000E+00 -0.19962683947E+04  0.19962683947E+04  0.25500000920E-02 0. -1.
    10030    2    1    2    0    0  0.00000000000E+00  0.00000000000E+00 -0.71870848968E+03  0.32738282998E+04  0.31939645965E+04 0.  0.
        2    1    3    3  502    0  0.11264371804E+04 -0.87392689328E+03 -0.10968901006E+04  0.17988265144E+04  0.25500000920E-02 0. -1.
       -2    1    3    3    0  502 -0.11264371804E+04  0.87392689328E+03  0.37818161090E+03  0.14750017854E+04  0.25500000920E-02 0.  1.
</event>
<event>
 5   0  0.2404430E-06  0.3172536E+04  0.7818609E-02  0.8196108E-01
       -2   -1    0    0    0  501  0.00000000000E+00  0.00000000000E+00  0.12894487531E+04  0.12894487531E+04  0.25500000920E-02 0.  1.
        2   -1    0    0  501    0  0.00000000000E+00  0.00000000000E+00 -0.19514122960E+04  0.19514122960E+04  0.25500000920E-02 0. -1.
    10030    2    1    2    0    0  0.00000000000E+00  0.00000000000E+00 -0.66196354294E+03  0.32408610492E+04  0.31725359900E+04 0.  0.
        4    1    3    3  502    0  0.33155553614E+02  0.15858369842E+04 -0.34765216356E+03  0.16238355431E+04  0.12699999809E+01 0.  1.
       -4    1    3    3    0  502 -0.33155553614E+02 -0.15858369842E+04 -0.31431137938E+03  0.16170255061E+04  0.12699999809E+01 0. -1.
</event>
<event>
 5   0  0.2401139E-06  0.3165893E+04  0.7818609E-02  0.8197883E-01
        2   -1    0    0  501    0  0.00000000000E+00  0.00000000000E+00  0.18358606385E+04  0.18358606385E+04  0.25500000920E-02 0. -1.
       -2   -1    0    0    0  501  0.00000000000E+00  0.00000000000E+00 -0.13648743781E+04  0.13648743781E+04  0.25500000920E-02 0.  1.
    10030    2    1    2    0    0  0.00000000000E+00  0.00000000000E+00  0.47098626038E+03  0.32007350166E+04  0.31658927002E+04 0.  0.
        5    1    3    3  502    0  0.71605009538E+03 -0.74626096180E+03  0.14470405342E+04  0.17786459906E+04  0.46999998093E+01 0. -1.
       -5    1    3    3    0  502 -0.71605009538E+03  0.74626096180E+03 -0.97605427387E+03  0.14220890260E+04  0.46999998093E+01 0.  1.
</event>
<event>
 5   0  0.8681172E-07  0.3172805E+04  0.7818609E-02  0.8196036E-01
        1   -1    0    0  501    0  0.00000000000E+00  0.00000000000E+00  0.15658624516E+04  0.15658624517E+04  0.50400001928E-02 0.  1.
       -1   -1    0    0    0  501  0.00000000000E+00  0.00000000000E+00 -0.16072122437E+04  0.16072122437E+04  0.50400001928E-02 0. -1.
    10030    2    1    2    0    0  0.00000000000E+00  0.00000000000E+00 -0.41349792091E+02  0.31730746954E+04  0.31728052599E+04 0.  0.
        1    1    3    3  502    0 -0.60045501206E+01 -0.14284858774E+04  0.66935858594E+03  0.15775452048E+04  0.50400001928E-02 0.  1.
       -1    1    3    3    0  502  0.60045501206E+01  0.14284858774E+04 -0.71070837803E+03  0.15955294906E+04  0.50400001928E-02 0. -1.
</event>
<event>
 5   0  0.8383008E-07  0.3215820E+04  0.7818609E-02  0.8184652E-01
       -1   -1    0    0    0  501  0.00000000000E+00  0.00000000000E+00  0.12812157564E+04  0.12812157564E+04  0.50400001928E-02 0. -1.
        1   -1    0    0  501    0  0.00000000000E+00  0.00000000000E+00 -0.20179068301E+04  0.20179068302E+04  0.50400001928E-02 0.  1.
    10030    2    1    2    0    0  0.00000000000E+00  0.00000000000E+00 -0.73669107374E+03  0.32991225866E+04  0.32158196627E+04 0.  0.
        4    1    3    3  502    0  0.63105057517E+03 -0.13009193130E+04  0.35326444523E+03  0.14884264404E+04  0.12699999809E+01 0.  1.
       -4    1    3    3    0  502 -0.63105057517E+03  0.13009193130E+04 -0.10899555190E+04  0.18106961461E+04  0.12699999809E+01 0. -1.
</event>
<event>
 5   0  0.2621528E-06  0.3174796E+04  0.7818609E-02  0.8195505E-01
        2   -1    0    0  501    0  0.00000000000E+00  0.00000000000E+00  0.10902602318E+04  0.10902602318E+04  0.25500000920E-02 0. -1.
       -2   -1    0    0    0  501  0.00000000000E+00  0.00000000000E+00 -0.23112203591E+04  0.23112203591E+04  0.25500000920E-02 0.  1.
    10030    2    1    2    0    0  0.00000000000E+00  0.00000000000E+00 -0.12209601273E+04  0.34014805909E+04  0.31747955175E+04 0.  0.
        2    1    3    3  502    0  0.29022962557E+03 -0.13895372113E+04 -0.13716915808E+04  0.19739768717E+04  0.25500000920E-02 0. -1.
       -2    1    3    3    0  502 -0.29022962557E+03  0.13895372113E+04  0.15073145351E+03  0.14275037192E+04  0.25500000920E-02 0.  1.
</event>
<event>
 5   0  0.2337504E-06  0.3123320E+04  0.7818609E-02  0.8209367E-01
       -2   -1    0    0    0  501  0.00000000000E+00  0.00000000000E+00  0.10276009085E+04  0.10276009085E+04  0.25500000920E-02 0. -1.
        2   -1    0    0  501    0  0.00000000000E+00  0.00000000000E+00 -0.23732779714E+04  0.23732779714E+04  0.25500000920E-02 0.  1.
    10030    2    1    2    0    0  0.00000000000E+00  0.00000000000E+00 -0.13456770629E+04  0.34008788799E+04  0.31233204124E+04 0.  0.
        1    1    3    3  502    0 -0.10818256222E+04  0.10606460450E+04 -0.26040976052E+03  0.15372475250E+04  0.50400001928E-02 0.  1.
       -1    1    3    3    0  502  0.10818256222E+04 -0.10606460450E+04 -0.10852673024E+04  0.18636313550E+04  0.50400001928E-02 0. -1.
</event>
<event>
 5   0  0.2337504E-06  0.3171638E+04  0.7818609E-02  0.8196348E-01
        2   -1    0    0  501    0  0.00000000000E+00  0.00000000000E+00  0.19585215806E+04  0.19585215806E+04  0.25500000920E-02 0.  1.
       -2   -1    0    0    0  501  0.00000000000E+00  0.00000000000E+00 -0.12840407015E+04  0.12840407015E+04  0.25500000920E-02 0. -1.
    10030    2    1    2    0    0  0.00000000000E+00  0.00000000000E+00  0.67448087907E+03  0.32425622820E+04  0.31716376995E+04 0.  0.
        1    1    3    3  502    0 -0.38029348078E+03 -0.72410621956E+03  0.17262496694E+04  0.19102070227E+04  0.50400001928E-02 0.  1.
       -1    1    3    3    0  502  0.38029348078E+03  0.72410621956E+03 -0.10517687903E+04  0.13323552593E+04  0.50400001928E-02 0. -1.
</event>
<event>
 5   0  0.8487944E-07  0.3182703E+04  0.7818609E-02  0.8193400E-01
        1   -1    0    0  501    0  0.00000000000E+00  0.00000000000E+00  0.17689423762E+04  0.17689423762E+04  0.50400001928E-02 0.  1.
       -1   -1    0    0    0  501  0.00000000000E+00  0.00000000000E+00 -0.14315893342E+04  0.14315893342E+04  0.50400001928E-02 0. -1.
    10030    2    1    2    0    0  0.00000000000E+00  0.00000000000E+00  0.33735304200E+03  0.32005317104E+04  0.31827026493E+04 0.  0.
        2    1    3    3  502    0  0.89958835620E+03  0.86185310803E+02  0.14858659999E+04  0.17391046226E+04  0.25500000920E-02 0.  1.
       -2    1    3    3    0  502 -0.89958835620E+03 -0.86185310803E+02 -0.11485129579E+04  0.14614270878E+04  0.25500000920E-02 0. -1.
</event>
<event>
 5   0  0.2401139E-06  0.3069341E+04  0.7818609E-02  0.8224203E-01
        2   -1    0    0  501    0  0.00000000000E+00  0.00000000000E+00  0.19926887822E+04  0.19926887822E+04  0.25500000920E-02 0. -1.
       -2   -1    0    0    0  501  0.00000000000E+00  0.00000000000E+00 -0.11819272390E+04  0.11819272390E+04  0.25500000920E-02 0.  1.
    10030    2    1    2    0    0  0.00000000000E+00  0.00000000000E+00  0.81076154320E+03  0.31746160213E+04  0.30693407440E+04 0.  0.
        5    1    3    3  502    0 -0.38886733322E+03  0.58143023387E+03  0.18182165829E+04  0.19481305274E+04  0.46999998093E+01 0. -1.
       -5    1    3    3    0  502  0.38886733322E+03 -0.58143023387E+03 -0.10074550397E+04  0.12264854938E+04  0.46999998093E+01 0.  1.
</event>
<event>
 5   0  0.8383008E-07  0.3199433E+04  0.7818609E-02  0.8188967E-01
       -1   -1    0    0    0  501  0.00000000000E+00  0.00000000000E+00  0.24542409395E+04  0.24542409395E+04  0.50400001928E-02 0.  1.
        1   -1    0    0  501    0  0.00000000000E+00  0.00000000000E+00 -0.10427225648E+04  0.10427225648E+04  0.50400001928E-02 0. -1.
    10030    2    1    2    0    0  0.00000000000E+00  0.00000000000E+00  0.14115183747E+04  0.34969635043E+04  0.31994327041E+04 0.  0.
        4    1    3    3  502    0  0.15833961975E+03  0.14782439201E+04  0.60230952081E+02  0.14879199921E+04  0.12699999809E+01 0.  1.
       -4    1    3    3    0  502 -0.15833961975E+03 -0.14782439201E+04  0.13512874226E+04  0.20090435122E+04  0.12699999809E+01 0. -1.
</event>
<event>
 5   0  0.8681172E-07  0.3150025E+04  0.7818609E-02  0.8202142E-01
        1   -1    0    0  501    0  0.00000000000E+00  0.00000000000E+00  0.21528418246E+04  0.21528418246E+04  0.50400001928E-02 0.  1.
       -1   -1    0    0    0  501  0.00000000000E+00  0.00000000000E+00 -0.11522743148E+04  0.11522743148E+04  0.50400001928E-02 0. -1.
    10030    2    1    2    0    0  0.00000000000E+00  0.00000000000E+00  0.10005675098E+04  0.33051161394E+04  0.31500249766E+04 0.  0.
        1    1    3    3  502    0 -0.78851253716E+02  0.10860982824E+04  0.16942177960E+04  0.20140012263E+04  0.50400001928E-02 0.  1.
       -1    1    3    3    0  502  0.78851253716E+02 -0.10860982824E+04 -0.69365028616E+03  0.12911149131E+04  0.50400001928E-02 0. -1.
</event>
<event>
 5   0  0.8681172E-07  0.3212625E+04  0.7818609E-02  0.8185491E-01
        1   -1    0    0  501    0  0.00000000000E+00  0.00000000000E+00  0.17788336284E+04  0.17788336284E+04  0.50400001928E-02 0.  1.
       -1   -1    0    0    0  501  0.00000000000E+00  0.00000000000E+00 -0.14505230864E+04  0.14505230864E+04  0.50400001928E-02 0. -1.
    10030    2    1    2    0    0  0.00000000000E+00  0.00000000000E+00  0.32831054200E+03  0.32293567149E+04  0.32126246248E+04 0.  0.
        1    1    3    3  502    0  0.72228102709E+03  0.12110016657E+04  0.93759381812E+03  0.16933095063E+04  0.50400001928E-02 0. -1.
       -1    1    3    3    0  502 -0.72228102709E+03 -0.12110016657E+04 -0.60928327612E+03  0.15360472086E+04  0.50400001928E-02 0.  1.
</event>
<event>
 5   0  0.8487944E-07  0.3146810E+04  0.7818609E-02  0.8203007E-01
       -1   -1    0    0    0  501  0.00000000000E+00  0.00000000000E+00  0.16779075039E+04  0.16779075039E+04  0.50400001928E-02 0.  1.
        1   -1    0    0  501    0  0.00000000000E+00  0.00000000000E+00 -0.14754112582E+04  0.14754112582E+04  0.50400001928E-02 0. -1.
    10030    2    1    2    0    0  0.00000000000E+00  0.00000000000E+00  0.20249624573E+03  0.31533187621E+04  0.31468102081E+04 0.  0.
        2    1    3    3  502    0 -0.15627287260E+02  0.10547317558E+04  0.12710959514E+04  0.16517833413E+04  0.25500000920E-02 0.  1.
       -2    1    3    3    0  502  0.15627287260E+02 -0.10547317558E+04 -0.10685997057E+04  0.15015354208E+04  0.25500000920E-02 0. -1.
</event>
<event>
 5   0  0.8545153E-07  0.3202378E+04  0.7818609E-02  0.8188189E-01
        1   -1    0    0  501    0  0.00000000000E+00  0.00000000000E+00  0.17449036040E+04  0.17449036040E+04  0.50400001928E-02 0. -1.
       -1   -1    0    0    0  501  0.00000000000E+00  0.00000000000E+00 -0.14693109642E+04  0.14693109642E+04  0.50400001928E-02 0.  1.
    10030    2    1    2    0    0  0.00000000000E+00  0.00000000000E+00  0.27559263978E+03  0.32142145682E+04  0.32023778645E+04 0.  0.
        3    1    3    3  502    0  0.62460698495E+03 -0.11881925987E+04 -0.73828184143E+03  0.15319907391E+04  0.10100000352E+00 0.  1.
       -3    1    3    3    0  502 -0.62460698495E+03  0.11881925987E+04  0.10138744812E+04  0.16822238290E+04  0.10100000352E+00 0. -1.
</event>
<event>
 5   0  0.2466076E-06  0.3177319E+04  0.7818609E-02  0.8194833E-01
        2   -1    0    0  501    0  0.00000000000E+00  0.00000000000E+00  0.14844886264E+04  0.14844886264E+04  0.25500000920E-02 0.  1.
       -2   -1    0    0    0  501  0.00000000000E+00  0.00000000000E+00 -0.17001406386E+04  0.17001406386E+04  0.25500000920E-02 0. -1.
    10030    2    1    2    0    0  0.00000000000E+00  0.00000000000E+00 -0.21565201211E+03  0.31846292650E+04  0.31773192734E+04 0.  0.
        3    1    3    3  502    0 -0.43610802179E+03  0.15203485166E+04  0.41478489146E+02  0.15822042516E+04  0.10100000352E+00 0.  1.
       -3    1    3    3    0  502  0.43610802179E+03 -0.15203485166E+04 -0.25713050126E+03  0.16024250134E+04  0.10100000352E+00 0. -1.
</event>
<event>
 5   0  0.8545153E-07  0.3208740E+04  0.7818609E-02  0.8186513E-01
       -1   -1    0    0    0  501  0.00000000000E+00  0.00000000000E+00  0.13810126399E+04  0.13810126399E+04  0.50400001928E-02 0.  1.
        1   -1    0    0  501    0  0.00000000000E+00  0.00000000000E+00 -0.18638514955E+04  0.18638514955E+04  0.50400001928E-02 0. -1.
    10030    2    1    2    0    0  0.00000000000E+00  0.00000000000E+00 -0.48283885567E+03  0.32448641354E+04  0.32087396118E+04 0.  0.
        3    1    3    3  502    0  0.60209240616E+03 -0.48744217931E+03 -0.16621876024E+04  0.18338437173E+04  0.10100000352E+00 0. -1.
       -3    1    3    3    0  502 -0.60209240616E+03  0.48744217931E+03  0.11793487467E+04  0.14110204181E+04  0.10100000352E+00 0.  1.
</event>
<event>
 5   0  0.2404430E-06  0.3249237E+04  0.7818609E-02  0.8175933E-01
       -2   -1    0    0    0  501  0.00000000000E+00  0.00000000000E+00  0.18749271488E+04  0.18749271488E+04  0.25500000920E-02 0. -1.
        2   -1    0    0  501    0  0.00000000000E+00  0.00000000000E+00 -0.14077268683E+04  0.14077268683E+04  0.25500000920E-02 0.  1.
    10030    2    1    2    0    0  0.00000000000E+00  0.00000000000E+00  0.46720028052E+03  0.32826540171E+04  0.32492370326E+04 0.  0.
        4    1    3    3  502    0 -0.67987129627E+03 -0.14748052182E+04  0.27998859125E+03  0.16479291961E+04  0.12699999809E+01 0.  1.
       -4    1    3    3    0  502  0.67987129627E+03  0.14748052182E+04  0.18721168928E+03  0.16347248211E+04  0.12699999809E+01 0. -1.
</event>
<event>
 5   0  0.2466076E-06  0.3210571E+04  0.7818609E-02  0.8186031E-01
       -2   -1    0    0    0  501  0.00000000000E+00  0.00000000000E+00  0.13277783325E+04  0.13277783325E+04  0.25500000920E-02 0. -1.
        2   -1    0    0  501    0  0.00000000000E+00  0.00000000000E+00 -0.19407923181E+04  0.19407923181E+04  0.25500000920E-02 0.  1.
    10030    2    1    2    0    0  0.00000000000E+00  0.00000000000E+00 -0.61301398552E+03  0.32685706506E+04  0.32105712812E+04 0.  0.
        3    1    3    3  502    0 -0.58418239083E+03 -0.93282424120E+03  0.88315420381E+03  0.14111667119E+04  0.10100000352E+00 0. -1.
       -3    1    3    3    0  502  0.58418239083E+03  0.93282424120E+03 -0.14961681893E+04  0.18574039388E+04  0.10100000352E+00 0.  1.
</event>
<event>
 5   0  0.2621528E-06  0.3231985E+04  0.7818609E-02  0.8180421E-01
        2   -1    0    0  501    0  0.00000000000E+00  0.00000000000E+00  0.15028385791E+04  0.15028385791E+04  0.25500000920E-02 0.  1.
       -2   -1    0    0    0  501  0.00000000000E+00  0.00000000000E+00 -0.17376660832E+04  0.17376660833E+04  0.25500000920E-02 0. -1.
    10030    2    1    2    0    0  0.00000000000E+00  0.00000000000E+00 -0.23482750418E+03  0.32405046623E+04  0.32319849179E+04 0.  0.
        2    1    3    3  502    0  0.73887058921E+03 -0.54412881320E+03  0.12162903667E+04  0.15236036785E+04  0.25500000920E-02 0.  1.
       -2    1    3    3    0  502 -0.73887058921E+03  0.54412881320E+03 -0.14511178709E+04  0.17169009838E+04  0.25500000920E-02 0. -1.
</event>
<event>
 5   0  0.8512855E-07  0.3171522E+04  0.7818609E-02  0.8196379E-01
        1   -1    0    0  501    0  0.00000000000E+00  0.00000000000E+00  0.20023545154E+04  0.20023545154E+04  0.50400001928E-02 0. -1.
       -1   -1    0    0    0  501  0.00000000000E+00  0.00000000000E+00 -0.12558406895E+04  0.12558406895E+04  0.50400001928E-02 0.  1.
    10030    2    1    2    0    0  0.00000000000E+00  0.00000000000E+00  0.74651382591E+03  0.32581952050E+04  0.31715222057E+04 0.  0.
        5    1    3    3  502    0  0.58179123611E+03 -0.61877047688E+03 -0.10024653368E+04  0.13138937502E+04  0.46999998093E+01 0.  1.
       -5    1    3    3    0  502 -0.58179123611E+03  0.61877047688E+03  0.17489791627E+04  0.19443014547E+04  0.46999998093E+01 0. -1.
</event>
<event>
 5   0  0.8681172E-07  0.3175664E+04  0.7818609E-02  0.8195274E-01
        1   -1    0    0  501    0  0.00000000000E+00  0.00000000000E+00  0.15173552899E+04  0.15173552899E+04  0.50400001928E-02 0. -1.
       -1   -1    0    0    0  501  0.00000000000E+00  0.00000000000E+00 -0.16615817496E+04  0.16615817496E+04  0.50400001928E-02 0.  1.
    10030    2    1    2    0    0  0.00000000000E+00  0.00000000000E+00 -0.14422645973E+03  0.31789370395E+04  0.31756636204E+04 0.  0.
        1    1    3    3  502    0 -0.10765606877E+04  0.26355297008E+03 -0.12102842504E+04  0.16411066538E+04  0.50400001928E-02 0.  1.
       -1    1    3    3    0  502  0.10765606877E+04 -0.26355297008E+03  0.10660577907E+04  0.15378303858E+04  0.50400001928E-02 0. -1.
</event>
<event>
 5   0  0.2337504E-06  0.2890484E+04  0.7818609E-02  0.8275715E-01
        2   -1    0    0  501    0  0.00000000000E+00  0.00000000000E+00  0.26202062010E+04  0.26202062010E+04  0.25500000920E-02 0.  1.
       -2   -1    0    0    0  501  0.00000000000E+00  0.00000000000E+00 -0.79716011205E+03  0.79716011206E+03  0.25500000920E-02 0. -1.
    10030    2    1    2    0    0  0.00000000000E+00  0.00000000000E+00  0.18230460889E+04  0.34173663131E+04  0.28904836058E+04 0.  0.
        1    1    3    3  502    0  0.10120908748E+04  0.85904243755E+03  0.23602506843E+03  0.13483284768E+04  0.50400001928E-02 0. -1.
       -1    1    3    3    0  502 -0.10120908748E+04 -0.85904243755E+03  0.15870210205E+04  0.20690378363E+04  0.50400001928E-02 0.  1.
</event>
<event>
 5   0  0.2404430E-06  0.3231745E+04  0.7818609E-02  0.8180483E-01
       -2   -1    0    0    0  501  0.00000000000E+00  0.00000000000E+00  0.15058125522E+04  0.15058125522E+04  0.25500000920E-02 0.  1.
        2   -1    0    0  501    0  0.00000000000E+00  0.00000000000E+00 -0.17339766987E+04  0.17339766987E+04  0.25500000920E-02 0. -1.
    10030    2    1    2    0    0  0.00000000000E+00  0.00000000000E+00 -0.22816414644E+03  0.32397892509E+04  0.32317449640E+04 0.  0.
        4    1    3    3  502    0  0.15497795062E+04 -0.17097357294E+03 -0.53939485432E+03  0.16498475391E+04  0.12699999809E+01 0. -1.
       -4    1    3    3    0  502 -0.15497795062E+04  0.17097357294E+03  0.31123070788E+03  0.15899417118E+04  0.12699999809E+01 0.  1.
</event>
<event>
 5   0  0.2401139E-06  0.3206074E+04  0.7818609E-02  0.8187215E-01
        2   -1    0    0  501    0  0.00000000000E+00  0.00000000000E+00  0.15461838285E+04  0.15461838285E+04  0.25500000920E-02 0.  1.
       -2   -1    0    0    0  501  0.00000000000E+00  0.00000000000E+00 -0.16619804961E+04  0.16619804961E+04  0.25500000920E-02 0. -1.
    10030    2    1    2    0    0  0.00000000000E+00  0.00000000000E+00 -0.11579666758E+03  0.32081643246E+04  0.32060738396E+04 0.  0.
        5    1    3    3  502    0 -0.11481314151E+04 -0.74656842574E+03  0.77579262628E+03  0.15739906130E+04  0.46999998093E+01 0.  1.
       -5    1    3    3    0  502  0.11481314151E+04  0.74656842574E+03 -0.89158929386E+03  0.16341737116E+04  0.46999998093E+01 0. -1.
</event>
<event>
 5   0  0.2466076E-06  0.3213668E+04  0.7818609E-02  0.8185217E-01
       -2   -1    0    0    0  501  0.00000000000E+00  0.00000000000E+00  0.10649930229E+04  0.10649930229E+04  0.25500000920E-02 0. -1.
        2   -1    0    0  501    0  0.00000000000E+00  0.00000000000E+00 -0.24243491843E+04  0.24243491843E+04  0.25500000920E-02 0.  1.
    10030    2    1    2    0    0  0.00000000000E+00  0.00000000000E+00 -0.13593561615E+04  0.34893422072E+04  0.32136676656E+04 0.  0.
        3    1    3    3  502    0  0.11017624945E+04 -0.18038052124E+03  0.57509183126E+03  0.12558456718E+04  0.10100000352E+00 0. -1.
       -3    1    3    3    0  502 -0.11017624945E+04  0.18038052124E+03 -0.19344479927E+04  0.22334965354E+04  0.10100000352E+00 0.  1.
</event>
<event>
 5   0  0.2404430E-06  0.2616790E+04  0.7818609E-02  0.8362520E-01
        2   -1    0    0  501    0  0.00000000000E+00  0.00000000000E+00  0.25100919331E+04  0.25100919331E+04  0.25500000920E-02 0.  1.
       -2   -1    0    0    0  501  0.00000000000E+00  0.00000000000E+00 -0.68200594410E+03  0.68200594410E+03  0.25500000920E-02 0. -1.
    10030    2    1    2    0    0  0.00000000000E+00  0.00000000000E+00  0.18280859891E+04  0.31920978772E+04  0.26167901090E+04 0.  0.
        4    1    3    3  502    0  0.84701746674E+03  0.12471193976E+03 -0.29287410047E+03  0.90485828090E+03  0.12699999809E+01 0. -1.
       -4    1    3    3    0  502 -0.84701746674E+03 -0.12471193976E+03  0.21209600895E+04  0.22872395963E+04  0.12699999809E+01 0.  1.
</event>
<event>
 5   0  0.8512855E-07  0.3225865E+04  0.7818609E-02  0.8182020E-01
        1   -1    0    0  501    0  0.00000000000E+00  0.00000000000E+00  0.18684163408E+04  0.18684163408E+04  0.50400001928E-02 0. -1.
       -1   -1    0    0    0  501  0.00000000000E+00  0.00000000000E+00 -0.13923827309E+04  0.13923827309E+04  0.50400001928E-02 0.  1.
    10030    2    1    2    0    0  0.00000000000E+00  0.00000000000E+00  0.47603360989E+03  0.32607990717E+04  0.32258646264E+04 0.  0.
        5    1    3    3  502    0 -0.32518532129E+03  0.26774747143E+03 -0.13357945000E+04  0.14006438654E+04  0.46999998093E+01 0.  1.
       -5    1    3    3    0  502  0.32518532129E+03 -0.26774747143E+03  0.18118281099E+04  0.18601552062E+04  0.46999998093E+01 0. -1.
</event>
<event>
 5   0  0.8487944E-07  0.3320723E+04  0.7818609E-02  0.8157642E-01
       -1   -1    0    0    0  501  0.00000000000E+00  0.00000000000E+00  0.15121259161E+04  0.15121259161E+04  0.50400001928E-02 0. -1.
        1   -1    0    0  501    0  0.00000000000E+00  0.00000000000E+00 -0.18231293166E+04  0.18231293166E+04  0.50400001928E-02 0.  1.
    10030    2    1    2    0    0  0.00000000000E+00  0.00000000000E+00 -0.31100340051E+03  0.33352552327E+04  0.33207234681E+04 0.  0.
        2    1    3    3  502    0  0.13711093806E+04  0.65052503364E+03 -0.83200497688E+03  0.17307096910E+04  0.25500000920E-02 0.  1.
       -2    1    3    3    0  502 -0.13711093806E+04 -0.65052503364E+03  0.52100157636E+03  0.16045455417E+04  0.25500000920E-02 0. -1.
</event>
<event>
 5   0  0.2404430E-06  0.3203908E+04  0.7818609E-02  0.8187786E-01
        2   -1    0    0  501    0  0.00000000000E+00  0.00000000000E+00  0.26973453683E+04  0.26973453683E+04  0.25500000920E-02 0.  1.
       -2   -1    0    0    0  501  0.00000000000E+00  0.00000000000E+00 -0.95140082475E+03  0.95140082476E+03  0.25500000920E-02 0. -1.
    10030    2    1    2    0    0  0.00000000000E+00  0.00000000000E+00  0.17459445435E+04  0.36487461930E+04  0.32039079937E+04 0.  0.
        4    1    3    3  502    0  0.23276313991E+03 -0.57111262971E+03  0.25567293231E+04  0.26300598395E+04  0.12699999809E+01 0.  1.
       -4    1    3    3    0  502 -0.23276313991E+03  0.57111262971E+03 -0.81078477957E+03  0.10186863535E+04  0.12699999809E+01 0. -1.
</event>
<event>
 5   0  0.2466076E-06  0.3179543E+04  0.7818609E-02  0.8194241E-01
       -2   -1    0    0    0  501  0.00000000000E+00  0.00000000000E+00  0.13833078421E+04  0.13833078421E+04  0.25500000920E-02 0.  1.
        2   -1    0    0  501    0  0.00000000000E+00  0.00000000000E+00 -0.18270506728E+04  0.18270506728E+04  0.25500000920E-02 0. -1.
    10030    2    1    2    0    0  0.00000000000E+00  0.00000000000E+00 -0.44374283067E+03  0.32103585149E+04  0.31795430638E+04 0.  0.
        3    1    3    3  502    0 -0.50189810160E+03 -0.14260927343E+04 -0.71829829274E+03  0.16737964747E+04  0.10100000352E+00 0. -1.
       -3    1    3    3    0  502  0.50189810160E+03  0.14260927343E+04  0.27455546207E+03  0.15365620402E+04  0.10100000352E+00 0.  1.
</event>
<event>
 5   0  0.7934375E-07  0.3220516E+04  0.7818609E-02  0.8183420E-01
       -3   -1    0    0    0  501  0.00000000000E+00  0.00000000000E+00  0.10414268935E+04  0.10414268984E+04  0.10100000352E+00 0.  1.
        3   -1    0    0  501    0  0.00000000000E+00  0.00000000000E+00 -0.24897865067E+04  0.24897865087E+04  0.10100000352E+00 0. -1.
    10030    2    1    2    0    0  0.00000000000E+00  0.00000000000E+00 -0.14483596132E+04  0.35312134071E+04  0.32205158838E+04 0.  0.
        5    1    3    3  502    0  0.10000099921E+04 -0.27331638270E+03 -0.20751977384E+04  0.23197391174E+04  0.46999998093E+01 0. -1.
       -5    1    3    3    0  502 -0.10000099921E+04  0.27331638270E+03  0.62683812524E+03  0.12114742897E+04  0.46999998093E+01 0.  1.
</event>
<event>
 5   0  0.2621528E-06  0.3220696E+04  0.7818609E-02  0.8183373E-01
       -2   -1    0    0    0  501  0.00000000000E+00  0.00000000000E+00  0.22015818338E+04  0.22015818338E+04  0.25500000920E-02 0. -1.
        2   -1    0    0  501    0  0.00000000000E+00  0.00000000000E+00 -0.11778896571E+04  0.11778896571E+04  0.25500000920E-02 0.  1.
    10030    2    1    2    0    0  0.00000000000E+00  0.00000000000E+00  0.10236921767E+04  0.33794714908E+04  0.32206958696E+04 0.  0.
        2    1    3    3  502    0 -0.14206139473E+04  0.74396590439E+03  0.66602949358E+03  0.17364401920E+04  0.25500000920E-02 0. -1.
       -2    1    3    3    0  502  0.14206139473E+04 -0.74396590439E+03  0.35766268310E+03  0.16430312988E+04  0.25500000920E-02 0.  1.
</event>
<event>
 5   0  0.2404430E-06  0.3200411E+04  0.7818609E-02  0.8188709E-01
       -2   -1    0    0    0  501  0.00000000000E+00  0.00000000000E+00  0.10723289050E+04  0.10723289051E+04  0.25500000920E-02 0. -1.
        2   -1    0    0  501    0  0.00000000000E+00  0.00000000000E+00 -0.23879403584E+04  0.23879403584E+04  0.25500000920E-02 0.  1.
    10030    2    1    2    0    0  0.00000000000E+00  0.00000000000E+00 -0.13156114533E+04  0.34602692634E+04  0.32004108923E+04 0.  0.
        4    1    3    3  502    0 -0.10092385655E+04 -0.11768924208E+04 -0.22937725058E+03  0.15672440104E+04  0.12699999809E+01 0. -1.
       -4    1    3    3    0  502  0.10092385655E+04  0.11768924208E+04 -0.10862342027E+04  0.18930252530E+04  0.12699999809E+01 0.  1.
</event>
<event>
 5   0  0.8681172E-07  0.2677413E+04  0.7818609E-02  0.8342371E-01
        1   -1    0    0  501    0  0.00000000000E+00  0.00000000000E+00  0.99805672105E+03  0.99805672106E+03  0.50400001928E-02 0.  1.
       -1   -1    0    0    0  501  0.00000000000E+00  0.00000000000E+00 -0.17956251060E+04  0.17956251060E+04  0.50400001928E-02 0. -1.
    10030    2    1    2    0    0  0.00000000000E+00  0.00000000000E+00 -0.79756838495E+03  0.27936818271E+04  0.26774134575E+04 0.  0.
        1    1    3    3  502    0  0.80194532730E+03  0.79670475439E+03  0.34949162809E+03  0.11832156066E+04  0.50400001928E-02 0.  1.
       -1    1    3    3    0  502 -0.80194532730E+03 -0.79670475439E+03 -0.11470600130E+04  0.16104662204E+04  0.50400001928E-02 0. -1.
</event>
<event>
 5   0  0.2621528E-06  0.3201966E+04  0.7818609E-02  0.8188298E-01
       -2   -1    0    0    0  501  0.00000000000E+00  0.00000000000E+00  0.11286547604E+04  0.11286547604E+04  0.25500000920E-02 0. -1.
        2   -1    0    0  501    0  0.00000000000E+00  0.00000000000E+00 -0.22709742360E+04  0.22709742360E+04  0.25500000920E-02 0.  1.
    10030    2    1    2    0    0  0.00000000000E+00  0.00000000000E+00 -0.11423194756E+04  0.33996289964E+04  0.32019655727E+04 0.  0.
        2    1    3    3  502    0  0.78001519366E+03 -0.25307286453E+03 -0.20310609104E+04  0.21903602441E+04  0.25500000920E-02 0.  1.
       -2    1    3    3    0  502 -0.78001519366E+03  0.25307286453E+03  0.88874143488E+03  0.12092687522E+04  0.25500000920E-02 0. -1.
</event>
<event>
 5   0  0.8512855E-07  0.3260412E+04  0.7818609E-02  0.8173042E-01
        1   -1    0    0  501    0  0.00000000000E+00  0.00000000000E+00  0.14434173012E+04  0.14434173012E+04  0.50400001928E-02 0. -1.
       -1   -1    0    0    0  501  0.00000000000E+00  0.00000000000E+00 -0.18411670791E+04  0.18411670791E+04  0.50400001928E-02 0.  1.
    10030    2    1    2    0    0  0.00000000000E+00  0.00000000000E+00 -0.39774977791E+03  0.32845843803E+04  0.32604124992E+04 0.  0.
        5    1    3    3  502    0 -0.13253986991E+04  0.60239539387E+03 -0.93778963128E+03  0.17317717530E+04  0.46999998093E+01 0.  1.
       -5    1    3    3    0  502  0.13253986991E+04 -0.60239539387E+03  0.54003985337E+03  0.15528126272E+04  0.46999998093E+01 0. -1.
</event>
<event>
 5   0  0.8545153E-07  0.3263787E+04  0.7818609E-02  0.8172171E-01
       -1   -1    0    0    0  501  0.00000000000E+00  0.00000000000E+00  0.89228116572E+03  0.89228116573E+03  0.50400001928E-02 0. -1.
        1   -1    0    0  501    0  0.00000000000E+00  0.00000000000E+00 -0.29845713563E+04  0.29845713563E+04  0.50400001928E-02 0.  1.
    10030    2    1    2    0    0  0.00000000000E+00  0.00000000000E+00 -0.20922901906E+04  0.38768525220E+04  0.32637872535E+04 0.  0.
        3    1    3    3  502    0 -0.51926426794E+03  0.52507718168E+03  0.68245002948E+03  0.10055244799E+04  0.10100000352E+00 0. -1.
       -3    1    3    3    0  502  0.51926426794E+03 -0.52507718168E+03 -0.27747402200E+04  0.28713280421E+04  0.10100000352E+00 0.  1.
</event>
<event>
 5   0  0.2401139E-06  0.3198900E+04  0.7818609E-02  0.8189108E-01
        2   -1    0    0  501    0  0.00000000000E+00  0.00000000000E+00  0.20743527872E+04  0.20743527872E+04  0.25500000920E-02 0.  1.
       -2   -1    0    0    0  501  0.00000000000E+00  0.00000000000E+00 -0.12332712250E+04  0.12332712250E+04  0.25500000920E-02 0. -1.
    10030    2    1    2    0    0  0.00000000000E+00  0.00000000000E+00  0.84108156218E+03  0.33076240121E+04  0.31988995626E+04 0.  0.
        5    1    3    3  502    0 -0.11884714207E+04 -0.86834448903E+03 -0.22661602985E+03  0.14892492687E+04  0.46999998093E+01 0. -1.
       -5    1    3    3    0  502  0.11884714207E+04  0.86834448903E+03  0.10676975920E+04  0.18183747434E+04  0.46999998093E+01 0.  1.
</event>
<event>
 5   0  0.8512855E-07  0.3196151E+04  0.7818609E-02  0.8189834E-01
       -1   -1    0    0    0  501  0.00000000000E+00  0.00000000000E+00  0.15313414332E+04  0.15313414332E+04  0.50400001928E-02 0. -1.
        1   -1    0    0  501    0  0.00000000000E+00  0.00000000000E+00 -0.16677174728E+04  0.16677174728E+04  0.50400001928E-02 0.  1.
    10030    2    1    2    0    0  0.00000000000E+00  0.00000000000E+00 -0.13637603966E+03  0.31990589060E+04  0.31961507255E+04 0.  0.
        5    1    3    3  502    0 -0.60233989309E+02 -0.43547002500E+02  0.15296035210E+04  0.15314155205E+04  0.46999998093E+01 0. -1.
       -5    1    3    3    0  502  0.60233989309E+02  0.43547002500E+02 -0.16659795607E+04  0.16676433856E+04  0.46999998093E+01 0.  1.
</event>
<event>
 5   0  0.2466076E-06  0.3206022E+04  0.7818609E-02  0.8187229E-01
       -2   -1    0    0    0  501  0.00000000000E+00  0.00000000000E+00  0.26131576709E+04  0.26131576709E+04  0.25500000920E-02 0.  1.
        2   -1    0    0  501    0  0.00000000000E+00  0.00000000000E+00 -0.98334835052E+03  0.98334835053E+03  0.25500000920E-02 0. -1.
    10030    2    1    2    0    0  0.00000000000E+00  0.00000000000E+00  0.16298093203E+04  0.35965060214E+04  0.32060220120E+04 0.  0.
        3    1    3    3  502    0 -0.13905595718E+04 -0.25666828227E+03  0.16619243856E+04  0.21820923911E+04  0.10100000352E+00 0.  1.
       -3    1    3    3    0  502  0.13905595718E+04  0.25666828227E+03 -0.32115065241E+02  0.14144136303E+04  0.10100000352E+00 0. -1.
</event>
<event>
 5   0  0.8681172E-07  0.3209687E+04  0.7818609E-02  0.8186264E-01
        1   -1    0    0  501    0  0.00000000000E+00  0.00000000000E+00  0.11656822229E+04  0.11656822229E+04  0.50400001928E-02 0.  1.
       -1   -1    0    0    0  501  0.00000000000E+00  0.00000000000E+00 -0.22094545321E+04  0.22094545321E+04  0.50400001928E-02 0. -1.
    10030    2    1    2    0    0  0.00000000000E+00  0.00000000000E+00 -0.10437723092E+04  0.33751367550E+04  0.32096865083E+04 0.  0.
        1    1    3    3  502    0  0.14005834125E+04  0.74540886809E+03 -0.26808702921E+03  0.16090801507E+04  0.50400001928E-02 0.  1.
       -1    1    3    3    0  502 -0.14005834125E+04 -0.74540886809E+03 -0.77568527999E+03  0.17660566043E+04  0.50400001928E-02 0. -1.
</event>
<event>
 5   0  0.8512855E-07  0.3189100E+04  0.7818609E-02  0.8191702E-01
        1   -1    0    0  501    0  0.00000000000E+00  0.00000000000E+00  0.19333749038E+04  0.19333749038E+04  0.50400001928E-02 0. -1.
       -1   -1    0    0    0  501  0.00000000000E+00  0.00000000000E+00 -0.13151045201E+04  0.13151045201E+04  0.50400001928E-02 0.  1.
    10030    2    1    2    0    0  0.00000000000E+00  0.00000000000E+00  0.61827038371E+03  0.32484794240E+04  0.31891002337E+04 0.  0.
        5    1    3    3  502    0 -0.12365221800E+03 -0.21213195466E+03  0.19139952667E+04  0.19296864533E+04  0.46999998093E+01 0. -1.
       -5    1    3    3    0  502  0.12365221800E+03  0.21213195466E+03 -0.12957248830E+04  0.13187929707E+04  0.46999998093E+01 0.  1.
</event>
<event>
 5   0  0.2466076E-06  0.3237589E+04  0.7818609E-02  0.8178960E-01
        2   -1    0    0  501    0  0.00000000000E+00  0.00000000000E+00  0.24929431299E+04  0.24929431299E+04  0.25500000920E-02 0. -1.
       -2   -1    0    0    0  501  0.00000000000E+00  0.00000000000E+00 -0.10511655515E+04  0.10511655515E+04  0.25500000920E-02 0.  1.
    10030    2    1    2    0    0  0.00000000000E+00  0.00000000000E+00  0.14417775784E+04  0.35441086813E+04  0.32375891895E+04 0.  0.
        3    1    3    3  502    0  0.93130812191E+03  0.12311125241E+04  0.18738416970E+03  0.15550195182E+04  0.10100000352E+00 0. -1.
       -3    1    3    3    0  502 -0.93130812191E+03 -0.12311125241E+04  0.12543934087E+04  0.19890891631E+04  0.10100000352E+00 0.  1.
</event>
<event>
 5   0  0.2401139E-06  0.3115252E+04  0.7818609E-02  0.8211565E-01
       -2   -1    0    0    0  501  0.00000000000E+00  0.00000000000E+00  0.17253690465E+04  0.17253690465E+04  0.25500000920E-02 0. -1.
        2   -1    0    0  501    0  0.00000000000E+00  0.00000000000E+00 -0.14061909409E+04  0.14061909410E+04  0.25500000920E-02 0.  1.
    10030    2    1    2    0    0  0.00000000000E+00  0.00000000000E+00  0.31917810551E+03  0.31315599874E+04  0.31152517220E+04 0.  0.
        5    1    3    3  502    0  0.96289973189E+03  0.11193802715E+04 -0.33897926948E+03  0.15149643960E+04  0.46999998093E+01 0.  1.
       -5    1    3    3    0  502 -0.96289973189E+03 -0.11193802715E+04  0.65815737499E+03  0.16165955914E+04  0.46999998093E+01 0. -1.
</event>
<event>
 5   0  0.2401139E-06  0.3170160E+04  0.7818609E-02  0.8196743E-01
       -2   -1    0    0    0  501  0.00000000000E+00  0.00000000000E+00  0.17439384327E+04  0.17439384327E+04  0.25500000920E-02 0. -1.
        2   -1    0    0  501    0  0.00000000000E+00  0.00000000000E+00 -0.14406921135E+04  0.14406921135E+04  0.25500000920E-02 0.  1.
    10030    2    1    2    0    0  0.00000000000E+00  0.00000000000E+00  0.30324631926E+03  0.31846305462E+04  0.31701598360E+04 0.  0.
        5    1    3    3  502    0  0.91920518660E+03 -0.85835164900E+03 -0.81753474577E+03  0.15000302927E+04  0.46999998093E+01 0.  1.
       -5    1    3    3    0  502 -0.91920518660E+03  0.85835164900E+03  0.11207810650E+04  0.16846002535E+04  0.46999998093E+01 0. -1.
</event>
<event>
 5   0  0.8383008E-07  0.3234194E+04  0.7818609E-02  0.8179845E-01
       -1   -1    0    0    0  501  0.00000000000E+00  0.00000000000E+00  0.21133667045E+04  0.21133667046E+04  0.50400001928E-02 0.  1.
        1   -1    0    0  501    0  0.00000000000E+00  0.00000000000E+00 -0.12373635205E+04  0.12373635206E+04  0.50400001928E-02 0. -1.
    10030    2    1    2    0    0  0.00000000000E+00  0.00000000000E+00  0.87600318400E+03  0.33507302251E+04  0.32341940979E+04 0.  0.
        4    1    3    3  502    0  0.16005576940E+04  0.17560019421E+03  0.28300859132E+03  0.16348442849E+04  0.12699999809E+01 0. -1.
       -4    1    3    3    0  502 -0.16005576940E+04 -0.17560019421E+03  0.59299459268E+03  0.17158859402E+04  0.12699999809E+01 0.  1.
</event>
<event>
 5   0  0.7934375E-07  0.3215151E+04  0.7818609E-02  0.8184827E-01
        3   -1    0    0  501    0  0.00000000000E+00  0.00000000000E+00  0.11015598092E+04  0.11015598138E+04  0.10100000352E+00 0. -1.
       -3   -1    0    0    0  501  0.00000000000E+00  0.00000000000E+00 -0.23460367184E+04  0.23460367206E+04  0.10100000352E+00 0.  1.
    10030    2    1    2    0    0  0.00000000000E+00  0.00000000000E+00 -0.12444769092E+04  0.34475965344E+04  0.32151514874E+04 0.  0.
        4    1    3    3  502    0  0.38460056703E+03  0.14322722716E+04 -0.12875609678E+04  0.19639593466E+04  0.12699999809E+01 0.  1.
       -4    1    3    3    0  502 -0.38460056703E+03 -0.14322722716E+04  0.43084058612E+02  0.14836371879E+04  0.12699999809E+01 0. -1.
</event>
<event>
 5   0  0.8383008E-07  0.3183002E+04  0.7818609E-02  0.8193321E-01
        1   -1    0    0  501    0  0.00000000000E+00  0.00000000000E+00  0.14810835729E+04  0.14810835730E+04  0.50400001928E-02 0. -1.
       -1   -1    0    0    0  501  0.00000000000E+00  0.00000000000E+00 -0.17101506020E+04  0.17101506021E+04  0.50400001928E-02 0.  1.
    10030    2    1    2    0    0  0.00000000000E+00  0.00000000000E+00 -0.22906702910E+03  0.31912341750E+04  0.31830023336E+04 0.  0.
        4    1    3    3  502    0  0.11691639202E+03  0.42949414676E+03 -0.16464706712E+04  0.17055796518E+04  0.12699999809E+01 0.  1.
       -4    1    3    3    0  502 -0.11691639202E+03 -0.42949414676E+03  0.14174036421E+04  0.14856545232E+04  0.12699999809E+01 0. -1.
</event>
<event>
 5   0  0.8545153E-07  0.3117179E+04  0.7818609E-02  0.8211039E-01
       -1   -1    0    0    0  501  0.00000000000E+00  0.00000000000E+00  0.15371879306E+04  0.15371879306E+04  0.50400001928E-02 0. -1.
        1   -1    0    0  501    0  0.00000000000E+00  0.00000000000E+00 -0.15802889387E+04  0.15802889387E+04  0.50400001928E-02 0.  1.
    10030    2    1    2    0    0  0.00000000000E+00  0.00000000000E+00 -0.43101008101E+02  0.31174768692E+04  0.31171789062E+04 0.  0.
        3    1    3    3  502    0  0.22217136323E+03  0.12381433662E+04 -0.94187863352E+03  0.15714625291E+04  0.10100000352E+00 0.  1.
       -3    1    3    3    0  502 -0.22217136323E+03 -0.12381433662E+04  0.89877762542E+03  0.15460143402E+04  0.10100000352E+00 0. -1.
</event>
<event>
 5   0  0.8681172E-07  0.3246260E+04  0.7818609E-02  0.8176706E-01
        1   -1    0    0  501    0  0.00000000000E+00  0.00000000000E+00  0.22457557362E+04  0.22457557363E+04  0.50400001928E-02 0. -1.
       -1   -1    0    0    0  501  0.00000000000E+00  0.00000000000E+00 -0.11731242717E+04  0.11731242717E+04  0.50400001928E-02 0.  1.
    10030    2    1    2    0    0  0.00000000000E+00  0.00000000000E+00  0.10726314646E+04  0.34188800079E+04  0.32462597323E+04 0.  0.
        1    1    3    3  502    0 -0.15449107970E+03  0.15256035189E+04 -0.24164411616E+02  0.15335962668E+04  0.50400001928E-02 0.  1.
       -1    1    3    3    0  502  0.15449107970E+03 -0.15256035189E+04  0.10967958762E+04  0.18852837412E+04  0.50400001928E-02 0. -1.
</event>
<event>
 5   0  0.2466076E-06  0.2905619E+04  0.7818609E-02  0.8271207E-01
       -2   -1    0    0    0  501  0.00000000000E+00  0.00000000000E+00  0.86941510384E+03  0.86941510384E+03  0.25500000920E-02 0.  1.
        2   -1    0    0  501    0  0.00000000000E+00  0.00000000000E+00 -0.24276735978E+04  0.24276735978E+04  0.25500000920E-02 0. -1.
    10030    2    1    2    0    0  0.00000000000E+00  0.00000000000E+00 -0.15582584940E+04  0.32970887016E+04  0.29056194473E+04 0.  0.
        3    1    3    3  502    0 -0.67972163959E+03  0.12363893635E+04 -0.11721712257E+04  0.18343024718E+04  0.10100000352E+00 0. -1.
       -3    1    3    3    0  502  0.67972163959E+03 -0.12363893635E+04 -0.38608726827E+03  0.14627862299E+04  0.10100000352E+00 0.  1.
</event>
<event>
 5   0  0.2401139E-06  0.3207558E+04  0.7818609E-02  0.8186824E-01
       -2   -1    0    0    0  501  0.00000000000E+00  0.00000000000E+00  0.16301207949E+04  0.16301207949E+04  0.25500000920E-02 0.  1.
        2   -1    0    0  501    0  0.00000000000E+00  0.00000000000E+00 -0.15778624451E+04  0.15778624451E+04  0.25500000920E-02 0. -1.
    10030    2    1    2    0    0  0.00000000000E+00  0.00000000000E+00  0.52258349794E+02  0.32079832401E+04  0.32075575651E+04 0.  0.
        5    1    3    3  502    0  0.15541638072E+04  0.61866898613E+02 -0.36485958194E+03  0.15976223763E+04  0.46999998093E+01 0. -1.
       -5    1    3    3    0  502 -0.15541638072E+04 -0.61866898613E+02  0.41711793173E+03  0.16103608638E+04  0.46999998093E+01 0.  1.
</event>
<event>
 5   0  0.2401139E-06  0.3208965E+04  0.7818609E-02  0.8186454E-01
       -2   -1    0    0    0  501  0.00000000000E+00  0.00000000000E+00  0.17179982295E+04  0.17179982295E+04  0.25500000920E-02 0. -1.
        2   -1    0    0  501    0  0.00000000000E+00  0.00000000000E+00 -0.14984672060E+04  0.14984672060E+04  0.25500000920E-02 0.  1.
    10030    2    1    2    0    0  0.00000000000E+00  0.00000000000E+00  0.21953102350E+03  0.32164654355E+04  0.32089649464E+04 0.  0.
        5    1    3    3  502    0  0.25286121369E+03  0.60030468496E+03  0.15794933622E+04  0.17085449598E+04  0.46999998093E+01 0. -1.
       -5    1    3    3    0  502 -0.25286121369E+03 -0.60030468496E+03 -0.13599623387E+04  0.15079204757E+04  0.46999998093E+01 0.  1.
</event>
<event>
 5   0  0.8681172E-07  0.3193801E+04  0.7818609E-02  0.8190456E-01
        1   -1    0    0  501    0  0.00000000000E+00  0.00000000000E+00  0.12932912847E+04  0.12932912847E+04  0.50400001928E-02 0.  1.
       -1   -1    0    0    0  501  0.00000000000E+00  0.00000000000E+00 -0.19717835012E+04  0.19717835012E+04  0.50400001928E-02 0. -1.
    10030    2    1    2    0    0  0.00000000000E+00  0.00000000000E+00 -0.67849221647E+03  0.32650747859E+04  0.31938005056E+04 0.  0.
        1    1    3    3  502    0  0.79133454238E+03  0.65720107703E+03  0.90947349019E+03  0.13730497598E+04  0.50400001928E-02 0.  1.
       -1    1    3    3    0  502 -0.79133454238E+03 -0.65720107703E+03 -0.15879657067E+04  0.18920250260E+04  0.50400001928E-02 0. -1.
</event>
<event>
 5   0  0.2337504E-06  0.3215549E+04  0.7818609E-02  0.8184723E-01
        2   -1    0    0  501    0  0.00000000000E+00  0.00000000000E+00  0.16109684977E+04  0.16109684977E+04  0.25500000920E-02 0.  1.
       -2   -1    0    0    0  501  0.00000000000E+00  0.00000000000E+00 -0.16045870647E+04  0.16045870647E+04  0.25500000920E-02 0. -1.
    10030    2    1    2    0    0  0.00000000000E+00  0.00000000000E+00  0.63814329342E+01  0.32155555624E+04  0.32155492302E+04 0.  0.
        1    1    3    3  502    0 -0.11320300464E+04 -0.92070197829E+03  0.67828837549E+03  0.16091175467E+04  0.50400001928E-02 0. -1.
       -1    1    3    3    0  502  0.11320300464E+04  0.92070197829E+03 -0.67190694255E+03  0.16064380157E+04  0.50400001928E-02 0.  1.
</event>
<event>
 5   0  0.2337504E-06  0.3182525E+04  0.7818609E-02  0.8193448E-01
       -2   -1    0    0    0  501  0.00000000000E+00  0.00000000000E+00  0.11772323996E+04  0.11772323996E+04  0.25500000920E-02 0. -1.
        2   -1    0    0  501    0  0.00000000000E+00  0.00000000000E+00 -0.21509063168E+04  0.21509063168E+04  0.25500000920E-02 0.  1.
    10030    2    1    2    0    0  0.00000000000E+00  0.00000000000E+00 -0.97367391718E+03  0.33281387165E+04  0.31825251639E+04 0.  0.
        1    1    3    3  502    0 -0.10141563621E+03  0.13827352815E+04  0.32983915140E+03  0.14251441526E+04  0.50400001928E-02 0. -1.
       -1    1    3    3    0  502  0.10141563621E+03 -0.13827352815E+04 -0.13035130686E+04  0.19029945638E+04  0.50400001928E-02 0.  1.
</event>
<event>
 5   0  0.8545153E-07  0.3172922E+04  0.7818609E-02  0.8196005E-01
       -1   -1    0    0    0  501  0.00000000000E+00  0.00000000000E+00  0.14489019910E+04  0.14489019910E+04  0.50400001928E-02 0.  1.
        1   -1    0    0  501    0  0.00000000000E+00  0.00000000000E+00 -0.17370795105E+04  0.17370795105E+04  0.50400001928E-02 0. -1.
    10030    2    1    2    0    0  0.00000000000E+00  0.00000000000E+00 -0.28817751942E+03  0.31859815015E+04  0.31729216576E+04 0.  0.
        3    1    3    3  502    0 -0.66761462683E+03  0.14252826326E+04  0.56025489811E+02  0.15748900719E+04  0.10100000352E+00 0.  1.
       -3    1    3    3    0  502  0.66761462683E+03 -0.14252826326E+04 -0.34420300923E+03  0.16110914296E+04  0.10100000352E+00 0. -1.
</event>
<event>
 5   0  0.2404430E-06  0.3203052E+04  0.7818609E-02  0.8188012E-01
        2   -1    0    0  501    0  0.00000000000E+00  0.00000000000E+00  0.18846841484E+04  0.18846841484E+04  0.25500000920E-02 0. -1.
       -2   -1    0    0    0  501  0.00000000000E+00  0.00000000000E+00 -0.13609101991E+04  0.13609101991E+04  0.25500000920E-02 0.  1.
    10030    2    1    2    0    0  0.00000000000E+00  0.00000000000E+00  0.52377394925E+03  0.32455943475E+04  0.32030522192E+04 0.  0.
        4    1    3    3  502    0 -0.21185080154E+03  0.75716493322E+03  0.16756618704E+04  0.18509521375E+04  0.12699999809E+01 0. -1.
       -4    1    3    3    0  502  0.21185080154E+03 -0.75716493322E+03 -0.11518879212E+04  0.13946422101E+04  0.12699999809E+01 0.  1.
</event>
<event>
 5   0  0.8487944E-07  0.3243464E+04  0.7818609E-02  0.8177432E-01
       -1   -1    0    0    0  501  0.00000000000E+00  0.00000000000E+00  0.93445800851E+03  0.93445800852E+03  0.50400001928E-02 0.  1.
        1   -1    0    0  501    0  0.00000000000E+00  0.00000000000E+00 -0.28144814043E+04  0.28144814043E+04  0.50400001928E-02 0. -1.
    10030    2    1    2    0    0  0.00000000000E+00  0.00000000000E+00 -0.18800233958E+04  0.37489394128E+04  0.32434640051E+04 0.  0.
        2    1    3    3  502    0  0.10869808487E+04  0.92384408090E+03 -0.18315861523E+04  0.23215777145E+04  0.25500000920E-02 0.  1.
       -2    1    3    3    0  502 -0.10869808487E+04 -0.92384408090E+03 -0.48437243520E+02  0.14273616983E+04  0.25500000920E-02 0. -1.
</event>
<event>
 5   0  0.2621528E-06  0.2684920E+04  0.7818609E-02  0.8339914E-01
        2   -1    0    0  501    0  0.00000000000E+00  0.00000000000E+00  0.13111051540E+04  0.13111051540E+04  0.25500000920E-02 0.  1.
       -2   -1    0    0    0  501  0.00000000000E+00  0.00000000000E+00 -0.13745649735E+04  0.13745649735E+04  0.25500000920E-02 0. -1.
    10030    2    1    2    0    0  0.00000000000E+00  0.00000000000E+00 -0.63459819526E+02  0.26856701275E+04  0.26849202754E+04 0.  0.
        2    1    3    3  502    0  0.36735256249E+03  0.13388561178E+03  0.12528896232E+04  0.13124807314E+04  0.25500000920E-02 0.  1.
       -2    1    3    3    0  502 -0.36735256249E+03 -0.13388561178E+03 -0.13163494428E+04  0.13731893962E+04  0.25500000920E-02 0. -1.
</event>
<event>
 5   0  0.8681172E-07  0.2869567E+04  0.7818609E-02  0.8281990E-01
       -1   -1    0    0    0  501  0.00000000000E+00  0.00000000000E+00  0.10867608521E+04  0.10867608521E+04  0.50400001928E-02 0. -1.
        1   -1    0    0  501    0  0.00000000000E+00  0.00000000000E+00 -0.18942565225E+04  0.18942565225E+04  0.50400001928E-02 0.  1.
    10030    2    1    2    0    0  0.00000000000E+00  0.00000000000E+00 -0.80749567041E+03  0.29810173746E+04  0.28695670980E+04 0.  0.
        1    1    3    3  502    0  0.86733345970E+03  0.48097429836E+03 -0.14808388451E+04  0.17822702633E+04  0.50400001928E-02 0.  1.
       -1    1    3    3    0  502 -0.86733345970E+03 -0.48097429836E+03  0.67334317472E+03  0.11987471113E+04  0.50400001928E-02 0. -1.
</event>
<event>
 5   0  0.2621528E-06  0.3178570E+04  0.7818609E-02  0.8194500E-01
        2   -1    0    0  501    0  0.00000000000E+00  0.00000000000E+00  0.17981093576E+04  0.17981093576E+04  0.25500000920E-02 0.  1.
       -2   -1    0    0    0  501  0.00000000000E+00  0.00000000000E+00 -0.14047125755E+04  0.14047125755E+04  0.25500000920E-02 0. -1.
    10030    2    1    2    0    0  0.00000000000E+00  0.00000000000E+00  0.39339678206E+03  0.32028219331E+04  0.31785700098E+04 0.  0.
        2    1    3    3  502    0 -0.14358499274E+04 -0.44260759765E+03  0.71858870597E+03  0.16655138030E+04  0.25500000920E-02 0.  1.
       -2    1    3    3    0  502  0.14358499274E+04  0.44260759765E+03 -0.32519192391E+03  0.15373081301E+04  0.25500000920E-02 0. -1.
</event>
<event>
 5   0  0.2401139E-06  0.3024156E+04  0.7818609E-02  0.8236867E-01
        2   -1    0    0  501    0  0.00000000000E+00  0.00000000000E+00  0.18787031426E+04  0.18787031426E+04  0.25500000920E-02 0. -1.
       -2   -1    0    0    0  501  0.00000000000E+00  0.00000000000E+00 -0.12169986780E+04  0.12169986780E+04  0.25500000920E-02 0.  1.
    10030    2    1    2    0    0  0.00000000000E+00  0.00000000000E+00  0.66170446468E+03  0.30957018206E+04  0.30241555786E+04 0.  0.
        5    1    3    3  502    0 -0.73918830928E+03 -0.52838092070E+03 -0.90636545762E+03  0.12833963483E+04  0.46999998093E+01 0.  1.
       -5    1    3    3    0  502  0.73918830928E+03  0.52838092070E+03  0.15680699223E+04  0.18123054724E+04  0.46999998093E+01 0. -1.
</event>
<event>
 5   0  0.2401139E-06  0.3194282E+04  0.7818609E-02  0.8190329E-01
       -2   -1    0    0    0  501  0.00000000000E+00  0.00000000000E+00  0.17560532585E+04  0.17560532585E+04  0.25500000920E-02 0.  1.
        2   -1    0    0  501    0  0.00000000000E+00  0.00000000000E+00 -0.14526097129E+04  0.14526097129E+04  0.25500000920E-02 0. -1.
    10030    2    1    2    0    0  0.00000000000E+00  0.00000000000E+00  0.30344354560E+03  0.32086629713E+04  0.31942824043E+04 0.  0.
        5    1    3    3  502    0  0.95908861303E+02 -0.12785131929E+04 -0.80495413150E+03  0.15138585594E+04  0.46999998093E+01 0. -1.
       -5    1    3    3    0  502 -0.95908861303E+02  0.12785131929E+04  0.11083976771E+04  0.16948044119E+04  0.46999998093E+01 0.  1.
</event>
<event>
 5   0  0.2401139E-06  0.3209032E+04  0.7818609E-02  0.8186436E-01
        2   -1    0    0  501    0  0.00000000000E+00  0.00000000000E+00  0.22114740923E+04  0.22114740923E+04  0.25500000920E-02 0.  1.
       -2   -1    0    0    0  501  0.00000000000E+00  0.00000000000E+00 -0.11641428890E+04  0.11641428890E+04  0.25500000920E-02 0. -1.
    10030    2    1    2    0    0  0.00000000000E+00  0.00000000000E+00  0.10473312033E+04  0.33756169814E+04  0.32090321524E+04 0.  0.
        5    1    3    3  502    0 -0.81809770009E+03  0.11458567866E+04 -0.28581281850E+03  0.14366567716E+04  0.46999998093E+01 0. -1.
       -5    1    3    3    0  502  0.81809770009E+03 -0.11458567866E+04  0.13331440218E+04  0.19389602097E+04  0.46999998093E+01 0.  1.
</event>
<event>
 5   0  0.8545153E-07  0.2859681E+04  0.7818609E-02  0.8284976E-01
        1   -1    0    0  501    0  0.00000000000E+00  0.00000000000E+00  0.21184926957E+04  0.21184926958E+04  0.50400001928E-02 0. -1.
       -1   -1    0    0    0  501  0.00000000000E+00  0.00000000000E+00 -0.96504671449E+03  0.96504671450E+03  0.50400001928E-02 0.  1.
    10030    2    1    2    0    0  0.00000000000E+00  0.00000000000E+00  0.11534459813E+04  0.30835394103E+04  0.28596813919E+04 0.  0.
        3    1    3    3  502    0 -0.81405958530E+03 -0.68370694980E+03  0.16077625110E+04  0.19274461091E+04  0.10100000352E+00 0. -1.
       -3    1    3    3    0  502  0.81405958530E+03  0.68370694980E+03 -0.45431652971E+03  0.11560933012E+04  0.10100000352E+00 0.  1.
</event>
<event>
 5   0  0.8545153E-07  0.3227275E+04  0.7818609E-02  0.8181651E-01
       -1   -1    0    0    0  501  0.00000000000E+00  0.00000000000E+00  0.97609344872E+03  0.97609344873E+03  0.50400001928E-02 0. -1.
        1   -1    0    0  501    0  0.00000000000E+00  0.00000000000E+00 -0.26675994837E+04  0.26675994838E+04  0.50400001928E-02 0.  1.
    10030    2    1    2    0    0  0.00000000000E+00  0.00000000000E+00 -0.16915060350E+04  0.36436929325E+04  0.32272752470E+04 0.  0.
        3    1    3    3  502    0  0.63708223609E+03  0.66340440933E+02 -0.25179201576E+04  0.25981140776E+04  0.10100000352E+00 0.  1.
       -3    1    3    3    0  502 -0.63708223609E+03 -0.66340440933E+02  0.82641412260E+03  0.10455788549E+04  0.10100000352E+00 0. -1.
</event>
<event>
 5   0  0.8545153E-07  0.3200348E+04  0.7818609E-02  0.8188725E-01
        1   -1    0    0  501    0  0.00000000000E+00  0.00000000000E+00  0.23075275265E+04  0.23075275265E+04  0.50400001928E-02 0. -1.
       -1   -1    0    0    0  501  0.00000000000E+00  0.00000000000E+00 -0.11096535481E+04  0.11096535481E+04  0.50400001928E-02 0.  1.
    10030    2    1    2    0    0  0.00000000000E+00  0.00000000000E+00  0.11978739784E+04  0.34171810746E+04  0.32003475481E+04 0.  0.
        3    1    3    3  502    0 -0.10429670567E+04  0.11776023562E+04  0.91211556112E+03  0.18183735584E+04  0.10100000352E+00 0.  1.
       -3    1    3    3    0  502  0.10429670567E+04 -0.11776023562E+04  0.28575841724E+03  0.15988075162E+04  0.10100000352E+00 0. -1.
</event>
<event>
 5   0  0.2337504E-06  0.3210484E+04  0.7818609E-02  0.8186054E-01
       -2   -1    0    0    0  501  0.00000000000E+00  0.00000000000E+00  0.12600126531E+04  0.12600126531E+04  0.25500000920E-02 0.  1.
        2   -1    0    0  501    0  0.00000000000E+00  0.00000000000E+00 -0.20450597830E+04  0.20450597830E+04  0.25500000920E-02 0. -1.
    10030    2    1    2    0    0  0.00000000000E+00  0.00000000000E+00 -0.78504712984E+03  0.33050724361E+04  0.32104835791E+04 0.  0.
        1    1    3    3  502    0 -0.42807625277E+03 -0.12624686190E+04 -0.13131444889E+04  0.18712094326E+04  0.50400001928E-02 0. -1.
       -1    1    3    3    0  502  0.42807625277E+03  0.12624686190E+04  0.52809735902E+03  0.14338630035E+04  0.50400001928E-02 0.  1.
</event>
<event>
 5   0  0.8512855E-07  0.3246888E+04  0.7818609E-02  0.8176543E-01
        1   -1    0    0  501    0  0.00000000000E+00  0.00000000000E+00  0.18233287860E+04  0.18233287860E+04  0.50400001928E-02 0.  1.
       -1   -1    0    0    0  501  0.00000000000E+00  0.00000000000E+00 -0.14454718071E+04  0.14454718071E+04  0.50400001928E-02 0. -1.
    10030    2    1    2    0    0  0.00000000000E+00  0.00000000000E+00  0.37785697891E+03  0.32688005930E+04  0.32468879594E+04 0.  0.
        5    1    3    3  502    0  0.59201007757E+03  0.63699543675E+03  0.15690592614E+04  0.17939365023E+04  0.46999998093E+01 0.  1.
       -5    1    3    3    0  502 -0.59201007757E+03 -0.63699543675E+03 -0.11912022825E+04  0.14748640908E+04  0.46999998093E+01 0. -1.
</event>
<event>
 5   0  0.2337504E-06  0.3306294E+04  0.7818609E-02  0.8161296E-01
        2   -1    0    0  501    0  0.00000000000E+00  0.00000000000E+00  0.18268784610E+04  0.18268784610E+04  0.25500000920E-02 0.  1.
       -2   -1    0    0    0  501  0.00000000000E+00  0.00000000000E+00 -0.14959373722E+04  0.14959373722E+04  0.25500000920E-02 0. -1.
    10030    2    1    2    0    0  0.00000000000E+00  0.00000000000E+00  0.33094108882E+03  0.33228158332E+04  0.33062944602E+04 0.  0.
        1    1    3    3  502    0 -0.49538254813E+03  0.10912553714E+04  0.13098675914E+04  0.17753859472E+04  0.50400001928E-02 0.  1.
       -1    1    3    3    0  502  0.49538254813E+03 -0.10912553714E+04 -0.97892650263E+03  0.15474298860E+04  0.50400001928E-02 0. -1.
</event>
<event>
 5   0  0.2466076E-06  0.3215833E+04  0.7818609E-02  0.8184648E-01
       -2   -1    0    0    0  501  0.00000000000E+00  0.00000000000E+00  0.18352238218E+04  0.18352238218E+04  0.25500000920E-02 0. -1.
        2   -1    0    0  501    0  0.00000000000E+00  0.00000000000E+00 -0.14087627430E+04  0.14087627430E+04  0.25500000920E-02 0.  1.
    10030    2    1    2    0    0  0.00000000000E+00  0.00000000000E+00  0.42646107875E+03  0.32439865648E+04  0.32158326730E+04 0.  0.
        3    1    3    3  502    0  0.14065817946E+04  0.57877480084E+03  0.73927687856E+03  0.16911484052E+04  0.10100000352E+00 0. -1.
       -3    1    3    3    0  502 -0.14065817946E+04 -0.57877480084E+03 -0.31281579981E+03  0.15528381596E+04  0.10100000352E+00 0.  1.
</event>
<event>
 5   0  0.2621528E-06  0.3169371E+04  0.7818609E-02  0.8196953E-01
        2   -1    0    0  501    0  0.00000000000E+00  0.00000000000E+00  0.17163029100E+04  0.17163029100E+04  0.25500000920E-02 0.  1.
       -2   -1    0    0    0  501  0.00000000000E+00  0.00000000000E+00 -0.14631614323E+04  0.14631614323E+04  0.25500000920E-02 0. -1.
    10030    2    1    2    0    0  0.00000000000E+00  0.00000000000E+00  0.25314147766E+03  0.31794643423E+04  0.31693710569E+04 0.  0.
        2    1    3    3  502    0  0.17119741572E+03 -0.11566714680E+04  0.11995707502E+04  0.16751619100E+04  0.25500000920E-02 0. -1.
       -2    1    3    3    0  502 -0.17119741572E+03  0.11566714680E+04 -0.94642927255E+03  0.15043024323E+04  0.25500000920E-02 0.  1.
</event>
<event>
 5   0  0.8487944E-07  0.3191231E+04  0.7818609E-02  0.8191137E-01
       -1   -1    0    0    0  501  0.00000000000E+00  0.00000000000E+00  0.12130687975E+04  0.12130687975E+04  0.50400001928E-02 0.  1.
        1   -1    0    0  501    0  0.00000000000E+00  0.00000000000E+00 -0.20987997907E+04  0.20987997907E+04  0.50400001928E-02 0. -1.
    10030    2    1    2    0    0  0.00000000000E+00  0.00000000000E+00 -0.88573099327E+03  0.33118685882E+04  0.31912308210E+04 0.  0.
        2    1    3    3  502    0  0.27403467869E+03  0.15419726339E+04 -0.75971664583E+03  0.17406734302E+04  0.25500000920E-02 0.  1.
       -2    1    3    3    0  502 -0.27403467869E+03 -0.15419726339E+04 -0.12601434744E+03  0.15711951580E+04  0.25500000920E-02 0. -1.
</event>
<event>
 5   0  0.2401139E-06  0.3145625E+04  0.7818609E-02  0.8203327E-01
        2   -1    0    0  501    0  0.00000000000E+00  0.00000000000E+00  0.22984787970E+04  0.22984787970E+04  0.25500000920E-02 0.  1.
       -2   -1    0    0    0  501  0.00000000000E+00  0.00000000000E+00 -0.10762505559E+04  0.10762505559E+04  0.25500000920E-02 0. -1.
    10030    2    1    2    0    0  0.00000000000E+00  0.00000000000E+00  0.12222282411E+04  0.33747293529E+04  0.31456249510E+04 0.  0.
        5    1    3    3  502    0  0.11488222066E+04  0.94066516269E+03  0.54611083955E+02  0.14858155576E+04  0.46999998093E+01 0. -1.
       -5    1    3    3    0  502 -0.11488222066E+04 -0.94066516269E+03  0.11676171572E+04  0.18889137954E+04  0.46999998093E+01 0.  1.
</event>
<event>
 5   0  0.2401139E-06  0.3258262E+04  0.7818609E-02  0.8173598E-01
        2   -1    0    0  501    0  0.00000000000E+00  0.00000000000E+00  0.13883739734E+04  0.13883739734E+04  0.25500000920E-02 0. -1.
       -2   -1    0    0    0  501  0.00000000000E+00  0.00000000000E+00 -0.19116370097E+04  0.19116370097E+04  0.25500000920E-02 0.  1.
    10030    2    1    2    0    0  0.00000000000E+00  0.00000000000E+00 -0.52326303631E+03  0.33000109831E+04  0.32582615431E+04 0.  0.
        5    1    3    3  502    0  0.64540796297E+03 -0.13041678215E+04  0.48031208832E+03  0.15323599242E+04  0.46999998093E+01 0. -1.
       -5    1    3    3    0  502 -0.64540796297E+03  0.13041678215E+04 -0.10035751246E+04  0.17676510589E+04  0.46999998093E+01 0.  1.
</event>
<event>
 5   0  0.2337504E-06  0.3229832E+04  0.7818609E-02  0.8180983E-01
        2   -1    0    0  501    0  0.00000000000E+00  0.00000000000E+00  0.24910543250E+04  0.24910543250E+04  0.25500000920E-02 0. -1.
       -2   -1    0    0    0  501  0.00000000000E+00  0.00000000000E+00 -0.10469277659E+04  0.10469277659E+04  0.25500000920E-02 0.  1.
    10030    2    1    2    0    0  0.00000000000E+00  0.00000000000E+00  0.14441265591E+04  0.35379820909E+04  0.32298321561E+04 0.  0.
        1    1    3    3  502    0  0.69259083801E+03  0.28637217510E+03 -0.84489121969E+03  0.11293946452E+04  0.50400001928E-02 0.  1.
       -1    1    3    3    0  502 -0.69259083801E+03 -0.28637217510E+03  0.22890177788E+04  0.24085874456E+04  0.50400001928E-02 0. -1.
</event>
<event>
 5   0  0.2404430E-06  0.3203018E+04  0.7818609E-02  0.8188021E-01
        2   -1    0    0  501    0  0.00000000000E+00  0.00000000000E+00  0.17959146160E+04  0.17959146160E+04  0.25500000920E-02 0. -1.
       -2   -1    0    0    0  501  0.00000000000E+00  0.00000000000E+00 -0.14281471708E+04  0.14281471708E+04  0.25500000920E-02 0.  1.
    10030    2    1    2    0    0  0.00000000000E+00  0.00000000000E+00  0.36776744522E+03  0.32240617868E+04  0.32030175634E+04 0.  0.
        4    1    3    3  502    0 -0.12545316227E+04 -0.78659789434E+03 -0.43024196339E+03  0.15419778207E+04  0.12699999809E+01 0.  1.
       -4    1    3    3    0  502  0.12545316227E+04  0.78659789434E+03  0.79800940860E+03  0.16820839660E+04  0.12699999809E+01 0. -1.
</event>
<event>
 5   0  0.8487944E-07  0.3455690E+04  0.7818609E-02  0.8124372E-01
        1   -1    0    0  501    0  0.00000000000E+00  0.00000000000E+00  0.19355827106E+04  0.19355827106E+04  0.50400001928E-02 0. -1.
       -1   -1    0    0    0  501  0.00000000000E+00  0.00000000000E+00 -0.15424030104E+04  0.15424030104E+04  0.50400001928E-02 0.  1.
    10030    2    1    2    0    0  0.00000000000E+00  0.00000000000E+00  0.39317970014E+03  0.34779857210E+04  0.34556901480E+04 0.  0.
        2    1    3    3  502    0  0.40103266033E+02 -0.10170953576E+04  0.16017917588E+04  0.18978482755E+04  0.25500000920E-02 0. -1.
       -2    1    3    3    0  502 -0.40103266033E+02  0.10170953576E+04 -0.12086120586E+04  0.15801374455E+04  0.25500000920E-02 0.  1.
</event>
<event>
 5   0  0.8487944E-07  0.3112910E+04  0.7818609E-02  0.8212204E-01
       -1   -1    0    0    0  501  0.00000000000E+00  0.00000000000E+00  0.10333290803E+04  0.10333290803E+04  0.50400001928E-02 0. -1.
        1   -1    0    0  501    0  0.00000000000E+00  0.00000000000E+00 -0.23444151834E+04  0.23444151834E+04  0.50400001928E-02 0.  1.
    10030    2    1    2    0    0  0.00000000000E+00  0.00000000000E+00 -0.13110861032E+04  0.33777442637E+04  0.31129101402E+04 0.  0.
        2    1    3    3  502    0  0.10155736171E+04 -0.33946188011E+03 -0.18812123473E+04  0.21646209912E+04  0.25500000920E-02 0.  1.
       -2    1    3    3    0  502 -0.10155736171E+04  0.33946188011E+03  0.57012624417E+03  0.12131232725E+04  0.25500000920E-02 0. -1.
</event>
<event>
 5   0  0.2401139E-06  0.2895671E+04  0.7818609E-02  0.8274167E-01
        2   -1    0    0  501    0  0.00000000000E+00  0.00000000000E+00  0.20329526398E+04  0.20329526398E+04  0.25500000920E-02 0.  1.
       -2   -1    0    0    0  501  0.00000000000E+00  0.00000000000E+00 -0.10311243505E+04  0.10311243505E+04  0.25500000920E-02 0. -1.
    10030    2    1    2    0    0  0.00000000000E+00  0.00000000000E+00  0.10018282893E+04  0.30640769903E+04  0.28956705409E+04 0.  0.
        5    1    3    3  502    0 -0.79130036736E+03  0.22595209103E+03  0.17614083260E+04  0.19441687169E+04  0.46999998093E+01 0.  1.
       -5    1    3    3    0  502  0.79130036736E+03 -0.22595209103E+03 -0.75958003670E+03  0.11199082735E+04  0.46999998093E+01 0. -1.
</event>
<event>
 5   0  0.2466076E-06  0.3230391E+04  0.7818609E-02  0.8180837E-01
        2   -1    0    0  501    0  0.00000000000E+00  0.00000000000E+00  0.32674025854E+04  0.32674025854E+04  0.25500000920E-02 0. -1.
       -2   -1    0    0    0  501  0.00000000000E+00  0.00000000000E+00 -0.79844982666E+03  0.79844982667E+03  0.25500000920E-02 0.  1.
    10030    2    1    2    0    0  0.00000000000E+00  0.00000000000E+00  0.24689527588E+04  0.40658524121E+04  0.32303913249E+04 0.  0.
        3    1    3    3  502    0 -0.66751169379E+03 -0.71214157049E+02 -0.61455251228E+03  0.91011983720E+03  0.10100000352E+00 0.  1.
       -3    1    3    3    0  502  0.66751169379E+03  0.71214157049E+02  0.30835052710E+04  0.31557325749E+04  0.10100000352E+00 0. -1.
</event>
<event>
 5   0  0.8487944E-07  0.2935194E+04  0.7818609E-02  0.8262483E-01
       -1   -1    0    0    0  501  0.00000000000E+00  0.00000000000E+00  0.94091612296E+03  0.94091612297E+03  0.50400001928E-02 0.  1.
        1   -1    0    0  501    0  0.00000000000E+00  0.00000000000E+00 -0.22890890990E+04  0.22890890990E+04  0.50400001928E-02 0. -1.
    10030    2    1    2    0    0  0.00000000000E+00  0.00000000000E+00 -0.13481729760E+04  0.32300052219E+04  0.29351939221E+04 0.  0.
        2    1    3    3  502    0  0.66045014795E+03  0.48462445384E+03  0.66591599183E+03  0.10556985211E+04  0.25500000920E-02 0.  1.
       -2    1    3    3    0  502 -0.66045014795E+03 -0.48462445384E+03 -0.20140889678E+04  0.21743067009E+04  0.25500000920E-02 0. -1.
</event>
<event>
 5   0  0.2404430E-06  0.3254037E+04  0.7818609E-02  0.8174690E-01
       -2   -1    0    0    0  501  0.00000000000E+00  0.00000000000E+00  0.16924829954E+04  0.16924829954E+04  0.25500000920E-02 0.  1.
        2   -1    0    0  501    0  0.00000000000E+00  0.00000000000E+00 -0.15640859468E+04  0.15640859468E+04  0.25500000920E-02 0. -1.
    10030    2    1    2    0    0  0.00000000000E+00  0.00000000000E+00  0.12839704861E+03  0.32565689423E+04  0.32540367966E+04 0.  0.
        4    1    3    3  502    0  0.13642264530E+04 -0.65473719298E+03  0.66248698229E+03  0.16518732462E+04  0.12699999809E+01 0.  1.
       -4    1    3    3    0  502 -0.13642264530E+04  0.65473719298E+03 -0.53408993369E+03  0.16046956961E+04  0.12699999809E+01 0. -1.
</event>
<event>
 5   0  0.8383008E-07  0.3191138E+04  0.7818609E-02  0.8191161E-01
        1   -1    0    0  501    0  0.00000000000E+00  0.00000000000E+00  0.17895734156E+04  0.17895734156E+04  0.50400001928E-02 0. -1.
       -1   -1    0    0    0  501  0.00000000000E+00  0.00000000000E+00 -0.14225966953E+04  0.14225966953E+04  0.50400001928E-02 0.  1.
    10030    2    1    2    0    0  0.00000000000E+00  0.00000000000E+00  0.36697672028E+03  0.32121701109E+04  0.31911384972E+04 0.  0.
        4    1    3    3  502    0 -0.20184559108E+03  0.14021575866E+04  0.92252886934E+03  0.16905172782E+04  0.12699999809E+01 0. -1.
       -4    1    3    3    0  502  0.20184559108E+03 -0.14021575866E+04 -0.55555214906E+03  0.15216528327E+04  0.12699999809E+01 0.  1.
</event>
<event>
 5   0  0.8545153E-07  0.3186919E+04  0.7818609E-02  0.8192280E-01
       -1   -1    0    0    0  501  0.00000000000E+00  0.00000000000E+00  0.19732317482E+04  0.19732317482E+04  0.50400001928E-02 0.  1.
        1   -1    0    0  501    0  0.00000000000E+00  0.00000000000E+00 -0.12867787051E+04  0.12867787051E+04  0.50400001928E-02 0. -1.
    10030    2    1    2    0    0  0.00000000000E+00  0.00000000000E+00  0.68645304307E+03  0.32600104533E+04  0.31869186333E+04 0.  0.
        3    1    3    3  502    0 -0.38598981468E+03 -0.11655738996E+04  0.13821789689E+04  0.18487750985E+04  0.10100000352E+00 0. -1.
       -3    1    3    3    0  502  0.38598981468E+03  0.11655738996E+04 -0.69572592588E+03  0.14112353548E+04  0.10100000352E+00 0.  1.
</event>
<event>
 5   0  0.2337504E-06  0.3186906E+04  0.7818609E-02  0.8192284E-01
       -2   -1    0    0    0  501  0.00000000000E+00  0.00000000000E+00  0.14443698223E+04  0.14443698223E+04  0.25500000920E-02 0.  1.
        2   -1    0    0  501    0  0.00000000000E+00  0.00000000000E+00 -0.17579235618E+04  0.17579235618E+04  0.25500000920E-02 0. -1.
    10030    2    1    2    0    0  0.00000000000E+00  0.00000000000E+00 -0.31355373951E+03  0.32022933840E+04  0.31869055477E+04 0.  0.
        1    1    3    3  502    0  0.74103160582E+03  0.14062716532E+04 -0.26850701236E+03  0.16120867902E+04  0.50400001928E-02 0.  1.
       -1    1    3    3    0  502 -0.74103160582E+03 -0.14062716532E+04 -0.45046727148E+02  0.15902065938E+04  0.50400001928E-02 0. -1.
</event>
<event>
 5   0  0.8487944E-07  0.3235140E+04  0.7818609E-02  0.8179598E-01
       -1   -1    0    0    0  501  0.00000000000E+00  0.00000000000E+00  0.99147668050E+03  0.99147668052E+03  0.50400001928E-02 0.  1.
        1   -1    0    0  501    0  0.00000000000E+00  0.00000000000E+00 -0.26390257002E+04  0.26390257002E+04  0.50400001928E-02 0. -1.
    10030    2    1    2    0    0  0.00000000000E+00  0.00000000000E+00 -0.16475490197E+04  0.36305023807E+04  0.32351398368E+04 0.  0.
        2    1    3    3  502    0 -0.96213644279E+03 -0.24493312723E+03 -0.22568811324E+04  0.24656056492E+04  0.25500000920E-02 0. -1.
       -2    1    3    3    0  502  0.96213644279E+03  0.24493312723E+03  0.60933211279E+03  0.11648967315E+04  0.25500000920E-02 0.  1.
</event>
<event>
 5   0  0.2337504E-06  0.3207242E+04  0.7818609E-02  0.8186907E-01
        2   -1    0    0  501    0  0.00000000000E+00  0.00000000000E+00  0.13157894095E+04  0.13157894095E+04  0.25500000920E-02 0.  1.
       -2   -1    0    0    0  501  0.00000000000E+00  0.00000000000E+00 -0.19544169299E+04  0.19544169299E+04  0.25500000920E-02 0. -1.
    10030    2    1    2    0    0  0.00000000000E+00  0.00000000000E+00 -0.63862752042E+03  0.32702063393E+04  0.32072424904E+04 0.  0.
        1    1    3    3  502    0 -0.17712826794E+03  0.96755558031E+03  0.97206622984E+03  0.13829139451E+04  0.50400001928E-02 0.  1.
       -1    1    3    3    0  502  0.17712826794E+03 -0.96755558031E+03 -0.16106937503E+04  0.18872923943E+04  0.50400001928E-02 0. -1.
</event>
<event>
 5   0  0.2466076E-06  0.3240586E+04  0.7818609E-02  0.8178180E-01
        2   -1    0    0  501    0  0.00000000000E+00  0.00000000000E+00  0.19589800793E+04  0.19589800793E+04  0.25500000920E-02 0.  1.
       -2   -1    0    0    0  501  0.00000000000E+00  0.00000000000E+00 -0.13401610977E+04  0.13401610978E+04  0.25500000920E-02 0. -1.
    10030    2    1    2    0    0  0.00000000000E+00  0.00000000000E+00  0.61881898154E+03  0.32991411770E+04  0.32405856838E+04 0.  0.
        3    1    3    3  502    0 -0.29623581226E+03  0.32357060341E+03 -0.12785488333E+04  0.13517176928E+04  0.10100000352E+00 0. -1.
       -3    1    3    3    0  502  0.29623581226E+03 -0.32357060341E+03  0.18973678148E+04  0.19474234842E+04  0.10100000352E+00 0.  1.
</event>
<event>
 5   0  0.8681172E-07  0.3196605E+04  0.7818609E-02  0.8189714E-01
       -1   -1    0    0    0  501  0.00000000000E+00  0.00000000000E+00  0.92114672857E+03  0.92114672858E+03  0.50400001928E-02 0.  1.
        1   -1    0    0  501    0  0.00000000000E+00  0.00000000000E+00 -0.27732510658E+04  0.27732510658E+04  0.50400001928E-02 0. -1.
    10030    2    1    2    0    0  0.00000000000E+00  0.00000000000E+00 -0.18521043373E+04  0.36943977944E+04  0.31966051660E+04 0.  0.
        1    1    3    3  502    0 -0.34392382299E+03  0.13412131371E+04 -0.33265712989E+01  0.13846108988E+04  0.50400001928E-02 0.  1.
       -1    1    3    3    0  502  0.34392382299E+03 -0.13412131371E+04 -0.18487777660E+04  0.23097868956E+04  0.50400001928E-02 0. -1.
</event>
<event>
 5   0  0.8681172E-07  0.3201618E+04  0.7818609E-02  0.8188390E-01
       -1   -1    0    0    0  501  0.00000000000E+00  0.00000000000E+00  0.80178947359E+03  0.80178947361E+03  0.50400001928E-02 0. -1.
        1   -1    0    0  501    0  0.00000000000E+00  0.00000000000E+00 -0.31960867244E+04  0.31960867244E+04  0.50400001928E-02 0.  1.
    10030    2    1    2    0    0  0.00000000000E+00  0.00000000000E+00 -0.23942972508E+04  0.39978761980E+04  0.32016175239E+04 0.  0.
        1    1    3    3  502    0  0.67227543500E+03  0.20299708923E+03  0.59917634842E+03  0.92313291311E+03  0.50400001928E-02 0. -1.
       -1    1    3    3    0  502 -0.67227543500E+03 -0.20299708923E+03 -0.29934735992E+04  0.30747432849E+04  0.50400001928E-02 0.  1.
</event>
<event>
 5   0  0.2337504E-06  0.3211993E+04  0.7818609E-02  0.8185657E-01
       -2   -1    0    0    0  501  0.00000000000E+00  0.00000000000E+00  0.16719668277E+04  0.16719668277E+04  0.25500000920E-02 0.  1.
        2   -1    0    0  501    0  0.00000000000E+00  0.00000000000E+00 -0.15426286779E+04  0.15426286779E+04  0.25500000920E-02 0. -1.
    10030    2    1    2    0    0  0.00000000000E+00  0.00000000000E+00  0.12933814975E+03  0.32145955056E+04  0.32119925137E+04 0.  0.
        1    1    3    3  502    0 -0.13685342937E+03 -0.89435295602E+03  0.13926309269E+04  0.16607278433E+04  0.50400001928E-02 0.  1.
       -1    1    3    3    0  502  0.13685342937E+03  0.89435295602E+03 -0.12632927771E+04  0.15538676623E+04  0.50400001928E-02 0. -1.
</event>
<event>
 5   0  0.8487944E-07  0.3193609E+04  0.7818609E-02  0.8190507E-01
        1   -1    0    0  501    0  0.00000000000E+00  0.00000000000E+00  0.21943495239E+04  0.21943495239E+04  0.50400001928E-02 0.  1.
       -1   -1    0    0    0  501  0.00000000000E+00  0.00000000000E+00 -0.11619772998E+04  0.11619772998E+04  0.50400001928E-02 0. -1.
    10030    2    1    2    0    0  0.00000000000E+00  0.00000000000E+00  0.10323722241E+04  0.33563268237E+04  0.31936088267E+04 0.  0.
        2    1    3    3  502    0 -0.12230122006E+04  0.75513708191E+03  0.12471779523E+04  0.19030091171E+04  0.25500000920E-02 0.  1.
       -2    1    3    3    0  502  0.12230122006E+04 -0.75513708191E+03 -0.21480572820E+03  0.14533177065E+04  0.25500000920E-02 0. -1.
</event>
<event>
 5   0  0.8681172E-07  0.3193665E+04  0.7818609E-02  0.8190492E-01
        1   -1    0    0  501    0  0.00000000000E+00  0.00000000000E+00  0.14537747419E+04  0.14537747419E+04  0.50400001928E-02 0. -1.
       -1   -1    0    0    0  501  0.00000000000E+00  0.00000000000E+00 -0.17539681358E+04  0.17539681358E+04  0.50400001928E-02 0.  1.
    10030    2    1    2    0    0  0.00000000000E+00  0.00000000000E+00 -0.30019339389E+03  0.32077428777E+04  0.31936653387E+04 0.  0.
        1    1    3    3  502    0  0.11004580645E+04 -0.79977739689E+03  0.68978461063E+03  0.15252719906E+04  0.50400001928E-02 0. -1.
       -1    1    3    3    0  502 -0.11004580645E+04  0.79977739689E+03 -0.98997800452E+03  0.16824708870E+04  0.50400001928E-02 0.  1.
</event>
<event>
 5   0  0.2466076E-06  0.3196634E+04  0.7818609E-02  0.8189707E-01
       -2   -1    0    0    0  501  0.00000000000E+00  0.00000000000E+00  0.11970153130E+04  0.11970153130E+04  0.25500000920E-02 0.  1.
        2   -1    0    0  501    0  0.00000000000E+00  0.00000000000E+00 -0.21341559636E+04  0.21341559636E+04  0.25500000920E-02 0. -1.
    10030    2    1    2    0    0  0.00000000000E+00  0.00000000000E+00 -0.93714065052E+03  0.33311712766E+04  0.31966340853E+04 0.  0.
        3    1    3    3  502    0  0.86239977697E+02  0.12058993795E+04 -0.15580307980E+04  0.19720777431E+04  0.10100000352E+00 0. -1.
       -3    1    3    3    0  502 -0.86239977697E+02 -0.12058993795E+04  0.62089014747E+03  0.13590935335E+04  0.10100000352E+00 0.  1.
</event>
<event>
 5   0  0.8383008E-07  0.3193566E+04  0.7818609E-02  0.8190518E-01
       -1   -1    0    0    0  501  0.00000000000E+00  0.00000000000E+00  0.11612781582E+04  0.11612781582E+04  0.50400001928E-02 0.  1.
        1   -1    0    0  501    0  0.00000000000E+00  0.00000000000E+00 -0.21956122839E+04  0.21956122839E+04  0.50400001928E-02 0. -1.
    10030    2    1    2    0    0  0.00000000000E+00  0.00000000000E+00 -0.10343341256E+04  0.33568904421E+04  0.31935664009E+04 0.  0.
        4    1    3    3  502    0  0.10915839907E+04  0.48891884780E+03  0.59481838748E+03  0.13358172687E+04  0.12699999809E+01 0.  1.
       -4    1    3    3    0  502 -0.10915839907E+04 -0.48891884780E+03 -0.16291525131E+04  0.20210731734E+04  0.12699999809E+01 0. -1.
</event>
<event>
 5   0  0.8681172E-07  0.3193622E+04  0.7818609E-02  0.8190504E-01
       -1   -1    0    0    0  501  0.00000000000E+00  0.00000000000E+00  0.16568143929E+04  0.16568143929E+04  0.50400001928E-02 0. -1.
        1   -1    0    0  501    0  0.00000000000E+00  0.00000000000E+00 -0.15389803214E+04  0.15389803214E+04  0.50400001928E-02 0.  1.
    10030    2    1    2    0    0  0.00000000000E+00  0.00000000000E+00  0.11783407145E+03  0.31957947143E+04  0.31936216099E+04 0.  0.
        1    1    3    3  502    0  0.97777950902E+03  0.59324791721E+03 -0.10562060263E+04  0.15567809832E+04  0.50400001928E-02 0.  1.
       -1    1    3    3    0  502 -0.97777950902E+03 -0.59324791721E+03  0.11740400978E+04  0.16390137311E+04  0.50400001928E-02 0. -1.
</event>
<event>
 5   0  0.8681172E-07  0.3184851E+04  0.7818609E-02  0.8192830E-01
        1   -1    0    0  501    0  0.00000000000E+00  0.00000000000E+00  0.24085312600E+04  0.24085312600E+04  0.50400001928E-02 0.  1.
       -1   -1    0    0    0  501  0.00000000000E+00  0.00000000000E+00 -0.10528484509E+04  0.10528484509E+04  0.50400001928E-02 0. -1.
    10030    2    1    2    0    0  0.00000000000E+00  0.00000000000E+00  0.13556828091E+04  0.34613797109E+04  0.31848506439E+04 0.  0.
        1    1    3    3  502    0 -0.11166195033E+04 -0.16925496880E+03  0.18979617324E+04  0.22085617712E+04  0.50400001928E-02 0.  1.
       -1    1    3    3    0  502  0.11166195033E+04  0.16925496880E+03 -0.54227892321E+03  0.12528179397E+04  0.50400001928E-02 0. -1.
</event>
<event>
 5   0  0.2621528E-06  0.2936909E+04  0.7818609E-02  0.8261980E-01
       -2   -1    0    0    0  501  0.00000000000E+00  0.00000000000E+00  0.14304278095E+04  0.14304278095E+04  0.25500000920E-02 0. -1.
        2   -1    0    0  501    0  0.00000000000E+00  0.00000000000E+00 -0.15074922771E+04  0.15074922771E+04  0.25500000920E-02 0.  1.
    10030    2    1    2    0    0  0.00000000000E+00  0.00000000000E+00 -0.77064467571E+02  0.29379200866E+04  0.29369091752E+04 0.  0.
        2    1    3    3  502    0 -0.11500703458E+04 -0.75345745051E+03  0.47739614867E+03  0.14554267460E+04  0.25500000920E-02 0. -1.
       -2    1    3    3    0  502  0.11500703458E+04  0.75345745051E+03 -0.55446061624E+03  0.14824933406E+04  0.25500000920E-02 0.  1.
</event>
<event>
 5   0  0.2404430E-06  0.3218490E+04  0.7818609E-02  0.8183951E-01
        2   -1    0    0  501    0  0.00000000000E+00  0.00000000000E+00  0.13334863204E+04  0.13334863204E+04  0.25500000920E-02 0.  1.
       -2   -1    0    0    0  501  0.00000000000E+00  0.00000000000E+00 -0.19420290683E+04  0.19420290683E+04  0.25500000920E-02 0. -1.
    10030    2    1    2    0    0  0.00000000000E+00  0.00000000000E+00 -0.60854274783E+03  0.32755153887E+04  0.32184898300E+04 0.  0.
        4    1    3    3  502    0  0.11342173829E+04  0.25749062046E+03  0.82760188180E+03  0.14274722341E+04  0.12699999809E+01 0.  1.
       -4    1    3    3    0  502 -0.11342173829E+04 -0.25749062046E+03 -0.14361446296E+04  0.18480431547E+04  0.12699999809E+01 0. -1.
</event>
<event>
 5   0  0.2466076E-06  0.3185783E+04  0.7818609E-02  0.8192582E-01
        2   -1    0    0  501    0  0.00000000000E+00  0.00000000000E+00  0.10730152375E+04  0.10730152375E+04  0.25500000920E-02 0.  1.
       -2   -1    0    0    0  501  0.00000000000E+00  0.00000000000E+00 -0.23646474410E+04  0.23646474410E+04  0.25500000920E-02 0. -1.
    10030    2    1    2    0    0  0.00000000000E+00  0.00000000000E+00 -0.12916322035E+04  0.34376626785E+04  0.31857826263E+04 0.  0.
        3    1    3    3  502    0 -0.11833465435E+04 -0.93625739718E+03 -0.11964725883E+04  0.19257293736E+04  0.10100000352E+00 0. -1.
       -3    1    3    3    0  502  0.11833465435E+04  0.93625739718E+03 -0.95159615226E+02  0.15119333049E+04  0.10100000352E+00 0.  1.
</event>
<event>
 5   0  0.8545153E-07  0.3255228E+04  0.7818609E-02  0.8174382E-01
        1   -1    0    0  501    0  0.00000000000E+00  0.00000000000E+00  0.16594118116E+04  0.16594118116E+04  0.50400001928E-02 0. -1.
       -1   -1    0    0    0  501  0.00000000000E+00  0.00000000000E+00 -0.15964254363E+04  0.15964254363E+04  0.50400001928E-02 0.  1.
    10030    2    1    2    0    0  0.00000000000E+00  0.00000000000E+00  0.62986375357E+02  0.32558372479E+04  0.32552279338E+04 0.  0.
        3    1    3    3  502    0  0.14712914417E+04  0.51172171664E+03  0.50335431383E+03  0.16370470968E+04  0.10100000352E+00 0.  1.
       -3    1    3    3    0  502 -0.14712914417E+04 -0.51172171664E+03 -0.44036793847E+03  0.16187901511E+04  0.10100000352E+00 0. -1.
</event>
<event>
 5   0  0.2401139E-06  0.3228859E+04  0.7818609E-02  0.8181237E-01
        2   -1    0    0  501    0  0.00000000000E+00  0.00000000000E+00  0.15665226995E+04  0.15665226995E+04  0.25500000920E-02 0.  1.
       -2   -1    0    0    0  501  0.00000000000E+00  0.00000000000E+00 -0.16638012485E+04  0.16638012485E+04  0.25500000920E-02 0. -1.
    10030    2    1    2    0    0  0.00000000000E+00  0.00000000000E+00 -0.97278548923E+02  0.32303239480E+04  0.32288588840E+04 0.  0.
        5    1    3    3  502    0 -0.21342153141E+03  0.13998131504E+04 -0.82444888435E+03  0.16385248423E+04  0.46999998093E+01 0. -1.
       -5    1    3    3    0  502  0.21342153141E+03 -0.13998131504E+04  0.72717033543E+03  0.15917991057E+04  0.46999998093E+01 0.  1.
</event>
<event>
 5   0  0.2621528E-06  0.3214021E+04  0.7818609E-02  0.8185124E-01
        2   -1    0    0  501    0  0.00000000000E+00  0.00000000000E+00  0.17145992192E+04  0.17145992192E+04  0.25500000920E-02 0.  1.
       -2   -1    0    0    0  501  0.00000000000E+00  0.00000000000E+00 -0.15061731655E+04  0.15061731655E+04  0.25500000920E-02 0. -1.
    10030    2    1    2    0    0  0.00000000000E+00  0.00000000000E+00  0.20842605368E+03  0.32207723847E+04  0.32140213649E+04 0.  0.
        2    1    3    3  502    0 -0.59993360988E+03 -0.29077687386E+02  0.15978865784E+04  0.17070463864E+04  0.25500000920E-02 0.  1.
       -2    1    3    3    0  502  0.59993360988E+03  0.29077687386E+02 -0.13894605247E+04  0.15137259983E+04  0.25500000920E-02 0. -1.
</event>
<event>
 5   0  0.8545153E-07  0.3192205E+04  0.7818609E-02  0.8190879E-01
        1   -1    0    0  501    0  0.00000000000E+00  0.00000000000E+00  0.17066377859E+04  0.17066377859E+04  0.50400001928E-02 0. -1.
       -1   -1    0    0    0  501  0.00000000000E+00  0.00000000000E+00 -0.14927259949E+04  0.14927259949E+04  0.50400001928E-02 0.  1.
    10030    2    1    2    0    0  0.00000000000E+00  0.00000000000E+00  0.21391179094E+03  0.31993637808E+04  0.31922046218E+04 0.  0.
        3    1    3    3  502    0  0.17092268621E+03  0.11901791689E+04  0.11589773409E+04  0.16700208099E+04  0.10100000352E+00 0. -1.
       -3    1    3    3    0  502 -0.17092268621E+03 -0.11901791689E+04 -0.94506554998E+03  0.15293429709E+04  0.10100000352E+00 0.  1.
</event>
<event>
 5   0  0.2401139E-06  0.3198093E+04  0.7818609E-02  0.8189321E-01
       -2   -1    0    0    0  501  0.00000000000E+00  0.00000000000E+00  0.10090000149E+04  0.10090000149E+04  0.25500000920E-02 0. -1.
        2   -1    0    0  501    0  0.00000000000E+00  0.00000000000E+00 -0.25341417289E+04  0.25341417289E+04  0.25500000920E-02 0.  1.
    10030    2    1    2    0    0  0.00000000000E+00  0.00000000000E+00 -0.15251417140E+04  0.35431417437E+04  0.31980925828E+04 0.  0.
        5    1    3    3  502    0  0.65242011462E+03 -0.11958200832E+04  0.16521146462E+03  0.13722079272E+04  0.46999998093E+01 0. -1.
       -5    1    3    3    0  502 -0.65242011462E+03  0.11958200832E+04 -0.16903531786E+04  0.21709338165E+04  0.46999998093E+01 0.  1.
</event>
<event>
 5   0  0.7934375E-07  0.3209433E+04  0.7818609E-02  0.8186331E-01
        3   -1    0    0  501    0  0.00000000000E+00  0.00000000000E+00  0.10457465022E+04  0.10457465071E+04  0.10100000352E+00 0. -1.
       -3   -1    0    0    0  501  0.00000000000E+00  0.00000000000E+00 -0.24624651250E+04  0.24624651270E+04  0.10100000352E+00 0.  1.
    10030    2    1    2    0    0  0.00000000000E+00  0.00000000000E+00 -0.14167186227E+04  0.35082116341E+04  0.32094325377E+04 0.  0.
        1    1    3    3  502    0  0.15081108072E+04 -0.54799863098E+03 -0.73058966022E+03  0.17630830831E+04  0.50400001928E-02 0. -1.
       -1    1    3    3    0  502 -0.15081108072E+04  0.54799863098E+03 -0.68612896252E+03  0.17451285510E+04  0.50400001928E-02 0.  1.
</event>
<event>
 5   0  0.2401139E-06  0.3197781E+04  0.7818609E-02  0.8189403E-01
       -2   -1    0    0    0  501  0.00000000000E+00  0.00000000000E+00  0.11030246843E+04  0.11030246843E+04  0.25500000920E-02 0. -1.
        2   -1    0    0  501    0  0.00000000000E+00  0.00000000000E+00 -0.23176738104E+04  0.23176738104E+04  0.25500000920E-02 0.  1.
    10030    2    1    2    0    0  0.00000000000E+00  0.00000000000E+00 -0.12146491261E+04  0.34206984947E+04  0.31977813702E+04 0.  0.
        5    1    3    3  502    0 -0.46209362239E+03  0.14187078158E+04  0.73324309085E+01  0.14920918997E+04  0.46999998093E+01 0.  1.
       -5    1    3    3    0  502  0.46209362239E+03 -0.14187078158E+04 -0.12219815570E+04  0.19286065950E+04  0.46999998093E+01 0. -1.
</event>
<event>
 5   0  0.2337504E-06  0.3209204E+04  0.7818609E-02  0.8186391E-01
        2   -1    0    0  501    0  0.00000000000E+00  0.00000000000E+00  0.23210186488E+04  0.23210186488E+04  0.25500000920E-02 0. -1.
       -2   -1    0    0    0  501  0.00000000000E+00  0.00000000000E+00 -0.11093182012E+04  0.11093182012E+04  0.25500000920E-02 0.  1.
    10030    2    1    2    0    0  0.00000000000E+00  0.00000000000E+00  0.12117004476E+04  0.34303368500E+04  0.32092044076E+04 0.  0.
        1    1    3    3  502    0  0.12666254697E+04  0.61763673600E+03 -0.21444907244E+03  0.14254134919E+04  0.50400001928E-02 0.  1.
       -1    1    3    3    0  502 -0.12666254697E+04 -0.61763673600E+03  0.14261495201E+04  0.20049233581E+04  0.50400001928E-02 0. -1.
</event>
<event>
 5   0  0.2404430E-06  0.3200591E+04  0.7818609E-02  0.8188661E-01
        2   -1    0    0  501    0  0.00000000000E+00  0.00000000000E+00  0.22109028032E+04  0.22109028032E+04  0.25500000920E-02 0.  1.
       -2   -1    0    0    0  501  0.00000000000E+00  0.00000000000E+00 -0.11583259615E+04  0.11583259615E+04  0.25500000920E-02 0. -1.
    10030    2    1    2    0    0  0.00000000000E+00  0.00000000000E+00  0.10525768417E+04  0.33692287647E+04  0.32005912674E+04 0.  0.
        4    1    3    3  502    0 -0.58693237348E+03 -0.60459524353E+03 -0.90587984803E+03  0.12371923583E+04  0.12699999809E+01 0. -1.
       -4    1    3    3    0  502  0.58693237348E+03  0.60459524353E+03  0.19584566897E+04  0.21320364064E+04  0.12699999809E+01 0.  1.
</event>
<event>
 5   0  0.8545153E-07  0.3197971E+04  0.7818609E-02  0.8189353E-01
       -1   -1    0    0    0  501  0.00000000000E+00  0.00000000000E+00  0.10034865109E+04  0.10034865109E+04  0.50400001928E-02 0. -1.
        1   -1    0    0  501    0  0.00000000000E+00  0.00000000000E+00 -0.25478716631E+04  0.25478716631E+04  0.50400001928E-02 0.  1.
    10030    2    1    2    0    0  0.00000000000E+00  0.00000000000E+00 -0.15443851522E+04  0.35513581741E+04  0.31979711353E+04 0.  0.
        3    1    3    3  502    0  0.13711518352E+04 -0.66092195560E+03 -0.22829560777E+03  0.15391536900E+04  0.10100000352E+00 0. -1.
       -3    1    3    3    0  502 -0.13711518352E+04  0.66092195560E+03 -0.13160895444E+04  0.20122044841E+04  0.10100000352E+00 0.  1.
</event>
<event>
 5   0  0.8383008E-07  0.3195969E+04  0.7818609E-02  0.8189883E-01
       -1   -1    0    0    0  501  0.00000000000E+00  0.00000000000E+00  0.10356479578E+04  0.10356479578E+04  0.50400001928E-02 0.  1.
        1   -1    0    0  501    0  0.00000000000E+00  0.00000000000E+00 -0.24656584216E+04  0.24656584216E+04  0.50400001928E-02 0. -1.
    10030    2    1    2    0    0  0.00000000000E+00  0.00000000000E+00 -0.14300104638E+04  0.35013063794E+04  0.31959687789E+04 0.  0.
        4    1    3    3  502    0  0.12224668467E+04 -0.94293428065E+03 -0.11667102528E+04  0.19351394461E+04  0.12699999809E+01 0. -1.
       -4    1    3    3    0  502 -0.12224668467E+04  0.94293428065E+03 -0.26330021097E+03  0.15661669333E+04  0.12699999809E+01 0.  1.
</event>
<event>
 5   0  0.2337504E-06  0.3161144E+04  0.7818609E-02  0.8199155E-01
       -2   -1    0    0    0  501  0.00000000000E+00  0.00000000000E+00  0.10214622500E+04  0.10214622500E+04  0.25500000920E-02 0. -1.
        2   -1    0    0  501    0  0.00000000000E+00  0.00000000000E+00 -0.24457174294E+04  0.24457174294E+04  0.25500000920E-02 0.  1.
    10030    2    1    2    0    0  0.00000000000E+00  0.00000000000E+00 -0.14242551794E+04  0.34671796794E+04  0.31611441146E+04 0.  0.
        1    1    3    3  502    0  0.12440972922E+04 -0.20644275557E+03 -0.17571602316E+04  0.21628704916E+04  0.50400001928E-02 0.  1.
       -1    1    3    3    0  502 -0.12440972922E+04  0.20644275557E+03  0.33290505216E+03  0.13043091878E+04  0.50400001928E-02 0. -1.
</event>
<event>
 5   0  0.8681172E-07  0.3143890E+04  0.7818609E-02  0.8203795E-01
       -1   -1    0    0    0  501  0.00000000000E+00  0.00000000000E+00  0.11550049862E+04  0.11550049862E+04  0.50400001928E-02 0. -1.
        1   -1    0    0  501    0  0.00000000000E+00  0.00000000000E+00 -0.21393942704E+04  0.21393942704E+04  0.50400001928E-02 0.  1.
    10030    2    1    2    0    0  0.00000000000E+00  0.00000000000E+00 -0.98438928419E+03  0.32943992566E+04  0.31438899788E+04 0.  0.
        1    1    3    3  502    0  0.86877236136E+03  0.12565241375E+04 -0.88060496304E+03  0.17632593187E+04  0.50400001928E-02 0.  1.
       -1    1    3    3    0  502 -0.86877236136E+03 -0.12565241375E+04 -0.10378432116E+03  0.15311399379E+04  0.50400001928E-02 0. -1.
</event>
<event>
 5   0  0.2404430E-06  0.3217507E+04  0.7818609E-02  0.8184209E-01
       -2   -1    0    0    0  501  0.00000000000E+00  0.00000000000E+00  0.15355163193E+04  0.15355163193E+04  0.25500000920E-02 0. -1.
        2   -1    0    0  501    0  0.00000000000E+00  0.00000000000E+00 -0.16854841615E+04  0.16854841615E+04  0.25500000920E-02 0.  1.
    10030    2    1    2    0    0  0.00000000000E+00  0.00000000000E+00 -0.14996784225E+03  0.32210004808E+04  0.32175073805E+04 0.  0.
        4    1    3    3  502    0  0.41620807904E+03  0.11507163025E+04 -0.11204882021E+04  0.16591782900E+04  0.12699999809E+01 0.  1.
       -4    1    3    3    0  502 -0.41620807904E+03 -0.11507163025E+04  0.97052035987E+03  0.15618221908E+04  0.12699999809E+01 0. -1.
</event>
<event>
 5   0  0.2401139E-06  0.3165003E+04  0.7818609E-02  0.8198121E-01
       -2   -1    0    0    0  501  0.00000000000E+00  0.00000000000E+00  0.11333547845E+04  0.11333547845E+04  0.25500000920E-02 0. -1.
        2   -1    0    0  501    0  0.00000000000E+00  0.00000000000E+00 -0.22096442769E+04  0.22096442769E+04  0.25500000920E-02 0.  1.
    10030    2    1    2    0    0  0.00000000000E+00  0.00000000000E+00 -0.10762894924E+04  0.33429990614E+04  0.31650029468E+04 0.  0.
        5    1    3    3  502    0 -0.31552227421E+03  0.13191582153E+04  0.32290445285E+03  0.13942819221E+04  0.46999998093E+01 0. -1.
       -5    1    3    3    0  502  0.31552227421E+03 -0.13191582153E+04 -0.13991939453E+04  0.19487171393E+04  0.46999998093E+01 0.  1.
</event>
<event>
 5   0  0.2401139E-06  0.3186257E+04  0.7818609E-02  0.8192456E-01
        2   -1    0    0  501    0  0.00000000000E+00  0.00000000000E+00  0.16434339455E+04  0.16434339455E+04  0.25500000920E-02 0. -1.
       -2   -1    0    0    0  501  0.00000000000E+00  0.00000000000E+00 -0.15443626109E+04  0.15443626109E+04  0.25500000920E-02 0.  1.
    10030    2    1    2    0    0  0.00000000000E+00  0.00000000000E+00  0.99071334591E+02  0.31877965565E+04  0.31862566996E+04 0.  0.
        5    1    3    3  502    0  0.35182834976E+03 -0.13410591252E+04  0.83465250523E+03  0.16182983839E+04  0.46999998093E+01 0. -1.
       -5    1    3    3    0  502 -0.35182834976E+03  0.13410591252E+04 -0.73558117064E+03  0.15694981725E+04  0.46999998093E+01 0.  1.
</event>
<event>
 5   0  0.8383008E-07  0.3190170E+04  0.7818609E-02  0.8191418E-01
        1   -1    0    0  501    0  0.00000000000E+00  0.00000000000E+00  0.19199037746E+04  0.19199037746E+04  0.50400001928E-02 0. -1.
       -1   -1    0    0    0  501  0.00000000000E+00  0.00000000000E+00 -0.13252209637E+04  0.13252209637E+04  0.50400001928E-02 0.  1.
    10030    2    1    2    0    0  0.00000000000E+00  0.00000000000E+00  0.59468281087E+03  0.32451247383E+04  0.31901703594E+04 0.  0.
        4    1    3    3  502    0  0.70334595090E+03  0.14287614840E+04  0.20500207309E+03  0.16056407966E+04  0.12699999809E+01 0.  1.
       -4    1    3    3    0  502 -0.70334595090E+03 -0.14287614840E+04  0.38968073778E+03  0.16394839417E+04  0.12699999809E+01 0. -1.
</event>
<event>
 5   0  0.8383008E-07  0.3180723E+04  0.7818609E-02  0.8193927E-01
        1   -1    0    0  501    0  0.00000000000E+00  0.00000000000E+00  0.28850661696E+04  0.28850661696E+04  0.50400001928E-02 0.  1.
       -1   -1    0    0    0  501  0.00000000000E+00  0.00000000000E+00 -0.87666946955E+03  0.87666946956E+03  0.50400001928E-02 0. -1.
    10030    2    1    2    0    0  0.00000000000E+00  0.00000000000E+00  0.20083967001E+04  0.37617356392E+04  0.31807228289E+04 0.  0.
        4    1    3    3  502    0  0.16291836391E+03  0.15775026071E+04  0.86331225369E+03  0.18056485065E+04  0.12699999809E+01 0. -1.
       -4    1    3    3    0  502 -0.16291836391E+03 -0.15775026071E+04  0.11450844464E+04  0.19560871327E+04  0.12699999809E+01 0.  1.
</event>
<event>
 5   0  0.8681172E-07  0.3170295E+04  0.7818609E-02  0.8196706E-01
       -1   -1    0    0    0  501  0.00000000000E+00  0.00000000000E+00  0.12473104519E+04  0.12473104519E+04  0.50400001928E-02 0. -1.
        1   -1    0    0  501    0  0.00000000000E+00  0.00000000000E+00 -0.20144890604E+04  0.20144890605E+04  0.50400001928E-02 0.  1.
    10030    2    1    2    0    0  0.00000000000E+00  0.00000000000E+00 -0.76717860852E+03  0.32617995124E+04  0.31702954187E+04 0.  0.
        1    1    3    3  502    0 -0.72312221637E+02  0.33690052986E+03 -0.19754907530E+04  0.20053166183E+04  0.50400001928E-02 0.  1.
       -1    1    3    3    0  502  0.72312221637E+02 -0.33690052986E+03  0.12083121445E+04  0.12564828940E+04  0.50400001928E-02 0. -1.
</event>
<event>
 5   0  0.2401139E-06  0.2850199E+04  0.7818609E-02  0.8287851E-01
        2   -1    0    0  501    0  0.00000000000E+00  0.00000000000E+00  0.19516812108E+04  0.19516812108E+04  0.25500000920E-02 0.  1.
       -2   -1    0    0    0  501  0.00000000000E+00  0.00000000000E+00 -0.10405941605E+04  0.10405941605E+04  0.25500000920E-02 0. -1.
    10030    2    1    2    0    0  0.00000000000E+00  0.00000000000E+00  0.91108705025E+03  0.29922753713E+04  0.28501986395E+04 0.  0.
        5    1    3    3  502    0 -0.43024818880E+03  0.13566123289E+04  0.53251583185E+03  0.15195741890E+04  0.46999998093E+01 0. -1.
       -5    1    3    3    0  502  0.43024818880E+03 -0.13566123289E+04  0.37857121840E+03  0.14727011823E+04  0.46999998093E+01 0.  1.
</event>
<event>
 5   0  0.2337504E-06  0.3206361E+04  0.7818609E-02  0.8187139E-01
        2   -1    0    0  501    0  0.00000000000E+00  0.00000000000E+00  0.17205174982E+04  0.17205174982E+04  0.25500000920E-02 0. -1.
       -2   -1    0    0    0  501  0.00000000000E+00  0.00000000000E+00 -0.14938457315E+04  0.14938457315E+04  0.25500000920E-02 0.  1.
    10030    2    1    2    0    0  0.00000000000E+00  0.00000000000E+00  0.22667176669E+03  0.32143632297E+04  0.32063610032E+04 0.  0.
        1    1    3    3  502    0  0.37611928874E+03  0.13066428379E+04 -0.73814040375E+03  0.15471368656E+04  0.50400001928E-02 0.  1.
       -1    1    3    3    0  502 -0.37611928874E+03 -0.13066428379E+04  0.96481217044E+03  0.16672263642E+04  0.50400001928E-02 0. -1.
</event>
<event>
 5   0  0.2337504E-06  0.3246117E+04  0.7818609E-02  0.8176743E-01
       -2   -1    0    0    0  501  0.00000000000E+00  0.00000000000E+00  0.17360660945E+04  0.17360660945E+04  0.25500000920E-02 0. -1.
        2   -1    0    0  501    0  0.00000000000E+00  0.00000000000E+00 -0.15174073950E+04  0.15174073950E+04  0.25500000920E-02 0.  1.
    10030    2    1    2    0    0  0.00000000000E+00  0.00000000000E+00  0.21865869951E+03  0.32534734895E+04  0.32461173916E+04 0.  0.
        1    1    3    3  502    0 -0.64100500847E+03  0.39327486482E+03 -0.13322509533E+04  0.15298513466E+04  0.50400001928E-02 0.  1.
       -1    1    3    3    0  502  0.64100500847E+03 -0.39327486482E+03  0.15509096528E+04  0.17236221429E+04  0.50400001928E-02 0. -1.
</event>
<event>
 5   0  0.2337504E-06  0.3152933E+04  0.7818609E-02  0.8201359E-01
        2   -1    0    0  501    0  0.00000000000E+00  0.00000000000E+00  0.19447101514E+04  0.19447101514E+04  0.25500000920E-02 0.  1.
       -2   -1    0    0    0  501  0.00000000000E+00  0.00000000000E+00 -0.12779522892E+04  0.12779522892E+04  0.25500000920E-02 0. -1.
    10030    2    1    2    0    0  0.00000000000E+00  0.00000000000E+00  0.66675786222E+03  0.32226624406E+04  0.31529331041E+04 0.  0.
        1    1    3    3  502    0 -0.40575355777E+03 -0.15171983955E+04  0.19353247652E+03  0.15823974660E+04  0.50400001928E-02 0. -1.
       -1    1    3    3    0  502  0.40575355777E+03  0.15171983955E+04  0.47322538571E+03  0.16402649745E+04  0.50400001928E-02 0.  1.
</event>
<event>
 5   0  0.8487944E-07  0.2831048E+04  0.7818609E-02  0.8293694E-01
        1   -1    0    0  501    0  0.00000000000E+00  0.00000000000E+00  0.10693420867E+04  0.10693420867E+04  0.50400001928E-02 0.  1.
       -1   -1    0    0    0  501  0.00000000000E+00  0.00000000000E+00 -0.18737763317E+04  0.18737763318E+04  0.50400001928E-02 0. -1.
    10030    2    1    2    0    0  0.00000000000E+00  0.00000000000E+00 -0.80443424502E+03  0.29431184185E+04  0.28310477867E+04 0.  0.
        2    1    3    3  502    0  0.92253232560E+03  0.10137430633E+04 -0.76971785818E+03  0.15720071474E+04  0.25500000920E-02 0.  1.
       -2    1    3    3    0  502 -0.92253232560E+03 -0.10137430633E+04 -0.34716386837E+02  0.13711112711E+04  0.25500000920E-02 0. -1.
</event>
<event>
 5   0  0.8512855E-07  0.3144779E+04  0.7818609E-02  0.8203555E-01
       -1   -1    0    0    0  501  0.00000000000E+00  0.00000000000E+00  0.13617776707E+04  0.13617776707E+04  0.50400001928E-02 0. -1.
        1   -1    0    0  501    0  0.00000000000E+00  0.00000000000E+00 -0.18155747924E+04  0.18155747924E+04  0.50400001928E-02 0.  1.
    10030    2    1    2    0    0  0.00000000000E+00  0.00000000000E+00 -0.45379712165E+03  0.31773524631E+04  0.31447793002E+04 0.  0.
        5    1    3    3  502    0 -0.11953886405E+04  0.14785096607E+03  0.79429947215E+03  0.14428262721E+04  0.46999998093E+01 0.  1.
       -5    1    3    3    0  502  0.11953886405E+04 -0.14785096607E+03 -0.12480965938E+04  0.17345261910E+04  0.46999998093E+01 0. -1.
</event>
<event>
 5   0  0.2401139E-06  0.3184847E+04  0.7818609E-02  0.8192831E-01
       -2   -1    0    0    0  501  0.00000000000E+00  0.00000000000E+00  0.15525670708E+04  0.15525670708E+04  0.25500000920E-02 0. -1.
        2   -1    0    0  501    0  0.00000000000E+00  0.00000000000E+00 -0.16333028485E+04  0.16333028485E+04  0.25500000920E-02 0.  1.
    10030    2    1    2    0    0  0.00000000000E+00  0.00000000000E+00 -0.80735777653E+02  0.31858699193E+04  0.31848467588E+04 0.  0.
        5    1    3    3  502    0  0.42345590725E+03 -0.80576690231E+03  0.12666562178E+04  0.15598125754E+04  0.46999998093E+01 0. -1.
       -5    1    3    3    0  502 -0.42345590725E+03  0.80576690231E+03 -0.13473919955E+04  0.16260573439E+04  0.46999998093E+01 0.  1.
</event>
<event>
 5   0  0.8383008E-07  0.3158638E+04  0.7818609E-02  0.8199827E-01
       -1   -1    0    0    0  501  0.00000000000E+00  0.00000000000E+00  0.13460023557E+04  0.13460023557E+04  0.50400001928E-02 0. -1.
        1   -1    0    0  501    0  0.00000000000E+00  0.00000000000E+00 -0.18530790357E+04  0.18530790357E+04  0.50400001928E-02 0.  1.
    10030    2    1    2    0    0  0.00000000000E+00  0.00000000000E+00 -0.50707668001E+03  0.31990813914E+04  0.31586381542E+04 0.  0.
        4    1    3    3  502    0 -0.14337594567E+04  0.58611511416E+03  0.58711005210E+02  0.15500469999E+04  0.12699999809E+01 0. -1.
       -4    1    3    3    0  502  0.14337594567E+04 -0.58611511416E+03 -0.56578768522E+03  0.16490343915E+04  0.12699999809E+01 0.  1.
</event>
<event>
 5   0  0.2621528E-06  0.3158163E+04  0.7818609E-02  0.8199954E-01
       -2   -1    0    0    0  501  0.00000000000E+00  0.00000000000E+00  0.14269324414E+04  0.14269324414E+04  0.25500000920E-02 0.  1.
        2   -1    0    0  501    0  0.00000000000E+00  0.00000000000E+00 -0.17474541272E+04  0.17474541272E+04  0.25500000920E-02 0. -1.
    10030    2    1    2    0    0  0.00000000000E+00  0.00000000000E+00 -0.32052168586E+03  0.31743865686E+04  0.31581633801E+04 0.  0.
        2    1    3    3  502    0  0.10822419222E+04 -0.26412023360E+03  0.96463596335E+03  0.14736110809E+04  0.25500000920E-02 0.  1.
       -2    1    3    3    0  502 -0.10822419222E+04  0.26412023360E+03 -0.12851576492E+04  0.17007754876E+04  0.25500000920E-02 0. -1.
</event>
<event>
 5   0  0.8681172E-07  0.3243476E+04  0.7818609E-02  0.8177429E-01
       -1   -1    0    0    0  501  0.00000000000E+00  0.00000000000E+00  0.16590008472E+04  0.16590008473E+04  0.50400001928E-02 0. -1.
        1   -1    0    0  501    0  0.00000000000E+00  0.00000000000E+00 -0.15853122120E+04  0.15853122120E+04  0.50400001928E-02 0.  1.
    10030    2    1    2    0    0  0.00000000000E+00  0.00000000000E+00  0.73688635293E+02  0.32443130592E+04  0.32434761000E+04 0.  0.
        1    1    3    3  502    0  0.54247244640E+03  0.41590323785E+03  0.15078639552E+04  0.16555680493E+04  0.50400001928E-02 0. -1.
       -1    1    3    3    0  502 -0.54247244640E+03 -0.41590323785E+03 -0.14341753199E+04  0.15887450099E+04  0.50400001928E-02 0.  1.
</event>
<event>
 5   0  0.2466076E-06  0.2635129E+04  0.7818609E-02  0.8356366E-01
       -2   -1    0    0    0  501  0.00000000000E+00  0.00000000000E+00  0.20672603306E+04  0.20672603306E+04  0.25500000920E-02 0. -1.
        2   -1    0    0  501    0  0.00000000000E+00  0.00000000000E+00 -0.83974730446E+03  0.83974730446E+03  0.25500000920E-02 0.  1.
    10030    2    1    2    0    0  0.00000000000E+00  0.00000000000E+00  0.12275130262E+04  0.29070076351E+04  0.26351290597E+04 0.  0.
        3    1    3    3  502    0  0.74660777302E+03  0.91487033054E+03 -0.30978435443E+02  0.11812580421E+04  0.10100000352E+00 0.  1.
       -3    1    3    3    0  502 -0.74660777302E+03 -0.91487033054E+03  0.12584914616E+04  0.17257495930E+04  0.10100000352E+00 0. -1.
</event>
<event>
 5   0  0.2401139E-06  0.3130714E+04  0.7818609E-02  0.8207359E-01
       -2   -1    0    0    0  501  0.00000000000E+00  0.00000000000E+00  0.12630307555E+04  0.12630307555E+04  0.25500000920E-02 0. -1.
        2   -1    0    0  501    0  0.00000000000E+00  0.00000000000E+00 -0.19400502682E+04  0.19400502682E+04  0.25500000920E-02 0.  1.
    10030    2    1    2    0    0  0.00000000000E+00  0.00000000000E+00 -0.67701951266E+03  0.32030810238E+04  0.31307143952E+04 0.  0.
        5    1    3    3  502    0  0.11255154354E+04 -0.21708971660E+03 -0.14291754167E+04  0.18320691586E+04  0.46999998093E+01 0.  1.
       -5    1    3    3    0  502 -0.11255154354E+04  0.21708971660E+03  0.75215590403E+03  0.13710118651E+04  0.46999998093E+01 0. -1.
</event>
<event>
 5   0  0.8681172E-07  0.3235386E+04  0.7818609E-02  0.8179534E-01
        1   -1    0    0  501    0  0.00000000000E+00  0.00000000000E+00  0.21220334868E+04  0.21220334868E+04  0.50400001928E-02 0. -1.
       -1   -1    0    0    0  501  0.00000000000E+00  0.00000000000E+00 -0.12332183680E+04  0.12332183680E+04  0.50400001928E-02 0.  1.
    10030    2    1    2    0    0  0.00000000000E+00  0.00000000000E+00  0.88881511878E+03  0.33552518548E+04  0.32353860193E+04 0.  0.
        1    1    3    3  502    0 -0.11071304049E+04 -0.82152285575E+03  0.13221041590E+04  0.19101300854E+04  0.50400001928E-02 0.  1.
       -1    1    3    3    0  502  0.11071304049E+04  0.82152285575E+03 -0.43328904026E+03  0.14451217694E+04  0.50400001928E-02 0. -1.
</event>
<event>
 5   0  0.8383008E-07  0.3290555E+04  0.7818609E-02  0.8165303E-01
       -1   -1    0    0    0  501  0.00000000000E+00  0.00000000000E+00  0.17983017103E+04  0.17983017103E+04  0.50400001928E-02 0. -1.
        1   -1    0    0  501    0  0.00000000000E+00  0.00000000000E+00 -0.15052746939E+04  0.15052746939E+04  0.50400001928E-02 0.  1.
    10030    2    1    2    0    0  0.00000000000E+00  0.00000000000E+00  0.29302701645E+03  0.33035764042E+04  0.32905550028E+04 0.  0.
        4    1    3    3  502    0 -0.15759301782E+04 -0.29943243251E+03  0.51363903204E+03  0.16843522127E+04  0.12699999809E+01 0. -1.
       -4    1    3    3    0  502  0.15759301782E+04  0.29943243251E+03 -0.22061201560E+03  0.16192241916E+04  0.12699999809E+01 0.  1.
</event>
<event>
 5   0  0.7934375E-07  0.3125075E+04  0.7818609E-02  0.8208890E-01
        3   -1    0    0  501    0  0.00000000000E+00  0.00000000000E+00  0.12886660955E+04  0.12886660995E+04  0.10100000352E+00 0. -1.
       -3   -1    0    0    0  501  0.00000000000E+00  0.00000000000E+00 -0.18946131839E+04  0.18946131866E+04  0.10100000352E+00 0.  1.
    10030    2    1    2    0    0  0.00000000000E+00  0.00000000000E+00 -0.60594708840E+03  0.31832792861E+04  0.31250752214E+04 0.  0.
        4    1    3    3  502    0 -0.13360445998E+03  0.41618446515E+03  0.12251207681E+04  0.13007621497E+04  0.12699999809E+01 0. -1.
       -4    1    3    3    0  502  0.13360445998E+03 -0.41618446515E+03 -0.18310678565E+04  0.18825171364E+04  0.12699999809E+01 0.  1.
</event>
<event>
 5   0  0.8512855E-07  0.3192110E+04  0.7818609E-02  0.8190904E-01
       -1   -1    0    0    0  501  0.00000000000E+00  0.00000000000E+00  0.10981481749E+04  0.10981481749E+04  0.50400001928E-02 0.  1.
        1   -1    0    0  501    0  0.00000000000E+00  0.00000000000E+00 -0.23197153483E+04  0.23197153483E+04  0.50400001928E-02 0. -1.
    10030    2    1    2    0    0  0.00000000000E+00  0.00000000000E+00 -0.12215671734E+04  0.34178635232E+04  0.31921097575E+04 0.  0.
        5    1    3    3  502    0 -0.66106566659E+03  0.97181330000E+03 -0.17669358561E+04  0.21221482783E+04  0.46999998093E+01 0. -1.
       -5    1    3    3    0  502  0.66106566659E+03 -0.97181330000E+03  0.54536868270E+03  0.12957152448E+04  0.46999998093E+01 0.  1.
</event>
<event>
 5   0  0.2401139E-06  0.3215949E+04  0.7818609E-02  0.8184618E-01
       -2   -1    0    0    0  501  0.00000000000E+00  0.00000000000E+00  0.98936558664E+03  0.98936558664E+03  0.25500000920E-02 0. -1.
        2   -1    0    0  501    0  0.00000000000E+00  0.00000000000E+00 -0.26133734990E+04  0.26133734990E+04  0.25500000920E-02 0.  1.
    10030    2    1    2    0    0  0.00000000000E+00  0.00000000000E+00 -0.16240079124E+04  0.36027390857E+04  0.32159488833E+04 0.  0.
        5    1    3    3  502    0  0.15984676003E+04  0.20724406795E+02 -0.10061428313E+04  0.18888815890E+04  0.46999998093E+01 0. -1.
       -5    1    3    3    0  502 -0.15984676003E+04 -0.20724406795E+02 -0.61786508105E+03  0.17138574966E+04  0.46999998093E+01 0.  1.
</event>
<event>
 5   0  0.2401139E-06  0.3165003E+04  0.7818609E-02  0.8198121E-01
        2   -1    0    0  501    0  0.00000000000E+00  0.00000000000E+00  0.22492941982E+04  0.22492941982E+04  0.25500000920E-02 0.  1.
       -2   -1    0    0    0  501  0.00000000000E+00  0.00000000000E+00 -0.11133762583E+04  0.11133762584E+04  0.25500000920E-02 0. -1.
    10030    2    1    2    0    0  0.00000000000E+00  0.00000000000E+00  0.11359179399E+04  0.33626704566E+04  0.31650028489E+04 0.  0.
        5    1    3    3  502    0 -0.74114957724E+03  0.31020324901E+03 -0.88055221267E+03  0.11920247652E+04  0.46999998093E+01 0. -1.
       -5    1    3    3    0  502  0.74114957724E+03 -0.31020324901E+03  0.20164701525E+04  0.21706456914E+04  0.46999998093E+01 0.  1.
</event>
<event>
 5   0  0.2466076E-06  0.3202005E+04  0.7818609E-02  0.8188288E-01
        2   -1    0    0  501    0  0.00000000000E+00  0.00000000000E+00  0.20556588724E+04  0.20556588724E+04  0.25500000920E-02 0. -1.
       -2   -1    0    0    0  501  0.00000000000E+00  0.00000000000E+00 -0.12469041919E+04  0.12469041919E+04  0.25500000920E-02 0.  1.
    10030    2    1    2    0    0  0.00000000000E+00  0.00000000000E+00  0.80875468049E+03  0.33025630643E+04  0.32020054123E+04 0.  0.
        3    1    3    3  502    0 -0.76132238127E+03 -0.10236755723E+04 -0.59330933543E+03  0.14069610596E+04  0.10100000352E+00 0.  1.
       -3    1    3    3    0  502  0.76132238127E+03  0.10236755723E+04  0.14020640159E+04  0.18956020048E+04  0.10100000352E+00 0. -1.
</event>
<event>
 5   0  0.2401139E-06  0.3198411E+04  0.7818609E-02  0.8189237E-01
       -2   -1    0    0    0  501  0.00000000000E+00  0.00000000000E+00  0.16436520405E+04  0.16436520405E+04  0.25500000920E-02 0. -1.
        2   -1    0    0  501    0  0.00000000000E+00  0.00000000000E+00 -0.15559606003E+04  0.15559606003E+04  0.25500000920E-02 0.  1.
    10030    2    1    2    0    0  0.00000000000E+00  0.00000000000E+00  0.87691440201E+02  0.31996126408E+04  0.31984107401E+04 0.  0.
        5    1    3    3  502    0  0.46324404402E+03 -0.15259905476E+04  0.16302709070E+03  0.16030727114E+04  0.46999998093E+01 0.  1.
       -5    1    3    3    0  502 -0.46324404402E+03  0.15259905476E+04 -0.75335650502E+02  0.15965399294E+04  0.46999998093E+01 0. -1.
</event>
<event>
 5   0  0.8487944E-07  0.3199015E+04  0.7818609E-02  0.8189077E-01
       -1   -1    0    0    0  501  0.00000000000E+00  0.00000000000E+00  0.95251607369E+03  0.95251607371E+03  0.50400001928E-02 0. -1.
        1   -1    0    0  501    0  0.00000000000E+00  0.00000000000E+00 -0.26859636698E+04  0.26859636698E+04  0.50400001928E-02 0.  1.
    10030    2    1    2    0    0  0.00000000000E+00  0.00000000000E+00 -0.17334475961E+04  0.36384797435E+04  0.31990145788E+04 0.  0.
        2    1    3    3  502    0 -0.75033974602E+03 -0.10948101612E+04 -0.18819893331E+04  0.23029335365E+04  0.25500000920E-02 0.  1.
       -2    1    3    3    0  502  0.75033974602E+03  0.10948101612E+04  0.14854173700E+03  0.13355462070E+04  0.25500000920E-02 0. -1.
</event>
<event>
 5   0  0.2466076E-06  0.3060041E+04  0.7818609E-02  0.8226791E-01
       -2   -1    0    0    0  501  0.00000000000E+00  0.00000000000E+00  0.16586923276E+04  0.16586923277E+04  0.25500000920E-02 0.  1.
        2   -1    0    0  501    0  0.00000000000E+00  0.00000000000E+00 -0.14113304865E+04  0.14113304865E+04  0.25500000920E-02 0. -1.
    10030    2    1    2    0    0  0.00000000000E+00  0.00000000000E+00  0.24736184120E+03  0.30700228141E+04  0.30600412087E+04 0.  0.
        3    1    3    3  502    0  0.83838487483E+03  0.73331225175E+03  0.11760672776E+04  0.16198056391E+04  0.10100000352E+00 0.  1.
       -3    1    3    3    0  502 -0.83838487483E+03 -0.73331225175E+03 -0.92870543637E+03  0.14502171750E+04  0.10100000352E+00 0. -1.
</event>
<event>
 5   0  0.2404430E-06  0.3186835E+04  0.7818609E-02  0.8192303E-01
        2   -1    0    0  501    0  0.00000000000E+00  0.00000000000E+00  0.16425851194E+04  0.16425851194E+04  0.25500000920E-02 0. -1.
       -2   -1    0    0    0  501  0.00000000000E+00  0.00000000000E+00 -0.15457217448E+04  0.15457217448E+04  0.25500000920E-02 0.  1.
    10030    2    1    2    0    0  0.00000000000E+00  0.00000000000E+00  0.96863374651E+02  0.31883068642E+04  0.31868351302E+04 0.  0.
        4    1    3    3  502    0 -0.29987965609E+03  0.74875069808E+03 -0.13264018011E+04  0.15523848643E+04  0.12699999809E+01 0.  1.
       -4    1    3    3    0  502  0.29987965609E+03 -0.74875069808E+03  0.14232651758E+04  0.16359219998E+04  0.12699999809E+01 0. -1.
</event>
<event>
 5   0  0.2466076E-06  0.3193232E+04  0.7818609E-02  0.8190607E-01
       -2   -1    0    0    0  501  0.00000000000E+00  0.00000000000E+00  0.10866571315E+04  0.10866571315E+04  0.25500000920E-02 0.  1.
        2   -1    0    0  501    0  0.00000000000E+00  0.00000000000E+00 -0.23458943852E+04  0.23458943852E+04  0.25500000920E-02 0. -1.
    10030    2    1    2    0    0  0.00000000000E+00  0.00000000000E+00 -0.12592372537E+04  0.34325515167E+04  0.31932321328E+04 0.  0.
        3    1    3    3  502    0 -0.14954576738E+04  0.23863573673E+03 -0.85901954542E+02  0.15168123895E+04  0.10100000352E+00 0.  1.
       -3    1    3    3    0  502  0.14954576738E+04 -0.23863573673E+03 -0.11733352991E+04  0.19157391272E+04  0.10100000352E+00 0. -1.
</event>
<event>
 5   0  0.8487944E-07  0.3185808E+04  0.7818609E-02  0.8192575E-01
       -1   -1    0    0    0  501  0.00000000000E+00  0.00000000000E+00  0.10147356667E+04  0.10147356667E+04  0.50400001928E-02 0.  1.
        1   -1    0    0  501    0  0.00000000000E+00  0.00000000000E+00 -0.25004971559E+04  0.25004971559E+04  0.50400001928E-02 0. -1.
    10030    2    1    2    0    0  0.00000000000E+00  0.00000000000E+00 -0.14857614892E+04  0.35152328226E+04  0.31858083110E+04 0.  0.
        2    1    3    3  502    0 -0.24077543049E+03  0.13083774634E+04 -0.17095526422E+04  0.21661935812E+04  0.25500000920E-02 0. -1.
       -2    1    3    3    0  502  0.24077543049E+03 -0.13083774634E+04  0.22379115298E+03  0.13490392414E+04  0.25500000920E-02 0.  1.
</event>
<event>
 5   0  0.2621528E-06  0.3191091E+04  0.7818609E-02  0.8191174E-01
       -2   -1    0    0    0  501  0.00000000000E+00  0.00000000000E+00  0.18706668346E+04  0.18706668346E+04  0.25500000920E-02 0.  1.
        2   -1    0    0  501    0  0.00000000000E+00  0.00000000000E+00 -0.13608869789E+04  0.13608869789E+04  0.25500000920E-02 0. -1.
    10030    2    1    2    0    0  0.00000000000E+00  0.00000000000E+00  0.50977985570E+03  0.32315538135E+04  0.31910914353E+04 0.  0.
        2    1    3    3  502    0  0.44803247481E+03  0.14167102605E+04  0.84360893357E+03  0.17086477383E+04  0.25500000920E-02 0. -1.
       -2    1    3    3    0  502 -0.44803247481E+03 -0.14167102605E+04 -0.33382907787E+03  0.15229060752E+04  0.25500000920E-02 0.  1.
</event>
<event>
 5   0  0.8383008E-07  0.3203861E+04  0.7818609E-02  0.8187798E-01
       -1   -1    0    0    0  501  0.00000000000E+00  0.00000000000E+00  0.87437616379E+03  0.87437616380E+03  0.50400001928E-02 0.  1.
        1   -1    0    0  501    0  0.00000000000E+00  0.00000000000E+00 -0.29348710091E+04  0.29348710091E+04  0.50400001928E-02 0. -1.
    10030    2    1    2    0    0  0.00000000000E+00  0.00000000000E+00 -0.20604948453E+04  0.38092471729E+04  0.32038609546E+04 0.  0.
        4    1    3    3  502    0  0.14265229210E+04  0.68000106067E+03 -0.13421313706E+04  0.20733275948E+04  0.12699999809E+01 0. -1.
       -4    1    3    3    0  502 -0.14265229210E+04 -0.68000106067E+03 -0.71836347474E+03  0.17359195781E+04  0.12699999809E+01 0.  1.
</event>
<event>
 5   0  0.8383008E-07  0.3225081E+04  0.7818609E-02  0.8182225E-01
       -1   -1    0    0    0  501  0.00000000000E+00  0.00000000000E+00  0.17370526903E+04  0.17370526903E+04  0.50400001928E-02 0.  1.
        1   -1    0    0  501    0  0.00000000000E+00  0.00000000000E+00 -0.14969532895E+04  0.14969532895E+04  0.50400001928E-02 0. -1.
    10030    2    1    2    0    0  0.00000000000E+00  0.00000000000E+00  0.24009940078E+03  0.32340059799E+04  0.32250809223E+04 0.  0.
        4    1    3    3  502    0 -0.12363891362E+04  0.17656551834E+02  0.11579576807E+04  0.16940594597E+04  0.12699999809E+01 0.  1.
       -4    1    3    3    0  502  0.12363891362E+04 -0.17656551834E+02 -0.91785827988E+03  0.15399465201E+04  0.12699999809E+01 0. -1.
</event>
<event>
 5   0  0.2404430E-06  0.3109155E+04  0.7818609E-02  0.8213230E-01
        2   -1    0    0  501    0  0.00000000000E+00  0.00000000000E+00  0.18460428866E+04  0.18460428866E+04  0.25500000920E-02 0.  1.
       -2   -1    0    0    0  501  0.00000000000E+00  0.00000000000E+00 -0.13091308056E+04  0.13091308056E+04  0.25500000920E-02 0. -1.
    10030    2    1    2    0    0  0.00000000000E+00  0.00000000000E+00  0.53691208096E+03  0.31551736923E+04  0.31091552624E+04 0.  0.
        4    1    3    3  502    0  0.27886226900E+03 -0.78406082885E+03  0.16009767996E+04  0.18043402878E+04  0.12699999809E+01 0.  1.
       -4    1    3    3    0  502 -0.27886226900E+03  0.78406082885E+03 -0.10640647186E+04  0.13508334045E+04  0.12699999809E+01 0. -1.
</event>
<event>
 5   0  0.8545153E-07  0.3376440E+04  0.7818609E-02  0.8143713E-01
        1   -1    0    0  501    0  0.00000000000E+00  0.00000000000E+00  0.17788537443E+04  0.17788537443E+04  0.50400001928E-02 0.  1.
       -1   -1    0    0    0  501  0.00000000000E+00  0.00000000000E+00 -0.16022039960E+04  0.16022039960E+04  0.50400001928E-02 0. -1.
    10030    2    1    2    0    0  0.00000000000E+00  0.00000000000E+00  0.17664974831E+03  0.33810577403E+04  0.33764398869E+04 0.  0.
        3    1    3    3  502    0  0.54245987917E+03  0.15798209635E+04 -0.15693778936E+03  0.16777146590E+04  0.10100000352E+00 0.  1.
       -3    1    3    3    0  502 -0.54245987917E+03 -0.15798209635E+04  0.33358753768E+03  0.17033430813E+04  0.10100000352E+00 0. -1.
</event>
<event>
 5   0  0.8487944E-07  0.2936049E+04  0.7818609E-02  0.8262232E-01
       -1   -1    0    0    0  501  0.00000000000E+00  0.00000000000E+00  0.17079409627E+04  0.17079409628E+04  0.50400001928E-02 0.  1.
        1   -1    0    0  501    0  0.00000000000E+00  0.00000000000E+00 -0.12618096380E+04  0.12618096380E+04  0.50400001928E-02 0. -1.
    10030    2    1    2    0    0  0.00000000000E+00  0.00000000000E+00  0.44613132471E+03  0.29697506008E+04  0.29360492966E+04 0.  0.
        2    1    3    3  502    0 -0.13301633606E+04  0.61561542520E+03  0.13978313774E+03  0.14723641680E+04  0.25500000920E-02 0.  1.
       -2    1    3    3    0  502  0.13301633606E+04 -0.61561542520E+03  0.30634818697E+03  0.14973864328E+04  0.25500000920E-02 0. -1.
</event>
<event>
 5   0  0.2466076E-06  0.3296321E+04  0.7818609E-02  0.8163832E-01
        2   -1    0    0  501    0  0.00000000000E+00  0.00000000000E+00  0.19053666384E+04  0.19053666384E+04  0.25500000920E-02 0.  1.
       -2   -1    0    0    0  501  0.00000000000E+00  0.00000000000E+00 -0.14256744512E+04  0.14256744512E+04  0.25500000920E-02 0. -1.
    10030    2    1    2    0    0  0.00000000000E+00  0.00000000000E+00  0.47969218713E+03  0.33310410896E+04  0.32963206983E+04 0.  0.
        3    1    3    3  502    0  0.56766939701E+01  0.90220002788E+03 -0.11539700585E+04  0.14648017003E+04  0.10100000352E+00 0. -1.
       -3    1    3    3    0  502 -0.56766939701E+01 -0.90220002788E+03  0.16336622456E+04  0.18662393893E+04  0.10100000352E+00 0.  1.
</event>
<event>
 5   0  0.2466076E-06  0.3202538E+04  0.7818609E-02  0.8188147E-01
        2   -1    0    0  501    0  0.00000000000E+00  0.00000000000E+00  0.14147082214E+04  0.14147082214E+04  0.25500000920E-02 0. -1.
       -2   -1    0    0    0  501  0.00000000000E+00  0.00000000000E+00 -0.18124323093E+04  0.18124323093E+04  0.25500000920E-02 0.  1.
    10030    2    1    2    0    0  0.00000000000E+00  0.00000000000E+00 -0.39772408787E+03  0.32271405306E+04  0.32025382987E+04 0.  0.
        3    1    3    3  502    0 -0.79251357918E+03 -0.72861251190E+03  0.99561701413E+03  0.14663584878E+04  0.10100000352E+00 0. -1.
       -3    1    3    3    0  502  0.79251357918E+03  0.72861251190E+03 -0.13933411020E+04  0.17607820428E+04  0.10100000352E+00 0.  1.
</event>
<event>
 5   0  0.2404430E-06  0.2951989E+04  0.7818609E-02  0.8257575E-01
        2   -1    0    0  501    0  0.00000000000E+00  0.00000000000E+00  0.29128224965E+04  0.29128224965E+04  0.25500000920E-02 0. -1.
       -2   -1    0    0    0  501  0.00000000000E+00  0.00000000000E+00 -0.74792048173E+03  0.74792048173E+03  0.25500000920E-02 0.  1.
    10030    2    1    2    0    0  0.00000000000E+00  0.00000000000E+00  0.21649020148E+04  0.36607429782E+04  0.29519888921E+04 0.  0.
        4    1    3    3  502    0  0.26641733341E+03  0.85130372625E+03 -0.37583901053E+03  0.96796322482E+03  0.12699999809E+01 0.  1.
       -4    1    3    3    0  502 -0.26641733341E+03 -0.85130372625E+03  0.25407410253E+04  0.26927797534E+04  0.12699999809E+01 0. -1.
</event>
<event>
 5   0  0.8681172E-07  0.3185024E+04  0.7818609E-02  0.8192784E-01
        1   -1    0    0  501    0  0.00000000000E+00  0.00000000000E+00  0.25386083187E+04  0.25386083187E+04  0.50400001928E-02 0.  1.
       -1   -1    0    0    0  501  0.00000000000E+00  0.00000000000E+00 -0.99900964204E+03  0.99900964206E+03  0.50400001928E-02 0. -1.
    10030    2    1    2    0    0  0.00000000000E+00  0.00000000000E+00  0.15395986766E+04  0.35376179607E+04  0.31850238227E+04 0.  0.
        1    1    3    3  502    0  0.14012920656E+04  0.27382900772E+03  0.15532136019E+04  0.21097569224E+04  0.50400001928E-02 0.  1.
       -1    1    3    3    0  502 -0.14012920656E+04 -0.27382900772E+03 -0.13614925304E+02  0.14278610383E+04  0.50400001928E-02 0. -1.
</event>
<event>
 5   0  0.2404430E-06  0.3222526E+04  0.7818609E-02  0.8182893E-01
       -2   -1    0    0    0  501  0.00000000000E+00  0.00000000000E+00  0.12647884889E+04  0.12647884889E+04  0.25500000920E-02 0. -1.
        2   -1    0    0  501    0  0.00000000000E+00  0.00000000000E+00 -0.20526506230E+04  0.20526506230E+04  0.25500000920E-02 0.  1.
    10030    2    1    2    0    0  0.00000000000E+00  0.00000000000E+00 -0.78786213417E+03  0.33174391119E+04  0.32225262634E+04 0.  0.
        4    1    3    3  502    0 -0.42478697981E+03 -0.15176237867E+04 -0.48578635586E+02  0.15767014406E+04  0.12699999809E+01 0. -1.
       -4    1    3    3    0  502  0.42478697981E+03  0.15176237867E+04 -0.73928349858E+03  0.17407376713E+04  0.12699999809E+01 0.  1.
</event>
<event>
 5   0  0.8545153E-07  0.2894647E+04  0.7818609E-02  0.8274472E-01
        1   -1    0    0  501    0  0.00000000000E+00  0.00000000000E+00  0.11062586710E+04  0.11062586710E+04  0.50400001928E-02 0.  1.
       -1   -1    0    0    0  501  0.00000000000E+00  0.00000000000E+00 -0.18935396411E+04  0.18935396411E+04  0.50400001928E-02 0. -1.
    10030    2    1    2    0    0  0.00000000000E+00  0.00000000000E+00 -0.78728097015E+03  0.29997983121E+04  0.28946465392E+04 0.  0.
        3    1    3    3  502    0  0.25316802529E+03 -0.54044302187E+03  0.97280669140E+03  0.11412824269E+04  0.10100000352E+00 0.  1.
       -3    1    3    3    0  502 -0.25316802529E+03  0.54044302187E+03 -0.17600876616E+04  0.18585158852E+04  0.10100000352E+00 0. -1.
</event>
<event>
 5   0  0.2466076E-06  0.3146079E+04  0.7818609E-02  0.8203204E-01
       -2   -1    0    0    0  501  0.00000000000E+00  0.00000000000E+00  0.33825464451E+04  0.33825464451E+04  0.25500000920E-02 0.  1.
        2   -1    0    0  501    0  0.00000000000E+00  0.00000000000E+00 -0.73153565889E+03  0.73153565889E+03  0.25500000920E-02 0. -1.
    10030    2    1    2    0    0  0.00000000000E+00  0.00000000000E+00  0.26510107862E+04  0.41140821040E+04  0.31460790470E+04 0.  0.
        3    1    3    3  502    0 -0.11891658552E+03 -0.81477770808E+02 -0.72288021113E+03  0.73711301121E+03  0.10100000352E+00 0. -1.
       -3    1    3    3    0  502  0.11891658552E+03  0.81477770808E+02  0.33738909974E+04  0.33769690928E+04  0.10100000352E+00 0.  1.
</event>
<event>
 5   0  0.2466076E-06  0.3200254E+04  0.7818609E-02  0.8188750E-01
       -2   -1    0    0    0  501  0.00000000000E+00  0.00000000000E+00  0.17779261393E+04  0.17779261393E+04  0.25500000920E-02 0. -1.
        2   -1    0    0  501    0  0.00000000000E+00  0.00000000000E+00 -0.14401081844E+04  0.14401081844E+04  0.25500000920E-02 0.  1.
    10030    2    1    2    0    0  0.00000000000E+00  0.00000000000E+00  0.33781795491E+03  0.32180343237E+04  0.32002537302E+04 0.  0.
        3    1    3    3  502    0  0.98543991694E+03  0.95111420297E+03  0.10009699051E+04  0.16963639993E+04  0.10100000352E+00 0. -1.
       -3    1    3    3    0  502 -0.98543991694E+03 -0.95111420297E+03 -0.66315195017E+03  0.15216703244E+04  0.10100000352E+00 0.  1.
</event>
<event>
 5   0  0.8681172E-07  0.3167187E+04  0.7818609E-02  0.8197537E-01
       -1   -1    0    0    0  501  0.00000000000E+00  0.00000000000E+00  0.14346719098E+04  0.14346719098E+04  0.50400001928E-02 0.  1.
        1   -1    0    0  501    0  0.00000000000E+00  0.00000000000E+00 -0.17479731501E+04  0.17479731501E+04  0.50400001928E-02 0. -1.
    10030    2    1    2    0    0  0.00000000000E+00  0.00000000000E+00 -0.31330124023E+03  0.31826450599E+04  0.31671867501E+04 0.  0.
        1    1    3    3  502    0 -0.12964700536E+04  0.55401843970E+03 -0.88127832071E+03  0.16626552589E+04  0.50400001928E-02 0. -1.
       -1    1    3    3    0  502  0.12964700536E+04 -0.55401843970E+03  0.56797708048E+03  0.15199898010E+04  0.50400001928E-02 0.  1.
</event>
<event>
 5   0  0.8681172E-07  0.3189328E+04  0.7818609E-02  0.8191641E-01
        1   -1    0    0  501    0  0.00000000000E+00  0.00000000000E+00  0.16566839471E+04  0.16566839471E+04  0.50400001928E-02 0.  1.
       -1   -1    0    0    0  501  0.00000000000E+00  0.00000000000E+00 -0.15349655156E+04  0.15349655156E+04  0.50400001928E-02 0. -1.
    10030    2    1    2    0    0  0.00000000000E+00  0.00000000000E+00  0.12171843150E+03  0.31916494626E+04  0.31893276589E+04 0.  0.
        1    1    3    3  502    0  0.14813286129E+04 -0.58126872474E+03  0.16459247652E+03  0.15997807578E+04  0.50400001928E-02 0. -1.
       -1    1    3    3    0  502 -0.14813286129E+04  0.58126872474E+03 -0.42874045028E+02  0.15918687048E+04  0.50400001928E-02 0.  1.
</event>
<event>
 5   0  0.2337504E-06  0.3131681E+04  0.7818609E-02  0.8207097E-01
       -2   -1    0    0    0  501  0.00000000000E+00  0.00000000000E+00  0.16768870036E+04  0.16768870036E+04  0.25500000920E-02 0. -1.
        2   -1    0    0  501    0  0.00000000000E+00  0.00000000000E+00 -0.14621475848E+04  0.14621475848E+04  0.25500000920E-02 0.  1.
    10030    2    1    2    0    0  0.00000000000E+00  0.00000000000E+00  0.21473941886E+03  0.31390345884E+04  0.31316808792E+04 0.  0.
        1    1    3    3  502    0  0.89181401063E+03  0.12717275389E+04 -0.91168920573E+02  0.15559353890E+04  0.50400001928E-02 0.  1.
       -1    1    3    3    0  502 -0.89181401063E+03 -0.12717275389E+04  0.30590833943E+03  0.15830991993E+04  0.50400001928E-02 0. -1.
</event>
<event>
 5   0  0.8383008E-07  0.3200332E+04  0.7818609E-02  0.8188730E-01
        1   -1    0    0  501    0  0.00000000000E+00  0.00000000000E+00  0.21149194028E+04  0.21149194028E+04  0.50400001928E-02 0. -1.
       -1   -1    0    0    0  501  0.00000000000E+00  0.00000000000E+00 -0.12106991011E+04  0.12106991011E+04  0.50400001928E-02 0.  1.
    10030    2    1    2    0    0  0.00000000000E+00  0.00000000000E+00  0.90422030170E+03  0.33256185039E+04  0.32003318702E+04 0.  0.
        4    1    3    3  502    0  0.13489883845E+04  0.53634397164E+03 -0.24736452125E+03  0.14726253212E+04  0.12699999809E+01 0.  1.
       -4    1    3    3    0  502 -0.13489883845E+04 -0.53634397164E+03  0.11515848229E+04  0.18529931826E+04  0.12699999809E+01 0. -1.
</event>
<event>
 5   0  0.2401139E-06  0.3200456E+04  0.7818609E-02  0.8188697E-01
        2   -1    0    0  501    0  0.00000000000E+00  0.00000000000E+00  0.13749743424E+04  0.13749743424E+04  0.25500000920E-02 0.  1.
       -2   -1    0    0    0  501  0.00000000000E+00  0.00000000000E+00 -0.18623841695E+04  0.18623841695E+04  0.25500000920E-02 0. -1.
    10030    2    1    2    0    0  0.00000000000E+00  0.00000000000E+00 -0.48740982707E+03  0.32373585119E+04  0.32004564979E+04 0.  0.
        5    1    3    3  502    0  0.11197738570E+03 -0.15478529948E+04 -0.63848759263E+03  0.16781168983E+04  0.46999998093E+01 0.  1.
       -5    1    3    3    0  502 -0.11197738570E+03  0.15478529948E+04  0.15107776556E+03  0.15592416136E+04  0.46999998093E+01 0. -1.
</event>
<event>
 5   0  0.8487944E-07  0.3221897E+04  0.7818609E-02  0.8183058E-01
        1   -1    0    0  501    0  0.00000000000E+00  0.00000000000E+00  0.12008879358E+04  0.12008879358E+04  0.50400001928E-02 0. -1.
       -1   -1    0    0    0  501  0.00000000000E+00  0.00000000000E+00 -0.21610301774E+04  0.21610301774E+04  0.50400001928E-02 0.  1.
    10030    2    1    2    0    0  0.00000000000E+00  0.00000000000E+00 -0.96014224164E+03  0.33619181132E+04  0.32218969995E+04 0.  0.
        2    1    3    3  502    0  0.15653436368E+04  0.23347145769E+03 -0.16643316720E+03  0.15913860695E+04  0.25500000920E-02 0. -1.
       -2    1    3    3    0  502 -0.15653436368E+04 -0.23347145769E+03 -0.79370907444E+03  0.17705320437E+04  0.25500000920E-02 0.  1.
</event>
<event>
 5   0  0.8512855E-07  0.3170493E+04  0.7818609E-02  0.8196654E-01
       -1   -1    0    0    0  501  0.00000000000E+00  0.00000000000E+00  0.31468604611E+04  0.31468604611E+04  0.50400001928E-02 0. -1.
        1   -1    0    0  501    0  0.00000000000E+00  0.00000000000E+00 -0.79857589430E+03  0.79857589432E+03  0.50400001928E-02 0.  1.
    10030    2    1    2    0    0  0.00000000000E+00  0.00000000000E+00  0.23482845668E+04  0.39454363554E+04  0.31704932784E+04 0.  0.
        5    1    3    3  502    0  0.68022661815E+02 -0.13958341256E+04  0.24289698952E+03  0.14184502199E+04  0.46999998093E+01 0.  1.
       -5    1    3    3    0  502 -0.68022661815E+02  0.13958341256E+04  0.21053875773E+04  0.25269861356E+04  0.46999998093E+01 0. -1.
</event>
<event>
 5   0  0.8681172E-07  0.3196503E+04  0.7818609E-02  0.8189741E-01
       -1   -1    0    0    0  501  0.00000000000E+00  0.00000000000E+00  0.23196921726E+04  0.23196921726E+04  0.50400001928E-02 0. -1.
        1   -1    0    0  501    0  0.00000000000E+00  0.00000000000E+00 -0.11011839750E+04  0.11011839750E+04  0.50400001928E-02 0.  1.
    10030    2    1    2    0    0  0.00000000000E+00  0.00000000000E+00  0.12185081976E+04  0.34208761476E+04  0.31965029939E+04 0.  0.
        1    1    3    3  502    0 -0.35480170948E+03 -0.14805109094E+04  0.11298248211E+04  0.18958641650E+04  0.50400001928E-02 0. -1.
       -1    1    3    3    0  502  0.35480170948E+03  0.14805109094E+04  0.88683376507E+02  0.15250119826E+04  0.50400001928E-02 0.  1.
</event>
<event>
 5   0  0.2401139E-06  0.3189535E+04  0.7818609E-02  0.8191586E-01
       -2   -1    0    0    0  501  0.00000000000E+00  0.00000000000E+00  0.15971863645E+04  0.15971863645E+04  0.25500000920E-02 0.  1.
        2   -1    0    0  501    0  0.00000000000E+00  0.00000000000E+00 -0.15923523996E+04  0.15923523996E+04  0.25500000920E-02 0. -1.
    10030    2    1    2    0    0  0.00000000000E+00  0.00000000000E+00  0.48339648418E+01  0.31895387641E+04  0.31895351010E+04 0.  0.
        5    1    3    3  502    0 -0.13913746341E+04 -0.77725761101E+03  0.59062293594E+02  0.15948552319E+04  0.46999998093E+01 0.  1.
       -5    1    3    3    0  502  0.13913746341E+04  0.77725761101E+03 -0.54228328752E+02  0.15946835322E+04  0.46999998093E+01 0. -1.
</event>
<event>
 5   0  0.8487944E-07  0.3193168E+04  0.7818609E-02  0.8190624E-01
       -1   -1    0    0    0  501  0.00000000000E+00  0.00000000000E+00  0.13961640606E+04  0.13961640606E+04  0.50400001928E-02 0.  1.
        1   -1    0    0  501    0  0.00000000000E+00  0.00000000000E+00 -0.18257739913E+04  0.18257739913E+04  0.50400001928E-02 0. -1.
    10030    2    1    2    0    0  0.00000000000E+00  0.00000000000E+00 -0.42960993065E+03  0.32219380519E+04  0.31931677247E+04 0.  0.
        2    1    3    3  502    0 -0.57723192031E+03  0.12573940774E+04  0.58914456295E+03  0.15037712166E+04  0.25500000920E-02 0.  1.
       -2    1    3    3    0  502  0.57723192031E+03 -0.12573940774E+04 -0.10187544936E+04  0.17181668353E+04  0.25500000920E-02 0. -1.
</event>
<event>
 5   0  0.8545153E-07  0.3227570E+04  0.7818609E-02  0.8181574E-01
       -1   -1    0    0    0  501  0.00000000000E+00  0.00000000000E+00  0.14936862855E+04  0.14936862855E+04  0.50400001928E-02 0.  1.
        1   -1    0    0  501    0  0.00000000000E+00  0.00000000000E+00 -0.17435402032E+04  0.17435402032E+04  0.50400001928E-02 0. -1.
    10030    2    1    2    0    0  0.00000000000E+00  0.00000000000E+00 -0.24985391770E+03  0.32372264887E+04  0.32275700394E+04 0.  0.
        3    1    3    3  502    0 -0.98153178667E+03  0.26505698805E+03  0.11320752600E+04  0.15215959581E+04  0.10100000352E+00 0.  1.
       -3    1    3    3    0  502  0.98153178667E+03 -0.26505698805E+03 -0.13819291777E+04  0.17156305306E+04  0.10100000352E+00 0. -1.
</event>
<event>
 5   0  0.2466076E-06  0.3182529E+04  0.7818609E-02  0.8193446E-01
        2   -1    0    0  501    0  0.00000000000E+00  0.00000000000E+00  0.19760642559E+04  0.19760642559E+04  0.25500000920E-02 0.  1.
       -2   -1    0    0    0  501  0.00000000000E+00  0.00000000000E+00 -0.12813972524E+04  0.12813972524E+04  0.25500000920E-02 0. -1.
    10030    2    1    2    0    0  0.00000000000E+00  0.00000000000E+00  0.69466700345E+03  0.32574615083E+04  0.31825293765E+04 0.  0.
        3    1    3    3  502    0  0.79101639856E+03 -0.13781265366E+04  0.43408521636E+03  0.16472309125E+04  0.10100000352E+00 0. -1.
       -3    1    3    3    0  502 -0.79101639856E+03  0.13781265366E+04  0.26058178710E+03  0.16102305958E+04  0.10100000352E+00 0.  1.
</event>
<event>
 5   0  0.2401139E-06  0.3288197E+04  0.7818609E-02  0.8165905E-01
        2   -1    0    0  501    0  0.00000000000E+00  0.00000000000E+00  0.20220045875E+04  0.20220045875E+04  0.25500000920E-02 0. -1.
       -2   -1    0    0    0  501  0.00000000000E+00  0.00000000000E+00 -0.13368214409E+04  0.13368214409E+04  0.25500000920E-02 0.  1.
    10030    2    1    2    0    0  0.00000000000E+00  0.00000000000E+00  0.68518314666E+03  0.33588260284E+04  0.32881965185E+04 0.  0.
        5    1    3    3  502    0  0.11822420200E+04 -0.60750596117E+02  0.15079965922E+04  0.19171496136E+04  0.46999998093E+01 0. -1.
       -5    1    3    3    0  502 -0.11822420200E+04  0.60750596117E+02 -0.82281344551E+03  0.14416764148E+04  0.46999998093E+01 0.  1.
</event>
<event>
 5   0  0.2337504E-06  0.3236035E+04  0.7818609E-02  0.8179365E-01
        2   -1    0    0  501    0  0.00000000000E+00  0.00000000000E+00  0.23886249633E+04  0.23886249633E+04  0.25500000920E-02 0. -1.
       -2   -1    0    0    0  501  0.00000000000E+00  0.00000000000E+00 -0.10960198786E+04  0.10960198786E+04  0.25500000920E-02 0.  1.
    10030    2    1    2    0    0  0.00000000000E+00  0.00000000000E+00  0.12926050847E+04  0.34846448420E+04  0.32360348839E+04 0.  0.
        1    1    3    3  502    0 -0.77370972117E+03  0.78010438137E+03  0.19253205107E+04  0.22167653569E+04  0.50400001928E-02 0. -1.
       -1    1    3    3    0  502  0.77370972117E+03 -0.78010438137E+03 -0.63271542600E+03  0.12678794851E+04  0.50400001928E-02 0.  1.
</event>
<event>
 5   0  0.8383008E-07  0.3182881E+04  0.7818609E-02  0.8193353E-01
       -1   -1    0    0    0  501  0.00000000000E+00  0.00000000000E+00  0.14392694726E+04  0.14392694726E+04  0.50400001928E-02 0. -1.
        1   -1    0    0  501    0  0.00000000000E+00  0.00000000000E+00 -0.17597004355E+04  0.17597004355E+04  0.50400001928E-02 0.  1.
    10030    2    1    2    0    0  0.00000000000E+00  0.00000000000E+00 -0.32043096288E+03  0.31989699081E+04  0.31828811588E+04 0.  0.
        4    1    3    3  502    0 -0.28562794296E+03  0.85120254388E+03 -0.14808407865E+04  0.17317679233E+04  0.12699999809E+01 0.  1.
       -4    1    3    3    0  502  0.28562794296E+03 -0.85120254388E+03  0.11604098236E+04  0.14672019848E+04  0.12699999809E+01 0. -1.
</event>
<event>
 5   0  0.8512855E-07  0.3173191E+04  0.7818609E-02  0.8195933E-01
       -1   -1    0    0    0  501  0.00000000000E+00  0.00000000000E+00  0.91295463207E+03  0.91295463208E+03  0.50400001928E-02 0.  1.
        1   -1    0    0  501    0  0.00000000000E+00  0.00000000000E+00 -0.27572957647E+04  0.27572957647E+04  0.50400001928E-02 0. -1.
    10030    2    1    2    0    0  0.00000000000E+00  0.00000000000E+00 -0.18443411326E+04  0.36702503968E+04  0.31731914158E+04 0.  0.
        5    1    3    3  502    0  0.63168746375E+03 -0.84485245019E+03  0.44856593355E+03  0.11463150532E+04  0.46999998093E+01 0.  1.
       -5    1    3    3    0  502 -0.63168746375E+03  0.84485245019E+03 -0.22929070662E+04  0.25239353436E+04  0.46999998093E+01 0. -1.
</event>
<event>
 5   0  0.8545153E-07  0.3237370E+04  0.7818609E-02  0.8179017E-01
        1   -1    0    0  501    0  0.00000000000E+00  0.00000000000E+00  0.16280858243E+04  0.16280858243E+04  0.50400001928E-02 0.  1.
       -1   -1    0    0    0  501  0.00000000000E+00  0.00000000000E+00 -0.16093381399E+04  0.16093381399E+04  0.50400001928E-02 0. -1.
    10030    2    1    2    0    0  0.00000000000E+00  0.00000000000E+00  0.18747684398E+02  0.32374239642E+04  0.32373696806E+04 0.  0.
        3    1    3    3  502    0 -0.11218940836E+04 -0.86393992901E+03 -0.77492373794E+03  0.16141701724E+04  0.10100000352E+00 0. -1.
       -3    1    3    3    0  502  0.11218940836E+04  0.86393992901E+03  0.79367142233E+03  0.16232537918E+04  0.10100000352E+00 0.  1.
</event>
<event>
 5   0  0.2621528E-06  0.3163051E+04  0.7818609E-02  0.8198644E-01
        2   -1    0    0  501    0  0.00000000000E+00  0.00000000000E+00  0.20762721618E+04  0.20762721618E+04  0.25500000920E-02 0. -1.
       -2   -1    0    0    0  501  0.00000000000E+00  0.00000000000E+00 -0.12046702475E+04  0.12046702476E+04  0.25500000920E-02 0.  1.
    10030    2    1    2    0    0  0.00000000000E+00  0.00000000000E+00  0.87160191421E+03  0.32809424093E+04  0.31630512478E+04 0.  0.
        2    1    3    3  502    0 -0.34036461283E+03 -0.36762212062E+03  0.19917872161E+04  0.20538282322E+04  0.25500000920E-02 0. -1.
       -2    1    3    3    0  502  0.34036461283E+03  0.36762212062E+03 -0.11201853019E+04  0.12271141771E+04  0.25500000920E-02 0.  1.
</event>
<event>
 5   0  0.8545153E-07  0.3175710E+04  0.7818609E-02  0.8195262E-01
       -1   -1    0    0    0  501  0.00000000000E+00  0.00000000000E+00  0.11815638712E+04  0.11815638712E+04  0.50400001928E-02 0.  1.
        1   -1    0    0  501    0  0.00000000000E+00  0.00000000000E+00 -0.21338524085E+04  0.21338524085E+04  0.50400001928E-02 0. -1.
    10030    2    1    2    0    0  0.00000000000E+00  0.00000000000E+00 -0.95228853729E+03  0.33154162797E+04  0.31757096292E+04 0.  0.
        3    1    3    3  502    0  0.23259673945E+03 -0.15567814681E+04 -0.25811948949E+03  0.15950847826E+04  0.10100000352E+00 0.  1.
       -3    1    3    3    0  502 -0.23259673945E+03  0.15567814681E+04 -0.69416904779E+03  0.17203314971E+04  0.10100000352E+00 0. -1.
</event>
<event>
 5   0  0.8487944E-07  0.3236888E+04  0.7818609E-02  0.8179143E-01
       -1   -1    0    0    0  501  0.00000000000E+00  0.00000000000E+00  0.11718506888E+04  0.11718506888E+04  0.50400001928E-02 0. -1.
        1   -1    0    0  501    0  0.00000000000E+00  0.00000000000E+00 -0.22352338886E+04  0.22352338886E+04  0.50400001928E-02 0.  1.
    10030    2    1    2    0    0  0.00000000000E+00  0.00000000000E+00 -0.10633831998E+04  0.34070845775E+04  0.32368876237E+04 0.  0.
        2    1    3    3  502    0 -0.92592888605E+03  0.33635853639E+03 -0.18832962792E+04  0.21253908446E+04  0.25500000920E-02 0.  1.
       -2    1    3    3    0  502  0.92592888605E+03 -0.33635853639E+03  0.81991307943E+03  0.12816937329E+04  0.25500000920E-02 0. -1.
</event>
<event>
 5   0  0.8383008E-07  0.3232292E+04  0.7818609E-02  0.8180341E-01
        1   -1    0    0  501    0  0.00000000000E+00  0.00000000000E+00  0.28942464851E+04  0.28942464851E+04  0.50400001928E-02 0. -1.
       -1   -1    0    0    0  501  0.00000000000E+00  0.00000000000E+00 -0.90245534362E+03  0.90245534363E+03  0.50400001928E-02 0.  1.
    10030    2    1    2    0    0  0.00000000000E+00  0.00000000000E+00  0.19917911415E+04  0.37967018288E+04  0.32322921936E+04 0.  0.
        4    1    3    3  502    0  0.14678161141E+04  0.47618723579E+03  0.43172745869E+03  0.16023821766E+04  0.12699999809E+01 0.  1.
       -4    1    3    3    0  502 -0.14678161141E+04 -0.47618723579E+03  0.15600636828E+04  0.21943196521E+04  0.12699999809E+01 0. -1.
</event>
<event>
 5   0  0.2337504E-06  0.3199801E+04  0.7818609E-02  0.8188870E-01
       -2   -1    0    0    0  501  0.00000000000E+00  0.00000000000E+00  0.12062070679E+04  0.12062070679E+04  0.25500000920E-02 0. -1.
        2   -1    0    0  501    0  0.00000000000E+00  0.00000000000E+00 -0.21220914775E+04  0.21220914775E+04  0.25500000920E-02 0.  1.
    10030    2    1    2    0    0  0.00000000000E+00  0.00000000000E+00 -0.91588440965E+03  0.33282985454E+04  0.31998010807E+04 0.  0.
        1    1    3    3  502    0  0.66643993992E+03  0.86952375154E+03 -0.16707271233E+04  0.19978845984E+04  0.50400001928E-02 0.  1.
       -1    1    3    3    0  502 -0.66643993992E+03 -0.86952375154E+03  0.75484271367E+03  0.13304139470E+04  0.50400001928E-02 0. -1.
</event>
<event>
 5   0  0.2466076E-06  0.3210053E+04  0.7818609E-02  0.8186167E-01
        2   -1    0    0  501    0  0.00000000000E+00  0.00000000000E+00  0.22511703375E+04  0.22511703375E+04  0.25500000920E-02 0. -1.
       -2   -1    0    0    0  501  0.00000000000E+00  0.00000000000E+00 -0.11443422385E+04  0.11443422385E+04  0.25500000920E-02 0.  1.
    10030    2    1    2    0    0  0.00000000000E+00  0.00000000000E+00  0.11068280990E+04  0.33955125760E+04  0.32100525249E+04 0.  0.
        3    1    3    3  502    0 -0.42960435689E+03 -0.11678159967E+04 -0.51893962277E+03  0.13482034149E+04  0.10100000352E+00 0.  1.
       -3    1    3    3    0  502  0.42960435689E+03  0.11678159967E+04  0.16257677218E+04  0.20473091611E+04  0.10100000352E+00 0. -1.
</event>
<event>
 5   0  0.8487944E-07  0.3136373E+04  0.7818609E-02  0.8205826E-01
       -1   -1    0    0    0  501  0.00000000000E+00  0.00000000000E+00  0.10733346288E+04  0.10733346288E+04  0.50400001928E-02 0. -1.
        1   -1    0    0  501    0  0.00000000000E+00  0.00000000000E+00 -0.22911862153E+04  0.22911862154E+04  0.50400001928E-02 0.  1.
    10030    2    1    2    0    0  0.00000000000E+00  0.00000000000E+00 -0.12178515866E+04  0.33645208441E+04  0.31363733871E+04 0.  0.
        2    1    3    3  502    0 -0.43833272314E+02 -0.15656308502E+04 -0.69262851917E+03  0.17125581977E+04  0.25500000920E-02 0. -1.
       -2    1    3    3    0  502  0.43833272314E+02  0.15656308502E+04 -0.52522306742E+03  0.16519626465E+04  0.25500000920E-02 0.  1.
</event>
<event>
 5   0  0.8512855E-07  0.3234408E+04  0.7818609E-02  0.8179789E-01
       -1   -1    0    0    0  501  0.00000000000E+00  0.00000000000E+00  0.13687324543E+04  0.13687324543E+04  0.50400001928E-02 0. -1.
        1   -1    0    0  501    0  0.00000000000E+00  0.00000000000E+00 -0.19107811265E+04  0.19107811265E+04  0.50400001928E-02 0.  1.
    10030    2    1    2    0    0  0.00000000000E+00  0.00000000000E+00 -0.54204867219E+03  0.32795135809E+04  0.32344076064E+04 0.  0.
        5    1    3    3  502    0  0.10382163161E+04 -0.32835681970E+03 -0.14833636572E+04  0.18401361769E+04  0.46999998093E+01 0.  1.
       -5    1    3    3    0  502 -0.10382163161E+04  0.32835681970E+03  0.94131498501E+03  0.14393774040E+04  0.46999998093E+01 0. -1.
</event>
<event>
 5   0  0.2401139E-06  0.3182693E+04  0.7818609E-02  0.8193403E-01
        2   -1    0    0  501    0  0.00000000000E+00  0.00000000000E+00  0.13059466521E+04  0.13059466521E+04  0.25500000920E-02 0. -1.
       -2   -1    0    0    0  501  0.00000000000E+00  0.00000000000E+00 -0.19391177128E+04  0.19391177128E+04  0.25500000920E-02 0.  1.
    10030    2    1    2    0    0  0.00000000000E+00  0.00000000000E+00 -0.63317106065E+03  0.32450643649E+04  0.31826933783E+04 0.  0.
        5    1    3    3  502    0  0.12177290247E+04  0.84266010825E+03 -0.91060217025E+03  0.17384356296E+04  0.46999998093E+01 0.  1.
       -5    1    3    3    0  502 -0.12177290247E+04 -0.84266010825E+03  0.27743110960E+03  0.15066287354E+04  0.46999998093E+01 0. -1.
</event>
<event>
 5   0  0.2337504E-06  0.3187054E+04  0.7818609E-02  0.8192245E-01
       -2   -1    0    0    0  501  0.00000000000E+00  0.00000000000E+00  0.33818154675E+04  0.33818154675E+04  0.25500000920E-02 0. -1.
        2   -1    0    0  501    0  0.00000000000E+00  0.00000000000E+00 -0.75087728829E+03  0.75087728829E+03  0.25500000920E-02 0.  1.
    10030    2    1    2    0    0  0.00000000000E+00  0.00000000000E+00  0.26309381792E+04  0.41326927558E+04  0.31870540803E+04 0.  0.
        1    1    3    3  502    0 -0.84602007849E+03 -0.12700817488E+04  0.72057504970E+03  0.16876273357E+04  0.50400001928E-02 0.  1.
       -1    1    3    3    0  502  0.84602007849E+03  0.12700817488E+04  0.19103631295E+04  0.24450654201E+04  0.50400001928E-02 0. -1.
</event>
<event>
 5   0  0.7934375E-07  0.3159467E+04  0.7818609E-02  0.8199605E-01
       -3   -1    0    0    0  501  0.00000000000E+00  0.00000000000E+00  0.13334594732E+04  0.13334594770E+04  0.10100000352E+00 0.  1.
        3   -1    0    0  501    0  0.00000000000E+00  0.00000000000E+00 -0.18714916159E+04  0.18714916186E+04  0.10100000352E+00 0. -1.
    10030    2    1    2    0    0  0.00000000000E+00  0.00000000000E+00 -0.53803214272E+03  0.32049510956E+04  0.31594671922E+04 0.  0.
        4    1    3    3  502    0 -0.46594050761E+03 -0.87262439242E+03  0.98037349830E+03  0.13927338927E+04  0.12699999809E+01 0.  1.
       -4    1    3    3    0  502  0.46594050761E+03  0.87262439242E+03 -0.15184056410E+04  0.18122172029E+04  0.12699999809E+01 0. -1.
</event>
<event>
 5   0  0.8383008E-07  0.3280135E+04  0.7818609E-02  0.8167969E-01
        1   -1    0    0  501    0  0.00000000000E+00  0.00000000000E+00  0.19038781287E+04  0.19038781287E+04  0.50400001928E-02 0.  1.
       -1   -1    0    0    0  501  0.00000000000E+00  0.00000000000E+00 -0.14128116734E+04  0.14128116734E+04  0.50400001928E-02 0. -1.
    10030    2    1    2    0    0  0.00000000000E+00  0.00000000000E+00  0.49106645533E+03  0.33166898020E+04  0.32801349026E+04 0.  0.
        4    1    3    3  502    0  0.96417543112E+03 -0.10972224793E+04  0.99969249865E+03  0.17700051231E+04  0.12699999809E+01 0.  1.
       -4    1    3    3    0  502 -0.96417543112E+03  0.10972224793E+04 -0.50862604332E+03  0.15466846789E+04  0.12699999809E+01 0. -1.
</event>
<event>
 5   0  0.2404430E-06  0.3096976E+04  0.7818609E-02  0.8216568E-01
        2   -1    0    0  501    0  0.00000000000E+00  0.00000000000E+00  0.21462162839E+04  0.21462162839E+04  0.25500000920E-02 0. -1.
       -2   -1    0    0    0  501  0.00000000000E+00  0.00000000000E+00 -0.11172289123E+04  0.11172289124E+04  0.25500000920E-02 0.  1.
    10030    2    1    2    0    0  0.00000000000E+00  0.00000000000E+00  0.10289873715E+04  0.32634451962E+04  0.30969758698E+04 0.  0.
        4    1    3    3  502    0 -0.12608659235E+04  0.89859032212E+03  0.53955942677E+03  0.16396260037E+04  0.12699999809E+01 0. -1.
       -4    1    3    3    0  502  0.12608659235E+04 -0.89859032212E+03  0.48942794476E+03  0.16238191925E+04  0.12699999809E+01 0.  1.
</event>
<event>
 5   0  0.2466076E-06  0.3194095E+04  0.7818609E-02  0.8190379E-01
        2   -1    0    0  501    0  0.00000000000E+00  0.00000000000E+00  0.14817999451E+04  0.14817999451E+04  0.25500000920E-02 0. -1.
       -2   -1    0    0    0  501  0.00000000000E+00  0.00000000000E+00 -0.17212580069E+04  0.17212580069E+04  0.25500000920E-02 0.  1.
    10030    2    1    2    0    0  0.00000000000E+00  0.00000000000E+00 -0.23945806176E+03  0.32030579520E+04  0.31940945635E+04 0.  0.
        3    1    3    3  502    0 -0.64771699416E+03  0.14597452750E+04 -0.13266630106E+03  0.16024961560E+04  0.10100000352E+00 0. -1.
       -3    1    3    3    0  502  0.64771699416E+03 -0.14597452750E+04 -0.10679176070E+03  0.16005617960E+04  0.10100000352E+00 0.  1.
</event>
<event>
 5   0  0.2401139E-06  0.3207942E+04  0.7818609E-02  0.8186723E-01
       -2   -1    0    0    0  501  0.00000000000E+00  0.00000000000E+00  0.13137305440E+04  0.13137305440E+04  0.25500000920E-02 0. -1.
        2   -1    0    0  501    0  0.00000000000E+00  0.00000000000E+00 -0.19583333748E+04  0.19583333748E+04  0.25500000920E-02 0.  1.
    10030    2    1    2    0    0  0.00000000000E+00  0.00000000000E+00 -0.64460283086E+03  0.32720639188E+04  0.32079416265E+04 0.  0.
        5    1    3    3  502    0 -0.61353531996E+03  0.64752161270E+03  0.10373822151E+04  0.13681716917E+04  0.46999998093E+01 0. -1.
       -5    1    3    3    0  502  0.61353531996E+03 -0.64752161270E+03 -0.16819850459E+04  0.19038922271E+04  0.46999998093E+01 0.  1.
</event>
<event>
 5   0  0.2401139E-06  0.3179480E+04  0.7818609E-02  0.8194258E-01
        2   -1    0    0  501    0  0.00000000000E+00  0.00000000000E+00  0.13111927027E+04  0.13111927027E+04  0.25500000920E-02 0. -1.
       -2   -1    0    0    0  501  0.00000000000E+00  0.00000000000E+00 -0.19274612156E+04  0.19274612156E+04  0.25500000920E-02 0.  1.
    10030    2    1    2    0    0  0.00000000000E+00  0.00000000000E+00 -0.61626851289E+03  0.32386539183E+04  0.31794798824E+04 0.  0.
        5    1    3    3  502    0  0.16087261424E+03 -0.12290254768E+04 -0.13220835197E+04  0.18122666867E+04  0.46999998093E+01 0.  1.
       -5    1    3    3    0  502 -0.16087261424E+03  0.12290254768E+04  0.70581500680E+03  0.14263872316E+04  0.46999998093E+01 0. -1.
</event>
<event>
 5   0  0.2401139E-06  0.3223949E+04  0.7818609E-02  0.8182521E-01
       -2   -1    0    0    0  501  0.00000000000E+00  0.00000000000E+00  0.15719689743E+04  0.15719689743E+04  0.25500000920E-02 0.  1.
        2   -1    0    0  501    0  0.00000000000E+00  0.00000000000E+00 -0.16529979267E+04  0.16529979267E+04  0.25500000920E-02 0. -1.
    10030    2    1    2    0    0  0.00000000000E+00  0.00000000000E+00 -0.81028952471E+02  0.32249669010E+04  0.32239487932E+04 0.  0.
        5    1    3    3  502    0 -0.75989695409E+03  0.60343620694E+03 -0.13281119877E+04  0.16448350004E+04  0.46999998093E+01 0. -1.
       -5    1    3    3    0  502  0.75989695409E+03 -0.60343620694E+03  0.12470830352E+04  0.15801319006E+04  0.46999998093E+01 0.  1.
</event>
<event>
 5   0  0.8512855E-07  0.2973005E+04  0.7818609E-02  0.8251482E-01
       -1   -1    0    0    0  501  0.00000000000E+00  0.00000000000E+00  0.15012408503E+04  0.15012408503E+04  0.50400001928E-02 0.  1.
        1   -1    0    0  501    0  0.00000000000E+00  0.00000000000E+00 -0.14719083611E+04  0.14719083611E+04  0.50400001928E-02 0. -1.
    10030    2    1    2    0    0  0.00000000000E+00  0.00000000000E+00  0.29332489158E+02  0.29731492114E+04  0.29730045136E+04 0.  0.
        5    1    3    3  502    0 -0.13748929095E+04  0.45307119601E+03 -0.32308211085E+03  0.14832424487E+04  0.46999998093E+01 0. -1.
       -5    1    3    3    0  502  0.13748929095E+04 -0.45307119601E+03  0.35241460001E+03  0.14899067627E+04  0.46999998093E+01 0.  1.
</event>
<event>
 5   0  0.2337504E-06  0.3178705E+04  0.7818609E-02  0.8194464E-01
        2   -1    0    0  501    0  0.00000000000E+00  0.00000000000E+00  0.26470907500E+04  0.26470907500E+04  0.25500000920E-02 0.  1.
       -2   -1    0    0    0  501  0.00000000000E+00  0.00000000000E+00 -0.95427085703E+03  0.95427085703E+03  0.25500000920E-02 0. -1.
    10030    2    1    2    0    0  0.00000000000E+00  0.00000000000E+00  0.16928198930E+04  0.36013616070E+04  0.31787051192E+04 0.  0.
        1    1    3    3  502    0 -0.15472122149E+04 -0.30451076654E+02  0.43595649118E+03  0.16077471717E+04  0.50400001928E-02 0. -1.
       -1    1    3    3    0  502  0.15472122149E+04  0.30451076654E+02  0.12568634018E+04  0.19936144353E+04  0.50400001928E-02 0.  1.
</event>
<event>
 5   0  0.8487944E-07  0.3204252E+04  0.7818609E-02  0.8187695E-01
       -1   -1    0    0    0  501  0.00000000000E+00  0.00000000000E+00  0.13734663059E+04  0.13734663059E+04  0.50400001928E-02 0.  1.
        1   -1    0    0  501    0  0.00000000000E+00  0.00000000000E+00 -0.18688537373E+04  0.18688537374E+04  0.50400001928E-02 0. -1.
    10030    2    1    2    0    0  0.00000000000E+00  0.00000000000E+00 -0.49538743142E+03  0.32423200433E+04  0.32042519495E+04 0.  0.
        2    1    3    3  502    0  0.57890741189E+01  0.15361905267E+04 -0.70795230616E+03  0.16914819880E+04  0.25500000920E-02 0. -1.
       -2    1    3    3    0  502 -0.57890741189E+01 -0.15361905267E+04  0.21256487474E+03  0.15508380553E+04  0.25500000920E-02 0.  1.
</event>
<event>
 5   0  0.8383008E-07  0.3172450E+04  0.7818609E-02  0.8196131E-01
        1   -1    0    0  501    0  0.00000000000E+00  0.00000000000E+00  0.21809416582E+04  0.21809416583E+04  0.50400001928E-02 0.  1.
       -1   -1    0    0    0  501  0.00000000000E+00  0.00000000000E+00 -0.11536803751E+04  0.11536803751E+04  0.50400001928E-02 0. -1.
    10030    2    1    2    0    0  0.00000000000E+00  0.00000000000E+00  0.10272612832E+04  0.33346220334E+04  0.31724498990E+04 0.  0.
        4    1    3    3  502    0 -0.14298172629E+04  0.38702315075E+03  0.11100363299E+04  0.18510393273E+04  0.12699999809E+01 0.  1.
       -4    1    3    3    0  502  0.14298172629E+04 -0.38702315075E+03 -0.82775046745E+02  0.14835827061E+04  0.12699999809E+01 0. -1.
</event>
<event>
 5   0  0.8545153E-07  0.3203733E+04  0.7818609E-02  0.8187832E-01
        1   -1    0    0  501    0  0.00000000000E+00  0.00000000000E+00  0.16367751389E+04  0.16367751389E+04  0.50400001928E-02 0. -1.
       -1   -1    0    0    0  501  0.00000000000E+00  0.00000000000E+00 -0.15677028329E+04  0.15677028329E+04  0.50400001928E-02 0.  1.
    10030    2    1    2    0    0  0.00000000000E+00  0.00000000000E+00  0.69072305955E+02  0.32044779718E+04  0.32037334609E+04 0.  0.
        3    1    3    3  502    0  0.12673270146E+04  0.17881601713E+03 -0.92895509834E+03  0.15814709971E+04  0.10100000352E+00 0.  1.
       -3    1    3    3    0  502 -0.12673270146E+04 -0.17881601713E+03  0.99802740430E+03  0.16230069746E+04  0.10100000352E+00 0. -1.
</event>
<event>
 5   0  0.2337504E-06  0.3203049E+04  0.7818609E-02  0.8188012E-01
        2   -1    0    0  501    0  0.00000000000E+00  0.00000000000E+00  0.17102346438E+04  0.17102346438E+04  0.25500000920E-02 0.  1.
       -2   -1    0    0    0  501  0.00000000000E+00  0.00000000000E+00 -0.14997244133E+04  0.14997244133E+04  0.25500000920E-02 0. -1.
    10030    2    1    2    0    0  0.00000000000E+00  0.00000000000E+00  0.21051023042E+03  0.32099590571E+04  0.32030489523E+04 0.  0.
        1    1    3    3  502    0 -0.90835380034E+03  0.43319171423E+02 -0.12158823012E+04  0.15183388777E+04  0.50400001928E-02 0. -1.
       -1    1    3    3    0  502  0.90835380034E+03 -0.43319171423E+02  0.14263925316E+04  0.16916201794E+04  0.50400001928E-02 0.  1.
</event>
<event>
 5   0  0.8383008E-07  0.3202200E+04  0.7818609E-02  0.8188236E-01
       -1   -1    0    0    0  501  0.00000000000E+00  0.00000000000E+00  0.16995288659E+04  0.16995288659E+04  0.50400001928E-02 0. -1.
        1   -1    0    0  501    0  0.00000000000E+00  0.00000000000E+00 -0.15083720586E+04  0.15083720586E+04  0.50400001928E-02 0.  1.
    10030    2    1    2    0    0  0.00000000000E+00  0.00000000000E+00  0.19115680731E+03  0.32079009246E+04  0.32022004024E+04 0.  0.
        4    1    3    3  502    0  0.63871921601E+03 -0.14613746661E+04  0.23704626007E+03  0.16123804433E+04  0.12699999809E+01 0. -1.
       -4    1    3    3    0  502 -0.63871921601E+03  0.14613746661E+04 -0.45889452764E+02  0.15955204813E+04  0.12699999809E+01 0.  1.
</event>
<event>
 5   0  0.8383008E-07  0.3212213E+04  0.7818609E-02  0.8185599E-01
       -1   -1    0    0    0  501  0.00000000000E+00  0.00000000000E+00  0.14401611081E+04  0.14401611081E+04  0.50400001928E-02 0. -1.
        1   -1    0    0  501    0  0.00000000000E+00  0.00000000000E+00 -0.17911727942E+04  0.17911727942E+04  0.50400001928E-02 0.  1.
    10030    2    1    2    0    0  0.00000000000E+00  0.00000000000E+00 -0.35101168610E+03  0.32313339023E+04  0.32122125684E+04 0.  0.
        4    1    3    3  502    0 -0.51764613602E+03  0.14947244232E+04  0.10438982552E+03  0.15852625877E+04  0.12699999809E+01 0. -1.
       -4    1    3    3    0  502  0.51764613602E+03 -0.14947244232E+04 -0.45540151161E+03  0.16460713147E+04  0.12699999809E+01 0.  1.
</event>
<event>
 5   0  0.8512855E-07  0.3212920E+04  0.7818609E-02  0.8185413E-01
       -1   -1    0    0    0  501  0.00000000000E+00  0.00000000000E+00  0.12340063170E+04  0.12340063170E+04  0.50400001928E-02 0.  1.
        1   -1    0    0  501    0  0.00000000000E+00  0.00000000000E+00 -0.20913295458E+04  0.20913295458E+04  0.50400001928E-02 0. -1.
    10030    2    1    2    0    0  0.00000000000E+00  0.00000000000E+00 -0.85732322882E+03  0.33253358628E+04  0.32129200865E+04 0.  0.
        5    1    3    3  502    0  0.15064620694E+03  0.42467817180E+03 -0.20245745143E+04  0.20741190620E+04  0.46999998093E+01 0. -1.
       -5    1    3    3    0  502 -0.15064620694E+03 -0.42467817180E+03  0.11672512855E+04  0.12512168009E+04  0.46999998093E+01 0.  1.
</event>
<event>
 5   0  0.2621528E-06  0.3219569E+04  0.7818609E-02  0.8183668E-01
       -2   -1    0    0    0  501  0.00000000000E+00  0.00000000000E+00  0.99757739371E+03  0.99757739371E+03  0.25500000920E-02 0.  1.
        2   -1    0    0  501    0  0.00000000000E+00  0.00000000000E+00 -0.25976986783E+04  0.25976986783E+04  0.25500000920E-02 0. -1.
    10030    2    1    2    0    0  0.00000000000E+00  0.00000000000E+00 -0.16001212846E+04  0.35952760720E+04  0.32195685904E+04 0.  0.
        2    1    3    3  502    0 -0.15916328220E+03  0.13729072298E+04 -0.17217218935E+04  0.22078345705E+04  0.25500000920E-02 0. -1.
       -2    1    3    3    0  502  0.15916328220E+03 -0.13729072298E+04  0.12160060892E+03  0.13874415015E+04  0.25500000920E-02 0.  1.
</event>
<event>
 5   0  0.2404430E-06  0.3223738E+04  0.7818609E-02  0.8182576E-01
       -2   -1    0    0    0  501  0.00000000000E+00  0.00000000000E+00  0.98963615681E+03  0.98963615682E+03  0.25500000920E-02 0. -1.
        2   -1    0    0  501    0  0.00000000000E+00  0.00000000000E+00 -0.26253303612E+04  0.26253303612E+04  0.25500000920E-02 0.  1.
    10030    2    1    2    0    0  0.00000000000E+00  0.00000000000E+00 -0.16356942044E+04  0.36149665180E+04  0.32237381091E+04 0.  0.
        4    1    3    3  502    0  0.10969010213E+04  0.11685870545E+04 -0.62579440475E+03  0.17205835650E+04  0.12699999809E+01 0. -1.
       -4    1    3    3    0  502 -0.10969010213E+04 -0.11685870545E+04 -0.10098997996E+04  0.18943829530E+04  0.12699999809E+01 0.  1.
</event>
<event>
 5   0  0.2401139E-06  0.3283221E+04  0.7818609E-02  0.8167178E-01
        2   -1    0    0  501    0  0.00000000000E+00  0.00000000000E+00  0.14255962260E+04  0.14255962260E+04  0.25500000920E-02 0.  1.
       -2   -1    0    0    0  501  0.00000000000E+00  0.00000000000E+00 -0.18903563117E+04  0.18903563117E+04  0.25500000920E-02 0. -1.
    10030    2    1    2    0    0  0.00000000000E+00  0.00000000000E+00 -0.46476008573E+03  0.33159525376E+04  0.32832208720E+04 0.  0.
        5    1    3    3  502    0 -0.13244433103E+04 -0.27462449599E+03  0.70710541325E+03  0.15262990701E+04  0.46999998093E+01 0.  1.
       -5    1    3    3    0  502  0.13244433103E+04  0.27462449599E+03 -0.11718654990E+04  0.17896534675E+04  0.46999998093E+01 0. -1.
</event>
<event>
 5   0  0.2466076E-06  0.3207860E+04  0.7818609E-02  0.8186745E-01
        2   -1    0    0  501    0  0.00000000000E+00  0.00000000000E+00  0.17557054901E+04  0.17557054901E+04  0.25500000920E-02 0.  1.
       -2   -1    0    0    0  501  0.00000000000E+00  0.00000000000E+00 -0.14652747170E+04  0.14652747170E+04  0.25500000920E-02 0. -1.
    10030    2    1    2    0    0  0.00000000000E+00  0.00000000000E+00  0.29043077316E+03  0.32209802071E+04  0.32078596385E+04 0.  0.
        3    1    3    3  502    0 -0.84233044260E+03 -0.20959443607E+03  0.14994871221E+04  0.17326026786E+04  0.10100000352E+00 0.  1.
       -3    1    3    3    0  502  0.84233044260E+03  0.20959443607E+03 -0.12090563490E+04  0.14883775285E+04  0.10100000352E+00 0. -1.
</event>
<event>
 5   0  0.2401139E-06  0.3177702E+04  0.7818609E-02  0.8194731E-01
        2   -1    0    0  501    0  0.00000000000E+00  0.00000000000E+00  0.19983737610E+04  0.19983737610E+04  0.25500000920E-02 0. -1.
       -2   -1    0    0    0  501  0.00000000000E+00  0.00000000000E+00 -0.12632505564E+04  0.12632505564E+04  0.25500000920E-02 0.  1.
    10030    2    1    2    0    0  0.00000000000E+00  0.00000000000E+00  0.73512320460E+03  0.32616243174E+04  0.31777015376E+04 0.  0.
        5    1    3    3  502    0  0.11163674630E+04  0.10799173746E+04  0.71095182748E+03  0.17082073760E+04  0.46999998093E+01 0.  1.
       -5    1    3    3    0  502 -0.11163674630E+04 -0.10799173746E+04  0.24171377126E+02  0.15534169414E+04  0.46999998093E+01 0. -1.
</event>
<event>
 5   0  0.2621528E-06  0.2897456E+04  0.7818609E-02  0.8273635E-01
        2   -1    0    0  501    0  0.00000000000E+00  0.00000000000E+00  0.19242228287E+04  0.19242228287E+04  0.25500000920E-02 0.  1.
       -2   -1    0    0    0  501  0.00000000000E+00  0.00000000000E+00 -0.10907327937E+04  0.10907327937E+04  0.25500000920E-02 0. -1.
    10030    2    1    2    0    0  0.00000000000E+00  0.00000000000E+00  0.83349003495E+03  0.30149556224E+04  0.28974560853E+04 0.  0.
        2    1    3    3  502    0  0.38755141895E+03  0.55565029822E+03 -0.91575958336E+03  0.11391044600E+04  0.25500000920E-02 0. -1.
       -2    1    3    3    0  502 -0.38755141895E+03 -0.55565029822E+03  0.17492496183E+04  0.18758511624E+04  0.25500000920E-02 0.  1.
</event>
<event>
 5   0  0.8681172E-07  0.3163357E+04  0.7818609E-02  0.8198562E-01
       -1   -1    0    0    0  501  0.00000000000E+00  0.00000000000E+00  0.13731087360E+04  0.13731087360E+04  0.50400001928E-02 0.  1.
        1   -1    0    0  501    0  0.00000000000E+00  0.00000000000E+00 -0.18219293555E+04  0.18219293555E+04  0.50400001928E-02 0. -1.
    10030    2    1    2    0    0  0.00000000000E+00  0.00000000000E+00 -0.44882061942E+03  0.31950380915E+04  0.31633571499E+04 0.  0.
        1    1    3    3  502    0 -0.12409129374E+04 -0.69241605119E+03 -0.92591803230E+03  0.16960628257E+04  0.50400001928E-02 0. -1.
       -1    1    3    3    0  502  0.12409129374E+04  0.69241605119E+03  0.47709741288E+03  0.14989752658E+04  0.50400001928E-02 0.  1.
</event>
<event>
 5   0  0.8383008E-07  0.3194399E+04  0.7818609E-02  0.8190298E-01
       -1   -1    0    0    0  501  0.00000000000E+00  0.00000000000E+00  0.10943845268E+04  0.10943845268E+04  0.50400001928E-02 0.  1.
        1   -1    0    0  501    0  0.00000000000E+00  0.00000000000E+00 -0.23310324682E+04  0.23310324682E+04  0.50400001928E-02 0. -1.
    10030    2    1    2    0    0  0.00000000000E+00  0.00000000000E+00 -0.12366479414E+04  0.34254169950E+04  0.31943987633E+04 0.  0.
        4    1    3    3  502    0  0.11404053411E+04  0.68813906889E+02  0.57854274709E+03  0.12806143131E+04  0.12699999809E+01 0.  1.
       -4    1    3    3    0  502 -0.11404053411E+04 -0.68813906889E+02 -0.18151906885E+04  0.21448026819E+04  0.12699999809E+01 0. -1.
</event>
<event>
 5   0  0.2404430E-06  0.3219551E+04  0.7818609E-02  0.8183673E-01
       -2   -1    0    0    0  501  0.00000000000E+00  0.00000000000E+00  0.16335856713E+04  0.16335856713E+04  0.25500000920E-02 0. -1.
        2   -1    0    0  501    0  0.00000000000E+00  0.00000000000E+00 -0.15863121274E+04  0.15863121274E+04  0.25500000920E-02 0.  1.
    10030    2    1    2    0    0  0.00000000000E+00  0.00000000000E+00  0.47273543864E+02  0.32198977987E+04  0.32195507522E+04 0.  0.
        4    1    3    3  502    0 -0.13018419528E+04 -0.67294689419E+03 -0.64256201413E+03  0.16001679748E+04  0.12699999809E+01 0. -1.
       -4    1    3    3    0  502  0.13018419528E+04  0.67294689419E+03  0.68983555799E+03  0.16197298239E+04  0.12699999809E+01 0.  1.
</event>
<event>
 5   0  0.2404430E-06  0.3188082E+04  0.7818609E-02  0.8191972E-01
       -2   -1    0    0    0  501  0.00000000000E+00  0.00000000000E+00  0.85985266911E+03  0.85985266911E+03  0.25500000920E-02 0. -1.
        2   -1    0    0  501    0  0.00000000000E+00  0.00000000000E+00 -0.29551191667E+04  0.29551191667E+04  0.25500000920E-02 0.  1.
    10030    2    1    2    0    0  0.00000000000E+00  0.00000000000E+00 -0.20952664976E+04  0.38149718358E+04  0.31880822468E+04 0.  0.
        4    1    3    3  502    0 -0.13155208352E+04  0.88343767665E+03 -0.84068696187E+03  0.17938264624E+04  0.12699999809E+01 0.  1.
       -4    1    3    3    0  502  0.13155208352E+04 -0.88343767665E+03 -0.12545795357E+04  0.20211453735E+04  0.12699999809E+01 0. -1.
</event>
<event>
 5   0  0.8487944E-07  0.3209072E+04  0.7818609E-02  0.8186425E-01
        1   -1    0    0  501    0  0.00000000000E+00  0.00000000000E+00  0.90445808396E+03  0.90445808398E+03  0.50400001928E-02 0. -1.
       -1   -1    0    0    0  501  0.00000000000E+00  0.00000000000E+00 -0.28464949353E+04  0.28464949353E+04  0.50400001928E-02 0.  1.
    10030    2    1    2    0    0  0.00000000000E+00  0.00000000000E+00 -0.19420368514E+04  0.37509530193E+04  0.32090717382E+04 0.  0.
        2    1    3    3  502    0  0.10969641227E+04 -0.75996141889E+03  0.70292584647E+02  0.13363430293E+04  0.25500000920E-02 0. -1.
       -2    1    3    3    0  502 -0.10969641227E+04  0.75996141889E+03 -0.20123294360E+04  0.24146099900E+04  0.25500000920E-02 0.  1.
</event>
<event>
 5   0  0.8487944E-07  0.3192383E+04  0.7818609E-02  0.8190832E-01
       -1   -1    0    0    0  501  0.00000000000E+00  0.00000000000E+00  0.12235743448E+04  0.12235743448E+04  0.50400001928E-02 0.  1.
        1   -1    0    0  501    0  0.00000000000E+00  0.00000000000E+00 -0.20822826285E+04  0.20822826285E+04  0.50400001928E-02 0. -1.
    10030    2    1    2    0    0  0.00000000000E+00  0.00000000000E+00 -0.85870828367E+03  0.33058569734E+04  0.31923831869E+04 0.  0.
        2    1    3    3  502    0  0.14139481152E+03 -0.15897648462E+04 -0.40659937081E+03  0.16470178528E+04  0.25500000920E-02 0.  1.
       -2    1    3    3    0  502 -0.14139481152E+03  0.15897648462E+04 -0.45210891286E+03  0.16588391206E+04  0.25500000920E-02 0. -1.
</event>
<event>
 5   0  0.2621528E-06  0.3192376E+04  0.7818609E-02  0.8190834E-01
        2   -1    0    0  501    0  0.00000000000E+00  0.00000000000E+00  0.11279180483E+04  0.11279180483E+04  0.25500000920E-02 0.  1.
       -2   -1    0    0    0  501  0.00000000000E+00  0.00000000000E+00 -0.22588663002E+04  0.22588663002E+04  0.25500000920E-02 0. -1.
    10030    2    1    2    0    0  0.00000000000E+00  0.00000000000E+00 -0.11309482519E+04  0.33867843486E+04  0.31923759608E+04 0.  0.
        2    1    3    3  502    0  0.21489629381E+03  0.15697472941E+04 -0.77099573723E+03  0.17620219668E+04  0.25500000920E-02 0.  1.
       -2    1    3    3    0  502 -0.21489629381E+03 -0.15697472941E+04 -0.35995251463E+03  0.16247623818E+04  0.25500000920E-02 0. -1.
</event>
<event>
 5   0  0.2466076E-06  0.3203913E+04  0.7818609E-02  0.8187784E-01
        2   -1    0    0  501    0  0.00000000000E+00  0.00000000000E+00  0.20751697418E+04  0.20751697418E+04  0.25500000920E-02 0. -1.
       -2   -1    0    0    0  501  0.00000000000E+00  0.00000000000E+00 -0.12366529998E+04  0.12366529998E+04  0.25500000920E-02 0.  1.
    10030    2    1    2    0    0  0.00000000000E+00  0.00000000000E+00  0.83851674195E+03  0.33118227416E+04  0.32039131614E+04 0.  0.
        3    1    3    3  502    0  0.58016836293E+03  0.35212689960E+02 -0.11238122693E+04  0.12652230198E+04  0.10100000352E+00 0.  1.
       -3    1    3    3    0  502 -0.58016836293E+03 -0.35212689960E+02  0.19623290113E+04  0.20465997219E+04  0.10100000352E+00 0. -1.
</event>
<event>
 5   0  0.2621528E-06  0.3173745E+04  0.7818609E-02  0.8195786E-01
       -2   -1    0    0    0  501  0.00000000000E+00  0.00000000000E+00  0.21119963108E+04  0.21119963108E+04  0.25500000920E-02 0.  1.
        2   -1    0    0  501    0  0.00000000000E+00  0.00000000000E+00 -0.11923145437E+04  0.11923145437E+04  0.25500000920E-02 0. -1.
    10030    2    1    2    0    0  0.00000000000E+00  0.00000000000E+00  0.91968176709E+03  0.33043108545E+04  0.31737447393E+04 0.  0.
        2    1    3    3  502    0  0.71684716781E+03 -0.13437252707E+04  0.92393275247E+03  0.17813251237E+04  0.25500000920E-02 0. -1.
       -2    1    3    3    0  502 -0.71684716781E+03  0.13437252707E+04 -0.42509853816E+01  0.15229857308E+04  0.25500000920E-02 0.  1.
</event>
<event>
 5   0  0.2337504E-06  0.3050095E+04  0.7818609E-02  0.8229569E-01
       -2   -1    0    0    0  501  0.00000000000E+00  0.00000000000E+00  0.10875110205E+04  0.10875110205E+04  0.25500000920E-02 0.  1.
        2   -1    0    0  501    0  0.00000000000E+00  0.00000000000E+00 -0.21386168489E+04  0.21386168489E+04  0.25500000920E-02 0. -1.
    10030    2    1    2    0    0  0.00000000000E+00  0.00000000000E+00 -0.10511058284E+04  0.32261278693E+04  0.30500946816E+04 0.  0.
        1    1    3    3  502    0 -0.28808819429E+03 -0.14950889201E+04 -0.61705407131E+03  0.16428759581E+04  0.50400001928E-02 0. -1.
       -1    1    3    3    0  502  0.28808819429E+03  0.14950889201E+04 -0.43405175708E+03  0.15832519113E+04  0.50400001928E-02 0.  1.
</event>
<event>
 5   0  0.8512855E-07  0.3193030E+04  0.7818609E-02  0.8190660E-01
        1   -1    0    0  501    0  0.00000000000E+00  0.00000000000E+00  0.13234205131E+04  0.13234205131E+04  0.50400001928E-02 0. -1.
       -1   -1    0    0    0  501  0.00000000000E+00  0.00000000000E+00 -0.19259640969E+04  0.19259640970E+04  0.50400001928E-02 0.  1.
    10030    2    1    2    0    0  0.00000000000E+00  0.00000000000E+00 -0.60254358389E+03  0.32493846100E+04  0.31930301554E+04 0.  0.
        5    1    3    3  502    0 -0.98118450372E+03 -0.50931055593E+02 -0.15818616379E+04  0.18621560983E+04  0.46999998093E+01 0.  1.
       -5    1    3    3    0  502  0.98118450372E+03  0.50931055593E+02  0.97931805406E+03  0.13872285117E+04  0.46999998093E+01 0. -1.
</event>
<event>
 5   0  0.2401139E-06  0.3135515E+04  0.7818609E-02  0.8206058E-01
        2   -1    0    0  501    0  0.00000000000E+00  0.00000000000E+00  0.89413080544E+03  0.89413080544E+03  0.25500000920E-02 0. -1.
       -2   -1    0    0    0  501  0.00000000000E+00  0.00000000000E+00 -0.27488851836E+04  0.27488851836E+04  0.25500000920E-02 0.  1.
    10030    2    1    2    0    0  0.00000000000E+00  0.00000000000E+00 -0.18547543782E+04  0.36430159891E+04  0.31355145819E+04 0.  0.
        5    1    3    3  502    0  0.10970751041E+04  0.59311125948E+03 -0.20311317453E+04  0.23834582033E+04  0.46999998093E+01 0.  1.
       -5    1    3    3    0  502 -0.10970751041E+04 -0.59311125948E+03  0.17637736707E+03  0.12595577858E+04  0.46999998093E+01 0. -1.
</event>
<event>
 5   0  0.2404430E-06  0.3203884E+04  0.7818609E-02  0.8187792E-01
       -2   -1    0    0    0  501  0.00000000000E+00  0.00000000000E+00  0.13636252471E+04  0.13636252471E+04  0.25500000920E-02 0. -1.
        2   -1    0    0  501    0  0.00000000000E+00  0.00000000000E+00 -0.18819082406E+04  0.18819082406E+04  0.25500000920E-02 0.  1.
    10030    2    1    2    0    0  0.00000000000E+00  0.00000000000E+00 -0.51828299348E+03  0.32455334877E+04  0.32038836368E+04 0.  0.
        4    1    3    3  502    0  0.13212778829E+04 -0.90140073810E+03 -0.34927822952E+03  0.16371607829E+04  0.12699999809E+01 0.  1.
       -4    1    3    3    0  502 -0.13212778829E+04  0.90140073810E+03 -0.16900476395E+03  0.16083727048E+04  0.12699999809E+01 0. -1.
</event>
<event>
 5   0  0.2621528E-06  0.3132653E+04  0.7818609E-02  0.8206833E-01
        2   -1    0    0  501    0  0.00000000000E+00  0.00000000000E+00  0.14905696651E+04  0.14905696651E+04  0.25500000920E-02 0.  1.
       -2   -1    0    0    0  501  0.00000000000E+00  0.00000000000E+00 -0.16459341138E+04  0.16459341138E+04  0.25500000920E-02 0. -1.
    10030    2    1    2    0    0  0.00000000000E+00  0.00000000000E+00 -0.15536444870E+03  0.31365037790E+04  0.31326534828E+04 0.  0.
        2    1    3    3  502    0  0.55438867710E+03  0.93917381516E+03 -0.12033350125E+04  0.16240102871E+04  0.25500000920E-02 0. -1.
       -2    1    3    3    0  502 -0.55438867710E+03 -0.93917381516E+03  0.10479705638E+04  0.15124934919E+04  0.25500000920E-02 0.  1.
</event>
<event>
 5   0  0.8512855E-07  0.3208415E+04  0.7818609E-02  0.8186598E-01
        1   -1    0    0  501    0  0.00000000000E+00  0.00000000000E+00  0.25753487705E+04  0.25753487705E+04  0.50400001928E-02 0.  1.
       -1   -1    0    0    0  501  0.00000000000E+00  0.00000000000E+00 -0.99927502056E+03  0.99927502058E+03  0.50400001928E-02 0. -1.
    10030    2    1    2    0    0  0.00000000000E+00  0.00000000000E+00  0.15760737499E+04  0.35746237911E+04  0.32084149954E+04 0.  0.
        5    1    3    3  502    0  0.49230646001E+03 -0.41119463342E+03  0.24262445164E+04  0.25096077822E+04  0.46999998093E+01 0.  1.
       -5    1    3    3    0  502 -0.49230646001E+03  0.41119463342E+03 -0.85017076643E+03  0.10650160089E+04  0.46999998093E+01 0. -1.
</event>
<event>
 5   0  0.8512855E-07  0.3192803E+04  0.7818609E-02  0.8190721E-01
       -1   -1    0    0    0  501  0.00000000000E+00  0.00000000000E+00  0.22266925843E+04  0.22266925843E+04  0.50400001928E-02 0. -1.
        1   -1    0    0  501    0  0.00000000000E+00  0.00000000000E+00 -0.11445214881E+04  0.11445214881E+04  0.50400001928E-02 0.  1.
    10030    2    1    2    0    0  0.00000000000E+00  0.00000000000E+00  0.10821710962E+04  0.33712140723E+04  0.31928028502E+04 0.  0.
        5    1    3    3  502    0  0.59475927725E+03  0.61825442508E+03 -0.88043463790E+03  0.12292942584E+04  0.46999998093E+01 0.  1.
       -5    1    3    3    0  502 -0.59475927725E+03 -0.61825442508E+03  0.19626057341E+04  0.21419198140E+04  0.46999998093E+01 0. -1.
</event>
<event>
 5   0  0.2337504E-06  0.3215503E+04  0.7818609E-02  0.8184735E-01
        2   -1    0    0  501    0  0.00000000000E+00  0.00000000000E+00  0.19334172349E+04  0.19334172349E+04  0.25500000920E-02 0.  1.
       -2   -1    0    0    0  501  0.00000000000E+00  0.00000000000E+00 -0.13369409436E+04  0.13369409436E+04  0.25500000920E-02 0. -1.
    10030    2    1    2    0    0  0.00000000000E+00  0.00000000000E+00  0.59647629131E+03  0.32703581785E+04  0.32155028611E+04 0.  0.
        1    1    3    3  502    0  0.46105490826E+02 -0.14754461245E+04 -0.34965173944E+03  0.15170113123E+04  0.50400001928E-02 0. -1.
       -1    1    3    3    0  502 -0.46105490826E+02  0.14754461245E+04  0.94612803075E+03  0.17533468662E+04  0.50400001928E-02 0.  1.
</event>
<event>
 5   0  0.2401139E-06  0.2919848E+04  0.7818609E-02  0.8266996E-01
       -2   -1    0    0    0  501  0.00000000000E+00  0.00000000000E+00  0.93197516282E+03  0.93197516282E+03  0.25500000920E-02 0. -1.
        2   -1    0    0  501    0  0.00000000000E+00  0.00000000000E+00 -0.22869479654E+04  0.22869479654E+04  0.25500000920E-02 0.  1.
    10030    2    1    2    0    0  0.00000000000E+00  0.00000000000E+00 -0.13549728026E+04  0.32189231282E+04  0.29198484224E+04 0.  0.
        5    1    3    3  502    0 -0.10004761987E+04 -0.69651642625E+03  0.20807902150E+03  0.12366918473E+04  0.46999998093E+01 0. -1.
       -5    1    3    3    0  502  0.10004761987E+04  0.69651642625E+03 -0.15630518240E+04  0.19822312808E+04  0.46999998093E+01 0.  1.
</event>
<event>
 5   0  0.2401139E-06  0.3199197E+04  0.7818609E-02  0.8189029E-01
        2   -1    0    0  501    0  0.00000000000E+00  0.00000000000E+00  0.14958643315E+04  0.14958643315E+04  0.25500000920E-02 0.  1.
       -2   -1    0    0    0  501  0.00000000000E+00  0.00000000000E+00 -0.17105265620E+04  0.17105265620E+04  0.25500000920E-02 0. -1.
    10030    2    1    2    0    0  0.00000000000E+00  0.00000000000E+00 -0.21466223050E+03  0.32063908935E+04  0.31991971944E+04 0.  0.
        5    1    3    3  502    0  0.54650933842E+03 -0.13836518611E+04 -0.69646973025E+03  0.16426372408E+04  0.46999998093E+01 0.  1.
       -5    1    3    3    0  502 -0.54650933842E+03  0.13836518611E+04  0.48180749975E+03  0.15637536527E+04  0.46999998093E+01 0. -1.
</event>
<event>
 5   0  0.8383008E-07  0.3201418E+04  0.7818609E-02  0.8188443E-01
       -1   -1    0    0    0  501  0.00000000000E+00  0.00000000000E+00  0.14946511474E+04  0.14946511474E+04  0.50400001928E-02 0. -1.
        1   -1    0    0  501    0  0.00000000000E+00  0.00000000000E+00 -0.17142924735E+04  0.17142924735E+04  0.50400001928E-02 0.  1.
    10030    2    1    2    0    0  0.00000000000E+00  0.00000000000E+00 -0.21964132617E+03  0.32089436209E+04  0.32014179437E+04 0.  0.
        4    1    3    3  502    0  0.85911444995E+03  0.90756848709E+03 -0.11124266632E+04  0.16730967966E+04  0.12699999809E+01 0.  1.
       -4    1    3    3    0  502 -0.85911444995E+03 -0.90756848709E+03  0.89278533704E+03  0.15358468243E+04  0.12699999809E+01 0. -1.
</event>
<event>
 5   0  0.8383008E-07  0.3177894E+04  0.7818609E-02  0.8194680E-01
       -1   -1    0    0    0  501  0.00000000000E+00  0.00000000000E+00  0.14487724482E+04  0.14487724483E+04  0.50400001928E-02 0. -1.
        1   -1    0    0  501    0  0.00000000000E+00  0.00000000000E+00 -0.17426839516E+04  0.17426839516E+04  0.50400001928E-02 0.  1.
    10030    2    1    2    0    0  0.00000000000E+00  0.00000000000E+00 -0.29391150337E+03  0.31914563999E+04  0.31778939536E+04 0.  0.
        4    1    3    3  502    0 -0.11507128298E+04 -0.10932644448E+04 -0.73268777574E+02  0.15889421291E+04  0.12699999809E+01 0.  1.
       -4    1    3    3    0  502  0.11507128298E+04  0.10932644448E+04 -0.22064272579E+03  0.16025142708E+04  0.12699999809E+01 0. -1.
</event>
<event>
 5   0  0.8487944E-07  0.3187484E+04  0.7818609E-02  0.8192131E-01
        1   -1    0    0  501    0  0.00000000000E+00  0.00000000000E+00  0.19932060954E+04  0.19932060954E+04  0.50400001928E-02 0. -1.
       -1   -1    0    0    0  501  0.00000000000E+00  0.00000000000E+00 -0.12743354670E+04  0.12743354670E+04  0.50400001928E-02 0.  1.
    10030    2    1    2    0    0  0.00000000000E+00  0.00000000000E+00  0.71887062840E+03  0.32675415623E+04  0.31874837852E+04 0.  0.
        2    1    3    3  502    0  0.12783879926E+03 -0.12184439334E+03 -0.12642739519E+04  0.12765490356E+04  0.25500000920E-02 0.  1.
       -2    1    3    3    0  502 -0.12783879926E+03  0.12184439334E+03  0.19831445804E+04  0.19909925267E+04  0.25500000920E-02 0. -1.
</event>
<event>
 5   0  0.2337504E-06  0.3306809E+04  0.7818609E-02  0.8161165E-01
        2   -1    0    0  501    0  0.00000000000E+00  0.00000000000E+00  0.24026889729E+04  0.24026889729E+04  0.25500000920E-02 0. -1.
       -2   -1    0    0    0  501  0.00000000000E+00  0.00000000000E+00 -0.11377861169E+04  0.11377861169E+04  0.25500000920E-02 0.  1.
    10030    2    1    2    0    0  0.00000000000E+00  0.00000000000E+00  0.12649028560E+04  0.35404750897E+04  0.33068088281E+04 0.  0.
        1    1    3    3  502    0 -0.89059065362E+03  0.13672565132E+04  0.91814789384E+03  0.18723081050E+04  0.50400001928E-02 0. -1.
       -1    1    3    3    0  502  0.89059065362E+03 -0.13672565132E+04  0.34675496215E+03  0.16681669847E+04  0.50400001928E-02 0.  1.
</event>
<event>
 5   0  0.2401139E-06  0.3197452E+04  0.7818609E-02  0.8189490E-01
       -2   -1    0    0    0  501  0.00000000000E+00  0.00000000000E+00  0.13360362975E+04  0.13360362975E+04  0.25500000920E-02 0.  1.
        2   -1    0    0  501    0  0.00000000000E+00  0.00000000000E+00 -0.19130658232E+04  0.19130658232E+04  0.25500000920E-02 0. -1.
    10030    2    1    2    0    0  0.00000000000E+00  0.00000000000E+00 -0.57702952572E+03  0.32491021207E+04  0.31974523479E+04 0.  0.
        5    1    3    3  502    0 -0.18135218885E+03  0.10146217514E+04 -0.15303678923E+04  0.18450999676E+04  0.46999998093E+01 0. -1.
       -5    1    3    3    0  502  0.18135218885E+03 -0.10146217514E+04  0.95333836655E+03  0.14040021531E+04  0.46999998093E+01 0.  1.
</event>
<event>
 5   0  0.2466076E-06  0.3322459E+04  0.7818609E-02  0.8157204E-01
       -2   -1    0    0    0  501  0.00000000000E+00  0.00000000000E+00  0.19854013412E+04  0.19854013412E+04  0.25500000920E-02 0.  1.
        2   -1    0    0  501    0  0.00000000000E+00  0.00000000000E+00 -0.13899881211E+04  0.13899881211E+04  0.25500000920E-02 0. -1.
    10030    2    1    2    0    0  0.00000000000E+00  0.00000000000E+00  0.59541322003E+03  0.33753894623E+04  0.33224594986E+04 0.  0.
        3    1    3    3  502    0 -0.45300178832E+03  0.15821162139E+04  0.67419609575E+02  0.16470724782E+04  0.10100000352E+00 0.  1.
       -3    1    3    3    0  502  0.45300178832E+03 -0.15821162139E+04  0.52799361045E+03  0.17283169841E+04  0.10100000352E+00 0. -1.
</event>
<event>
 5   0  0.8383008E-07  0.3283432E+04  0.7818609E-02  0.8167124E-01
        1   -1    0    0  501    0  0.00000000000E+00  0.00000000000E+00  0.31930255505E+04  0.31930255505E+04  0.50400001928E-02 0.  1.
       -1   -1    0    0    0  501  0.00000000000E+00  0.00000000000E+00 -0.84409955400E+03  0.84409955402E+03  0.50400001928E-02 0. -1.
    10030    2    1    2    0    0  0.00000000000E+00  0.00000000000E+00  0.23489259965E+04  0.40371251046E+04  0.32834320113E+04 0.  0.
        4    1    3    3  502    0  0.52070145669E+02 -0.11916610802E+04 -0.21250569722E+03  0.12115806677E+04  0.12699999809E+01 0. -1.
       -4    1    3    3    0  502 -0.52070145669E+02  0.11916610802E+04  0.25614316937E+04  0.28255444369E+04  0.12699999809E+01 0.  1.
</event>
<event>
 5   0  0.2337504E-06  0.3217374E+04  0.7818609E-02  0.8184244E-01
       -2   -1    0    0    0  501  0.00000000000E+00  0.00000000000E+00  0.16604821576E+04  0.16604821576E+04  0.25500000920E-02 0. -1.
        2   -1    0    0  501    0  0.00000000000E+00  0.00000000000E+00 -0.15585074213E+04  0.15585074213E+04  0.25500000920E-02 0.  1.
    10030    2    1    2    0    0  0.00000000000E+00  0.00000000000E+00  0.10197473631E+03  0.32189895788E+04  0.32173739387E+04 0.  0.
        1    1    3    3  502    0  0.19886514937E+03 -0.19968846977E+03  0.16355916905E+04  0.16596936496E+04  0.50400001928E-02 0. -1.
       -1    1    3    3    0  502 -0.19886514937E+03  0.19968846977E+03 -0.15336169542E+04  0.15592959292E+04  0.50400001928E-02 0.  1.
</event>
<event>
 5   0  0.8383008E-07  0.3151042E+04  0.7818609E-02  0.8201868E-01
        1   -1    0    0  501    0  0.00000000000E+00  0.00000000000E+00  0.16700510912E+04  0.16700510912E+04  0.50400001928E-02 0. -1.
       -1   -1    0    0    0  501  0.00000000000E+00  0.00000000000E+00 -0.14863418215E+04  0.14863418215E+04  0.50400001928E-02 0.  1.
    10030    2    1    2    0    0  0.00000000000E+00  0.00000000000E+00  0.18370926972E+03  0.31563929128E+04  0.31510422282E+04 0.  0.
        4    1    3    3  502    0  0.19615744433E+03  0.56256408487E+03  0.15528610829E+04  0.16632303653E+04  0.12699999809E+01 0. -1.
       -4    1    3    3    0  502 -0.19615744433E+03 -0.56256408487E+03 -0.13691518132E+04  0.14931625474E+04  0.12699999809E+01 0.  1.
</event>
<event>
 5   0  0.2466076E-06  0.3191201E+04  0.7818609E-02  0.8191145E-01
        2   -1    0    0  501    0  0.00000000000E+00  0.00000000000E+00  0.19364295428E+04  0.19364295428E+04  0.25500000920E-02 0.  1.
       -2   -1    0    0    0  501  0.00000000000E+00  0.00000000000E+00 -0.13147605953E+04  0.13147605953E+04  0.25500000920E-02 0. -1.
    10030    2    1    2    0    0  0.00000000000E+00  0.00000000000E+00  0.62166894747E+03  0.32511901381E+04  0.31912011898E+04 0.  0.
        3    1    3    3  502    0 -0.69705581493E+03 -0.60122217496E+03  0.16386324326E+04  0.18794869438E+04  0.10100000352E+00 0.  1.
       -3    1    3    3    0  502  0.69705581493E+03  0.60122217496E+03 -0.10169634851E+04  0.13717031942E+04  0.10100000352E+00 0. -1.
</event>
<event>
 5   0  0.2404430E-06  0.3183295E+04  0.7818609E-02  0.8193243E-01
        2   -1    0    0  501    0  0.00000000000E+00  0.00000000000E+00  0.30583781975E+04  0.30583781975E+04  0.25500000920E-02 0. -1.
       -2   -1    0    0    0  501  0.00000000000E+00  0.00000000000E+00 -0.82832870524E+03  0.82832870524E+03  0.25500000920E-02 0.  1.
    10030    2    1    2    0    0  0.00000000000E+00  0.00000000000E+00  0.22300494922E+04  0.38867069027E+04  0.31832954324E+04 0.  0.
        4    1    3    3  502    0  0.33598977434E+03  0.13694985185E+04  0.20163331464E+04  0.24604910670E+04  0.12699999809E+01 0. -1.
       -4    1    3    3    0  502 -0.33598977434E+03 -0.13694985185E+04  0.21371634580E+03  0.14262158357E+04  0.12699999809E+01 0.  1.
</event>
<event>
 5   0  0.8681172E-07  0.3222430E+04  0.7818609E-02  0.8182918E-01
       -1   -1    0    0    0  501  0.00000000000E+00  0.00000000000E+00  0.11923085432E+04  0.11923085432E+04  0.50400001928E-02 0. -1.
        1   -1    0    0  501    0  0.00000000000E+00  0.00000000000E+00 -0.21773005313E+04  0.21773005313E+04  0.50400001928E-02 0.  1.
    10030    2    1    2    0    0  0.00000000000E+00  0.00000000000E+00 -0.98499198812E+03  0.33696090745E+04  0.32224301542E+04 0.  0.
        1    1    3    3  502    0 -0.76491029985E+03  0.69230025966E+03  0.80162622273E+03  0.13065113920E+04  0.50400001928E-02 0. -1.
       -1    1    3    3    0  502  0.76491029985E+03 -0.69230025966E+03 -0.17866182109E+04  0.20630976825E+04  0.50400001928E-02 0.  1.
</event>
<event>
 5   0  0.2337504E-06  0.3258271E+04  0.7818609E-02  0.8173595E-01
       -2   -1    0    0    0  501  0.00000000000E+00  0.00000000000E+00  0.10299464493E+04  0.10299464493E+04  0.25500000920E-02 0. -1.
        2   -1    0    0  501    0  0.00000000000E+00  0.00000000000E+00 -0.25769132467E+04  0.25769132467E+04  0.25500000920E-02 0.  1.
    10030    2    1    2    0    0  0.00000000000E+00  0.00000000000E+00 -0.15469667974E+04  0.36068596959E+04  0.32582711050E+04 0.  0.
        1    1    3    3  502    0 -0.51082239282E+03  0.14311707941E+04 -0.14235897428E+04  0.20822576965E+04  0.50400001928E-02 0. -1.
       -1    1    3    3    0  502  0.51082239282E+03 -0.14311707941E+04 -0.12337705463E+03  0.15246019994E+04  0.50400001928E-02 0.  1.
</event>
<event>
 5   0  0.8512855E-07  0.3256990E+04  0.7818609E-02  0.8173926E-01
       -1   -1    0    0    0  501  0.00000000000E+00  0.00000000000E+00  0.16649041464E+04  0.16649041464E+04  0.50400001928E-02 0. -1.
        1   -1    0    0  501    0  0.00000000000E+00  0.00000000000E+00 -0.15928822625E+04  0.15928822625E+04  0.50400001928E-02 0.  1.
    10030    2    1    2    0    0  0.00000000000E+00  0.00000000000E+00  0.72021883831E+02  0.32577864089E+04  0.32569901956E+04 0.  0.
        5    1    3    3  502    0 -0.83434084628E+03  0.73835179638E+03  0.12240243997E+04  0.16551573472E+04  0.46999998093E+01 0. -1.
       -5    1    3    3    0  502  0.83434084628E+03 -0.73835179638E+03 -0.11520025158E+04  0.16026290617E+04  0.46999998093E+01 0.  1.
</event>
<event>
 5   0  0.8512855E-07  0.3172415E+04  0.7818609E-02  0.8196141E-01
        1   -1    0    0  501    0  0.00000000000E+00  0.00000000000E+00  0.15587078735E+04  0.15587078735E+04  0.50400001928E-02 0.  1.
       -1   -1    0    0    0  501  0.00000000000E+00  0.00000000000E+00 -0.16141918423E+04  0.16141918423E+04  0.50400001928E-02 0. -1.
    10030    2    1    2    0    0  0.00000000000E+00  0.00000000000E+00 -0.55483968797E+02  0.31728997158E+04  0.31724145593E+04 0.  0.
        5    1    3    3  502    0  0.53517356807E+03  0.97085185147E+02  0.14625178193E+04  0.15603899330E+04  0.46999998093E+01 0.  1.
       -5    1    3    3    0  502 -0.53517356807E+03 -0.97085185147E+02 -0.15180017881E+04  0.16125097828E+04  0.46999998093E+01 0. -1.
</event>
<event>
 5   0  0.8681172E-07  0.3208938E+04  0.7818609E-02  0.8186461E-01
        1   -1    0    0  501    0  0.00000000000E+00  0.00000000000E+00  0.26960299478E+04  0.26960299478E+04  0.50400001928E-02 0. -1.
       -1   -1    0    0    0  501  0.00000000000E+00  0.00000000000E+00 -0.95485611471E+03  0.95485611473E+03  0.50400001928E-02 0.  1.
    10030    2    1    2    0    0  0.00000000000E+00  0.00000000000E+00  0.17411738330E+04  0.36508860625E+04  0.32089379434E+04 0.  0.
        1    1    3    3  502    0  0.95260698473E+03  0.13701750261E+03  0.23311724808E+04  0.25220227990E+04  0.50400001928E-02 0. -1.
       -1    1    3    3    0  502 -0.95260698473E+03 -0.13701750261E+03 -0.58999864772E+03  0.11288632635E+04  0.50400001928E-02 0.  1.
</event>
<event>
 5   0  0.8545153E-07  0.3179082E+04  0.7818609E-02  0.8194364E-01
       -1   -1    0    0    0  501  0.00000000000E+00  0.00000000000E+00  0.17882032490E+04  0.17882032490E+04  0.50400001928E-02 0. -1.
        1   -1    0    0  501    0  0.00000000000E+00  0.00000000000E+00 -0.14129491736E+04  0.14129491736E+04  0.50400001928E-02 0.  1.
    10030    2    1    2    0    0  0.00000000000E+00  0.00000000000E+00  0.37525407540E+03  0.32011524226E+04  0.31790818190E+04 0.  0.
        3    1    3    3  502    0  0.13570489348E+04  0.62448997689E+03  0.73460235438E+03  0.16646952190E+04  0.10100000352E+00 0. -1.
       -3    1    3    3    0  502 -0.13570489348E+04 -0.62448997689E+03 -0.35934827898E+03  0.15364572036E+04  0.10100000352E+00 0.  1.
</event>
<event>
 5   0  0.8545153E-07  0.3311304E+04  0.7818609E-02  0.8160025E-01
       -1   -1    0    0    0  501  0.00000000000E+00  0.00000000000E+00  0.16084842549E+04  0.16084842549E+04  0.50400001928E-02 0. -1.
        1   -1    0    0  501    0  0.00000000000E+00  0.00000000000E+00 -0.17042031056E+04  0.17042031056E+04  0.50400001928E-02 0.  1.
    10030    2    1    2    0    0  0.00000000000E+00  0.00000000000E+00 -0.95718850702E+02  0.33126873604E+04  0.33113041916E+04 0.  0.
        3    1    3    3  502    0  0.26728497299E+03  0.15835222146E+04 -0.45076825501E+03  0.16679855787E+04  0.10100000352E+00 0.  1.
       -3    1    3    3    0  502 -0.26728497299E+03 -0.15835222146E+04  0.35504940431E+03  0.16447017817E+04  0.10100000352E+00 0. -1.
</event>
<event>
 5   0  0.8383008E-07  0.2666732E+04  0.7818609E-02  0.8345881E-01
       -1   -1    0    0    0  501  0.00000000000E+00  0.00000000000E+00  0.12765277299E+04  0.12765277299E+04  0.50400001928E-02 0.  1.
        1   -1    0    0  501    0  0.00000000000E+00  0.00000000000E+00 -0.13927347369E+04  0.13927347369E+04  0.50400001928E-02 0. -1.
    10030    2    1    2    0    0  0.00000000000E+00  0.00000000000E+00 -0.11620700700E+03  0.26692624669E+04  0.26667317167E+04 0.  0.
        4    1    3    3  502    0 -0.99116185316E+03 -0.89147561227E+03 -0.31016542740E+02  0.13334519959E+04  0.12699999809E+01 0.  1.
       -4    1    3    3    0  502  0.99116185316E+03  0.89147561227E+03 -0.85190464258E+02  0.13358104710E+04  0.12699999809E+01 0. -1.
</event>
<event>
 5   0  0.8545153E-07  0.3185605E+04  0.7818609E-02  0.8192629E-01
        1   -1    0    0  501    0  0.00000000000E+00  0.00000000000E+00  0.18116283674E+04  0.18116283674E+04  0.50400001928E-02 0.  1.
       -1   -1    0    0    0  501  0.00000000000E+00  0.00000000000E+00 -0.14004085812E+04  0.14004085812E+04  0.50400001928E-02 0. -1.
    10030    2    1    2    0    0  0.00000000000E+00  0.00000000000E+00  0.41121978624E+03  0.32120369486E+04  0.31856050676E+04 0.  0.
        3    1    3    3  502    0  0.11083690614E+03 -0.14216563635E+04  0.92116592531E+03  0.16976272582E+04  0.10100000352E+00 0.  1.
       -3    1    3    3    0  502 -0.11083690614E+03  0.14216563635E+04 -0.50994613907E+03  0.15144096905E+04  0.10100000352E+00 0. -1.
</event>
<event>
 5   0  0.8681172E-07  0.3194293E+04  0.7818609E-02  0.8190326E-01
       -1   -1    0    0    0  501  0.00000000000E+00  0.00000000000E+00  0.22063279451E+04  0.22063279451E+04  0.50400001928E-02 0. -1.
        1   -1    0    0  501    0  0.00000000000E+00  0.00000000000E+00 -0.11561638430E+04  0.11561638430E+04  0.50400001928E-02 0.  1.
    10030    2    1    2    0    0  0.00000000000E+00  0.00000000000E+00  0.10501641021E+04  0.33624917881E+04  0.31942927830E+04 0.  0.
        1    1    3    3  502    0 -0.15658879900E+04 -0.72612336248E+02  0.20303319425E+03  0.15806644890E+04  0.50400001928E-02 0. -1.
       -1    1    3    3    0  502  0.15658879900E+04  0.72612336248E+02  0.84713090783E+03  0.17818272991E+04  0.50400001928E-02 0.  1.
</event>
<event>
 5   0  0.8512855E-07  0.3261319E+04  0.7818609E-02  0.8172808E-01
       -1   -1    0    0    0  501  0.00000000000E+00  0.00000000000E+00  0.19104816742E+04  0.19104816742E+04  0.50400001928E-02 0.  1.
        1   -1    0    0  501    0  0.00000000000E+00  0.00000000000E+00 -0.13918216397E+04  0.13918216397E+04  0.50400001928E-02 0. -1.
    10030    2    1    2    0    0  0.00000000000E+00  0.00000000000E+00  0.51866003450E+03  0.33023033139E+04  0.32613185900E+04 0.  0.
        5    1    3    3  502    0 -0.12706223950E+04  0.23719772462E+03 -0.74728761171E+03  0.14930522080E+04  0.46999998093E+01 0. -1.
       -5    1    3    3    0  502  0.12706223950E+04 -0.23719772462E+03  0.12659476462E+04  0.18092511059E+04  0.46999998093E+01 0.  1.
</event>
<event>
 5   0  0.2466076E-06  0.3215501E+04  0.7818609E-02  0.8184735E-01
       -2   -1    0    0    0  501  0.00000000000E+00  0.00000000000E+00  0.16090092177E+04  0.16090092177E+04  0.25500000920E-02 0. -1.
        2   -1    0    0  501    0  0.00000000000E+00  0.00000000000E+00 -0.16064931701E+04  0.16064931701E+04  0.25500000920E-02 0.  1.
    10030    2    1    2    0    0  0.00000000000E+00  0.00000000000E+00  0.25160476087E+01  0.32155023878E+04  0.32155014034E+04 0.  0.
        3    1    3    3  502    0 -0.10431211790E+03  0.57766092679E+03 -0.14955019824E+04  0.16065800178E+04  0.10100000352E+00 0.  1.
       -3    1    3    3    0  502  0.10431211790E+03 -0.57766092679E+03  0.14980180300E+04  0.16089223700E+04  0.10100000352E+00 0. -1.
</event>
<event>
 5   0  0.2621528E-06  0.3194429E+04  0.7818609E-02  0.8190290E-01
       -2   -1    0    0    0  501  0.00000000000E+00  0.00000000000E+00  0.20860927365E+04  0.20860927365E+04  0.25500000920E-02 0.  1.
        2   -1    0    0  501    0  0.00000000000E+00  0.00000000000E+00 -0.12229050987E+04  0.12229050987E+04  0.25500000920E-02 0. -1.
    10030    2    1    2    0    0  0.00000000000E+00  0.00000000000E+00  0.86318763779E+03  0.33089978352E+04  0.31944285523E+04 0.  0.
        2    1    3    3  502    0 -0.85855206484E+03 -0.59003233691E+03  0.16857370172E+04  0.19816556456E+04  0.25500000920E-02 0.  1.
       -2    1    3    3    0  502  0.85855206484E+03  0.59003233691E+03 -0.82254937943E+03  0.13273421896E+04  0.25500000920E-02 0. -1.
</event>
<event>
 5   0  0.8512855E-07  0.3189351E+04  0.7818609E-02  0.8191635E-01
        1   -1    0    0  501    0  0.00000000000E+00  0.00000000000E+00  0.32791241139E+04  0.32791241139E+04  0.50400001928E-02 0. -1.
       -1   -1    0    0    0  501  0.00000000000E+00  0.00000000000E+00 -0.77550890988E+03  0.77550890989E+03  0.50400001928E-02 0.  1.
    10030    2    1    2    0    0  0.00000000000E+00  0.00000000000E+00  0.25036152040E+04  0.40546330238E+04  0.31893510104E+04 0.  0.
        5    1    3    3  502    0  0.79503517604E+03 -0.72127195800E+03  0.27510047017E+04  0.29530260966E+04  0.46999998093E+01 0. -1.
       -5    1    3    3    0  502 -0.79503517604E+03  0.72127195800E+03 -0.24738949763E+03  0.11016069272E+04  0.46999998093E+01 0.  1.
</event>
<event>
 5   0  0.2466076E-06  0.3212931E+04  0.7818609E-02  0.8185411E-01
       -2   -1    0    0    0  501  0.00000000000E+00  0.00000000000E+00  0.99559657999E+03  0.99559657999E+03  0.25500000920E-02 0.  1.
        2   -1    0    0  501    0  0.00000000000E+00  0.00000000000E+00 -0.25921454632E+04  0.25921454632E+04  0.25500000920E-02 0. -1.
    10030    2    1    2    0    0  0.00000000000E+00  0.00000000000E+00 -0.15965488832E+04  0.35877420432E+04  0.32129308477E+04 0.  0.
        3    1    3    3  502    0  0.84354537378E+02 -0.66512424039E+03 -0.24284504734E+04  0.25193010251E+04  0.10100000352E+00 0. -1.
       -3    1    3    3    0  502 -0.84354537378E+02  0.66512424039E+03  0.83190159020E+03  0.10684410181E+04  0.10100000352E+00 0.  1.
</event>
<event>
 5   0  0.2337504E-06  0.3188917E+04  0.7818609E-02  0.8191750E-01
       -2   -1    0    0    0  501  0.00000000000E+00  0.00000000000E+00  0.14819690881E+04  0.14819690881E+04  0.25500000920E-02 0. -1.
        2   -1    0    0  501    0  0.00000000000E+00  0.00000000000E+00 -0.17154860973E+04  0.17154860973E+04  0.25500000920E-02 0.  1.
    10030    2    1    2    0    0  0.00000000000E+00  0.00000000000E+00 -0.23351700916E+03  0.31974551854E+04  0.31889166607E+04 0.  0.
        1    1    3    3  502    0  0.12471984776E+02 -0.40441275980E+03  0.14296395196E+04  0.14857908287E+04  0.50400001928E-02 0. -1.
       -1    1    3    3    0  502 -0.12471984776E+02  0.40441275980E+03 -0.16631565288E+04  0.17116643567E+04  0.50400001928E-02 0.  1.
</event>
<event>
 5   0  0.2404430E-06  0.3210121E+04  0.7818609E-02  0.8186149E-01
       -2   -1    0    0    0  501  0.00000000000E+00  0.00000000000E+00  0.12582713543E+04  0.12582713543E+04  0.25500000920E-02 0. -1.
        2   -1    0    0  501    0  0.00000000000E+00  0.00000000000E+00 -0.20474275229E+04  0.20474275230E+04  0.25500000920E-02 0.  1.
    10030    2    1    2    0    0  0.00000000000E+00  0.00000000000E+00 -0.78915616865E+03  0.33056988772E+04  0.32101211205E+04 0.  0.
        4    1    3    3  502    0  0.12177039878E+04 -0.75329165038E+03  0.35225045134E+03  0.14745620726E+04  0.12699999809E+01 0. -1.
       -4    1    3    3    0  502 -0.12177039878E+04  0.75329165038E+03 -0.11414066200E+04  0.18311368047E+04  0.12699999809E+01 0.  1.
</event>
<event>
 5   0  0.2621528E-06  0.2665885E+04  0.7818609E-02  0.8346160E-01
        2   -1    0    0  501    0  0.00000000000E+00  0.00000000000E+00  0.23711176845E+04  0.23711176845E+04  0.25500000920E-02 0. -1.
       -2   -1    0    0    0  501  0.00000000000E+00  0.00000000000E+00 -0.74932385600E+03  0.74932385600E+03  0.25500000920E-02 0.  1.
    10030    2    1    2    0    0  0.00000000000E+00  0.00000000000E+00  0.16217938285E+04  0.31204415405E+04  0.26658845034E+04 0.  0.
        2    1    3    3  502    0 -0.71922850534E+03  0.43259571938E+02 -0.50173058317E+03  0.87800604301E+03  0.25500000920E-02 0.  1.
       -2    1    3    3    0  502  0.71922850534E+03 -0.43259571938E+02  0.21235244116E+04  0.22424354975E+04  0.25500000920E-02 0. -1.
</event>
<event>
 5   0  0.8512855E-07  0.3220789E+04  0.7818609E-02  0.8183348E-01
        1   -1    0    0  501    0  0.00000000000E+00  0.00000000000E+00  0.19061474569E+04  0.19061474569E+04  0.50400001928E-02 0. -1.
       -1   -1    0    0    0  501  0.00000000000E+00  0.00000000000E+00 -0.13605296277E+04  0.13605296277E+04  0.50400001928E-02 0.  1.
    10030    2    1    2    0    0  0.00000000000E+00  0.00000000000E+00  0.54561782915E+03  0.32666770846E+04  0.32207887791E+04 0.  0.
        5    1    3    3  502    0 -0.15157084138E+04 -0.26443633422E+03  0.75502941457E+03  0.17138815821E+04  0.46999998093E+01 0. -1.
       -5    1    3    3    0  502  0.15157084138E+04  0.26443633422E+03 -0.20941158542E+03  0.15527955025E+04  0.46999998093E+01 0.  1.
</event>
<event>
 5   0  0.2621528E-06  0.3167307E+04  0.7818609E-02  0.8197505E-01
        2   -1    0    0  501    0  0.00000000000E+00  0.00000000000E+00  0.15422501026E+04  0.15422501026E+04  0.25500000920E-02 0.  1.
       -2   -1    0    0    0  501  0.00000000000E+00  0.00000000000E+00 -0.16261679526E+04  0.16261679526E+04  0.25500000920E-02 0. -1.
    10030    2    1    2    0    0  0.00000000000E+00  0.00000000000E+00 -0.83917849944E+02  0.31684180552E+04  0.31673065477E+04 0.  0.
        2    1    3    3  502    0  0.17097514096E+03 -0.99796271742E+03  0.11761693562E+04  0.15519460167E+04  0.25500000920E-02 0.  1.
       -2    1    3    3    0  502 -0.17097514096E+03  0.99796271742E+03 -0.12600872062E+04  0.16164720385E+04  0.25500000920E-02 0. -1.
</event>
<event>
 5   0  0.8512855E-07  0.3135584E+04  0.7818609E-02  0.8206039E-01
       -1   -1    0    0    0  501  0.00000000000E+00  0.00000000000E+00  0.16976231761E+04  0.16976231762E+04  0.50400001928E-02 0.  1.
        1   -1    0    0  501    0  0.00000000000E+00  0.00000000000E+00 -0.14478904888E+04  0.14478904888E+04  0.50400001928E-02 0. -1.
    10030    2    1    2    0    0  0.00000000000E+00  0.00000000000E+00  0.24973268734E+03  0.31455136650E+04  0.31355844433E+04 0.  0.
        5    1    3    3  502    0  0.12817960401E+04  0.15275991460E+03  0.10174105199E+04  0.16436188536E+04  0.46999998093E+01 0.  1.
       -5    1    3    3    0  502 -0.12817960401E+04 -0.15275991460E+03 -0.76767783258E+03  0.15018948114E+04  0.46999998093E+01 0. -1.
</event>
<event>
 5   0  0.8383008E-07  0.3208175E+04  0.7818609E-02  0.8186661E-01
       -1   -1    0    0    0  501  0.00000000000E+00  0.00000000000E+00  0.11675716925E+04  0.11675716925E+04  0.50400001928E-02 0. -1.
        1   -1    0    0  501    0  0.00000000000E+00  0.00000000000E+00 -0.22038025464E+04  0.22038025464E+04  0.50400001928E-02 0.  1.
    10030    2    1    2    0    0  0.00000000000E+00  0.00000000000E+00 -0.10362308538E+04  0.33713742389E+04  0.32081754747E+04 0.  0.
        4    1    3    3  502    0  0.15096150562E+04 -0.53274599627E+03 -0.62497363711E+03  0.17185312259E+04  0.12699999809E+01 0.  1.
       -4    1    3    3    0  502 -0.15096150562E+04  0.53274599627E+03 -0.41125721673E+03  0.16528430130E+04  0.12699999809E+01 0. -1.
</event>
<event>
 5   0  0.8487944E-07  0.3208680E+04  0.7818609E-02  0.8186528E-01
        1   -1    0    0  501    0  0.00000000000E+00  0.00000000000E+00  0.23654712746E+04  0.23654712746E+04  0.50400001928E-02 0.  1.
       -1   -1    0    0    0  501  0.00000000000E+00  0.00000000000E+00 -0.10881160978E+04  0.10881160978E+04  0.50400001928E-02 0. -1.
    10030    2    1    2    0    0  0.00000000000E+00  0.00000000000E+00  0.12773551769E+04  0.34535873724E+04  0.32086803348E+04 0.  0.
        2    1    3    3  502    0 -0.11798973678E+04 -0.10429463819E+04  0.96869481370E+03  0.18488549419E+04  0.25500000920E-02 0.  1.
       -2    1    3    3    0  502  0.11798973678E+04  0.10429463819E+04  0.30866036317E+03  0.16047324306E+04  0.25500000920E-02 0. -1.
</event>
<event>
 5   0  0.8383008E-07  0.3194163E+04  0.7818609E-02  0.8190360E-01
        1   -1    0    0  501    0  0.00000000000E+00  0.00000000000E+00  0.11049734364E+04  0.11049734364E+04  0.50400001928E-02 0. -1.
       -1   -1    0    0    0  501  0.00000000000E+00  0.00000000000E+00 -0.23083536914E+04  0.23083536914E+04  0.50400001928E-02 0.  1.
    10030    2    1    2    0    0  0.00000000000E+00  0.00000000000E+00 -0.12033802550E+04  0.34133271278E+04  0.31941631209E+04 0.  0.
        4    1    3    3  502    0 -0.57038578139E+03 -0.13097709167E+04  0.16132422500E+03  0.14376602215E+04  0.12699999809E+01 0. -1.
       -4    1    3    3    0  502  0.57038578139E+03  0.13097709167E+04 -0.13647044800E+04  0.19756669063E+04  0.12699999809E+01 0.  1.
</event>
<event>
 5   0  0.2337504E-06  0.3190090E+04  0.7818609E-02  0.8191439E-01
       -2   -1    0    0    0  501  0.00000000000E+00  0.00000000000E+00  0.11003143234E+04  0.11003143234E+04  0.25500000920E-02 0. -1.
        2   -1    0    0  501    0  0.00000000000E+00  0.00000000000E+00 -0.23122195338E+04  0.23122195338E+04  0.25500000920E-02 0.  1.
    10030    2    1    2    0    0  0.00000000000E+00  0.00000000000E+00 -0.12119052104E+04  0.34125338572E+04  0.31900898243E+04 0.  0.
        1    1    3    3  502    0  0.10187024763E+04  0.59291978800E+03  0.54362597503E+03  0.12980130242E+04  0.50400001928E-02 0. -1.
       -1    1    3    3    0  502 -0.10187024763E+04 -0.59291978800E+03 -0.17555311854E+04  0.21145208330E+04  0.50400001928E-02 0.  1.
</event>
<event>
 5   0  0.2404430E-06  0.3197218E+04  0.7818609E-02  0.8189552E-01
       -2   -1    0    0    0  501  0.00000000000E+00  0.00000000000E+00  0.14562071802E+04  0.14562071802E+04  0.25500000920E-02 0.  1.
        2   -1    0    0  501    0  0.00000000000E+00  0.00000000000E+00 -0.17549362614E+04  0.17549362614E+04  0.25500000920E-02 0. -1.
    10030    2    1    2    0    0  0.00000000000E+00  0.00000000000E+00 -0.29872908113E+03  0.32111434416E+04  0.31972180311E+04 0.  0.
        4    1    3    3  502    0  0.14634298208E+04 -0.26858825388E+03  0.43780359413E+03  0.15509481263E+04  0.12699999809E+01 0.  1.
       -4    1    3    3    0  502 -0.14634298208E+04  0.26858825388E+03 -0.73653267525E+03  0.16601953153E+04  0.12699999809E+01 0. -1.
</event>
<event>
 5   0  0.8545153E-07  0.3175884E+04  0.7818609E-02  0.8195215E-01
        1   -1    0    0  501    0  0.00000000000E+00  0.00000000000E+00  0.18080554164E+04  0.18080554164E+04  0.50400001928E-02 0.  1.
       -1   -1    0    0    0  501  0.00000000000E+00  0.00000000000E+00 -0.13946254413E+04  0.13946254413E+04  0.50400001928E-02 0. -1.
    10030    2    1    2    0    0  0.00000000000E+00  0.00000000000E+00  0.41342997517E+03  0.32026808577E+04  0.31758841811E+04 0.  0.
        3    1    3    3  502    0  0.11088569623E+04  0.10646041761E+04 -0.19490944079E+03  0.15494952451E+04  0.10100000352E+00 0. -1.
       -3    1    3    3    0  502 -0.11088569623E+04 -0.10646041761E+04  0.60833941596E+03  0.16531856126E+04  0.10100000352E+00 0.  1.
</event>
<event>
 5   0  0.2466076E-06  0.3202980E+04  0.7818609E-02  0.8188031E-01
        2   -1    0    0  501    0  0.00000000000E+00  0.00000000000E+00  0.19609107522E+04  0.19609107522E+04  0.25500000920E-02 0. -1.
       -2   -1    0    0    0  501  0.00000000000E+00  0.00000000000E+00 -0.13079483692E+04  0.13079483692E+04  0.25500000920E-02 0.  1.
    10030    2    1    2    0    0  0.00000000000E+00  0.00000000000E+00  0.65296238299E+03  0.32688591213E+04  0.32029798753E+04 0.  0.
        3    1    3    3  502    0 -0.47932419611E+03  0.33864095918E+03 -0.11942476996E+04  0.13306603483E+04  0.10100000352E+00 0.  1.
       -3    1    3    3    0  502  0.47932419611E+03 -0.33864095918E+03  0.18472100826E+04  0.19381987730E+04  0.10100000352E+00 0. -1.
</event>
<event>
 5   0  0.8545153E-07  0.3398511E+04  0.7818609E-02  0.8138272E-01
        1   -1    0    0  501    0  0.00000000000E+00  0.00000000000E+00  0.22310168635E+04  0.22310168635E+04  0.50400001928E-02 0. -1.
       -1   -1    0    0    0  501  0.00000000000E+00  0.00000000000E+00 -0.12942387371E+04  0.12942387371E+04  0.50400001928E-02 0.  1.
    10030    2    1    2    0    0  0.00000000000E+00  0.00000000000E+00  0.93677812646E+03  0.35252556006E+04  0.33985105254E+04 0.  0.
        3    1    3    3  502    0 -0.67928497949E+03 -0.14055772286E+04  0.11645310241E+04  0.19476159645E+04  0.10100000352E+00 0.  1.
       -3    1    3    3    0  502  0.67928497949E+03  0.14055772286E+04 -0.22775289769E+03  0.15776396361E+04  0.10100000352E+00 0. -1.
</event>
<event>
 5   0  0.8487944E-07  0.3210758E+04  0.7818609E-02  0.8185982E-01
       -1   -1    0    0    0  501  0.00000000000E+00  0.00000000000E+00  0.13473052043E+04  0.13473052043E+04  0.50400001928E-02 0. -1.
        1   -1    0    0  501    0  0.00000000000E+00  0.00000000000E+00 -0.19128860517E+04  0.19128860518E+04  0.50400001928E-02 0.  1.
    10030    2    1    2    0    0  0.00000000000E+00  0.00000000000E+00 -0.56558084746E+03  0.32601912561E+04  0.32107577503E+04 0.  0.
        2    1    3    3  502    0  0.14300239408E+03  0.54310715620E+03 -0.18098822767E+04  0.18950168662E+04  0.25500000920E-02 0.  1.
       -2    1    3    3    0  502 -0.14300239408E+03 -0.54310715620E+03  0.12443014292E+04  0.13651743898E+04  0.25500000920E-02 0. -1.
</event>
<event>
 5   0  0.2621528E-06  0.3230404E+04  0.7818609E-02  0.8180833E-01
       -2   -1    0    0    0  501  0.00000000000E+00  0.00000000000E+00  0.15059517060E+04  0.15059517061E+04  0.25500000920E-02 0. -1.
        2   -1    0    0  501    0  0.00000000000E+00  0.00000000000E+00 -0.17323780652E+04  0.17323780652E+04  0.25500000920E-02 0.  1.
    10030    2    1    2    0    0  0.00000000000E+00  0.00000000000E+00 -0.22642635915E+03  0.32383297713E+04  0.32304041251E+04 0.  0.
        2    1    3    3  502    0 -0.29974466059E+03  0.63125938412E+03 -0.15729941563E+04  0.17212338270E+04  0.25500000920E-02 0.  1.
       -2    1    3    3    0  502  0.29974466059E+03 -0.63125938412E+03  0.13465677972E+04  0.15170959442E+04  0.25500000920E-02 0. -1.
</event>
<event>
 5   0  0.7934375E-07  0.2918777E+04  0.7818609E-02  0.8267313E-01
       -3   -1    0    0    0  501  0.00000000000E+00  0.00000000000E+00  0.15197356529E+04  0.15197356563E+04  0.10100000352E+00 0.  1.
        3   -1    0    0  501    0  0.00000000000E+00  0.00000000000E+00 -0.14014376681E+04  0.14014376717E+04  0.10100000352E+00 0. -1.
    10030    2    1    2    0    0  0.00000000000E+00  0.00000000000E+00  0.11829798486E+03  0.29211733280E+04  0.29187770040E+04 0.  0.
        4    1    3    3  502    0  0.76816361598E+03  0.15020865009E+03  0.12918969148E+04  0.15105089311E+04  0.12699999809E+01 0.  1.
       -4    1    3    3    0  502 -0.76816361598E+03 -0.15020865009E+03 -0.11735989300E+04  0.14106643969E+04  0.12699999809E+01 0. -1.
</event>
<event>
 5   0  0.8681172E-07  0.3191800E+04  0.7818609E-02  0.8190986E-01
       -1   -1    0    0    0  501  0.00000000000E+00  0.00000000000E+00  0.18580773971E+04  0.18580773971E+04  0.50400001928E-02 0. -1.
        1   -1    0    0  501    0  0.00000000000E+00  0.00000000000E+00 -0.13707161142E+04  0.13707161143E+04  0.50400001928E-02 0.  1.
    10030    2    1    2    0    0  0.00000000000E+00  0.00000000000E+00  0.48736128290E+03  0.32287935114E+04  0.31917998871E+04 0.  0.
        1    1    3    3  502    0  0.15750383989E+04 -0.13333386898E+03  0.46616783118E+03  0.16479794676E+04  0.50400001928E-02 0.  1.
       -1    1    3    3    0  502 -0.15750383989E+04  0.13333386898E+03  0.21193451718E+02  0.15808140438E+04  0.50400001928E-02 0. -1.
</event>
<event>
 5   0  0.2404430E-06  0.3194363E+04  0.7818609E-02  0.8190307E-01
        2   -1    0    0  501    0  0.00000000000E+00  0.00000000000E+00  0.20636383781E+04  0.20636383781E+04  0.25500000920E-02 0. -1.
       -2   -1    0    0    0  501  0.00000000000E+00  0.00000000000E+00 -0.12361609944E+04  0.12361609944E+04  0.25500000920E-02 0.  1.
    10030    2    1    2    0    0  0.00000000000E+00  0.00000000000E+00  0.82747738376E+03  0.32997993725E+04  0.31943633291E+04 0.  0.
        4    1    3    3  502    0  0.28479516512E+03  0.65996088796E+03 -0.10596388042E+04  0.12804267523E+04  0.12699999809E+01 0.  1.
       -4    1    3    3    0  502 -0.28479516512E+03 -0.65996088796E+03  0.18871161879E+04  0.20193726202E+04  0.12699999809E+01 0. -1.
</event>
<event>
 5   0  0.8681172E-07  0.3181719E+04  0.7818609E-02  0.8193662E-01
        1   -1    0    0  501    0  0.00000000000E+00  0.00000000000E+00  0.20872397010E+04  0.20872397010E+04  0.50400001928E-02 0.  1.
       -1   -1    0    0    0  501  0.00000000000E+00  0.00000000000E+00 -0.12125265458E+04  0.12125265458E+04  0.50400001928E-02 0. -1.
    10030    2    1    2    0    0  0.00000000000E+00  0.00000000000E+00  0.87471315519E+03  0.32997662469E+04  0.31817187462E+04 0.  0.
        1    1    3    3  502    0 -0.13238126371E+04 -0.13639763291E+03  0.13413318540E+04  0.18895119356E+04  0.50400001928E-02 0.  1.
       -1    1    3    3    0  502  0.13238126371E+04  0.13639763291E+03 -0.46661869879E+03  0.14102543113E+04  0.50400001928E-02 0. -1.
</event>
<event>
 5   0  0.2404430E-06  0.3198764E+04  0.7818609E-02  0.8189144E-01
       -2   -1    0    0    0  501  0.00000000000E+00  0.00000000000E+00  0.86760689325E+03  0.86760689325E+03  0.25500000920E-02 0. -1.
        2   -1    0    0  501    0  0.00000000000E+00  0.00000000000E+00 -0.29483669266E+04  0.29483669266E+04  0.25500000920E-02 0.  1.
    10030    2    1    2    0    0  0.00000000000E+00  0.00000000000E+00 -0.20807600334E+04  0.38159738199E+04  0.31987644298E+04 0.  0.
        4    1    3    3  502    0  0.30201873605E+03  0.15445835089E+04 -0.13800433949E+04  0.20931972954E+04  0.12699999809E+01 0.  1.
       -4    1    3    3    0  502 -0.30201873605E+03 -0.15445835089E+04 -0.70071663846E+03  0.17227765244E+04  0.12699999809E+01 0. -1.
</event>
<event>
 5   0  0.2401139E-06  0.3242977E+04  0.7818609E-02  0.8177558E-01
       -2   -1    0    0    0  501  0.00000000000E+00  0.00000000000E+00  0.13089534989E+04  0.13089534989E+04  0.25500000920E-02 0. -1.
        2   -1    0    0  501    0  0.00000000000E+00  0.00000000000E+00 -0.20086469630E+04  0.20086469630E+04  0.25500000920E-02 0.  1.
    10030    2    1    2    0    0  0.00000000000E+00  0.00000000000E+00 -0.69969346414E+03  0.33176004619E+04  0.32429773174E+04 0.  0.
        5    1    3    3  502    0 -0.49658647024E+03 -0.68484520455E+02  0.12276858822E+04  0.13260931216E+04  0.46999998093E+01 0. -1.
       -5    1    3    3    0  502  0.49658647024E+03  0.68484520455E+02 -0.19273793463E+04  0.19915073403E+04  0.46999998093E+01 0.  1.
</event>
<event>
 5   0  0.8383008E-07  0.3164450E+04  0.7818609E-02  0.8198269E-01
       -1   -1    0    0    0  501  0.00000000000E+00  0.00000000000E+00  0.17653917614E+04  0.17653917614E+04  0.50400001928E-02 0.  1.
        1   -1    0    0  501    0  0.00000000000E+00  0.00000000000E+00 -0.14180628680E+04  0.14180628680E+04  0.50400001928E-02 0. -1.
    10030    2    1    2    0    0  0.00000000000E+00  0.00000000000E+00  0.34732889343E+03  0.31834546294E+04  0.31644503500E+04 0.  0.
        4    1    3    3  502    0 -0.19078341171E+03  0.15359015630E+04  0.50433737075E+03  0.16278051842E+04  0.12699999809E+01 0.  1.
       -4    1    3    3    0  502  0.19078341171E+03 -0.15359015630E+04 -0.15700847732E+03  0.15556494452E+04  0.12699999809E+01 0. -1.
</event>
<event>
 5   0  0.2401139E-06  0.3203712E+04  0.7818609E-02  0.8187837E-01
        2   -1    0    0  501    0  0.00000000000E+00  0.00000000000E+00  0.25702227431E+04  0.25702227431E+04  0.25500000920E-02 0.  1.
       -2   -1    0    0    0  501  0.00000000000E+00  0.00000000000E+00 -0.99833498902E+03  0.99833498902E+03  0.25500000920E-02 0. -1.
    10030    2    1    2    0    0  0.00000000000E+00  0.00000000000E+00  0.15718877540E+04  0.35685577321E+04  0.32037124053E+04 0.  0.
        5    1    3    3  502    0 -0.36366265938E+03  0.12367250629E+04  0.18451173202E+04  0.22508263874E+04  0.46999998093E+01 0.  1.
       -5    1    3    3    0  502  0.36366265938E+03 -0.12367250629E+04 -0.27322956612E+03  0.13177313447E+04  0.46999998093E+01 0. -1.
</event>
<event>
 5   0  0.8487944E-07  0.3088066E+04  0.7818609E-02  0.8219021E-01
        1   -1    0    0  501    0  0.00000000000E+00  0.00000000000E+00  0.19163261138E+04  0.19163261138E+04  0.50400001928E-02 0. -1.
       -1   -1    0    0    0  501  0.00000000000E+00  0.00000000000E+00 -0.12440670080E+04  0.12440670080E+04  0.50400001928E-02 0.  1.
    10030    2    1    2    0    0  0.00000000000E+00  0.00000000000E+00  0.67225910579E+03  0.31603931218E+04  0.30880661228E+04 0.  0.
        2    1    3    3  502    0  0.13702969236E+04 -0.25383298680E+03 -0.34419038841E+03  0.14354831478E+04  0.25500000920E-02 0.  1.
       -2    1    3    3    0  502 -0.13702969236E+04  0.25383298680E+03  0.10164494942E+04  0.17249099740E+04  0.25500000920E-02 0. -1.
</event>
<event>
 5   0  0.2621528E-06  0.2797271E+04  0.7818609E-02  0.8304116E-01
       -2   -1    0    0    0  501  0.00000000000E+00  0.00000000000E+00  0.29275727858E+04  0.29275727858E+04  0.25500000920E-02 0.  1.
        2   -1    0    0  501    0  0.00000000000E+00  0.00000000000E+00 -0.66819213186E+03  0.66819213186E+03  0.25500000920E-02 0. -1.
    10030    2    1    2    0    0  0.00000000000E+00  0.00000000000E+00  0.22593806539E+04  0.35957649176E+04  0.27972708849E+04 0.  0.
        2    1    3    3  502    0  0.10522065408E+04 -0.84641078019E+03  0.66154600674E+03  0.15037263489E+04  0.25500000920E-02 0.  1.
       -2    1    3    3    0  502 -0.10522065408E+04  0.84641078019E+03  0.15978346472E+04  0.20920385687E+04  0.25500000920E-02 0. -1.
</event>
<event>
 5   0  0.8512855E-07  0.3210884E+04  0.7818609E-02  0.8185949E-01
       -1   -1    0    0    0  501  0.00000000000E+00  0.00000000000E+00  0.98333636104E+03  0.98333636105E+03  0.50400001928E-02 0. -1.
        1   -1    0    0  501    0  0.00000000000E+00  0.00000000000E+00 -0.26211219274E+04  0.26211219274E+04  0.50400001928E-02 0.  1.
    10030    2    1    2    0    0  0.00000000000E+00  0.00000000000E+00 -0.16377855664E+04  0.36044582885E+04  0.32108843006E+04 0.  0.
        5    1    3    3  502    0 -0.47247006276E+03 -0.12570359403E+04 -0.18065387249E+04  0.22509934629E+04  0.46999998093E+01 0.  1.
       -5    1    3    3    0  502  0.47247006276E+03  0.12570359403E+04  0.16875315858E+03  0.13534648255E+04  0.46999998093E+01 0. -1.
</event>
</LesHouchesEvents>
