<LesHouchesEvents version="3.0">
<header>
<!--
#*********************************************************************
#                                                                    *
#                        MadGraph5_aMC@NLO                           *
#                                                                    *
#                           Going Beyond                             *
#                                                                    *
#                   http://madgraph.hep.uiuc.edu                     *
#                   http://madgraph.phys.ucl.ac.be                   *
#                   http://amcatnlo.cern.ch                          *
#                                                                    *
#                     The MadGraph5_aMC@NLO team                     *
#                                                                    *
#....................................................................*
#                                                                    *
# This file contains all the information necessary to reproduce      *
# the events generated:                                              *
#                                                                    *
# 1. software version                                                *
# 2. proc_card          : code generation info including model       *
# 3. param_card         : model primary parameters in the LH format  *
# 4. run_card           : running parameters (collider and cuts)     *
# 5. pythia_card        : present only if pythia has been run        *
# 6. pgs_card           : present only if pgs has been run           *
# 7. delphes_cards      : present only if delphes has been run       *
#                                                                    *
#                                                                    *
#*********************************************************************
-->
<MGVersion>
#5.2.2.3
</MGVersion>
<MG5ProcCard>
#************************************************************
#*                     MadGraph5_aMC@NLO                    *
#*                                                          *
#*                *                       *                 *
#*                  *        * *        *                   *
#*                    * * * * 5 * * * *                     *
#*                  *        * *        *                   *
#*                *                       *                 *
#*                                                          *
#*                                                          *
#*         VERSION 2.2.3                 2015-02-10         *
#*                                                          *
#*    The MadGraph5_aMC@NLO Development Team - Find us at   *
#*    https://server06.fynu.ucl.ac.be/projects/madgraph     *
#*                                                          *
#************************************************************
#*                                                          *
#*               Command File for MadGraph5_aMC@NLO         *
#*                                                          *
#*     run as ./bin/mg5_aMC  filename                       *
#*                                                          *
#************************************************************
set group_subprocesses Auto
set ignore_six_quark_processes False
set loop_optimized_output True
set gauge unitary
set complex_mass_scheme False
import model sm
define p = g u c d s u~ c~ d~ s~
define j = g u c d s u~ c~ d~ s~
define l+ = e+ mu+
define l- = e- mu-
define vl = ve vm vt
define vl~ = ve~ vm~ vt~
import model Zprime_UFO
generate p p > zph, zph > j j
add process p p > zph, zph > b b~
output Dijet_signal
</MG5ProcCard>
<MGProcCard>
#*********************************************************************
#                        MadGraph/MadEvent                           *
#                   http://madgraph.hep.uiuc.edu                     *
#                                                                    *
#                          proc_card.dat                             *
#*********************************************************************
#                                                                    *
#            This Files is generated by MADGRAPH 5                   *
#                                                                    *
# WARNING: This Files is generated for MADEVENT (compatibility issue)*
#          This files is NOT a valid MG4 proc_card.dat               *
#          Running this in MG4 will NEVER reproduce the result of MG5*
#                                                                    *
#*********************************************************************
#*********************************************************************
# Process(es) requested : mg2 input                                  *
#*********************************************************************
# Begin PROCESS # This is TAG. Do not modify this line
p p > zph , zph > j j           #Process
# Be carefull the coupling are here in MG5 convention
          
end_coup           # End the couplings input

done               # this tells MG there are no more procs
# End PROCESS  # This is TAG. Do not modify this line
#*********************************************************************
# Model information                                                  *
#*********************************************************************
# Begin MODEL  # This is TAG. Do not modify this line
Zprime_UFO
# End   MODEL  # This is TAG. Do not modify this line
#*********************************************************************
# Start multiparticle definitions                                    *
#*********************************************************************
# Begin MULTIPARTICLES # This is TAG. Do not modify this line

# End  MULTIPARTICLES # This is TAG. Do not modify this line
</MGProcCard>
<MGRunCard>
#*********************************************************************
#                       MadGraph5_aMC@NLO                            *
#                                                                    *
#                     run_card.dat MadEvent                          *
#                                                                    *
#  This file is used to set the parameters of the run.               *
#                                                                    *
#  Some notation/conventions:                                        *
#                                                                    *
#   Lines starting with a '# ' are info or comments                  *
#                                                                    *
#   mind the format:   value    = variable     ! comment             *
#*********************************************************************
#
#*******************                                                 
# Running parameters
#*******************                                                 
#                                                                    
#*********************************************************************
# Tag name for the run (one word)                                    *
#*********************************************************************
  tag_1     = run_tag ! name of the run 
#*********************************************************************
# Run to generate the grid pack                                      *
#*********************************************************************
  .false.     = gridpack  !True = setting up the grid pack
#*********************************************************************
# Number of events and rnd seed                                      *
# Warning: Do not generate more than 1M events in a single run       *
# If you want to run Pythia, avoid more than 50k events in a run.    *
#*********************************************************************
  2000 = nevents ! Number of unweighted events requested 
 2478 = iseed   ! rnd seed (0=assigned automatically=default))
#*********************************************************************
# Collider type and energy                                           *
# lpp: 0=No PDF, 1=proton, -1=antiproton, 2=photon from proton,      *
#                                         3=photon from electron     *
#*********************************************************************
        1     = lpp1    ! beam 1 type 
        1     = lpp2    ! beam 2 type
     4000     = ebeam1  ! beam 1 total energy in GeV
     4000     = ebeam2  ! beam 2 total energy in GeV
#*********************************************************************
# Beam polarization from -100 (left-handed) to 100 (right-handed)    *
#*********************************************************************
        0     = polbeam1 ! beam polarization for beam 1
        0     = polbeam2 ! beam polarization for beam 2
#*********************************************************************
# PDF CHOICE: this automatically fixes also alpha_s and its evol.    *
#*********************************************************************
 'nn23lo1'    = pdlabel     ! PDF set                                     
 230000    = lhaid     ! if pdlabel=lhapdf, this is the lhapdf number
#*********************************************************************
# Renormalization and factorization scales                           *
#*********************************************************************
 F        = fixed_ren_scale  ! if .true. use fixed ren scale
 F        = fixed_fac_scale  ! if .true. use fixed fac scale
 91.1880  = scale            ! fixed ren scale
 91.1880  = dsqrt_q2fact1    ! fixed fact scale for pdf1
 91.1880  = dsqrt_q2fact2    ! fixed fact scale for pdf2
 1        = scalefact        ! scale factor for event-by-event scales
#*********************************************************************
# Matching - Warning! ickkw > 1 is still beta
#*********************************************************************
 0        = ickkw            ! 0 no matching, 1 MLM, 2 CKKW matching
 1        = highestmult      ! for ickkw=2, highest mult group
 1        = ktscheme         ! for ickkw=1, 1 Durham kT, 2 Pythia pTE
 1        = alpsfact         ! scale factor for QCD emission vx
 F        = chcluster        ! cluster only according to channel diag
 T        = pdfwgt           ! for ickkw=1, perform pdf reweighting
 5        = asrwgtflavor     ! highest quark flavor for a_s reweight
 T        = clusinfo         ! include clustering tag in output
 3.0      = lhe_version       ! Change the way clustering information pass to shower.        
#*********************************************************************
#**********************************************************
#
#**********************************************************
# Automatic ptj and mjj cuts if xqcut > 0
# (turn off for VBF and single top processes)
#**********************************************************
   T  = auto_ptj_mjj  ! Automatic setting of ptj and mjj
#**********************************************************
#                                                                    
#**********************************
# BW cutoff (M+/-bwcutoff*Gamma)
#**********************************
  15  = bwcutoff      ! (M+/-bwcutoff*Gamma)
#**********************************************************
# Apply pt/E/eta/dr/mij cuts on decay products or not
# (note that etmiss/ptll/ptheavy/ht/sorted cuts always apply)
#**********************************************************
   T  = cut_decays    ! Cut decay products 
#*************************************************************
# Number of helicities to sum per event (0 = all helicities)
# 0 gives more stable result, but longer run time (needed for
# long decay chains e.g.).
# Use >=2 if most helicities contribute, e.g. pure QCD.
#*************************************************************
   0  = nhel          ! Number of helicities used per event
#*******************                                                 
# Standard Cuts
#*******************                                                 
#                                                                    
#*********************************************************************
# Minimum and maximum pt's (for max, -1 means no cut)                *
#*********************************************************************
 20  = ptj       ! minimum pt for the jets 
  0  = ptb       ! minimum pt for the b 
 10  = pta       ! minimum pt for the photons 
 10  = ptl       ! minimum pt for the charged leptons 
  0  = misset    ! minimum missing Et (sum of neutrino's momenta)
  0  = ptheavy   ! minimum pt for one heavy final state
 1.0 = ptonium   ! minimum pt for the quarkonium states
 -1  = ptjmax    ! maximum pt for the jets
 -1  = ptbmax    ! maximum pt for the b
 -1  = ptamax    ! maximum pt for the photons
 -1  = ptlmax    ! maximum pt for the charged leptons
 -1  = missetmax ! maximum missing Et (sum of neutrino's momenta)
#*********************************************************************
# Minimum and maximum E's (in the center of mass frame)              *
#*********************************************************************
  0  = ej     ! minimum E for the jets 
  0  = eb     ! minimum E for the b 
  0  = ea     ! minimum E for the photons 
  0  = el     ! minimum E for the charged leptons 
 -1   = ejmax ! maximum E for the jets
 -1   = ebmax ! maximum E for the b
 -1   = eamax ! maximum E for the photons
 -1   = elmax ! maximum E for the charged leptons
#*********************************************************************
# Maximum and minimum absolute rapidity (for max, -1 means no cut)   *
#*********************************************************************
   5  = etaj    ! max rap for the jets 
  -1  = etab    ! max rap for the b
 2.5  = etaa    ! max rap for the photons 
 2.5  = etal    ! max rap for the charged leptons 
 0.6  = etaonium ! max rap for the quarkonium states
   0  = etajmin ! min rap for the jets
   0  = etabmin ! min rap for the b
   0  = etaamin ! min rap for the photons
   0  = etalmin ! main rap for the charged leptons
#*********************************************************************
# Minimum and maximum DeltaR distance                                *
#*********************************************************************
 0.4 = drjj    ! min distance between jets 
 0   = drbb    ! min distance between b's 
 0.4 = drll    ! min distance between leptons 
 0.4 = draa    ! min distance between gammas 
 0   = drbj    ! min distance between b and jet 
 0.4 = draj    ! min distance between gamma and jet 
 0.4 = drjl    ! min distance between jet and lepton 
 0   = drab    ! min distance between gamma and b 
 0   = drbl    ! min distance between b and lepton 
 0.4 = dral    ! min distance between gamma and lepton 
 -1  = drjjmax ! max distance between jets
 -1  = drbbmax ! max distance between b's
 -1  = drllmax ! max distance between leptons
 -1  = draamax ! max distance between gammas
 -1  = drbjmax ! max distance between b and jet
 -1  = drajmax ! max distance between gamma and jet
 -1  = drjlmax ! max distance between jet and lepton
 -1  = drabmax ! max distance between gamma and b
 -1  = drblmax ! max distance between b and lepton
 -1  = dralmax ! maxdistance between gamma and lepton
#*********************************************************************
# Minimum and maximum invariant mass for pairs                       *
# WARNING: for four lepton final state mmll cut require to have      *
#          different lepton masses for each flavor!                  *           
#*********************************************************************
 0   = mmjj    ! min invariant mass of a jet pair 
 0   = mmbb    ! min invariant mass of a b pair 
 0   = mmaa    ! min invariant mass of gamma gamma pair
 0   = mmll    ! min invariant mass of l+l- (same flavour) lepton pair
 -1  = mmjjmax ! max invariant mass of a jet pair
 -1  = mmbbmax ! max invariant mass of a b pair
 -1  = mmaamax ! max invariant mass of gamma gamma pair
 -1  = mmllmax ! max invariant mass of l+l- (same flavour) lepton pair
#*********************************************************************
# Minimum and maximum invariant mass for all letpons                 *
#*********************************************************************
 0   = mmnl    ! min invariant mass for all letpons (l+- and vl) 
 -1  = mmnlmax ! max invariant mass for all letpons (l+- and vl) 
#*********************************************************************
# Minimum and maximum pt for 4-momenta sum of leptons                *
#*********************************************************************
 0   = ptllmin  ! Minimum pt for 4-momenta sum of leptons(l and vl)
 -1  = ptllmax  ! Maximum pt for 4-momenta sum of leptons(l and vl)
#*********************************************************************
# Inclusive cuts                                                     *
#*********************************************************************
 0  = xptj ! minimum pt for at least one jet  
 0  = xptb ! minimum pt for at least one b 
 0  = xpta ! minimum pt for at least one photon 
 0  = xptl ! minimum pt for at least one charged lepton 
#*********************************************************************
# Control the pt's of the jets sorted by pt                          *
#*********************************************************************
 0   = ptj1min ! minimum pt for the leading jet in pt
 0   = ptj2min ! minimum pt for the second jet in pt
 0   = ptj3min ! minimum pt for the third jet in pt
 0   = ptj4min ! minimum pt for the fourth jet in pt
 -1  = ptj1max ! maximum pt for the leading jet in pt 
 -1  = ptj2max ! maximum pt for the second jet in pt
 -1  = ptj3max ! maximum pt for the third jet in pt
 -1  = ptj4max ! maximum pt for the fourth jet in pt
 0   = cutuse  ! reject event if fails any (0) / all (1) jet pt cuts
#*********************************************************************
# Control the pt's of leptons sorted by pt                           *
#*********************************************************************
 0   = ptl1min ! minimum pt for the leading lepton in pt
 0   = ptl2min ! minimum pt for the second lepton in pt
 0   = ptl3min ! minimum pt for the third lepton in pt
 0   = ptl4min ! minimum pt for the fourth lepton in pt
 -1  = ptl1max ! maximum pt for the leading lepton in pt 
 -1  = ptl2max ! maximum pt for the second lepton in pt
 -1  = ptl3max ! maximum pt for the third lepton in pt
 -1  = ptl4max ! maximum pt for the fourth lepton in pt
#*********************************************************************
# Control the Ht(k)=Sum of k leading jets                            *
#*********************************************************************
 0   = htjmin ! minimum jet HT=Sum(jet pt)
 -1  = htjmax ! maximum jet HT=Sum(jet pt)
 0   = ihtmin  !inclusive Ht for all partons (including b)
 -1  = ihtmax  !inclusive Ht for all partons (including b)
 0   = ht2min ! minimum Ht for the two leading jets
 0   = ht3min ! minimum Ht for the three leading jets
 0   = ht4min ! minimum Ht for the four leading jets
 -1  = ht2max ! maximum Ht for the two leading jets
 -1  = ht3max ! maximum Ht for the three leading jets
 -1  = ht4max ! maximum Ht for the four leading jets
#***********************************************************************
# Photon-isolation cuts, according to hep-ph/9801442                   *
# When ptgmin=0, all the other parameters are ignored                  *
# When ptgmin>0, pta and draj are not going to be used                 *
#***********************************************************************
   0 = ptgmin ! Min photon transverse momentum
 0.4 = R0gamma ! Radius of isolation code
 1.0 = xn ! n parameter of eq.(3.4) in hep-ph/9801442
 1.0 = epsgamma ! epsilon_gamma parameter of eq.(3.4) in hep-ph/9801442
 .true. = isoEM ! isolate photons from EM energy (photons and leptons)
#*********************************************************************
# WBF cuts                                                           *
#*********************************************************************
 0   = xetamin ! minimum rapidity for two jets in the WBF case  
 0   = deltaeta ! minimum rapidity for two jets in the WBF case 
#*********************************************************************
# KT DURHAM CUT                                                      *
#*********************************************************************
 -1    =  ktdurham        
 0.4  =  dparameter 
#*********************************************************************
# maximal pdg code for quark to be considered as a light jet         *
# (otherwise b cuts are applied)                                     *
#*********************************************************************
 4 = maxjetflavor    ! Maximum jet pdg code
#*********************************************************************
# Jet measure cuts                                                   *
#*********************************************************************
 0   = xqcut   ! minimum kt jet measure between partons
#*********************************************************************
#
#*********************************************************************
# Store info for systematics studies                                 *
# WARNING: If use_syst is T, matched Pythia output is                *
#          meaningful ONLY if plotted taking matchscale              *
#          reweighting into account!                                 *
#*********************************************************************
   F  = use_syst      ! Enable systematics studies
#
#**************************************
# Parameter of the systematics study
#  will be used by SysCalc (if installed)
#**************************************                                  
#
0.5 1 2 = sys_scalefact  # factorization/renormalization scale factor
0.5 1 2 = sys_alpsfact  # \alpha_s emission scale factors
30 50 = sys_matchscale # variation of merging scale
# PDF sets and number of members (0 or none for all members).
CT10nlo.LHgrid = sys_pdf # matching scales
# MSTW2008nlo68cl.LHgrid 1  = sys_pdf
</MGRunCard>
<slha>
######################################################################
## PARAM_CARD AUTOMATICALY GENERATED BY MG5 FOLLOWING UFO MODEL   ####
######################################################################
##                                                                  ##
##  Width set on Auto will be computed following the information    ##
##        present in the decay.py files of the model.               ##
##        See  arXiv:1402.1178 for more details.                    ##
##                                                                  ##
######################################################################

###################################
## INFORMATION FOR CKMBLOCK
###################################
Block ckmblock 
    1 2.277360e-01 # cabi 

###################################
## INFORMATION FOR FRBLOCK
###################################
Block frblock 
    1 1.400000e+00 # gz 

###################################
## INFORMATION FOR MASS
###################################
Block mass 
    1 5.040000e-03 # MD 
    2 2.550000e-03 # MU 
    3 1.010000e-01 # MS 
    4 1.270000e+00 # MC 
    5 4.700000e+00 # MB 
    6 1.720000e+02 # MT 
   11 5.110000e-04 # Me 
   13 1.056600e-01 # MM 
   15 1.777000e+00 # MTA 
   23 9.118760e+01 # MZ 
   25 1.200000e+02 # MH 
  10030 9.000000e+02 # MZph 
  10031 3.000000e+02 # MZpl 
## Dependent parameters, given by model restrictions.
## Those values should be edited following the 
## analytical expression. MG5 ignores those values 
## but they are important for interfacing the output of MG5
## to external program such as Pythia.
  12 0.000000 # ve : 0.0 
  14 0.000000 # vm : 0.0 
  16 0.000000 # vt : 0.0 
  21 0.000000 # g : 0.0 
  22 0.000000 # a : 0.0 
  24 79.824360 # w+ : cmath.sqrt(MZ__exp__2/2. + cmath.sqrt(MZ__exp__4/4. - (aEW*cmath.pi*MZ__exp__2)/(Gf*sqrt__2))) 

###################################
## INFORMATION FOR SMINPUTS
###################################
Block sminputs 
    1 1.279000e+02 # aEWM1 
    2 1.166370e-05 # Gf 
    3 1.184000e-01 # aS 

###################################
## INFORMATION FOR YUKAWA
###################################
Block yukawa 
    1 5.040000e-03 # ymdo 
    2 2.550000e-03 # ymup 
    3 1.010000e-01 # yms 
    4 1.270000e+00 # ymc 
    5 4.700000e+00 # ymb 
    6 1.720000e+02 # ymt 
   11 5.110000e-04 # yme 
   13 1.056600e-01 # ymm 
   15 1.777000e+00 # ymtau 

###################################
## INFORMATION FOR DECAY
###################################
DECAY   6 1.508336e+00 # WT 
DECAY  23 2.495200e+00 # WZ 
DECAY  24 2.085000e+00 # WW 
DECAY  25 5.753088e-03 # WH 
## Dependent parameters, given by model restrictions.
## Those values should be edited following the 
## analytical expression. MG5 ignores those values 
## but they are important for interfacing the output of MG5
## to external program such as Pythia.
DECAY  1 0.000000 # d : 0.0 
DECAY  2 0.000000 # u : 0.0 
DECAY  3 0.000000 # s : 0.0 
DECAY  4 0.000000 # c : 0.0 
DECAY  5 0.000000 # b : 0.0 
DECAY  11 0.000000 # e- : 0.0 
DECAY  12 0.000000 # ve : 0.0 
DECAY  13 0.000000 # mu- : 0.0 
DECAY  14 0.000000 # vm : 0.0 
DECAY  15 0.000000 # ta- : 0.0 
DECAY  16 0.000000 # vt : 0.0 
DECAY  21 0.000000 # g : 0.0 
DECAY  22 0.000000 # a : 0.0 
DECAY  10030 0.308725 # zph : (gz__exp__2*MZph*(5 + cmath.sqrt(1 - (4*MT__exp__2)/MZph__exp__2)))/(144.*cmath.pi) 
DECAY  10031 0.132629 # zpl : (5*gz__exp__2*MZpl)/(144.*cmath.pi) 
#===========================================================
# QUANTUM NUMBERS OF NEW STATE(S) (NON SM PDG CODE)
#===========================================================

Block QNUMBERS 10030  # zph 
        1 0  # 3 times electric charge
        2 3  # number of spin states (2S+1)
        3 1  # colour rep (1: singlet, 3: triplet, 8: octet)
        4 0  # Particle/Antiparticle distinction (0=own anti)
Block QNUMBERS 10031  # zpl 
        1 0  # 3 times electric charge
        2 3  # number of spin states (2S+1)
        3 1  # colour rep (1: singlet, 3: triplet, 8: octet)
        4 0  # Particle/Antiparticle distinction (0=own anti)
</slha>
## END BANNER##
<MGGenerationInfo>
#  Number of Events        :         4103
#  Integrated weight (pb)  :  0.63151E+01
#  Max wgt                 :  0.20419E-02
#  Average wgt             :  0.15391E-02
</MGGenerationInfo>
</header>
<init>
     2212     2212  0.40000000000E+04  0.40000000000E+04 0 0  247000  247000 2   1
  0.63149777420E+01  0.14037728230E-01  0.20418610000E-02   0
</init>
<event>
 5   0  0.2008770E-02  0.8977546E+03  0.7818609E-02  0.9428393E-01
        2   -1    0    0  501    0  0.00000000000E+00  0.00000000000E+00  0.31968425569E+04  0.31968425569E+04  0.25500000920E-02 0.  1.
       -2   -1    0    0    0  501  0.00000000000E+00  0.00000000000E+00 -0.63028078582E+02  0.63028078633E+02  0.25500000920E-02 0. -1.
    10030    2    1    2    0    0  0.00000000000E+00  0.00000000000E+00  0.31338144783E+04  0.32598706355E+04  0.89775463012E+03 0.  0.
        1    1    3    3  502    0  0.10801550049E+03 -0.14402011197E+03  0.73799938817E+02  0.19456508421E+03  0.50400001928E-02 0. -1.
       -1    1    3    3    0  502 -0.10801550049E+03  0.14402011197E+03  0.30600145395E+04  0.30653055513E+04  0.50400001928E-02 0.  1.
</event>
<event>
 5   0  0.7893875E-03  0.8690211E+03  0.7818609E-02  0.9465157E-01
       -3   -1    0    0    0  501  0.00000000000E+00  0.00000000000E+00  0.18004324103E+04  0.18004324132E+04  0.10100000352E+00 0.  1.
        3   -1    0    0  501    0  0.00000000000E+00  0.00000000000E+00 -0.10486335408E+03  0.10486340272E+03  0.10100000352E+00 0. -1.
    10030    2    1    2    0    0  0.00000000000E+00  0.00000000000E+00  0.16955690562E+04  0.19052958159E+04  0.86902112836E+03 0.  0.
        3    1    3    3  502    0 -0.34259093402E+03  0.11677361010E+03  0.13748644175E+04  0.14217091126E+04  0.10100000352E+00 0.  1.
       -3    1    3    3    0  502  0.34259093402E+03 -0.11677361010E+03  0.32070463871E+03  0.48358670327E+03  0.10100000352E+00 0. -1.
</event>
<event>
 5   0  0.2008770E-02  0.8995835E+03  0.7818609E-02  0.9426102E-01
       -2   -1    0    0    0  501  0.00000000000E+00  0.00000000000E+00  0.16674367491E+03  0.16674367493E+03  0.25500000920E-02 0.  1.
        2   -1    0    0  501    0  0.00000000000E+00  0.00000000000E+00 -0.12133149864E+04  0.12133149864E+04  0.25500000920E-02 0. -1.
    10030    2    1    2    0    0  0.00000000000E+00  0.00000000000E+00 -0.10465713115E+04  0.13800586613E+04  0.89958345842E+03 0.  0.
        1    1    3    3  502    0  0.41252723242E+03  0.85099301803E+02 -0.28124634719E+03  0.50647815006E+03  0.50400001928E-02 0.  1.
       -1    1    3    3    0  502 -0.41252723242E+03 -0.85099301803E+02 -0.76532496431E+03  0.87358051127E+03  0.50400001928E-02 0. -1.
</event>
<event>
 5   0  0.2008643E-02  0.9340154E+03  0.7818609E-02  0.9384032E-01
        2   -1    0    0  501    0  0.00000000000E+00  0.00000000000E+00  0.57499042439E+03  0.57499042440E+03  0.25500000920E-02 0. -1.
       -2   -1    0    0    0  501  0.00000000000E+00  0.00000000000E+00 -0.37930403034E+03  0.37930403034E+03  0.25500000920E-02 0.  1.
    10030    2    1    2    0    0  0.00000000000E+00  0.00000000000E+00  0.19568639406E+03  0.95429445474E+03  0.93401538613E+03 0.  0.
        3    1    3    3  502    0 -0.10050000692E+03 -0.32076205612E+03  0.42908526372E+03  0.54507129972E+03  0.10100000352E+00 0. -1.
       -3    1    3    3    0  502  0.10050000692E+03  0.32076205612E+03 -0.23339886966E+03  0.40922315502E+03  0.10100000352E+00 0.  1.
</event>
<event>
 5   0  0.2008770E-02  0.8964573E+03  0.7818609E-02  0.9430021E-01
        2   -1    0    0  501    0  0.00000000000E+00  0.00000000000E+00  0.85297040910E+03  0.85297040910E+03  0.25500000920E-02 0. -1.
       -2   -1    0    0    0  501  0.00000000000E+00  0.00000000000E+00 -0.23554032210E+03  0.23554032211E+03  0.25500000920E-02 0.  1.
    10030    2    1    2    0    0  0.00000000000E+00  0.00000000000E+00  0.61743008700E+03  0.10885107312E+04  0.89645730497E+03 0.  0.
        1    1    3    3  502    0  0.18821238907E+03  0.87730334015E+01  0.80254954948E+03  0.82437045611E+03  0.50400001928E-02 0. -1.
       -1    1    3    3    0  502 -0.18821238907E+03 -0.87730334015E+01 -0.18511946248E+03  0.26414027510E+03  0.50400001928E-02 0.  1.
</event>
<event>
 5   0  0.2008643E-02  0.9087106E+03  0.7818609E-02  0.9414758E-01
       -2   -1    0    0    0  501  0.00000000000E+00  0.00000000000E+00  0.18889359530E+03  0.18889359532E+03  0.25500000920E-02 0. -1.
        2   -1    0    0  501    0  0.00000000000E+00  0.00000000000E+00 -0.10928836245E+04  0.10928836245E+04  0.25500000920E-02 0.  1.
    10030    2    1    2    0    0  0.00000000000E+00  0.00000000000E+00 -0.90399002924E+03  0.12817772199E+04  0.90871055259E+03 0.  0.
        3    1    3    3  502    0  0.10481436452E+03 -0.35258938166E+03 -0.75790752212E+02  0.37556566855E+03  0.10100000352E+00 0. -1.
       -3    1    3    3    0  502 -0.10481436452E+03  0.35258938166E+03 -0.82819927703E+03  0.90621155132E+03  0.10100000352E+00 0.  1.
</event>
<event>
 5   0  0.1226424E-02  0.8755318E+03  0.7818609E-02  0.9456695E-01
        1   -1    0    0  501    0  0.00000000000E+00  0.00000000000E+00  0.46144243388E+03  0.46144243391E+03  0.50400001928E-02 0. -1.
       -1   -1    0    0    0  501  0.00000000000E+00  0.00000000000E+00 -0.41530423681E+03  0.41530423684E+03  0.50400001928E-02 0.  1.
    10030    2    1    2    0    0  0.00000000000E+00  0.00000000000E+00  0.46138197071E+02  0.87674667076E+03  0.87553183349E+03 0.  0.
        1    1    3    3  502    0 -0.40712316300E+03 -0.15901602988E+03 -0.15338791306E+01  0.43707862042E+03  0.50400001928E-02 0.  1.
       -1    1    3    3    0  502  0.40712316300E+03  0.15901602988E+03  0.47672076202E+02  0.43966805034E+03  0.50400001928E-02 0. -1.
</event>
<event>
 5   0  0.1206541E-02  0.9025641E+03  0.7818609E-02  0.9422382E-01
        1   -1    0    0  501    0  0.00000000000E+00  0.00000000000E+00  0.18306047941E+04  0.18306047941E+04  0.50400001928E-02 0. -1.
       -1   -1    0    0    0  501  0.00000000000E+00  0.00000000000E+00 -0.11125038316E+03  0.11125038327E+03  0.50400001928E-02 0.  1.
    10030    2    1    2    0    0  0.00000000000E+00  0.00000000000E+00  0.17193544109E+04  0.19418551774E+04  0.90256409162E+03 0.  0.
        3    1    3    3  502    0 -0.94588309025E+02 -0.25872052063E+03  0.90622906563E+02  0.28999271956E+03  0.10100000352E+00 0.  1.
       -3    1    3    3    0  502  0.94588309025E+02  0.25872052063E+03  0.16287315044E+04  0.16518624578E+04  0.10100000352E+00 0. -1.
</event>
<event>
 5   0  0.2008770E-02  0.8677540E+03  0.7818609E-02  0.9466813E-01
       -2   -1    0    0    0  501  0.00000000000E+00  0.00000000000E+00  0.30995242061E+03  0.30995242062E+03  0.25500000920E-02 0.  1.
        2   -1    0    0  501    0  0.00000000000E+00  0.00000000000E+00 -0.60734887889E+03  0.60734887890E+03  0.25500000920E-02 0. -1.
    10030    2    1    2    0    0  0.00000000000E+00  0.00000000000E+00 -0.29739645829E+03  0.91730129952E+03  0.86775400932E+03 0.  0.
        1    1    3    3  502    0  0.26688462419E+03  0.12574537638E+03  0.18760186669E+03  0.34961945415E+03  0.50400001928E-02 0.  1.
       -1    1    3    3    0  502 -0.26688462419E+03 -0.12574537638E+03 -0.48499832497E+03  0.56768184537E+03  0.50400001928E-02 0. -1.
</event>
<event>
 5   0  0.7893875E-03  0.8959687E+03  0.7818609E-02  0.9430635E-01
        4   -1    0    0  501    0  0.00000000000E+00  0.00000000000E+00  0.64581863634E+03  0.64581988506E+03  0.12699999809E+01 0. -1.
       -4   -1    0    0    0  501  0.00000000000E+00  0.00000000000E+00 -0.31075000487E+03  0.31075260004E+03  0.12699999809E+01 0.  1.
    10030    2    1    2    0    0  0.00000000000E+00  0.00000000000E+00  0.33506863146E+03  0.95657248510E+03  0.89596871120E+03 0.  0.
        1    1    3    3  502    0 -0.22525557486E+03 -0.35605455634E+03  0.50035838558E+01  0.42135490619E+03  0.50400001928E-02 0.  1.
       -1    1    3    3    0  502  0.22525557486E+03  0.35605455634E+03  0.33006504761E+03  0.53521757891E+03  0.50400001928E-02 0. -1.
</event>
<event>
 5   0  0.2008770E-02  0.9003824E+03  0.7818609E-02  0.9425103E-01
        2   -1    0    0  501    0  0.00000000000E+00  0.00000000000E+00  0.50992159935E+03  0.50992159936E+03  0.25500000920E-02 0.  1.
       -2   -1    0    0    0  501  0.00000000000E+00  0.00000000000E+00 -0.39745744975E+03  0.39745744976E+03  0.25500000920E-02 0. -1.
    10030    2    1    2    0    0  0.00000000000E+00  0.00000000000E+00  0.11246414960E+03  0.90737904911E+03  0.90038244864E+03 0.  0.
        1    1    3    3  502    0 -0.99843650419E+01  0.21071246048E+03  0.45703188243E+03  0.50336623857E+03  0.50400001928E-02 0.  1.
       -1    1    3    3    0  502  0.99843650419E+01 -0.21071246048E+03 -0.34456773283E+03  0.40401281054E+03  0.50400001928E-02 0. -1.
</event>
<event>
 5   0  0.7893875E-03  0.8941631E+03  0.7818609E-02  0.9432907E-01
        4   -1    0    0  501    0  0.00000000000E+00  0.00000000000E+00  0.13725579211E+03  0.13726166751E+03  0.12699999809E+01 0.  1.
       -4   -1    0    0    0  501  0.00000000000E+00  0.00000000000E+00 -0.14562358208E+04  0.14562363746E+04  0.12699999809E+01 0. -1.
    10030    2    1    2    0    0  0.00000000000E+00  0.00000000000E+00 -0.13189800287E+04  0.15934980421E+04  0.89416312500E+03 0.  0.
        2    1    3    3  502    0 -0.28788758749E+03 -0.12571372463E+02 -0.50319125909E+02  0.29252233568E+03  0.25500000920E-02 0.  1.
       -2    1    3    3    0  502  0.28788758749E+03  0.12571372463E+02 -0.12686609028E+04  0.13009757065E+04  0.25500000920E-02 0. -1.
</event>
<event>
 5   0  0.2041861E-02  0.8924479E+03  0.7818609E-02  0.9435071E-01
        2   -1    0    0  501    0  0.00000000000E+00  0.00000000000E+00  0.16478061280E+04  0.16478061280E+04  0.25500000920E-02 0.  1.
       -2   -1    0    0    0  501  0.00000000000E+00  0.00000000000E+00 -0.12083691994E+03  0.12083691997E+03  0.25500000920E-02 0. -1.
    10030    2    1    2    0    0  0.00000000000E+00  0.00000000000E+00  0.15269692081E+04  0.17686430480E+04  0.89244790816E+03 0.  0.
        5    1    3    3  502    0 -0.12271602955E+02  0.20703024660E+03 -0.19463877620E+02  0.20835797988E+03  0.46999998093E+01 0. -1.
       -5    1    3    3    0  502  0.12271602955E+02 -0.20703024660E+03  0.15464330857E+04  0.15602850681E+04  0.46999998093E+01 0.  1.
</event>
<event>
 5   0  0.1177712E-02  0.8816336E+03  0.7818609E-02  0.9448836E-01
        1   -1    0    0  501    0  0.00000000000E+00  0.00000000000E+00  0.49404035833E+03  0.49404035836E+03  0.50400001928E-02 0.  1.
       -1   -1    0    0    0  501  0.00000000000E+00  0.00000000000E+00 -0.39332705559E+03  0.39332705562E+03  0.50400001928E-02 0. -1.
    10030    2    1    2    0    0  0.00000000000E+00  0.00000000000E+00  0.10071330274E+03  0.88736741398E+03  0.88163357357E+03 0.  0.
        5    1    3    3  502    0  0.36392204967E+03  0.21547718238E+03 -0.74659348584E+02  0.42949479938E+03  0.46999998093E+01 0. -1.
       -5    1    3    3    0  502 -0.36392204967E+03 -0.21547718238E+03  0.17537265132E+03  0.45787261460E+03  0.46999998093E+01 0.  1.
</event>
<event>
 5   0  0.7893875E-03  0.8870065E+03  0.7818609E-02  0.9441971E-01
        3   -1    0    0  501    0  0.00000000000E+00  0.00000000000E+00  0.26529706461E+03  0.26529708384E+03  0.10100000352E+00 0. -1.
       -3   -1    0    0    0  501  0.00000000000E+00  0.00000000000E+00 -0.74141461087E+03  0.74141461775E+03  0.10100000352E+00 0.  1.
    10030    2    1    2    0    0  0.00000000000E+00  0.00000000000E+00 -0.47611754626E+03  0.10067117016E+04  0.88700650069E+03 0.  0.
        4    1    3    3  502    0 -0.84028337682E+02  0.12248843370E+03 -0.71234107948E+03  0.72766448610E+03  0.12699999809E+01 0.  1.
       -4    1    3    3    0  502  0.84028337682E+02 -0.12248843370E+03  0.23622353322E+03  0.27904721549E+03  0.12699999809E+01 0. -1.
</event>
<event>
 5   0  0.1226424E-02  0.9055419E+03  0.7818609E-02  0.9418680E-01
        1   -1    0    0  501    0  0.00000000000E+00  0.00000000000E+00  0.18891498336E+03  0.18891498342E+03  0.50400001928E-02 0. -1.
       -1   -1    0    0    0  501  0.00000000000E+00  0.00000000000E+00 -0.10851522072E+04  0.10851522072E+04  0.50400001928E-02 0.  1.
    10030    2    1    2    0    0  0.00000000000E+00  0.00000000000E+00 -0.89623722385E+03  0.12740671906E+04  0.90554185152E+03 0.  0.
        1    1    3    3  502    0  0.17640083694E+03 -0.41126389574E+03 -0.54504895496E+03  0.70521883876E+03  0.50400001928E-02 0. -1.
       -1    1    3    3    0  502 -0.17640083694E+03  0.41126389574E+03 -0.35118826889E+03  0.56884835188E+03  0.50400001928E-02 0.  1.
</event>
<event>
 5   0  0.1206541E-02  0.9015548E+03  0.7818609E-02  0.9423640E-01
        1   -1    0    0  501    0  0.00000000000E+00  0.00000000000E+00  0.13313767823E+04  0.13313767824E+04  0.50400001928E-02 0.  1.
       -1   -1    0    0    0  501  0.00000000000E+00  0.00000000000E+00 -0.15262414987E+03  0.15262414996E+03  0.50400001928E-02 0. -1.
    10030    2    1    2    0    0  0.00000000000E+00  0.00000000000E+00  0.11787526325E+04  0.14840009323E+04  0.90155476736E+03 0.  0.
        3    1    3    3  502    0  0.53092344872E+02  0.33716832279E+03  0.10470310665E+03  0.35702104381E+03  0.10100000352E+00 0. -1.
       -3    1    3    3    0  502 -0.53092344872E+02 -0.33716832279E+03  0.10740495258E+04  0.11269798885E+04  0.10100000352E+00 0.  1.
</event>
<event>
 5   0  0.1206541E-02  0.8765092E+03  0.7818609E-02  0.9455432E-01
        1   -1    0    0  501    0  0.00000000000E+00  0.00000000000E+00  0.41638816476E+03  0.41638816479E+03  0.50400001928E-02 0.  1.
       -1   -1    0    0    0  501  0.00000000000E+00  0.00000000000E+00 -0.46126929209E+03  0.46126929212E+03  0.50400001928E-02 0. -1.
    10030    2    1    2    0    0  0.00000000000E+00  0.00000000000E+00 -0.44881127335E+02  0.87765745691E+03  0.87650915345E+03 0.  0.
        3    1    3    3  502    0  0.20662314255E+02  0.30482325523E+03  0.29217309841E+03  0.42274020130E+03  0.10100000352E+00 0.  1.
       -3    1    3    3    0  502 -0.20662314255E+02 -0.30482325523E+03 -0.33705422574E+03  0.45491725561E+03  0.10100000352E+00 0. -1.
</event>
<event>
 5   0  0.2008770E-02  0.8975218E+03  0.7818609E-02  0.9428685E-01
       -2   -1    0    0    0  501  0.00000000000E+00  0.00000000000E+00  0.17788466410E+03  0.17788466412E+03  0.25500000920E-02 0.  1.
        2   -1    0    0  501    0  0.00000000000E+00  0.00000000000E+00 -0.11321174440E+04  0.11321174440E+04  0.25500000920E-02 0. -1.
    10030    2    1    2    0    0  0.00000000000E+00  0.00000000000E+00 -0.95423277988E+03  0.13100021081E+04  0.89752176856E+03 0.  0.
        1    1    3    3  502    0  0.21132284032E+03  0.11386087659E+03  0.76301403737E+02  0.25188002362E+03  0.50400001928E-02 0.  1.
       -1    1    3    3    0  502 -0.21132284032E+03 -0.11386087659E+03 -0.10305341836E+04  0.10581220845E+04  0.50400001928E-02 0. -1.
</event>
<event>
 5   0  0.1175993E-02  0.8970917E+03  0.7818609E-02  0.9429224E-01
       -1   -1    0    0    0  501  0.00000000000E+00  0.00000000000E+00  0.86522573413E+03  0.86522573415E+03  0.50400001928E-02 0.  1.
        1   -1    0    0  501    0  0.00000000000E+00  0.00000000000E+00 -0.23253280077E+03  0.23253280083E+03  0.50400001928E-02 0. -1.
    10030    2    1    2    0    0  0.00000000000E+00  0.00000000000E+00  0.63269293336E+03  0.10977585350E+04  0.89709166376E+03 0.  0.
        4    1    3    3  502    0  0.87503701968E+02 -0.35192696515E+03 -0.66748082294E+01  0.36270601404E+03  0.12699999809E+01 0. -1.
       -4    1    3    3    0  502 -0.87503701968E+02  0.35192696515E+03  0.63936774159E+03  0.73505252094E+03  0.12699999809E+01 0.  1.
</event>
<event>
 5   0  0.1226424E-02  0.8792776E+03  0.7818609E-02  0.9451863E-01
        1   -1    0    0  501    0  0.00000000000E+00  0.00000000000E+00  0.50686445661E+03  0.50686445664E+03  0.50400001928E-02 0.  1.
       -1   -1    0    0    0  501  0.00000000000E+00  0.00000000000E+00 -0.38132933125E+03  0.38132933128E+03  0.50400001928E-02 0. -1.
    10030    2    1    2    0    0  0.00000000000E+00  0.00000000000E+00  0.12553512537E+03  0.88819378792E+03  0.87927762237E+03 0.  0.
        1    1    3    3  502    0 -0.98654234251E+02  0.41811823823E+03 -0.31596875032E+02  0.43075965643E+03  0.50400001928E-02 0. -1.
       -1    1    3    3    0  502  0.98654234251E+02 -0.41811823823E+03  0.15713200040E+03  0.45743413149E+03  0.50400001928E-02 0.  1.
</event>
<event>
 5   0  0.1968763E-02  0.9199396E+03  0.7818609E-02  0.9400994E-01
        2   -1    0    0  501    0  0.00000000000E+00  0.00000000000E+00  0.11791988252E+04  0.11791988252E+04  0.25500000920E-02 0. -1.
       -2   -1    0    0    0  501  0.00000000000E+00  0.00000000000E+00 -0.17942028963E+03  0.17942028964E+03  0.25500000920E-02 0.  1.
    10030    2    1    2    0    0  0.00000000000E+00  0.00000000000E+00  0.99977853554E+03  0.13586191148E+04  0.91993955183E+03 0.  0.
        2    1    3    3  502    0 -0.97974441605E+02  0.36681426714E+03  0.88336192593E+03  0.96149882474E+03  0.25500000920E-02 0. -1.
       -2    1    3    3    0  502  0.97974441605E+02 -0.36681426714E+03  0.11641660961E+03  0.39712029007E+03  0.25500000920E-02 0.  1.
</event>
<event>
 5   0  0.1206541E-02  0.7338680E+03  0.7818609E-02  0.9661004E-01
        1   -1    0    0  501    0  0.00000000000E+00  0.00000000000E+00  0.46019121356E+03  0.46019121359E+03  0.50400001928E-02 0. -1.
       -1   -1    0    0    0  501  0.00000000000E+00  0.00000000000E+00 -0.29257526834E+03  0.29257526838E+03  0.50400001928E-02 0.  1.
    10030    2    1    2    0    0  0.00000000000E+00  0.00000000000E+00  0.16761594522E+03  0.75276648197E+03  0.73386802034E+03 0.  0.
        3    1    3    3  502    0 -0.46575267267E+02  0.14061571227E+03 -0.26054308689E+03  0.29970776498E+03  0.10100000352E+00 0.  1.
       -3    1    3    3    0  502  0.46575267267E+02 -0.14061571227E+03  0.42815903212E+03  0.45305871699E+03  0.10100000352E+00 0. -1.
</event>
<event>
 5   0  0.7893875E-03  0.9038578E+03  0.7818609E-02  0.9420772E-01
        3   -1    0    0  501    0  0.00000000000E+00  0.00000000000E+00  0.80071059399E+03  0.80071060036E+03  0.10100000352E+00 0. -1.
       -3   -1    0    0    0  501  0.00000000000E+00  0.00000000000E+00 -0.25507306720E+03  0.25507308720E+03  0.10100000352E+00 0.  1.
    10030    2    1    2    0    0  0.00000000000E+00  0.00000000000E+00  0.54563752678E+03  0.10557836876E+04  0.90385777879E+03 0.  0.
        4    1    3    3  502    0  0.10904975173E+03 -0.19817976884E+03  0.72982419598E+03  0.76407593802E+03  0.12699999809E+01 0. -1.
       -4    1    3    3    0  502 -0.10904975173E+03  0.19817976884E+03 -0.18418666920E+03  0.29170774954E+03  0.12699999809E+01 0.  1.
</event>
<event>
 5   0  0.2008643E-02  0.8777609E+03  0.7818609E-02  0.9453816E-01
       -2   -1    0    0    0  501  0.00000000000E+00  0.00000000000E+00  0.35707735004E+03  0.35707735005E+03  0.25500000920E-02 0.  1.
        2   -1    0    0  501    0  0.00000000000E+00  0.00000000000E+00 -0.53942383708E+03  0.53942383709E+03  0.25500000920E-02 0. -1.
    10030    2    1    2    0    0  0.00000000000E+00  0.00000000000E+00 -0.18234648704E+03  0.89650118714E+03  0.87776086561E+03 0.  0.
        3    1    3    3  502    0 -0.28813675681E+03  0.31447342895E+03 -0.19682102297E+03  0.46973913337E+03  0.10100000352E+00 0. -1.
       -3    1    3    3    0  502  0.28813675681E+03 -0.31447342895E+03  0.14474535922E+02  0.42676205376E+03  0.10100000352E+00 0.  1.
</event>
<event>
 5   0  0.1175993E-02  0.9240849E+03  0.7818609E-02  0.9395965E-01
        1   -1    0    0  501    0  0.00000000000E+00  0.00000000000E+00  0.10279844334E+04  0.10279844334E+04  0.50400001928E-02 0.  1.
       -1   -1    0    0    0  501  0.00000000000E+00  0.00000000000E+00 -0.20767166285E+03  0.20767166291E+03  0.50400001928E-02 0. -1.
    10030    2    1    2    0    0  0.00000000000E+00  0.00000000000E+00  0.82031277054E+03  0.12356560963E+04  0.92408492403E+03 0.  0.
        4    1    3    3  502    0 -0.38731098546E+03  0.21067303643E+03  0.59490188273E+03  0.74047470633E+03  0.12699999809E+01 0.  1.
       -4    1    3    3    0  502  0.38731098546E+03 -0.21067303643E+03  0.22541088780E+03  0.49518138997E+03  0.12699999809E+01 0. -1.
</event>
<event>
 5   0  0.1968763E-02  0.9334114E+03  0.7818609E-02  0.9384753E-01
       -2   -1    0    0    0  501  0.00000000000E+00  0.00000000000E+00  0.29765506006E+03  0.29765506007E+03  0.25500000920E-02 0. -1.
        2   -1    0    0  501    0  0.00000000000E+00  0.00000000000E+00 -0.73176715312E+03  0.73176715312E+03  0.25500000920E-02 0.  1.
    10030    2    1    2    0    0  0.00000000000E+00  0.00000000000E+00 -0.43411209306E+03  0.10294222132E+04  0.93341136894E+03 0.  0.
        2    1    3    3  502    0 -0.23303440053E+03 -0.22860426493E+03  0.15079246500E+03  0.35958769346E+03  0.25500000920E-02 0. -1.
       -2    1    3    3    0  502  0.23303440053E+03  0.22860426493E+03 -0.58490455807E+03  0.66983451974E+03  0.25500000920E-02 0.  1.
</event>
<event>
 5   0  0.1162839E-02  0.9068945E+03  0.7818609E-02  0.9417004E-01
        1   -1    0    0  501    0  0.00000000000E+00  0.00000000000E+00  0.24868401215E+03  0.24868401220E+03  0.50400001928E-02 0. -1.
       -1   -1    0    0    0  501  0.00000000000E+00  0.00000000000E+00 -0.82680990469E+03  0.82680990471E+03  0.50400001928E-02 0.  1.
    10030    2    1    2    0    0  0.00000000000E+00  0.00000000000E+00 -0.57812589255E+03  0.10754939169E+04  0.90689449092E+03 0.  0.
        2    1    3    3  502    0  0.19339370976E+03  0.89864065598E+02 -0.76363048101E+03  0.79284814990E+03  0.25500000920E-02 0.  1.
       -2    1    3    3    0  502 -0.19339370976E+03 -0.89864065598E+02  0.18550458846E+03  0.28264576701E+03  0.25500000920E-02 0. -1.
</event>
<event>
 5   0  0.2008643E-02  0.9101932E+03  0.7818609E-02  0.9412928E-01
       -2   -1    0    0    0  501  0.00000000000E+00  0.00000000000E+00  0.27736758063E+03  0.27736758064E+03  0.25500000920E-02 0.  1.
        2   -1    0    0  501    0  0.00000000000E+00  0.00000000000E+00 -0.74670921695E+03  0.74670921696E+03  0.25500000920E-02 0. -1.
    10030    2    1    2    0    0  0.00000000000E+00  0.00000000000E+00 -0.46934163632E+03  0.10240767976E+04  0.91019322992E+03 0.  0.
        3    1    3    3  502    0  0.29350883322E+03 -0.28198866628E+03 -0.56103922955E+01  0.40705838622E+03  0.10100000352E+00 0.  1.
       -3    1    3    3    0  502 -0.29350883322E+03  0.28198866628E+03 -0.46373124402E+03  0.61701841138E+03  0.10100000352E+00 0. -1.
</event>
<event>
 5   0  0.2041861E-02  0.9059957E+03  0.7818609E-02  0.9418117E-01
       -2   -1    0    0    0  501  0.00000000000E+00  0.00000000000E+00  0.23649439144E+03  0.23649439145E+03  0.25500000920E-02 0. -1.
        2   -1    0    0  501    0  0.00000000000E+00  0.00000000000E+00 -0.86770368025E+03  0.86770368026E+03  0.25500000920E-02 0.  1.
    10030    2    1    2    0    0  0.00000000000E+00  0.00000000000E+00 -0.63120928881E+03  0.11041980717E+04  0.90599570379E+03 0.  0.
        5    1    3    3  502    0  0.15342056609E+03  0.50134811178E+02 -0.83143793420E+03  0.84697254844E+03  0.46999998093E+01 0.  1.
       -5    1    3    3    0  502 -0.15342056609E+03 -0.50134811178E+02  0.20022864538E+03  0.25722552327E+03  0.46999998093E+01 0. -1.
</event>
<event>
 5   0  0.1162839E-02  0.9784759E+03  0.7818609E-02  0.9332472E-01
        1   -1    0    0  501    0  0.00000000000E+00  0.00000000000E+00  0.17312884412E+04  0.17312884412E+04  0.50400001928E-02 0. -1.
       -1   -1    0    0    0  501  0.00000000000E+00  0.00000000000E+00 -0.13825183043E+03  0.13825183052E+03  0.50400001928E-02 0.  1.
    10030    2    1    2    0    0  0.00000000000E+00  0.00000000000E+00  0.15930366108E+04  0.18695402717E+04  0.97847594982E+03 0.  0.
        2    1    3    3  502    0  0.36637278449E+03 -0.59394015259E+02  0.18750695231E+03  0.41583112370E+03  0.25500000920E-02 0.  1.
       -2    1    3    3    0  502 -0.36637278449E+03  0.59394015259E+02  0.14055296585E+04  0.14537091480E+04  0.25500000920E-02 0. -1.
</event>
<event>
 5   0  0.2008643E-02  0.8997708E+03  0.7818609E-02  0.9425868E-01
        2   -1    0    0  501    0  0.00000000000E+00  0.00000000000E+00  0.89983193879E+03  0.89983193879E+03  0.25500000920E-02 0. -1.
       -2   -1    0    0    0  501  0.00000000000E+00  0.00000000000E+00 -0.22492741056E+03  0.22492741058E+03  0.25500000920E-02 0.  1.
    10030    2    1    2    0    0  0.00000000000E+00  0.00000000000E+00  0.67490452822E+03  0.11247593494E+04  0.89977078847E+03 0.  0.
        3    1    3    3  502    0  0.36748111505E+02 -0.44226899361E+03  0.24521432974E+03  0.50703290240E+03  0.10100000352E+00 0.  1.
       -3    1    3    3    0  502 -0.36748111505E+02  0.44226899361E+03  0.42969019849E+03  0.61772644697E+03  0.10100000352E+00 0. -1.
</event>
<event>
 5   0  0.2008770E-02  0.8949581E+03  0.7818609E-02  0.9431906E-01
       -2   -1    0    0    0  501  0.00000000000E+00  0.00000000000E+00  0.13891349249E+03  0.13891349251E+03  0.25500000920E-02 0.  1.
        2   -1    0    0  501    0  0.00000000000E+00  0.00000000000E+00 -0.14414546464E+04  0.14414546464E+04  0.25500000920E-02 0. -1.
    10030    2    1    2    0    0  0.00000000000E+00  0.00000000000E+00 -0.13025411539E+04  0.15803681389E+04  0.89495809782E+03 0.  0.
        1    1    3    3  502    0 -0.19314977034E+03 -0.20164625941E+03 -0.33802448982E+02  0.28126616096E+03  0.50400001928E-02 0.  1.
       -1    1    3    3    0  502  0.19314977034E+03  0.20164625941E+03 -0.12687387049E+04  0.12991019779E+04  0.50400001928E-02 0. -1.
</event>
<event>
 5   0  0.1206541E-02  0.9027547E+03  0.7818609E-02  0.9422144E-01
        1   -1    0    0  501    0  0.00000000000E+00  0.00000000000E+00  0.25130246451E+03  0.25130246456E+03  0.50400001928E-02 0.  1.
       -1   -1    0    0    0  501  0.00000000000E+00  0.00000000000E+00 -0.81074228312E+03  0.81074228313E+03  0.50400001928E-02 0. -1.
    10030    2    1    2    0    0  0.00000000000E+00  0.00000000000E+00 -0.55943981861E+03  0.10620447477E+04  0.90275474823E+03 0.  0.
        3    1    3    3  502    0 -0.11973046107E+03  0.21081622378E+03  0.16820076584E+03  0.29507689057E+03  0.10100000352E+00 0.  1.
       -3    1    3    3    0  502  0.11973046107E+03 -0.21081622378E+03 -0.72764058445E+03  0.76696785712E+03  0.10100000352E+00 0. -1.
</event>
<event>
 5   0  0.2008643E-02  0.8797108E+03  0.7818609E-02  0.9451305E-01
       -2   -1    0    0    0  501  0.00000000000E+00  0.00000000000E+00  0.10411301675E+03  0.10411301678E+03  0.25500000920E-02 0.  1.
        2   -1    0    0  501    0  0.00000000000E+00  0.00000000000E+00 -0.18582957131E+04  0.18582957131E+04  0.25500000920E-02 0. -1.
    10030    2    1    2    0    0  0.00000000000E+00  0.00000000000E+00 -0.17541826964E+04  0.19624087299E+04  0.87971079962E+03 0.  0.
        3    1    3    3  502    0  0.35969570282E+03 -0.18018231029E+03 -0.12738006252E+04  0.13358198630E+04  0.10100000352E+00 0. -1.
       -3    1    3    3    0  502 -0.35969570282E+03  0.18018231029E+03 -0.48038207121E+03  0.62658886689E+03  0.10100000352E+00 0.  1.
</event>
<event>
 5   0  0.1175993E-02  0.9078072E+03  0.7818609E-02  0.9415874E-01
        1   -1    0    0  501    0  0.00000000000E+00  0.00000000000E+00  0.61023617500E+03  0.61023617502E+03  0.50400001928E-02 0.  1.
       -1   -1    0    0    0  501  0.00000000000E+00  0.00000000000E+00 -0.33762087640E+03  0.33762087643E+03  0.50400001928E-02 0. -1.
    10030    2    1    2    0    0  0.00000000000E+00  0.00000000000E+00  0.27261529860E+03  0.94785705145E+03  0.90780718710E+03 0.  0.
        4    1    3    3  502    0  0.10152462112E+03  0.29694117356E+03  0.47871687000E+03  0.57240961188E+03  0.12699999809E+01 0.  1.
       -4    1    3    3    0  502 -0.10152462112E+03 -0.29694117356E+03 -0.20610157140E+03  0.37544743957E+03  0.12699999809E+01 0. -1.
</event>
<event>
 5   0  0.1175993E-02  0.8890715E+03  0.7818609E-02  0.9439347E-01
       -1   -1    0    0    0  501  0.00000000000E+00  0.00000000000E+00  0.36833939637E+03  0.36833939640E+03  0.50400001928E-02 0.  1.
        1   -1    0    0  501    0  0.00000000000E+00  0.00000000000E+00 -0.53649442274E+03  0.53649442276E+03  0.50400001928E-02 0. -1.
    10030    2    1    2    0    0  0.00000000000E+00  0.00000000000E+00 -0.16815502637E+03  0.90483381916E+03  0.88907149735E+03 0.  0.
        4    1    3    3  502    0  0.17611740251E+03 -0.40053232346E+03 -0.41554097705E+01  0.43756412322E+03  0.12699999809E+01 0.  1.
       -4    1    3    3    0  502 -0.17611740251E+03  0.40053232346E+03 -0.16399961660E+03  0.46726969594E+03  0.12699999809E+01 0. -1.
</event>
<event>
 5   0  0.1206541E-02  0.9455733E+03  0.7818609E-02  0.9370340E-01
        1   -1    0    0  501    0  0.00000000000E+00  0.00000000000E+00  0.63704192365E+03  0.63704192367E+03  0.50400001928E-02 0.  1.
       -1   -1    0    0    0  501  0.00000000000E+00  0.00000000000E+00 -0.35088308412E+03  0.35088308416E+03  0.50400001928E-02 0. -1.
    10030    2    1    2    0    0  0.00000000000E+00  0.00000000000E+00  0.28615883953E+03  0.98792500782E+03  0.94557333911E+03 0.  0.
        3    1    3    3  502    0 -0.36994967772E+03 -0.22978824770E+03  0.33533719878E+03  0.54965120751E+03  0.10100000352E+00 0.  1.
       -3    1    3    3    0  502  0.36994967772E+03  0.22978824770E+03 -0.49178359255E+02  0.43827380032E+03  0.10100000352E+00 0. -1.
</event>
<event>
 5   0  0.1924218E-02  0.9197162E+03  0.7818609E-02  0.9401265E-01
        2   -1    0    0  501    0  0.00000000000E+00  0.00000000000E+00  0.12582406766E+04  0.12582406766E+04  0.25500000920E-02 0.  1.
       -2   -1    0    0    0  501  0.00000000000E+00  0.00000000000E+00 -0.16806760184E+03  0.16806760185E+03  0.25500000920E-02 0. -1.
    10030    2    1    2    0    0  0.00000000000E+00  0.00000000000E+00  0.10901730748E+04  0.14263082785E+04  0.91971624552E+03 0.  0.
        4    1    3    3  502    0 -0.26613768041E+03 -0.37387558808E+03  0.49972266420E+03  0.67848107881E+03  0.12699999809E+01 0.  1.
       -4    1    3    3    0  502  0.26613768041E+03  0.37387558808E+03  0.59045041060E+03  0.74782719967E+03  0.12699999809E+01 0. -1.
</event>
<event>
 5   0  0.1924218E-02  0.8825628E+03  0.7818609E-02  0.9447645E-01
        2   -1    0    0  501    0  0.00000000000E+00  0.00000000000E+00  0.71702742710E+03  0.71702742711E+03  0.25500000920E-02 0. -1.
       -2   -1    0    0    0  501  0.00000000000E+00  0.00000000000E+00 -0.27157854968E+03  0.27157854969E+03  0.25500000920E-02 0.  1.
    10030    2    1    2    0    0  0.00000000000E+00  0.00000000000E+00  0.44544887742E+03  0.98860597680E+03  0.88256278811E+03 0.  0.
        4    1    3    3  502    0 -0.31002033362E+02  0.13989772242E+03  0.69023955532E+03  0.70495727206E+03  0.12699999809E+01 0. -1.
       -4    1    3    3    0  502  0.31002033362E+02 -0.13989772242E+03 -0.24479067790E+03  0.28364870473E+03  0.12699999809E+01 0.  1.
</event>
<event>
 5   0  0.7893875E-03  0.9004458E+03  0.7818609E-02  0.9425024E-01
        4   -1    0    0  501    0  0.00000000000E+00  0.00000000000E+00  0.65400239290E+03  0.65400362599E+03  0.12699999809E+01 0. -1.
       -4   -1    0    0    0  501  0.00000000000E+00  0.00000000000E+00 -0.30993591568E+03  0.30993851766E+03  0.12699999809E+01 0.  1.
    10030    2    1    2    0    0  0.00000000000E+00  0.00000000000E+00  0.34406647721E+03  0.96394214365E+03  0.90044584266E+03 0.  0.
        4    1    3    3  502    0 -0.91579357344E+02  0.42512886597E+02 -0.29766000405E+03  0.31432024295E+03  0.12699999809E+01 0.  1.
       -4    1    3    3    0  502  0.91579357344E+02 -0.42512886597E+02  0.64172648126E+03  0.64962190070E+03  0.12699999809E+01 0. -1.
</event>
<event>
 5   0  0.1206541E-02  0.8692353E+03  0.7818609E-02  0.9464878E-01
        1   -1    0    0  501    0  0.00000000000E+00  0.00000000000E+00  0.46239214264E+03  0.46239214267E+03  0.50400001928E-02 0.  1.
       -1   -1    0    0    0  501  0.00000000000E+00  0.00000000000E+00 -0.40851148120E+03  0.40851148123E+03  0.50400001928E-02 0. -1.
    10030    2    1    2    0    0  0.00000000000E+00  0.00000000000E+00  0.53880661440E+02  0.87090362390E+03  0.86923529406E+03 0.  0.
        3    1    3    3  502    0  0.29430473044E+03 -0.23693356000E+03  0.24215414352E+03  0.44876656030E+03  0.10100000352E+00 0.  1.
       -3    1    3    3    0  502 -0.29430473044E+03  0.23693356000E+03 -0.18827348208E+03  0.42213706361E+03  0.10100000352E+00 0. -1.
</event>
<event>
 5   0  0.1177712E-02  0.8924189E+03  0.7818609E-02  0.9435108E-01
       -1   -1    0    0    0  501  0.00000000000E+00  0.00000000000E+00  0.15561908270E+03  0.15561908279E+03  0.50400001928E-02 0.  1.
        1   -1    0    0  501    0  0.00000000000E+00  0.00000000000E+00 -0.12794245384E+04  0.12794245384E+04  0.50400001928E-02 0. -1.
    10030    2    1    2    0    0  0.00000000000E+00  0.00000000000E+00 -0.11238054557E+04  0.14350436212E+04  0.89241889967E+03 0.  0.
        5    1    3    3  502    0 -0.31007754602E+03  0.31655301332E+03 -0.47793159347E+03  0.65176268137E+03  0.46999998093E+01 0.  1.
       -5    1    3    3    0  502  0.31007754602E+03 -0.31655301332E+03 -0.64587386224E+03  0.78328093984E+03  0.46999998093E+01 0. -1.
</event>
<event>
 5   0  0.1968763E-02  0.8923520E+03  0.7818609E-02  0.9435193E-01
       -2   -1    0    0    0  501  0.00000000000E+00  0.00000000000E+00  0.35775697186E+03  0.35775697187E+03  0.25500000920E-02 0. -1.
        2   -1    0    0  501    0  0.00000000000E+00  0.00000000000E+00 -0.55644762103E+03  0.55644762103E+03  0.25500000920E-02 0.  1.
    10030    2    1    2    0    0  0.00000000000E+00  0.00000000000E+00 -0.19869064917E+03  0.91420459290E+03  0.89235198415E+03 0.  0.
        2    1    3    3  502    0  0.42275722612E+02 -0.64886763597E+02  0.35081868952E+03  0.35926491860E+03  0.25500000920E-02 0. -1.
       -2    1    3    3    0  502 -0.42275722612E+02  0.64886763597E+02 -0.54950933868E+03  0.55493967431E+03  0.25500000920E-02 0.  1.
</event>
<event>
 5   0  0.2008643E-02  0.9090901E+03  0.7818609E-02  0.9414289E-01
        2   -1    0    0  501    0  0.00000000000E+00  0.00000000000E+00  0.32363927066E+03  0.32363927067E+03  0.25500000920E-02 0. -1.
       -2   -1    0    0    0  501  0.00000000000E+00  0.00000000000E+00 -0.63839966340E+03  0.63839966341E+03  0.25500000920E-02 0.  1.
    10030    2    1    2    0    0  0.00000000000E+00  0.00000000000E+00 -0.31476039274E+03  0.96203893408E+03  0.90909009776E+03 0.  0.
        3    1    3    3  502    0  0.41504892488E+03  0.30188691877E+01  0.38713452916E+02  0.41686144611E+03  0.10100000352E+00 0. -1.
       -3    1    3    3    0  502 -0.41504892488E+03 -0.30188691877E+01 -0.35347384566E+03  0.54517748797E+03  0.10100000352E+00 0.  1.
</event>
<event>
 5   0  0.2008770E-02  0.9158318E+03  0.7818609E-02  0.9406005E-01
       -2   -1    0    0    0  501  0.00000000000E+00  0.00000000000E+00  0.12296892186E+03  0.12296892189E+03  0.25500000920E-02 0.  1.
        2   -1    0    0  501    0  0.00000000000E+00  0.00000000000E+00 -0.17052028002E+04  0.17052028002E+04  0.25500000920E-02 0. -1.
    10030    2    1    2    0    0  0.00000000000E+00  0.00000000000E+00 -0.15822338783E+04  0.18281717221E+04  0.91583175294E+03 0.  0.
        1    1    3    3  502    0 -0.28721300379E+03 -0.25871833071E+03 -0.30109273508E+03  0.48998297862E+03  0.50400001928E-02 0.  1.
       -1    1    3    3    0  502  0.28721300379E+03  0.25871833071E+03 -0.12811411432E+04  0.13381887435E+04  0.50400001928E-02 0. -1.
</event>
<event>
 5   0  0.1968763E-02  0.8911794E+03  0.7818609E-02  0.9436675E-01
        2   -1    0    0  501    0  0.00000000000E+00  0.00000000000E+00  0.49203806308E+03  0.49203806309E+03  0.25500000920E-02 0.  1.
       -2   -1    0    0    0  501  0.00000000000E+00  0.00000000000E+00 -0.40352603712E+03  0.40352603713E+03  0.25500000920E-02 0. -1.
    10030    2    1    2    0    0  0.00000000000E+00  0.00000000000E+00  0.88512025955E+02  0.89556410022E+03  0.89117937525E+03 0.  0.
        2    1    3    3  502    0 -0.31215568753E+02  0.37524253649E+03 -0.19517830284E+03  0.42411784073E+03  0.25500000920E-02 0. -1.
       -2    1    3    3    0  502  0.31215568753E+02 -0.37524253649E+03  0.28369032879E+03  0.47144625948E+03  0.25500000920E-02 0.  1.
</event>
<event>
 5   0  0.2008643E-02  0.9000578E+03  0.7818609E-02  0.9425509E-01
       -2   -1    0    0    0  501  0.00000000000E+00  0.00000000000E+00  0.38048147583E+03  0.38048147584E+03  0.25500000920E-02 0.  1.
        2   -1    0    0  501    0  0.00000000000E+00  0.00000000000E+00 -0.53228870007E+03  0.53228870007E+03  0.25500000920E-02 0. -1.
    10030    2    1    2    0    0  0.00000000000E+00  0.00000000000E+00 -0.15180722424E+03  0.91277017591E+03  0.90005775409E+03 0.  0.
        3    1    3    3  502    0  0.27298621640E+02 -0.35974112670E+03  0.19690721937E+03  0.41101259862E+03  0.10100000352E+00 0.  1.
       -3    1    3    3    0  502 -0.27298621640E+02  0.35974112670E+03 -0.34871444361E+03  0.50175757729E+03  0.10100000352E+00 0. -1.
</event>
<event>
 5   0  0.1206541E-02  0.8907282E+03  0.7818609E-02  0.9437246E-01
        1   -1    0    0  501    0  0.00000000000E+00  0.00000000000E+00  0.12152684505E+04  0.12152684505E+04  0.50400001928E-02 0.  1.
       -1   -1    0    0    0  501  0.00000000000E+00  0.00000000000E+00 -0.16321429547E+03  0.16321429555E+03  0.50400001928E-02 0. -1.
    10030    2    1    2    0    0  0.00000000000E+00  0.00000000000E+00  0.10520541550E+04  0.13784827461E+04  0.89072820551E+03 0.  0.
        3    1    3    3  502    0  0.76503692340E+02 -0.42304318354E+03  0.70604603741E+03  0.82663133695E+03  0.10100000352E+00 0.  1.
       -3    1    3    3    0  502 -0.76503692340E+02  0.42304318354E+03  0.34600811762E+03  0.55185140912E+03  0.10100000352E+00 0. -1.
</event>
<event>
 5   0  0.2041861E-02  0.8796928E+03  0.7818609E-02  0.9451329E-01
        2   -1    0    0  501    0  0.00000000000E+00  0.00000000000E+00  0.44640050535E+03  0.44640050535E+03  0.25500000920E-02 0.  1.
       -2   -1    0    0    0  501  0.00000000000E+00  0.00000000000E+00 -0.43338849997E+03  0.43338849997E+03  0.25500000920E-02 0. -1.
    10030    2    1    2    0    0  0.00000000000E+00  0.00000000000E+00  0.13012005380E+02  0.87978900533E+03  0.87969277683E+03 0.  0.
        5    1    3    3  502    0 -0.10778347782E+03  0.42002421284E+02  0.43088869488E+03  0.44617108698E+03  0.46999998093E+01 0.  1.
       -5    1    3    3    0  502  0.10778347782E+03 -0.42002421284E+02 -0.41787668950E+03  0.43361791835E+03  0.46999998093E+01 0. -1.
</event>
<event>
 5   0  0.1177712E-02  0.8860733E+03  0.7818609E-02  0.9443160E-01
        1   -1    0    0  501    0  0.00000000000E+00  0.00000000000E+00  0.79088533876E+03  0.79088533878E+03  0.50400001928E-02 0. -1.
       -1   -1    0    0    0  501  0.00000000000E+00  0.00000000000E+00 -0.24817943866E+03  0.24817943871E+03  0.50400001928E-02 0.  1.
    10030    2    1    2    0    0  0.00000000000E+00  0.00000000000E+00  0.54270590010E+03  0.10390647775E+04  0.88607331402E+03 0.  0.
        5    1    3    3  502    0  0.24685195241E+03  0.17279972461E+03  0.65217719343E+03  0.71843775852E+03  0.46999998093E+01 0. -1.
       -5    1    3    3    0  502 -0.24685195241E+03 -0.17279972461E+03 -0.10947129333E+03  0.32062701897E+03  0.46999998093E+01 0.  1.
</event>
<event>
 5   0  0.1206541E-02  0.9091938E+03  0.7818609E-02  0.9414161E-01
        1   -1    0    0  501    0  0.00000000000E+00  0.00000000000E+00  0.72977099910E+03  0.72977099911E+03  0.50400001928E-02 0.  1.
       -1   -1    0    0    0  501  0.00000000000E+00  0.00000000000E+00 -0.28318247458E+03  0.28318247462E+03  0.50400001928E-02 0. -1.
    10030    2    1    2    0    0  0.00000000000E+00  0.00000000000E+00  0.44658852452E+03  0.10129534737E+04  0.90919383507E+03 0.  0.
        3    1    3    3  502    0  0.34830746034E+03 -0.29210429066E+03  0.21893013081E+03  0.50455268895E+03  0.10100000352E+00 0.  1.
       -3    1    3    3    0  502 -0.34830746034E+03  0.29210429066E+03  0.22765839371E+03  0.50840078479E+03  0.10100000352E+00 0. -1.
</event>
<event>
 5   0  0.2008643E-02  0.9051271E+03  0.7818609E-02  0.9419195E-01
       -2   -1    0    0    0  501  0.00000000000E+00  0.00000000000E+00  0.17678677981E+03  0.17678677983E+03  0.25500000920E-02 0.  1.
        2   -1    0    0  501    0  0.00000000000E+00  0.00000000000E+00 -0.11585356513E+04  0.11585356513E+04  0.25500000920E-02 0. -1.
    10030    2    1    2    0    0  0.00000000000E+00  0.00000000000E+00 -0.98174887147E+03  0.13353224311E+04  0.90512714488E+03 0.  0.
        3    1    3    3  502    0  0.14808146022E+03  0.27731619343E+03 -0.10597916925E+02  0.31455479021E+03  0.10100000352E+00 0.  1.
       -3    1    3    3    0  502 -0.14808146022E+03 -0.27731619343E+03 -0.97115095455E+03  0.10207676409E+04  0.10100000352E+00 0. -1.
</event>
<event>
 5   0  0.1226424E-02  0.9269492E+03  0.7818609E-02  0.9392507E-01
       -1   -1    0    0    0  501  0.00000000000E+00  0.00000000000E+00  0.26035817107E+03  0.26035817111E+03  0.50400001928E-02 0.  1.
        1   -1    0    0  501    0  0.00000000000E+00  0.00000000000E+00 -0.82505069259E+03  0.82505069261E+03  0.50400001928E-02 0. -1.
    10030    2    1    2    0    0  0.00000000000E+00  0.00000000000E+00 -0.56469252153E+03  0.10854088637E+04  0.92694916666E+03 0.  0.
        1    1    3    3  502    0  0.16182692880E+03  0.20410564499E+03  0.16654320217E+03  0.30916614856E+03  0.50400001928E-02 0.  1.
       -1    1    3    3    0  502 -0.16182692880E+03 -0.20410564499E+03 -0.73123572370E+03  0.77624271516E+03  0.50400001928E-02 0. -1.
</event>
<event>
 5   0  0.1206541E-02  0.8987069E+03  0.7818609E-02  0.9427199E-01
       -1   -1    0    0    0  501  0.00000000000E+00  0.00000000000E+00  0.12883315325E+04  0.12883315325E+04  0.50400001928E-02 0. -1.
        1   -1    0    0  501    0  0.00000000000E+00  0.00000000000E+00 -0.15672871004E+03  0.15672871012E+03  0.50400001928E-02 0.  1.
    10030    2    1    2    0    0  0.00000000000E+00  0.00000000000E+00  0.11316028225E+04  0.14450602427E+04  0.89870693613E+03 0.  0.
        3    1    3    3  502    0 -0.13588901985E+03  0.39950918908E+03  0.31750666231E+03  0.52809460203E+03  0.10100000352E+00 0.  1.
       -3    1    3    3    0  502  0.13588901985E+03 -0.39950918908E+03  0.81409616019E+03  0.91696564064E+03  0.10100000352E+00 0. -1.
</event>
<event>
 5   0  0.1162839E-02  0.9605990E+03  0.7818609E-02  0.9352847E-01
        1   -1    0    0  501    0  0.00000000000E+00  0.00000000000E+00  0.26178412021E+03  0.26178412026E+03  0.50400001928E-02 0. -1.
       -1   -1    0    0    0  501  0.00000000000E+00  0.00000000000E+00 -0.88121322357E+03  0.88121322359E+03  0.50400001928E-02 0.  1.
    10030    2    1    2    0    0  0.00000000000E+00  0.00000000000E+00 -0.61942910336E+03  0.11429973438E+04  0.96059903911E+03 0.  0.
        2    1    3    3  502    0 -0.30389920969E+03 -0.80773162385E+02  0.12227668688E+03  0.33738793929E+03  0.25500000920E-02 0. -1.
       -2    1    3    3    0  502  0.30389920969E+03  0.80773162385E+02 -0.74170579025E+03  0.80560940456E+03  0.25500000920E-02 0.  1.
</event>
<event>
 5   0  0.1177712E-02  0.8837843E+03  0.7818609E-02  0.9446082E-01
       -1   -1    0    0    0  501  0.00000000000E+00  0.00000000000E+00  0.19103594033E+03  0.19103594040E+03  0.50400001928E-02 0. -1.
        1   -1    0    0  501    0  0.00000000000E+00  0.00000000000E+00 -0.10221567595E+04  0.10221567595E+04  0.50400001928E-02 0.  1.
    10030    2    1    2    0    0  0.00000000000E+00  0.00000000000E+00 -0.83112081918E+03  0.12131926999E+04  0.88378431253E+03 0.  0.
        5    1    3    3  502    0  0.35738494192E+03  0.22789996322E+03 -0.24419398875E+03  0.48919851194E+03  0.46999998093E+01 0. -1.
       -5    1    3    3    0  502 -0.35738494192E+03 -0.22789996322E+03 -0.58692683043E+03  0.72399418798E+03  0.46999998093E+01 0.  1.
</event>
<event>
 5   0  0.1924218E-02  0.8751606E+03  0.7818609E-02  0.9457176E-01
       -2   -1    0    0    0  501  0.00000000000E+00  0.00000000000E+00  0.10452516607E+03  0.10452516610E+03  0.25500000920E-02 0.  1.
        2   -1    0    0  501    0  0.00000000000E+00  0.00000000000E+00 -0.18318702002E+04  0.18318702002E+04  0.25500000920E-02 0. -1.
    10030    2    1    2    0    0  0.00000000000E+00  0.00000000000E+00 -0.17273450341E+04  0.19363953662E+04  0.87516064106E+03 0.  0.
        4    1    3    3  502    0 -0.30263618077E+03  0.13648660744E+03 -0.14943951929E+04  0.15308284873E+04  0.12699999809E+01 0. -1.
       -4    1    3    3    0  502  0.30263618077E+03 -0.13648660744E+03 -0.23294984116E+03  0.40556687897E+03  0.12699999809E+01 0.  1.
</event>
<event>
 5   0  0.2008770E-02  0.9837760E+03  0.7818609E-02  0.9326520E-01
        2   -1    0    0  501    0  0.00000000000E+00  0.00000000000E+00  0.14136867672E+04  0.14136867672E+04  0.25500000920E-02 0. -1.
       -2   -1    0    0    0  501  0.00000000000E+00  0.00000000000E+00 -0.17115091352E+03  0.17115091354E+03  0.25500000920E-02 0.  1.
    10030    2    1    2    0    0  0.00000000000E+00  0.00000000000E+00  0.12425358537E+04  0.15848376808E+04  0.98377595347E+03 0.  0.
        1    1    3    3  502    0  0.39774549741E+03 -0.19933533853E+03  0.95925677856E+03  0.10574070291E+04  0.50400001928E-02 0. -1.
       -1    1    3    3    0  502 -0.39774549741E+03  0.19933533853E+03  0.28327907513E+03  0.52743065168E+03  0.50400001928E-02 0.  1.
</event>
<event>
 5   0  0.1175993E-02  0.8796160E+03  0.7818609E-02  0.9451427E-01
        1   -1    0    0  501    0  0.00000000000E+00  0.00000000000E+00  0.91381948129E+03  0.91381948131E+03  0.50400001928E-02 0.  1.
       -1   -1    0    0    0  501  0.00000000000E+00  0.00000000000E+00 -0.21167316190E+03  0.21167316196E+03  0.50400001928E-02 0. -1.
    10030    2    1    2    0    0  0.00000000000E+00  0.00000000000E+00  0.70214631939E+03  0.11254926433E+04  0.87961595951E+03 0.  0.
        4    1    3    3  502    0 -0.52003437002E+02 -0.80356931283E+02 -0.19818225517E+03  0.22008955684E+03  0.12699999809E+01 0. -1.
       -4    1    3    3    0  502  0.52003437002E+02  0.80356931283E+02  0.90032857455E+03  0.90540308643E+03  0.12699999809E+01 0.  1.
</event>
<event>
 5   0  0.1968763E-02  0.8930307E+03  0.7818609E-02  0.9434336E-01
       -2   -1    0    0    0  501  0.00000000000E+00  0.00000000000E+00  0.11597438659E+03  0.11597438662E+03  0.25500000920E-02 0.  1.
        2   -1    0    0  501    0  0.00000000000E+00  0.00000000000E+00 -0.17191376789E+04  0.17191376789E+04  0.25500000920E-02 0. -1.
    10030    2    1    2    0    0  0.00000000000E+00  0.00000000000E+00 -0.16031632923E+04  0.18351120655E+04  0.89303065525E+03 0.  0.
        2    1    3    3  502    0 -0.54716493475E+01  0.42889109639E+03 -0.10565782478E+04  0.11403223690E+04  0.25500000920E-02 0. -1.
       -2    1    3    3    0  502  0.54716493475E+01 -0.42889109639E+03 -0.54658504452E+03  0.69478969654E+03  0.25500000920E-02 0.  1.
</event>
<event>
 5   0  0.1177712E-02  0.8940087E+03  0.7818609E-02  0.9433102E-01
        1   -1    0    0  501    0  0.00000000000E+00  0.00000000000E+00  0.16394530330E+04  0.16394530330E+04  0.50400001928E-02 0.  1.
       -1   -1    0    0    0  501  0.00000000000E+00  0.00000000000E+00 -0.12187777664E+03  0.12187777674E+03  0.50400001928E-02 0. -1.
    10030    2    1    2    0    0  0.00000000000E+00  0.00000000000E+00  0.15175752564E+04  0.17613308098E+04  0.89400870390E+03 0.  0.
        5    1    3    3  502    0 -0.28500843759E+03  0.46723453857E+02  0.14308885047E+04  0.14597523398E+04  0.46999998093E+01 0.  1.
       -5    1    3    3    0  502  0.28500843759E+03 -0.46723453857E+02  0.86686751687E+02  0.30157846998E+03  0.46999998093E+01 0. -1.
</event>
<event>
 5   0  0.1968763E-02  0.8909311E+03  0.7818609E-02  0.9436990E-01
        2   -1    0    0  501    0  0.00000000000E+00  0.00000000000E+00  0.29065200364E+03  0.29065200365E+03  0.25500000920E-02 0. -1.
       -2   -1    0    0    0  501  0.00000000000E+00  0.00000000000E+00 -0.68273935623E+03  0.68273935623E+03  0.25500000920E-02 0.  1.
    10030    2    1    2    0    0  0.00000000000E+00  0.00000000000E+00 -0.39208735259E+03  0.97339135988E+03  0.89093111262E+03 0.  0.
        2    1    3    3  502    0  0.43523892128E+03  0.86574824325E+02 -0.23851925018E+03  0.50380507294E+03  0.25500000920E-02 0.  1.
       -2    1    3    3    0  502 -0.43523892128E+03 -0.86574824325E+02 -0.15356810241E+03  0.46958628695E+03  0.25500000920E-02 0. -1.
</event>
<event>
 5   0  0.1162839E-02  0.9451964E+03  0.7818609E-02  0.9370783E-01
        1   -1    0    0  501    0  0.00000000000E+00  0.00000000000E+00  0.14768152120E+04  0.14768152120E+04  0.50400001928E-02 0. -1.
       -1   -1    0    0    0  501  0.00000000000E+00  0.00000000000E+00 -0.15123697035E+03  0.15123697044E+03  0.50400001928E-02 0.  1.
    10030    2    1    2    0    0  0.00000000000E+00  0.00000000000E+00  0.13255782417E+04  0.16280521825E+04  0.94519639972E+03 0.  0.
        2    1    3    3  502    0  0.29793233431E+02  0.44943047256E+03  0.90924780963E+03  0.10146955040E+04  0.25500000920E-02 0. -1.
       -2    1    3    3    0  502 -0.29793233431E+02 -0.44943047256E+03  0.41633043203E+03  0.61335667851E+03  0.25500000920E-02 0.  1.
</event>
<event>
 5   0  0.1162839E-02  0.7463101E+03  0.7818609E-02  0.9641157E-01
       -1   -1    0    0    0  501  0.00000000000E+00  0.00000000000E+00  0.11928229795E+03  0.11928229806E+03  0.50400001928E-02 0. -1.
        1   -1    0    0  501    0  0.00000000000E+00  0.00000000000E+00 -0.11673543428E+04  0.11673543428E+04  0.50400001928E-02 0.  1.
    10030    2    1    2    0    0  0.00000000000E+00  0.00000000000E+00 -0.10480720448E+04  0.12866366409E+04  0.74631014627E+03 0.  0.
        2    1    3    3  502    0  0.10920559901E+03  0.14782378583E+03  0.35843794731E+02  0.18724986552E+03  0.25500000920E-02 0. -1.
       -2    1    3    3    0  502 -0.10920559901E+03 -0.14782378583E+03 -0.10839158396E+04  0.10993867753E+04  0.25500000920E-02 0.  1.
</event>
<event>
 5   0  0.1162839E-02  0.8778344E+03  0.7818609E-02  0.9453722E-01
       -1   -1    0    0    0  501  0.00000000000E+00  0.00000000000E+00  0.20525954511E+03  0.20525954517E+03  0.50400001928E-02 0.  1.
        1   -1    0    0  501    0  0.00000000000E+00  0.00000000000E+00 -0.93855956767E+03  0.93855956768E+03  0.50400001928E-02 0. -1.
    10030    2    1    2    0    0  0.00000000000E+00  0.00000000000E+00 -0.73330002257E+03  0.11438191129E+04  0.87783440342E+03 0.  0.
        2    1    3    3  502    0  0.10413265357E+03 -0.26777774637E+03  0.65702489514E+02  0.29472927938E+03  0.25500000920E-02 0.  1.
       -2    1    3    3    0  502 -0.10413265357E+03  0.26777774637E+03 -0.79900251208E+03  0.84908983347E+03  0.25500000920E-02 0. -1.
</event>
<event>
 5   0  0.1968763E-02  0.9136182E+03  0.7818609E-02  0.9408716E-01
       -2   -1    0    0    0  501  0.00000000000E+00  0.00000000000E+00  0.12370308577E+03  0.12370308580E+03  0.25500000920E-02 0. -1.
        2   -1    0    0  501    0  0.00000000000E+00  0.00000000000E+00 -0.16868986604E+04  0.16868986604E+04  0.25500000920E-02 0.  1.
    10030    2    1    2    0    0  0.00000000000E+00  0.00000000000E+00 -0.15631955746E+04  0.18106017462E+04  0.91361823471E+03 0.  0.
        2    1    3    3  502    0 -0.13141204880E+03  0.21908173241E+03 -0.31106195497E+02  0.25735875242E+03  0.25500000920E-02 0. -1.
       -2    1    3    3    0  502  0.13141204880E+03 -0.21908173241E+03 -0.15320893791E+04  0.15532429938E+04  0.25500000920E-02 0.  1.
</event>
<event>
 5   0  0.1177712E-02  0.9230015E+03  0.7818609E-02  0.9397276E-01
       -1   -1    0    0    0  501  0.00000000000E+00  0.00000000000E+00  0.58892463059E+03  0.58892463061E+03  0.50400001928E-02 0. -1.
        1   -1    0    0  501    0  0.00000000000E+00  0.00000000000E+00 -0.36164723454E+03  0.36164723458E+03  0.50400001928E-02 0.  1.
    10030    2    1    2    0    0  0.00000000000E+00  0.00000000000E+00  0.22727739604E+03  0.95057186518E+03  0.92300154720E+03 0.  0.
        5    1    3    3  502    0 -0.24218575275E+03 -0.32700758668E+03 -0.11051600198E+03  0.42169156651E+03  0.46999998093E+01 0.  1.
       -5    1    3    3    0  502  0.24218575275E+03  0.32700758668E+03  0.33779339802E+03  0.52888029867E+03  0.46999998093E+01 0. -1.
</event>
<event>
 5   0  0.2041861E-02  0.8887956E+03  0.7818609E-02  0.9439697E-01
       -2   -1    0    0    0  501  0.00000000000E+00  0.00000000000E+00  0.18446866058E+03  0.18446866060E+03  0.25500000920E-02 0.  1.
        2   -1    0    0  501    0  0.00000000000E+00  0.00000000000E+00 -0.10705850102E+04  0.10705850102E+04  0.25500000920E-02 0. -1.
    10030    2    1    2    0    0  0.00000000000E+00  0.00000000000E+00 -0.88611634966E+03  0.12550536708E+04  0.88879555104E+03 0.  0.
        5    1    3    3  502    0 -0.34412343438E+02  0.24715329007E+03  0.76155470338E+02  0.26094195491E+03  0.46999998093E+01 0.  1.
       -5    1    3    3    0  502  0.34412343438E+02 -0.24715329007E+03 -0.96227182000E+03  0.99411171593E+03  0.46999998093E+01 0. -1.
</event>
<event>
 5   0  0.2041861E-02  0.9071075E+03  0.7818609E-02  0.9416740E-01
        2   -1    0    0  501    0  0.00000000000E+00  0.00000000000E+00  0.10189029090E+04  0.10189029090E+04  0.25500000920E-02 0. -1.
       -2   -1    0    0    0  501  0.00000000000E+00  0.00000000000E+00 -0.20189459188E+03  0.20189459190E+03  0.25500000920E-02 0.  1.
    10030    2    1    2    0    0  0.00000000000E+00  0.00000000000E+00  0.81700831713E+03  0.12207975009E+04  0.90710746221E+03 0.  0.
        5    1    3    3  502    0 -0.25047392733E+03 -0.17835057779E+03 -0.40164279654E+02  0.31013122420E+03  0.46999998093E+01 0.  1.
       -5    1    3    3    0  502  0.25047392733E+03  0.17835057779E+03  0.85717259679E+03  0.91066627672E+03  0.46999998093E+01 0. -1.
</event>
<event>
 5   0  0.1924218E-02  0.9783234E+03  0.7818609E-02  0.9332644E-01
        2   -1    0    0  501    0  0.00000000000E+00  0.00000000000E+00  0.39501325878E+03  0.39501325878E+03  0.25500000920E-02 0.  1.
       -2   -1    0    0    0  501  0.00000000000E+00  0.00000000000E+00 -0.60574977363E+03  0.60574977364E+03  0.25500000920E-02 0. -1.
    10030    2    1    2    0    0  0.00000000000E+00  0.00000000000E+00 -0.21073651485E+03  0.10007630324E+04  0.97832344772E+03 0.  0.
        4    1    3    3  502    0  0.16250641575E+03  0.20351014483E+03 -0.52893432916E+03  0.58957429699E+03  0.12699999809E+01 0. -1.
       -4    1    3    3    0  502 -0.16250641575E+03 -0.20351014483E+03  0.31819781431E+03  0.41118873542E+03  0.12699999809E+01 0.  1.
</event>
<event>
 5   0  0.1175993E-02  0.9005419E+03  0.7818609E-02  0.9424904E-01
        1   -1    0    0  501    0  0.00000000000E+00  0.00000000000E+00  0.95032612271E+03  0.95032612273E+03  0.50400001928E-02 0.  1.
       -1   -1    0    0    0  501  0.00000000000E+00  0.00000000000E+00 -0.21334140547E+03  0.21334140553E+03  0.50400001928E-02 0. -1.
    10030    2    1    2    0    0  0.00000000000E+00  0.00000000000E+00  0.73698471725E+03  0.11636675283E+04  0.90054186069E+03 0.  0.
        4    1    3    3  502    0 -0.56422141335E+02 -0.13897018977E+03  0.91709510843E+03  0.92927994840E+03  0.12699999809E+01 0.  1.
       -4    1    3    3    0  502  0.56422141335E+02  0.13897018977E+03 -0.18011039119E+03  0.23438757986E+03  0.12699999809E+01 0. -1.
</event>
<event>
 5   0  0.7893875E-03  0.8968150E+03  0.7818609E-02  0.9429572E-01
        4   -1    0    0  501    0  0.00000000000E+00  0.00000000000E+00  0.11419170154E+03  0.11419876357E+03  0.12699999809E+01 0. -1.
       -4   -1    0    0    0  501  0.00000000000E+00  0.00000000000E+00 -0.17607429921E+04  0.17607434501E+04  0.12699999809E+01 0.  1.
    10030    2    1    2    0    0  0.00000000000E+00  0.00000000000E+00 -0.16465512906E+04  0.18749422137E+04  0.89681500446E+03 0.  0.
        5    1    3    3  502    0  0.16001850982E+03  0.39778955397E+03 -0.10975019715E+04  0.11782933083E+04  0.46999998093E+01 0.  1.
       -5    1    3    3    0  502 -0.16001850982E+03 -0.39778955397E+03 -0.54904931903E+03  0.69664890544E+03  0.46999998093E+01 0. -1.
</event>
<event>
 5   0  0.7893875E-03  0.9204029E+03  0.7818609E-02  0.9400430E-01
        3   -1    0    0  501    0  0.00000000000E+00  0.00000000000E+00  0.46486772047E+03  0.46486773144E+03  0.10100000352E+00 0.  1.
       -3   -1    0    0    0  501  0.00000000000E+00  0.00000000000E+00 -0.45558195968E+03  0.45558197087E+03  0.10100000352E+00 0. -1.
    10030    2    1    2    0    0  0.00000000000E+00  0.00000000000E+00  0.92857607928E+01  0.92044970231E+03  0.92040286241E+03 0.  0.
        1    1    3    3  502    0 -0.36409868852E+03  0.21939295079E+03  0.18095907165E+03  0.46200357950E+03  0.50400001928E-02 0. -1.
       -1    1    3    3    0  502  0.36409868852E+03 -0.21939295079E+03 -0.17167331086E+03  0.45844612281E+03  0.50400001928E-02 0.  1.
</event>
<event>
 5   0  0.1968763E-02  0.9061885E+03  0.7818609E-02  0.9417878E-01
        2   -1    0    0  501    0  0.00000000000E+00  0.00000000000E+00  0.28761432040E+03  0.28761432041E+03  0.25500000920E-02 0.  1.
       -2   -1    0    0    0  501  0.00000000000E+00  0.00000000000E+00 -0.71378363522E+03  0.71378363522E+03  0.25500000920E-02 0. -1.
    10030    2    1    2    0    0  0.00000000000E+00  0.00000000000E+00 -0.42616931482E+03  0.10013979556E+04  0.90618849069E+03 0.  0.
        2    1    3    3  502    0 -0.55921957289E+02 -0.35091885203E+03 -0.52373022401E+03  0.63290177245E+03  0.25500000920E-02 0.  1.
       -2    1    3    3    0  502  0.55921957289E+02  0.35091885203E+03  0.97560909192E+02  0.36849618319E+03  0.25500000920E-02 0. -1.
</event>
<event>
 5   0  0.1162839E-02  0.8784148E+03  0.7818609E-02  0.9452974E-01
       -1   -1    0    0    0  501  0.00000000000E+00  0.00000000000E+00  0.96716409734E+03  0.96716409736E+03  0.50400001928E-02 0.  1.
        1   -1    0    0  501    0  0.00000000000E+00  0.00000000000E+00 -0.19945232373E+03  0.19945232380E+03  0.50400001928E-02 0. -1.
    10030    2    1    2    0    0  0.00000000000E+00  0.00000000000E+00  0.76771177361E+03  0.11666164212E+04  0.87841476921E+03 0.  0.
        2    1    3    3  502    0  0.34967274392E+03 -0.14574439261E+03  0.67901141279E+03  0.77754032341E+03  0.25500000920E-02 0.  1.
       -2    1    3    3    0  502 -0.34967274392E+03  0.14574439261E+03  0.88700360821E+02  0.38907609775E+03  0.25500000920E-02 0. -1.
</event>
<event>
 5   0  0.2008643E-02  0.8746677E+03  0.7818609E-02  0.9457814E-01
        2   -1    0    0  501    0  0.00000000000E+00  0.00000000000E+00  0.22058716685E+04  0.22058716685E+04  0.25500000920E-02 0.  1.
       -2   -1    0    0    0  501  0.00000000000E+00  0.00000000000E+00 -0.86705364332E+02  0.86705364370E+02  0.25500000920E-02 0. -1.
    10030    2    1    2    0    0  0.00000000000E+00  0.00000000000E+00  0.21191663042E+04  0.22925770329E+04  0.87466772373E+03 0.  0.
        3    1    3    3  502    0 -0.10142085514E+03 -0.19973477348E+03  0.75085508796E+02  0.23625836160E+03  0.10100000352E+00 0. -1.
       -3    1    3    3    0  502  0.10142085514E+03  0.19973477348E+03  0.20440807954E+04  0.20563186713E+04  0.10100000352E+00 0.  1.
</event>
<event>
 5   0  0.2041861E-02  0.8796688E+03  0.7818609E-02  0.9451359E-01
       -2   -1    0    0    0  501  0.00000000000E+00  0.00000000000E+00  0.36070755218E+03  0.36070755219E+03  0.25500000920E-02 0.  1.
        2   -1    0    0  501    0  0.00000000000E+00  0.00000000000E+00 -0.53631894731E+03  0.53631894732E+03  0.25500000920E-02 0. -1.
    10030    2    1    2    0    0  0.00000000000E+00  0.00000000000E+00 -0.17561139513E+03  0.89702649951E+03  0.87966878922E+03 0.  0.
        5    1    3    3  502    0 -0.20495563915E+03  0.32203616622E+03 -0.31056079618E+03  0.49212214387E+03  0.46999998093E+01 0. -1.
       -5    1    3    3    0  502  0.20495563915E+03 -0.32203616622E+03  0.13494940105E+03  0.40490435563E+03  0.46999998093E+01 0.  1.
</event>
<event>
 5   0  0.1177712E-02  0.8841472E+03  0.7818609E-02  0.9445618E-01
        1   -1    0    0  501    0  0.00000000000E+00  0.00000000000E+00  0.20057234858E+03  0.20057234864E+03  0.50400001928E-02 0.  1.
       -1   -1    0    0    0  501  0.00000000000E+00  0.00000000000E+00 -0.97435687392E+03  0.97435687393E+03  0.50400001928E-02 0. -1.
    10030    2    1    2    0    0  0.00000000000E+00  0.00000000000E+00 -0.77378452534E+03  0.11749292226E+04  0.88414715200E+03 0.  0.
        5    1    3    3  502    0 -0.24952179181E+03  0.26776029215E+01 -0.87177781950E+03  0.90680039188E+03  0.46999998093E+01 0. -1.
       -5    1    3    3    0  502  0.24952179181E+03 -0.26776029215E+01  0.97993294162E+02  0.26812883069E+03  0.46999998093E+01 0.  1.
</event>
<event>
 5   0  0.1206541E-02  0.7430503E+03  0.7818609E-02  0.9646317E-01
       -1   -1    0    0    0  501  0.00000000000E+00  0.00000000000E+00  0.88278570235E+02  0.88278570379E+02  0.50400001928E-02 0. -1.
        1   -1    0    0  501    0  0.00000000000E+00  0.00000000000E+00 -0.15635835798E+04  0.15635835798E+04  0.50400001928E-02 0.  1.
    10030    2    1    2    0    0  0.00000000000E+00  0.00000000000E+00 -0.14753050096E+04  0.16518621502E+04  0.74305026209E+03 0.  0.
        3    1    3    3  502    0  0.84652166655E+02 -0.21187129790E+03 -0.13894953552E+04  0.14081025490E+04  0.10100000352E+00 0.  1.
       -3    1    3    3    0  502 -0.84652166655E+02  0.21187129790E+03 -0.85809654393E+02  0.24375960121E+03  0.10100000352E+00 0. -1.
</event>
<event>
 5   0  0.2008643E-02  0.9046150E+03  0.7818609E-02  0.9419831E-01
       -2   -1    0    0    0  501  0.00000000000E+00  0.00000000000E+00  0.16556778714E+03  0.16556778716E+03  0.25500000920E-02 0.  1.
        2   -1    0    0  501    0  0.00000000000E+00  0.00000000000E+00 -0.12356393603E+04  0.12356393603E+04  0.25500000920E-02 0. -1.
    10030    2    1    2    0    0  0.00000000000E+00  0.00000000000E+00 -0.10700715732E+04  0.14012071475E+04  0.90461500011E+03 0.  0.
        3    1    3    3  502    0  0.28104369733E+02  0.23321621247E+03 -0.11337469506E+04  0.11578263322E+04  0.10100000352E+00 0. -1.
       -3    1    3    3    0  502 -0.28104369733E+02 -0.23321621247E+03  0.63675377420E+02  0.24338081528E+03  0.10100000352E+00 0.  1.
</event>
<event>
 5   0  0.1924218E-02  0.8973931E+03  0.7818609E-02  0.9428846E-01
       -2   -1    0    0    0  501  0.00000000000E+00  0.00000000000E+00  0.10599633894E+03  0.10599633897E+03  0.25500000920E-02 0. -1.
        2   -1    0    0  501    0  0.00000000000E+00  0.00000000000E+00 -0.18993919968E+04  0.18993919968E+04  0.25500000920E-02 0.  1.
    10030    2    1    2    0    0  0.00000000000E+00  0.00000000000E+00 -0.17933956578E+04  0.20053883358E+04  0.89739310873E+03 0.  0.
        4    1    3    3  502    0 -0.33981910272E+03  0.23405627813E+03 -0.50281254592E+03  0.65044710249E+03  0.12699999809E+01 0. -1.
       -4    1    3    3    0  502  0.33981910272E+03 -0.23405627813E+03 -0.12905831119E+04  0.13549412333E+04  0.12699999809E+01 0.  1.
</event>
<event>
 5   0  0.2008770E-02  0.9619339E+03  0.7818609E-02  0.9351309E-01
       -2   -1    0    0    0  501  0.00000000000E+00  0.00000000000E+00  0.28265256431E+03  0.28265256432E+03  0.25500000920E-02 0. -1.
        2   -1    0    0  501    0  0.00000000000E+00  0.00000000000E+00 -0.81842247712E+03  0.81842247712E+03  0.25500000920E-02 0.  1.
    10030    2    1    2    0    0  0.00000000000E+00  0.00000000000E+00 -0.53576991281E+03  0.11010750414E+04  0.96193391011E+03 0.  0.
        1    1    3    3  502    0  0.22953184979E+02 -0.20780447415E+03  0.22791999569E+03  0.30928477595E+03  0.50400001928E-02 0. -1.
       -1    1    3    3    0  502 -0.22953184979E+02  0.20780447415E+03 -0.76368990849E+03  0.79179026550E+03  0.50400001928E-02 0.  1.
</event>
<event>
 5   0  0.1968763E-02  0.9057280E+03  0.7818609E-02  0.9418449E-01
       -2   -1    0    0    0  501  0.00000000000E+00  0.00000000000E+00  0.19231113025E+03  0.19231113027E+03  0.25500000920E-02 0. -1.
        2   -1    0    0  501    0  0.00000000000E+00  0.00000000000E+00 -0.10664271992E+04  0.10664271992E+04  0.25500000920E-02 0.  1.
    10030    2    1    2    0    0  0.00000000000E+00  0.00000000000E+00 -0.87411606899E+03  0.12587383295E+04  0.90572803872E+03 0.  0.
        2    1    3    3  502    0  0.15289793562E+03  0.39397325033E+03 -0.21085199691E+03  0.47228303516E+03  0.25500000920E-02 0. -1.
       -2    1    3    3    0  502 -0.15289793562E+03 -0.39397325033E+03 -0.66326407207E+03  0.78645529435E+03  0.25500000920E-02 0.  1.
</event>
<event>
 5   0  0.1226424E-02  0.8465762E+03  0.7818609E-02  0.9494944E-01
       -1   -1    0    0    0  501  0.00000000000E+00  0.00000000000E+00  0.39250363561E+03  0.39250363564E+03  0.50400001928E-02 0. -1.
        1   -1    0    0  501    0  0.00000000000E+00  0.00000000000E+00 -0.45648702949E+03  0.45648702951E+03  0.50400001928E-02 0.  1.
    10030    2    1    2    0    0  0.00000000000E+00  0.00000000000E+00 -0.63983393875E+02  0.84899066516E+03  0.84657620734E+03 0.  0.
        1    1    3    3  502    0  0.34250516736E+03 -0.76652974782E+02 -0.26928299618E+03  0.44237857121E+03  0.50400001928E-02 0.  1.
       -1    1    3    3    0  502 -0.34250516736E+03  0.76652974782E+02  0.20529960231E+03  0.40661209394E+03  0.50400001928E-02 0. -1.
</event>
<event>
 5   0  0.1924218E-02  0.9138164E+03  0.7818609E-02  0.9408473E-01
        2   -1    0    0  501    0  0.00000000000E+00  0.00000000000E+00  0.17359355386E+04  0.17359355386E+04  0.25500000920E-02 0.  1.
       -2   -1    0    0    0  501  0.00000000000E+00  0.00000000000E+00 -0.12026086671E+03  0.12026086673E+03  0.25500000920E-02 0. -1.
    10030    2    1    2    0    0  0.00000000000E+00  0.00000000000E+00  0.16156746719E+04  0.18561964053E+04  0.91381642017E+03 0.  0.
        4    1    3    3  502    0  0.24771233075E+03  0.30885671023E+03  0.34459646916E+03  0.52488304003E+03  0.12699999809E+01 0. -1.
       -4    1    3    3    0  502 -0.24771233075E+03 -0.30885671023E+03  0.12710782027E+04  0.13313133653E+04  0.12699999809E+01 0.  1.
</event>
<event>
 5   0  0.1924218E-02  0.9180921E+03  0.7818609E-02  0.9403244E-01
        2   -1    0    0  501    0  0.00000000000E+00  0.00000000000E+00  0.54096959272E+03  0.54096959273E+03  0.25500000920E-02 0. -1.
       -2   -1    0    0    0  501  0.00000000000E+00  0.00000000000E+00 -0.38952885566E+03  0.38952885567E+03  0.25500000920E-02 0.  1.
    10030    2    1    2    0    0  0.00000000000E+00  0.00000000000E+00  0.15144073706E+03  0.93049844839E+03  0.91809207905E+03 0.  0.
        4    1    3    3  502    0  0.33495668829E+03  0.23356454450E+03 -0.13681137934E+03  0.43065919925E+03  0.12699999809E+01 0.  1.
       -4    1    3    3    0  502 -0.33495668829E+03 -0.23356454450E+03  0.28825211641E+03  0.49983924915E+03  0.12699999809E+01 0. -1.
</event>
<event>
 5   0  0.2008643E-02  0.9004889E+03  0.7818609E-02  0.9424971E-01
       -2   -1    0    0    0  501  0.00000000000E+00  0.00000000000E+00  0.17649268478E+03  0.17649268480E+03  0.25500000920E-02 0.  1.
        2   -1    0    0  501    0  0.00000000000E+00  0.00000000000E+00 -0.11486031065E+04  0.11486031065E+04  0.25500000920E-02 0. -1.
    10030    2    1    2    0    0  0.00000000000E+00  0.00000000000E+00 -0.97211042173E+03  0.13250957913E+04  0.90048885841E+03 0.  0.
        3    1    3    3  502    0  0.17872995186E+03 -0.29624560439E+03 -0.62075497093E+02  0.35150993066E+03  0.10100000352E+00 0.  1.
       -3    1    3    3    0  502 -0.17872995186E+03  0.29624560439E+03 -0.91003492464E+03  0.97358586066E+03  0.10100000352E+00 0. -1.
</event>
<event>
 5   0  0.1206541E-02  0.8882259E+03  0.7818609E-02  0.9440421E-01
       -1   -1    0    0    0  501  0.00000000000E+00  0.00000000000E+00  0.10572507334E+03  0.10572507346E+03  0.50400001928E-02 0. -1.
        1   -1    0    0  501    0  0.00000000000E+00  0.00000000000E+00 -0.18655583904E+04  0.18655583905E+04  0.50400001928E-02 0.  1.
    10030    2    1    2    0    0  0.00000000000E+00  0.00000000000E+00 -0.17598333171E+04  0.19712834639E+04  0.88822586715E+03 0.  0.
        3    1    3    3  502    0  0.28432283691E+03  0.87492439290E+02 -0.16117700518E+04  0.16389927128E+04  0.10100000352E+00 0.  1.
       -3    1    3    3    0  502 -0.28432283691E+03 -0.87492439290E+02 -0.14806326526E+03  0.33229075107E+03  0.10100000352E+00 0. -1.
</event>
<event>
 5   0  0.7893875E-03  0.9008716E+03  0.7818609E-02  0.9424493E-01
       -4   -1    0    0    0  501  0.00000000000E+00  0.00000000000E+00  0.43658407896E+03  0.43658592614E+03  0.12699999809E+01 0.  1.
        4   -1    0    0  501    0  0.00000000000E+00  0.00000000000E+00 -0.46472326786E+03  0.46472500319E+03  0.12699999809E+01 0. -1.
    10030    2    1    2    0    0  0.00000000000E+00  0.00000000000E+00 -0.28139188899E+02  0.90131092932E+03  0.90087156541E+03 0.  0.
        4    1    3    3  502    0 -0.23924521892E+03  0.31675304800E+03 -0.22705839711E+03  0.45730503692E+03  0.12699999809E+01 0.  1.
       -4    1    3    3    0  502  0.23924521892E+03 -0.31675304800E+03  0.19891920821E+03  0.44400589240E+03  0.12699999809E+01 0. -1.
</event>
<event>
 5   0  0.2008770E-02  0.8054886E+03  0.7818609E-02  0.9552106E-01
        2   -1    0    0  501    0  0.00000000000E+00  0.00000000000E+00  0.93211161197E+03  0.93211161197E+03  0.25500000920E-02 0.  1.
       -2   -1    0    0    0  501  0.00000000000E+00  0.00000000000E+00 -0.17401669708E+03  0.17401669710E+03  0.25500000920E-02 0. -1.
    10030    2    1    2    0    0  0.00000000000E+00  0.00000000000E+00  0.75809491489E+03  0.11061283091E+04  0.80548863191E+03 0.  0.
        1    1    3    3  502    0 -0.19563963484E+03  0.18510198463E+02 -0.10371093617E+03  0.22220137820E+03  0.50400001928E-02 0. -1.
       -1    1    3    3    0  502  0.19563963484E+03 -0.18510198463E+02  0.86180585106E+03  0.88392693087E+03  0.50400001928E-02 0.  1.
</event>
<event>
 5   0  0.1924218E-02  0.9108132E+03  0.7818609E-02  0.9412164E-01
       -2   -1    0    0    0  501  0.00000000000E+00  0.00000000000E+00  0.38731188874E+03  0.38731188875E+03  0.25500000920E-02 0.  1.
        2   -1    0    0  501    0  0.00000000000E+00  0.00000000000E+00 -0.53547332779E+03  0.53547332780E+03  0.25500000920E-02 0. -1.
    10030    2    1    2    0    0  0.00000000000E+00  0.00000000000E+00 -0.14816143905E+03  0.92278521655E+03  0.91081323215E+03 0.  0.
        4    1    3    3  502    0 -0.38604703393E+03  0.46214867654E+02 -0.31431653475E+03  0.49996462206E+03  0.12699999809E+01 0. -1.
       -4    1    3    3    0  502  0.38604703393E+03 -0.46214867654E+02  0.16615509570E+03  0.42282059449E+03  0.12699999809E+01 0.  1.
</event>
<event>
 5   0  0.2008643E-02  0.9046026E+03  0.7818609E-02  0.9419846E-01
        2   -1    0    0  501    0  0.00000000000E+00  0.00000000000E+00  0.14609295729E+04  0.14609295729E+04  0.25500000920E-02 0.  1.
       -2   -1    0    0    0  501  0.00000000000E+00  0.00000000000E+00 -0.14003170953E+03  0.14003170955E+03  0.25500000920E-02 0. -1.
    10030    2    1    2    0    0  0.00000000000E+00  0.00000000000E+00  0.13208978633E+04  0.16009612824E+04  0.90460259917E+03 0.  0.
        3    1    3    3  502    0  0.38887861184E+02 -0.45033000781E+03  0.63152624848E+03  0.77661753418E+03  0.10100000352E+00 0.  1.
       -3    1    3    3    0  502 -0.38887861184E+02  0.45033000781E+03  0.68937161484E+03  0.82434374822E+03  0.10100000352E+00 0. -1.
</event>
<event>
 5   0  0.1226424E-02  0.8990849E+03  0.7818609E-02  0.9426726E-01
        1   -1    0    0  501    0  0.00000000000E+00  0.00000000000E+00  0.78047913024E+03  0.78047913026E+03  0.50400001928E-02 0. -1.
       -1   -1    0    0    0  501  0.00000000000E+00  0.00000000000E+00 -0.25892866560E+03  0.25892866565E+03  0.50400001928E-02 0.  1.
    10030    2    1    2    0    0  0.00000000000E+00  0.00000000000E+00  0.52155046464E+03  0.10394077959E+04  0.89908491203E+03 0.  0.
        1    1    3    3  502    0 -0.35744535004E+03  0.16297804072E+03  0.51342254896E+03  0.64647639851E+03  0.50400001928E-02 0.  1.
       -1    1    3    3    0  502  0.35744535004E+03 -0.16297804072E+03  0.81279156738E+01  0.39293139740E+03  0.50400001928E-02 0. -1.
</event>
<event>
 5   0  0.1968763E-02  0.9252734E+03  0.7818609E-02  0.9394528E-01
        2   -1    0    0  501    0  0.00000000000E+00  0.00000000000E+00  0.17067706946E+04  0.17067706946E+04  0.25500000920E-02 0. -1.
       -2   -1    0    0    0  501  0.00000000000E+00  0.00000000000E+00 -0.12540216105E+03  0.12540216107E+03  0.25500000920E-02 0.  1.
    10030    2    1    2    0    0  0.00000000000E+00  0.00000000000E+00  0.15813685335E+04  0.18321728556E+04  0.92527343750E+03 0.  0.
        2    1    3    3  502    0 -0.44083376212E+03  0.12311603489E+03  0.92411660171E+03  0.10312533430E+04  0.25500000920E-02 0. -1.
       -2    1    3    3    0  502  0.44083376212E+03 -0.12311603489E+03  0.65725193180E+03  0.80091951264E+03  0.25500000920E-02 0.  1.
</event>
<event>
 5   0  0.1175993E-02  0.9067758E+03  0.7818609E-02  0.9417151E-01
        1   -1    0    0  501    0  0.00000000000E+00  0.00000000000E+00  0.24839418348E+03  0.24839418353E+03  0.50400001928E-02 0. -1.
       -1   -1    0    0    0  501  0.00000000000E+00  0.00000000000E+00 -0.82755795675E+03  0.82755795677E+03  0.50400001928E-02 0.  1.
    10030    2    1    2    0    0  0.00000000000E+00  0.00000000000E+00 -0.57916377327E+03  0.10759521403E+04  0.90677578923E+03 0.  0.
        4    1    3    3  502    0 -0.28688792598E+03 -0.35054477070E+03 -0.31248764207E+03  0.55030578561E+03  0.12699999809E+01 0. -1.
       -4    1    3    3    0  502  0.28688792598E+03  0.35054477070E+03 -0.26667613121E+03  0.52564635468E+03  0.12699999809E+01 0.  1.
</event>
<event>
 5   0  0.1162839E-02  0.8968135E+03  0.7818609E-02  0.9429573E-01
        1   -1    0    0  501    0  0.00000000000E+00  0.00000000000E+00  0.46017128153E+03  0.46017128156E+03  0.50400001928E-02 0.  1.
       -1   -1    0    0    0  501  0.00000000000E+00  0.00000000000E+00 -0.43694300122E+03  0.43694300124E+03  0.50400001928E-02 0. -1.
    10030    2    1    2    0    0  0.00000000000E+00  0.00000000000E+00  0.23228280319E+02  0.89711428281E+03  0.89681351652E+03 0.  0.
        2    1    3    3  502    0 -0.24077737409E+03 -0.10736666743E+03  0.37445782344E+03  0.45795196985E+03  0.25500000920E-02 0.  1.
       -2    1    3    3    0  502  0.24077737409E+03  0.10736666743E+03 -0.35122954313E+03  0.43916231295E+03  0.25500000920E-02 0. -1.
</event>
<event>
 5   0  0.2041861E-02  0.8980874E+03  0.7818609E-02  0.9427975E-01
       -2   -1    0    0    0  501  0.00000000000E+00  0.00000000000E+00  0.17114525225E+03  0.17114525227E+03  0.25500000920E-02 0.  1.
        2   -1    0    0  501    0  0.00000000000E+00  0.00000000000E+00 -0.11781820663E+04  0.11781820663E+04  0.25500000920E-02 0. -1.
    10030    2    1    2    0    0  0.00000000000E+00  0.00000000000E+00 -0.10070368141E+04  0.13493273186E+04  0.89808744998E+03 0.  0.
        5    1    3    3  502    0 -0.19465336264E+03  0.16416364628E+03 -0.10591765353E+04  0.10893652543E+04  0.46999998093E+01 0. -1.
       -5    1    3    3    0  502  0.19465336264E+03 -0.16416364628E+03  0.52139721227E+02  0.25996206430E+03  0.46999998093E+01 0.  1.
</event>
<event>
 5   0  0.1226424E-02  0.8994443E+03  0.7818609E-02  0.9426276E-01
       -1   -1    0    0    0  501  0.00000000000E+00  0.00000000000E+00  0.10034703987E+03  0.10034704000E+03  0.50400001928E-02 0.  1.
        1   -1    0    0  501    0  0.00000000000E+00  0.00000000000E+00 -0.20155054821E+04  0.20155054821E+04  0.50400001928E-02 0. -1.
    10030    2    1    2    0    0  0.00000000000E+00  0.00000000000E+00 -0.19151584423E+04  0.21158525221E+04  0.89944429314E+03 0.  0.
        1    1    3    3  502    0  0.44689011265E+03 -0.15774867735E+02 -0.10701604095E+04  0.11598288328E+04  0.50400001928E-02 0. -1.
       -1    1    3    3    0  502 -0.44689011265E+03  0.15774867735E+02 -0.84499803274E+03  0.95602368935E+03  0.50400001928E-02 0.  1.
</event>
<event>
 5   0  0.1924218E-02  0.8953539E+03  0.7818609E-02  0.9431408E-01
       -2   -1    0    0    0  501  0.00000000000E+00  0.00000000000E+00  0.23178657547E+03  0.23178657548E+03  0.25500000920E-02 0. -1.
        2   -1    0    0  501    0  0.00000000000E+00  0.00000000000E+00 -0.86465169995E+03  0.86465169995E+03  0.25500000920E-02 0.  1.
    10030    2    1    2    0    0  0.00000000000E+00  0.00000000000E+00 -0.63286512448E+03  0.10964382754E+04  0.89535391107E+03 0.  0.
        4    1    3    3  502    0  0.56415986386E+02  0.22566174176E+03  0.15197305236E+03  0.27785501031E+03  0.12699999809E+01 0. -1.
       -4    1    3    3    0  502 -0.56415986386E+02 -0.22566174176E+03 -0.78483817684E+03  0.81858326512E+03  0.12699999809E+01 0.  1.
</event>
<event>
 5   0  0.1177712E-02  0.9036444E+03  0.7818609E-02  0.9421037E-01
        1   -1    0    0  501    0  0.00000000000E+00  0.00000000000E+00  0.28616998128E+03  0.28616998132E+03  0.50400001928E-02 0.  1.
       -1   -1    0    0    0  501  0.00000000000E+00  0.00000000000E+00 -0.71336382127E+03  0.71336382128E+03  0.50400001928E-02 0. -1.
    10030    2    1    2    0    0  0.00000000000E+00  0.00000000000E+00 -0.42719383999E+03  0.99953380261E+03  0.90364442433E+03 0.  0.
        5    1    3    3  502    0 -0.14203057130E+03  0.21725705836E+03 -0.62263172076E+03  0.67458554853E+03  0.46999998093E+01 0. -1.
       -5    1    3    3    0  502  0.14203057130E+03 -0.21725705836E+03  0.19543788077E+03  0.32494825408E+03  0.46999998093E+01 0.  1.
</event>
<event>
 5   0  0.2008643E-02  0.9157982E+03  0.7818609E-02  0.9406046E-01
       -2   -1    0    0    0  501  0.00000000000E+00  0.00000000000E+00  0.25620241328E+03  0.25620241329E+03  0.25500000920E-02 0.  1.
        2   -1    0    0  501    0  0.00000000000E+00  0.00000000000E+00 -0.81838252060E+03  0.81838252060E+03  0.25500000920E-02 0. -1.
    10030    2    1    2    0    0  0.00000000000E+00  0.00000000000E+00 -0.56218010732E+03  0.10745849339E+04  0.91579818033E+03 0.  0.
        3    1    3    3  502    0  0.35259950723E+03  0.25078431882E+03 -0.45691162547E+03  0.62927532190E+03  0.10100000352E+00 0. -1.
       -3    1    3    3    0  502 -0.35259950723E+03 -0.25078431882E+03 -0.10526848184E+03  0.44530961199E+03  0.10100000352E+00 0.  1.
</event>
<event>
 5   0  0.2008643E-02  0.8700004E+03  0.7818609E-02  0.9463879E-01
        2   -1    0    0  501    0  0.00000000000E+00  0.00000000000E+00  0.61864235497E+03  0.61864235497E+03  0.25500000920E-02 0. -1.
       -2   -1    0    0    0  501  0.00000000000E+00  0.00000000000E+00 -0.30587170752E+03  0.30587170753E+03  0.25500000920E-02 0.  1.
    10030    2    1    2    0    0  0.00000000000E+00  0.00000000000E+00  0.31277064745E+03  0.92451406250E+03  0.87000044474E+03 0.  0.
        3    1    3    3  502    0 -0.32539785893E+03  0.27595505405E+03  0.66276923047E+02  0.43177262440E+03  0.10100000352E+00 0. -1.
       -3    1    3    3    0  502  0.32539785893E+03 -0.27595505405E+03  0.24649372440E+03  0.49274143810E+03  0.10100000352E+00 0.  1.
</event>
<event>
 5   0  0.1206541E-02  0.9549311E+03  0.7818609E-02  0.9359405E-01
       -1   -1    0    0    0  501  0.00000000000E+00  0.00000000000E+00  0.35816597970E+03  0.35816597974E+03  0.50400001928E-02 0. -1.
        1   -1    0    0  501    0  0.00000000000E+00  0.00000000000E+00 -0.63650194970E+03  0.63650194972E+03  0.50400001928E-02 0.  1.
    10030    2    1    2    0    0  0.00000000000E+00  0.00000000000E+00 -0.27833597000E+03  0.99466792946E+03  0.95493108532E+03 0.  0.
        3    1    3    3  502    0  0.72088332058E+02  0.16493933393E+03  0.32146921130E+03  0.36843476425E+03  0.10100000352E+00 0. -1.
       -3    1    3    3    0  502 -0.72088332058E+02 -0.16493933393E+03 -0.59980518130E+03  0.62623316521E+03  0.10100000352E+00 0.  1.
</event>
<event>
 5   0  0.1968763E-02  0.8880389E+03  0.7818609E-02  0.9440658E-01
       -2   -1    0    0    0  501  0.00000000000E+00  0.00000000000E+00  0.12510247939E+03  0.12510247941E+03  0.25500000920E-02 0.  1.
        2   -1    0    0  501    0  0.00000000000E+00  0.00000000000E+00 -0.15759340758E+04  0.15759340758E+04  0.25500000920E-02 0. -1.
    10030    2    1    2    0    0  0.00000000000E+00  0.00000000000E+00 -0.14508315964E+04  0.17010365552E+04  0.88803887361E+03 0.  0.
        2    1    3    3  502    0  0.20667484809E+03  0.14832805406E+03 -0.28328374024E+02  0.25596523443E+03  0.25500000920E-02 0.  1.
       -2    1    3    3    0  502 -0.20667484809E+03 -0.14832805406E+03 -0.14225032224E+04  0.14450713208E+04  0.25500000920E-02 0. -1.
</event>
<event>
 5   0  0.1924218E-02  0.8822188E+03  0.7818609E-02  0.9448086E-01
       -2   -1    0    0    0  501  0.00000000000E+00  0.00000000000E+00  0.35193496239E+03  0.35193496240E+03  0.25500000920E-02 0.  1.
        2   -1    0    0  501    0  0.00000000000E+00  0.00000000000E+00 -0.55287918082E+03  0.55287918083E+03  0.25500000920E-02 0. -1.
    10030    2    1    2    0    0  0.00000000000E+00  0.00000000000E+00 -0.20094421843E+03  0.90481414323E+03  0.88221882482E+03 0.  0.
        4    1    3    3  502    0 -0.69672203737E+02 -0.12789455225E+02 -0.54700581895E+03  0.55157480454E+03  0.12699999809E+01 0. -1.
       -4    1    3    3    0  502  0.69672203737E+02  0.12789455225E+02  0.34606160052E+03  0.35323933868E+03  0.12699999809E+01 0.  1.
</event>
<event>
 5   0  0.1924218E-02  0.8816114E+03  0.7818609E-02  0.9448865E-01
       -2   -1    0    0    0  501  0.00000000000E+00  0.00000000000E+00  0.85373308164E+03  0.85373308164E+03  0.25500000920E-02 0.  1.
        2   -1    0    0  501    0  0.00000000000E+00  0.00000000000E+00 -0.22760002971E+03  0.22760002973E+03  0.25500000920E-02 0. -1.
    10030    2    1    2    0    0  0.00000000000E+00  0.00000000000E+00  0.62613305193E+03  0.10813331114E+04  0.88161142179E+03 0.  0.
        4    1    3    3  502    0 -0.64667738950E+02 -0.56889718786E+02 -0.21717652201E+03  0.23363563764E+03  0.12699999809E+01 0. -1.
       -4    1    3    3    0  502  0.64667738950E+02  0.56889718786E+02  0.84330957394E+03  0.84769747373E+03  0.12699999809E+01 0.  1.
</event>
<event>
 5   0  0.1162839E-02  0.9069499E+03  0.7818609E-02  0.9416935E-01
        1   -1    0    0  501    0  0.00000000000E+00  0.00000000000E+00  0.65807785780E+03  0.65807785782E+03  0.50400001928E-02 0. -1.
       -1   -1    0    0    0  501  0.00000000000E+00  0.00000000000E+00 -0.31248511622E+03  0.31248511626E+03  0.50400001928E-02 0.  1.
    10030    2    1    2    0    0  0.00000000000E+00  0.00000000000E+00  0.34559274158E+03  0.97056297408E+03  0.90694991241E+03 0.  0.
        2    1    3    3  502    0 -0.18291048277E+03 -0.39702979459E+03  0.30188303129E+03  0.53124595725E+03  0.25500000920E-02 0.  1.
       -2    1    3    3    0  502  0.18291048277E+03  0.39702979459E+03  0.43709710281E+02  0.43931701683E+03  0.25500000920E-02 0. -1.
</event>
<event>
 5   0  0.1206541E-02  0.8827977E+03  0.7818609E-02  0.9447344E-01
       -1   -1    0    0    0  501  0.00000000000E+00  0.00000000000E+00  0.76090984887E+03  0.76090984889E+03  0.50400001928E-02 0.  1.
        1   -1    0    0  501    0  0.00000000000E+00  0.00000000000E+00 -0.25605259790E+03  0.25605259794E+03  0.50400001928E-02 0. -1.
    10030    2    1    2    0    0  0.00000000000E+00  0.00000000000E+00  0.50485725098E+03  0.10169624468E+04  0.88279769733E+03 0.  0.
        3    1    3    3  502    0  0.94607596256E+02  0.36369108621E+03  0.51915822006E+03  0.64089552277E+03  0.10100000352E+00 0.  1.
       -3    1    3    3    0  502 -0.94607596256E+02 -0.36369108621E+03 -0.14300969082E+02  0.37606692406E+03  0.10100000352E+00 0. -1.
</event>
<event>
 5   0  0.1226424E-02  0.9024065E+03  0.7818609E-02  0.9422578E-01
        1   -1    0    0  501    0  0.00000000000E+00  0.00000000000E+00  0.58564668354E+03  0.58564668356E+03  0.50400001928E-02 0. -1.
       -1   -1    0    0    0  501  0.00000000000E+00  0.00000000000E+00 -0.34762322502E+03  0.34762322506E+03  0.50400001928E-02 0.  1.
    10030    2    1    2    0    0  0.00000000000E+00  0.00000000000E+00  0.23802345852E+03  0.93326990862E+03  0.90240653562E+03 0.  0.
        1    1    3    3  502    0 -0.80732449530E+02 -0.34972900770E+03 -0.16375537009E+03  0.39451733611E+03  0.50400001928E-02 0.  1.
       -1    1    3    3    0  502  0.80732449530E+02  0.34972900770E+03  0.40177882861E+03  0.53875257251E+03  0.50400001928E-02 0. -1.
</event>
<event>
 5   0  0.1162839E-02  0.8843761E+03  0.7818609E-02  0.9445326E-01
       -1   -1    0    0    0  501  0.00000000000E+00  0.00000000000E+00  0.32228913129E+03  0.32228913133E+03  0.50400001928E-02 0. -1.
        1   -1    0    0  501    0  0.00000000000E+00  0.00000000000E+00 -0.60669203784E+03  0.60669203786E+03  0.50400001928E-02 0.  1.
    10030    2    1    2    0    0  0.00000000000E+00  0.00000000000E+00 -0.28440290655E+03  0.92898116919E+03  0.88437605093E+03 0.  0.
        2    1    3    3  502    0  0.40868011823E+03  0.44667081290E+02 -0.31325070559E+03  0.51685645178E+03  0.25500000920E-02 0.  1.
       -2    1    3    3    0  502 -0.40868011823E+03 -0.44667081290E+02  0.28847799045E+02  0.41212471741E+03  0.25500000920E-02 0. -1.
</event>
<event>
 5   0  0.1226424E-02  0.9121404E+03  0.7818609E-02  0.9410531E-01
        1   -1    0    0  501    0  0.00000000000E+00  0.00000000000E+00  0.97218911552E+03  0.97218911554E+03  0.50400001928E-02 0.  1.
       -1   -1    0    0    0  501  0.00000000000E+00  0.00000000000E+00 -0.21395017252E+03  0.21395017258E+03  0.50400001928E-02 0. -1.
    10030    2    1    2    0    0  0.00000000000E+00  0.00000000000E+00  0.75823894300E+03  0.11861392881E+04  0.91214040374E+03 0.  0.
        1    1    3    3  502    0  0.12318967838E+03  0.43629733231E+03  0.44373425618E+03  0.63437461264E+03  0.50400001928E-02 0.  1.
       -1    1    3    3    0  502 -0.12318967838E+03 -0.43629733231E+03  0.31450468682E+03  0.55176467547E+03  0.50400001928E-02 0. -1.
</event>
<event>
 5   0  0.1968763E-02  0.8944146E+03  0.7818609E-02  0.9432591E-01
       -2   -1    0    0    0  501  0.00000000000E+00  0.00000000000E+00  0.18054655242E+03  0.18054655244E+03  0.25500000920E-02 0.  1.
        2   -1    0    0  501    0  0.00000000000E+00  0.00000000000E+00 -0.11077162332E+04  0.11077162332E+04  0.25500000920E-02 0. -1.
    10030    2    1    2    0    0  0.00000000000E+00  0.00000000000E+00 -0.92716968083E+03  0.12882627857E+04  0.89441455038E+03 0.  0.
        2    1    3    3  502    0 -0.32016109234E+03 -0.30711208225E+03 -0.38244626294E+03  0.58573552065E+03  0.25500000920E-02 0.  1.
       -2    1    3    3    0  502  0.32016109234E+03  0.30711208225E+03 -0.54472341788E+03  0.70252726503E+03  0.25500000920E-02 0. -1.
</event>
<event>
 5   0  0.1175993E-02  0.8348560E+03  0.7818609E-02  0.9510891E-01
       -1   -1    0    0    0  501  0.00000000000E+00  0.00000000000E+00  0.50423027852E+03  0.50423027855E+03  0.50400001928E-02 0.  1.
        1   -1    0    0  501    0  0.00000000000E+00  0.00000000000E+00 -0.34556853006E+03  0.34556853009E+03  0.50400001928E-02 0. -1.
    10030    2    1    2    0    0  0.00000000000E+00  0.00000000000E+00  0.15866174846E+03  0.84979880864E+03  0.83485595449E+03 0.  0.
        4    1    3    3  502    0 -0.33028306375E+03  0.17493844269E+03  0.26854546723E+03  0.46022672869E+03  0.12699999809E+01 0.  1.
       -4    1    3    3    0  502  0.33028306375E+03 -0.17493844269E+03 -0.10988371877E+03  0.38957207995E+03  0.12699999809E+01 0. -1.
</event>
<event>
 5   0  0.1968763E-02  0.9010972E+03  0.7818609E-02  0.9424211E-01
       -2   -1    0    0    0  501  0.00000000000E+00  0.00000000000E+00  0.15098595375E+04  0.15098595375E+04  0.25500000920E-02 0.  1.
        2   -1    0    0  501    0  0.00000000000E+00  0.00000000000E+00 -0.13444564198E+03  0.13444564201E+03  0.25500000920E-02 0. -1.
    10030    2    1    2    0    0  0.00000000000E+00  0.00000000000E+00  0.13754138956E+04  0.16443051796E+04  0.90109718643E+03 0.  0.
        2    1    3    3  502    0 -0.25852371760E+03  0.25194224434E+03  0.19574436080E+03  0.41064006361E+03  0.25500000920E-02 0. -1.
       -2    1    3    3    0  502  0.25852371760E+03 -0.25194224434E+03  0.11796695348E+04  0.12336651159E+04  0.25500000920E-02 0.  1.
</event>
<event>
 5   0  0.1175993E-02  0.8919019E+03  0.7818609E-02  0.9435761E-01
        1   -1    0    0  501    0  0.00000000000E+00  0.00000000000E+00  0.60135334006E+03  0.60135334008E+03  0.50400001928E-02 0. -1.
       -1   -1    0    0    0  501  0.00000000000E+00  0.00000000000E+00 -0.33070781074E+03  0.33070781077E+03  0.50400001928E-02 0.  1.
    10030    2    1    2    0    0  0.00000000000E+00  0.00000000000E+00  0.27064552932E+03  0.93206115086E+03  0.89190189281E+03 0.  0.
        4    1    3    3  502    0  0.22348023301E+03  0.19218377759E+03 -0.21439847831E+03  0.36448091763E+03  0.12699999809E+01 0.  1.
       -4    1    3    3    0  502 -0.22348023301E+03 -0.19218377759E+03  0.48504400763E+03  0.56758023323E+03  0.12699999809E+01 0. -1.
</event>
<event>
 5   0  0.1206541E-02  0.8583954E+03  0.7818609E-02  0.9479138E-01
        1   -1    0    0  501    0  0.00000000000E+00  0.00000000000E+00  0.26346165070E+04  0.26346165070E+04  0.50400001928E-02 0.  1.
       -1   -1    0    0    0  501  0.00000000000E+00  0.00000000000E+00 -0.69919341244E+02  0.69919341426E+02  0.50400001928E-02 0. -1.
    10030    2    1    2    0    0  0.00000000000E+00  0.00000000000E+00  0.25646971658E+04  0.27045358485E+04  0.85839536544E+03 0.  0.
        3    1    3    3  502    0 -0.14675794470E+03 -0.23014751143E+03  0.23259107606E+04  0.23418724662E+04  0.10100000352E+00 0.  1.
       -3    1    3    3    0  502  0.14675794470E+03  0.23014751143E+03  0.23878640521E+03  0.36266338231E+03  0.10100000352E+00 0. -1.
</event>
<event>
 5   0  0.1968763E-02  0.9443665E+03  0.7818609E-02  0.9371760E-01
       -2   -1    0    0    0  501  0.00000000000E+00  0.00000000000E+00  0.17563358665E+03  0.17563358666E+03  0.25500000920E-02 0.  1.
        2   -1    0    0  501    0  0.00000000000E+00  0.00000000000E+00 -0.12694440105E+04  0.12694440105E+04  0.25500000920E-02 0. -1.
    10030    2    1    2    0    0  0.00000000000E+00  0.00000000000E+00 -0.10938104239E+04  0.14450775972E+04  0.94436646410E+03 0.  0.
        2    1    3    3  502    0 -0.39038053293E+03 -0.10159394410E+03 -0.17133731667E+03  0.43826335241E+03  0.25500000920E-02 0. -1.
       -2    1    3    3    0  502  0.39038053293E+03  0.10159394410E+03 -0.92247310720E+03  0.10068142448E+04  0.25500000920E-02 0.  1.
</event>
<event>
 5   0  0.2008770E-02  0.9232030E+03  0.7818609E-02  0.9397032E-01
       -2   -1    0    0    0  501  0.00000000000E+00  0.00000000000E+00  0.12693295680E+03  0.12693295682E+03  0.25500000920E-02 0. -1.
        2   -1    0    0  501    0  0.00000000000E+00  0.00000000000E+00 -0.16786496756E+04  0.16786496756E+04  0.25500000920E-02 0.  1.
    10030    2    1    2    0    0  0.00000000000E+00  0.00000000000E+00 -0.15517167188E+04  0.18055826324E+04  0.92320304761E+03 0.  0.
        1    1    3    3  502    0 -0.26055272843E+03 -0.26470123170E+03 -0.13119046141E+04  0.13634691719E+04  0.50400001928E-02 0. -1.
       -1    1    3    3    0  502  0.26055272843E+03  0.26470123170E+03 -0.23981210475E+03  0.44211346051E+03  0.50400001928E-02 0.  1.
</event>
<event>
 5   0  0.2041861E-02  0.9069353E+03  0.7818609E-02  0.9416953E-01
       -2   -1    0    0    0  501  0.00000000000E+00  0.00000000000E+00  0.64341489159E+03  0.64341489159E+03  0.25500000920E-02 0. -1.
        2   -1    0    0  501    0  0.00000000000E+00  0.00000000000E+00 -0.31959611842E+03  0.31959611843E+03  0.25500000920E-02 0.  1.
    10030    2    1    2    0    0  0.00000000000E+00  0.00000000000E+00  0.32381877317E+03  0.96301101002E+03  0.90693528300E+03 0.  0.
        5    1    3    3  502    0  0.28286953987E+03 -0.23094928972E+03 -0.12351961995E+03  0.38552812805E+03  0.46999998093E+01 0.  1.
       -5    1    3    3    0  502 -0.28286953987E+03  0.23094928972E+03  0.44733839312E+03  0.57748288196E+03  0.46999998093E+01 0. -1.
</event>
<event>
 5   0  0.1175993E-02  0.9034833E+03  0.7818609E-02  0.9421238E-01
       -1   -1    0    0    0  501  0.00000000000E+00  0.00000000000E+00  0.48272883100E+03  0.48272883103E+03  0.50400001928E-02 0. -1.
        1   -1    0    0  501    0  0.00000000000E+00  0.00000000000E+00 -0.42274359706E+03  0.42274359709E+03  0.50400001928E-02 0.  1.
    10030    2    1    2    0    0  0.00000000000E+00  0.00000000000E+00  0.59985233941E+02  0.90547242812E+03  0.90348330908E+03 0.  0.
        4    1    3    3  502    0 -0.42619968113E+03 -0.74592652990E+02 -0.10013421229E+03  0.44411564423E+03  0.12699999809E+01 0. -1.
       -4    1    3    3    0  502  0.42619968113E+03  0.74592652990E+02  0.16011944624E+03  0.46135678389E+03  0.12699999809E+01 0.  1.
</event>
<event>
 5   0  0.1226424E-02  0.9184925E+03  0.7818609E-02  0.9402756E-01
        1   -1    0    0  501    0  0.00000000000E+00  0.00000000000E+00  0.59994999402E+03  0.59994999404E+03  0.50400001928E-02 0.  1.
       -1   -1    0    0    0  501  0.00000000000E+00  0.00000000000E+00 -0.35154114300E+03  0.35154114304E+03  0.50400001928E-02 0. -1.
    10030    2    1    2    0    0  0.00000000000E+00  0.00000000000E+00  0.24840885101E+03  0.95149113707E+03  0.91849247502E+03 0.  0.
        1    1    3    3  502    0  0.45772099750E+03 -0.11352110436E+02  0.87291036084E+02  0.46610847125E+03  0.50400001928E-02 0. -1.
       -1    1    3    3    0  502 -0.45772099750E+03  0.11352110436E+02  0.16111781493E+03  0.48538266582E+03  0.50400001928E-02 0.  1.
</event>
<event>
 5   0  0.1206541E-02  0.8982252E+03  0.7818609E-02  0.9427803E-01
        1   -1    0    0  501    0  0.00000000000E+00  0.00000000000E+00  0.15931018489E+04  0.15931018489E+04  0.50400001928E-02 0.  1.
       -1   -1    0    0    0  501  0.00000000000E+00  0.00000000000E+00 -0.12660970143E+03  0.12660970153E+03  0.50400001928E-02 0. -1.
    10030    2    1    2    0    0  0.00000000000E+00  0.00000000000E+00  0.14664921475E+04  0.17197115505E+04  0.89822524909E+03 0.  0.
        3    1    3    3  502    0 -0.39236416853E+03 -0.52294632330E+02  0.32702510425E+03  0.51344892475E+03  0.10100000352E+00 0. -1.
       -3    1    3    3    0  502  0.39236416853E+03  0.52294632330E+02  0.11394670432E+04  0.12062626257E+04  0.10100000352E+00 0.  1.
</event>
<event>
 5   0  0.2008643E-02  0.9133343E+03  0.7818609E-02  0.9409065E-01
        2   -1    0    0  501    0  0.00000000000E+00  0.00000000000E+00  0.19354878898E+03  0.19354878900E+03  0.25500000920E-02 0. -1.
       -2   -1    0    0    0  501  0.00000000000E+00  0.00000000000E+00 -0.10774795592E+04  0.10774795592E+04  0.25500000920E-02 0.  1.
    10030    2    1    2    0    0  0.00000000000E+00  0.00000000000E+00 -0.88393077024E+03  0.12710283482E+04  0.91333425175E+03 0.  0.
        3    1    3    3  502    0 -0.79145175423E+02  0.27684639708E+03  0.51304059795E+02  0.29247222624E+03  0.10100000352E+00 0. -1.
       -3    1    3    3    0  502  0.79145175423E+02 -0.27684639708E+03 -0.93523483004E+03  0.97855612199E+03  0.10100000352E+00 0.  1.
</event>
<event>
 5   0  0.1968763E-02  0.8982915E+03  0.7818609E-02  0.9427720E-01
       -2   -1    0    0    0  501  0.00000000000E+00  0.00000000000E+00  0.28964005185E+03  0.28964005186E+03  0.25500000920E-02 0. -1.
        2   -1    0    0  501    0  0.00000000000E+00  0.00000000000E+00 -0.69649177992E+03  0.69649177993E+03  0.25500000920E-02 0.  1.
    10030    2    1    2    0    0  0.00000000000E+00  0.00000000000E+00 -0.40685172808E+03  0.98613183179E+03  0.89829152341E+03 0.  0.
        2    1    3    3  502    0 -0.13367300878E+03 -0.33999104917E+03  0.83408465205E+02  0.37472571151E+03  0.25500000920E-02 0. -1.
       -2    1    3    3    0  502  0.13367300878E+03  0.33999104917E+03 -0.49026019328E+03  0.61140612028E+03  0.25500000920E-02 0.  1.
</event>
<event>
 5   0  0.7893875E-03  0.9083113E+03  0.7818609E-02  0.9415251E-01
       -4   -1    0    0    0  501  0.00000000000E+00  0.00000000000E+00  0.85718343255E+03  0.85718437337E+03  0.12699999809E+01 0. -1.
        4   -1    0    0  501    0  0.00000000000E+00  0.00000000000E+00 -0.24061943896E+03  0.24062279049E+03  0.12699999809E+01 0.  1.
    10030    2    1    2    0    0  0.00000000000E+00  0.00000000000E+00  0.61656399359E+03  0.10978071639E+04  0.90831129621E+03 0.  0.
        4    1    3    3  502    0 -0.20495958273E+03 -0.12680382484E+03  0.77351305506E+03  0.81019238444E+03  0.12699999809E+01 0. -1.
       -4    1    3    3    0  502  0.20495958273E+03  0.12680382484E+03 -0.15694906147E+03  0.28761477942E+03  0.12699999809E+01 0.  1.
</event>
<event>
 5   0  0.1162839E-02  0.8815044E+03  0.7818609E-02  0.9449002E-01
        1   -1    0    0  501    0  0.00000000000E+00  0.00000000000E+00  0.73016604977E+03  0.73016604979E+03  0.50400001928E-02 0. -1.
       -1   -1    0    0    0  501  0.00000000000E+00  0.00000000000E+00 -0.26605249430E+03  0.26605249435E+03  0.50400001928E-02 0.  1.
    10030    2    1    2    0    0  0.00000000000E+00  0.00000000000E+00  0.46411355547E+03  0.99621854414E+03  0.88150439325E+03 0.  0.
        2    1    3    3  502    0  0.10904413752E+03  0.13527189073E+03 -0.22571521352E+03  0.28484463480E+03  0.25500000920E-02 0.  1.
       -2    1    3    3    0  502 -0.10904413752E+03 -0.13527189073E+03  0.68982876900E+03  0.71137390934E+03  0.25500000920E-02 0. -1.
</event>
<event>
 5   0  0.1924218E-02  0.9024705E+03  0.7818609E-02  0.9422498E-01
       -2   -1    0    0    0  501  0.00000000000E+00  0.00000000000E+00  0.22185849156E+03  0.22185849157E+03  0.25500000920E-02 0.  1.
        2   -1    0    0  501    0  0.00000000000E+00  0.00000000000E+00 -0.91776180275E+03  0.91776180276E+03  0.25500000920E-02 0. -1.
    10030    2    1    2    0    0  0.00000000000E+00  0.00000000000E+00 -0.69590331119E+03  0.11396202943E+04  0.90247049631E+03 0.  0.
        4    1    3    3  502    0 -0.77752251609E+01 -0.39844440674E+03 -0.80692011819E+02  0.40660941094E+03  0.12699999809E+01 0.  1.
       -4    1    3    3    0  502  0.77752251609E+01  0.39844440674E+03 -0.61521129937E+03  0.73301088339E+03  0.12699999809E+01 0. -1.
</event>
<event>
 5   0  0.1206541E-02  0.8960460E+03  0.7818609E-02  0.9430538E-01
       -1   -1    0    0    0  501  0.00000000000E+00  0.00000000000E+00  0.63898417423E+03  0.63898417425E+03  0.50400001928E-02 0. -1.
        1   -1    0    0  501    0  0.00000000000E+00  0.00000000000E+00 -0.31413078510E+03  0.31413078514E+03  0.50400001928E-02 0.  1.
    10030    2    1    2    0    0  0.00000000000E+00  0.00000000000E+00  0.32485338914E+03  0.95311495939E+03  0.89604598173E+03 0.  0.
        3    1    3    3  502    0 -0.15506159214E+03 -0.15953862419E+01  0.60952823077E+03  0.62894460560E+03  0.10100000352E+00 0. -1.
       -3    1    3    3    0  502  0.15506159214E+03  0.15953862419E+01 -0.28467484163E+03  0.32417035379E+03  0.10100000352E+00 0.  1.
</event>
<event>
 5   0  0.2008770E-02  0.8441293E+03  0.7818609E-02  0.9498250E-01
       -2   -1    0    0    0  501  0.00000000000E+00  0.00000000000E+00  0.16719634011E+03  0.16719634013E+03  0.25500000920E-02 0.  1.
        2   -1    0    0  501    0  0.00000000000E+00  0.00000000000E+00 -0.10654453468E+04  0.10654453468E+04  0.25500000920E-02 0. -1.
    10030    2    1    2    0    0  0.00000000000E+00  0.00000000000E+00 -0.89824900672E+03  0.12326416870E+04  0.84412928534E+03 0.  0.
        1    1    3    3  502    0 -0.16364346842E+03  0.29480987774E+03 -0.78420224981E+02  0.34618171598E+03  0.50400001928E-02 0.  1.
       -1    1    3    3    0  502  0.16364346842E+03 -0.29480987774E+03 -0.81982878174E+03  0.88645997098E+03  0.50400001928E-02 0. -1.
</event>
<event>
 5   0  0.7893875E-03  0.9040435E+03  0.7818609E-02  0.9420541E-01
       -4   -1    0    0    0  501  0.00000000000E+00  0.00000000000E+00  0.26398085669E+03  0.26398391163E+03  0.12699999809E+01 0. -1.
        4   -1    0    0  501    0  0.00000000000E+00  0.00000000000E+00 -0.77400125960E+03  0.77400230152E+03  0.12699999809E+01 0.  1.
    10030    2    1    2    0    0  0.00000000000E+00  0.00000000000E+00 -0.51002040290E+03  0.10379862132E+04  0.90404345433E+03 0.  0.
        1    1    3    3  502    0  0.92649731748E+02  0.22395248310E+03 -0.69309736328E+03  0.73424971399E+03  0.50400001928E-02 0.  1.
       -1    1    3    3    0  502 -0.92649731748E+02 -0.22395248310E+03  0.18307696037E+03  0.30373649917E+03  0.50400001928E-02 0. -1.
</event>
<event>
 5   0  0.1175993E-02  0.7304578E+03  0.7818609E-02  0.9666518E-01
        1   -1    0    0  501    0  0.00000000000E+00  0.00000000000E+00  0.72321927631E+03  0.72321927633E+03  0.50400001928E-02 0. -1.
       -1   -1    0    0    0  501  0.00000000000E+00  0.00000000000E+00 -0.18444218207E+03  0.18444218214E+03  0.50400001928E-02 0.  1.
    10030    2    1    2    0    0  0.00000000000E+00  0.00000000000E+00  0.53877709424E+03  0.90766145848E+03  0.73045777833E+03 0.  0.
        4    1    3    3  502    0  0.16344702756E+03  0.31601857526E+03  0.16686254660E+03  0.39297250932E+03  0.12699999809E+01 0. -1.
       -4    1    3    3    0  502 -0.16344702756E+03 -0.31601857526E+03  0.37191454764E+03  0.51468894915E+03  0.12699999809E+01 0.  1.
</event>
<event>
 5   0  0.1924218E-02  0.9091884E+03  0.7818609E-02  0.9414168E-01
        2   -1    0    0  501    0  0.00000000000E+00  0.00000000000E+00  0.18050726640E+04  0.18050726640E+04  0.25500000920E-02 0. -1.
       -2   -1    0    0    0  501  0.00000000000E+00  0.00000000000E+00 -0.11448619863E+03  0.11448619866E+03  0.25500000920E-02 0.  1.
    10030    2    1    2    0    0  0.00000000000E+00  0.00000000000E+00  0.16905864654E+04  0.19195588627E+04  0.90918844601E+03 0.  0.
        4    1    3    3  502    0  0.24078052770E+03  0.18039095225E+03  0.15648001155E+04  0.15934607534E+04  0.12699999809E+01 0. -1.
       -4    1    3    3    0  502 -0.24078052770E+03 -0.18039095225E+03  0.12578634988E+03  0.32609810930E+03  0.12699999809E+01 0.  1.
</event>
<event>
 5   0  0.1968763E-02  0.8828358E+03  0.7818609E-02  0.9447295E-01
       -2   -1    0    0    0  501  0.00000000000E+00  0.00000000000E+00  0.26830964416E+03  0.26830964418E+03  0.25500000920E-02 0.  1.
        2   -1    0    0  501    0  0.00000000000E+00  0.00000000000E+00 -0.72621237261E+03  0.72621237261E+03  0.25500000920E-02 0. -1.
    10030    2    1    2    0    0  0.00000000000E+00  0.00000000000E+00 -0.45790272845E+03  0.99452201679E+03  0.88283584723E+03 0.  0.
        2    1    3    3  502    0  0.23953249317E+03 -0.14934193478E+03  0.15335006876E+03  0.32123989846E+03  0.25500000920E-02 0.  1.
       -2    1    3    3    0  502 -0.23953249317E+03  0.14934193478E+03 -0.61125279720E+03  0.67328211833E+03  0.25500000920E-02 0. -1.
</event>
<event>
 5   0  0.1177712E-02  0.8940960E+03  0.7818609E-02  0.9432992E-01
       -1   -1    0    0    0  501  0.00000000000E+00  0.00000000000E+00  0.26455136565E+03  0.26455136570E+03  0.50400001928E-02 0.  1.
        1   -1    0    0  501    0  0.00000000000E+00  0.00000000000E+00 -0.75543716963E+03  0.75543716964E+03  0.50400001928E-02 0. -1.
    10030    2    1    2    0    0  0.00000000000E+00  0.00000000000E+00 -0.49088580398E+03  0.10199885353E+04  0.89409604612E+03 0.  0.
        5    1    3    3  502    0 -0.23662884662E+03 -0.69563109879E+02 -0.67076189666E+03  0.71468583960E+03  0.46999998093E+01 0. -1.
       -5    1    3    3    0  502  0.23662884662E+03  0.69563109879E+02  0.17987609269E+03  0.30530269574E+03  0.46999998093E+01 0.  1.
</event>
<event>
 5   0  0.2041861E-02  0.8564699E+03  0.7818609E-02  0.9481694E-01
        2   -1    0    0  501    0  0.00000000000E+00  0.00000000000E+00  0.11389546717E+04  0.11389546717E+04  0.25500000920E-02 0.  1.
       -2   -1    0    0    0  501  0.00000000000E+00  0.00000000000E+00 -0.16101181204E+03  0.16101181206E+03  0.25500000920E-02 0. -1.
    10030    2    1    2    0    0  0.00000000000E+00  0.00000000000E+00  0.97794285968E+03  0.12999664838E+04  0.85646986063E+03 0.  0.
        5    1    3    3  502    0 -0.40993033749E+03 -0.12197336565E+03  0.45703649680E+03  0.62595913040E+03  0.46999998093E+01 0. -1.
       -5    1    3    3    0  502  0.40993033749E+03  0.12197336565E+03  0.52090636288E+03  0.67400735339E+03  0.46999998093E+01 0.  1.
</event>
<event>
 5   0  0.1968763E-02  0.9181581E+03  0.7818609E-02  0.9403163E-01
       -2   -1    0    0    0  501  0.00000000000E+00  0.00000000000E+00  0.31278256903E+03  0.31278256904E+03  0.25500000920E-02 0. -1.
        2   -1    0    0  501    0  0.00000000000E+00  0.00000000000E+00 -0.67380214733E+03  0.67380214734E+03  0.25500000920E-02 0.  1.
    10030    2    1    2    0    0  0.00000000000E+00  0.00000000000E+00 -0.36101957830E+03  0.98658471637E+03  0.91815808370E+03 0.  0.
        2    1    3    3  502    0  0.44869435281E+03  0.97053706124E+02 -0.18345691889E+03  0.49437079729E+03  0.25500000920E-02 0. -1.
       -2    1    3    3    0  502 -0.44869435281E+03 -0.97053706124E+02 -0.17756265941E+03  0.49221391908E+03  0.25500000920E-02 0.  1.
</event>
<event>
 5   0  0.2041861E-02  0.8676652E+03  0.7818609E-02  0.9466929E-01
        2   -1    0    0  501    0  0.00000000000E+00  0.00000000000E+00  0.27530580425E+03  0.27530580426E+03  0.25500000920E-02 0. -1.
       -2   -1    0    0    0  501  0.00000000000E+00  0.00000000000E+00 -0.68364239357E+03  0.68364239358E+03  0.25500000920E-02 0.  1.
    10030    2    1    2    0    0  0.00000000000E+00  0.00000000000E+00 -0.40833658932E+03  0.95894819784E+03  0.86766518656E+03 0.  0.
        5    1    3    3  502    0  0.34176260681E+02  0.41081885553E+02 -0.67996258359E+03  0.68207546738E+03  0.46999998093E+01 0.  1.
       -5    1    3    3    0  502 -0.34176260681E+02 -0.41081885553E+02  0.27162599427E+03  0.27687273047E+03  0.46999998093E+01 0. -1.
</event>
<event>
 5   0  0.1206541E-02  0.8928290E+03  0.7818609E-02  0.9434590E-01
        1   -1    0    0  501    0  0.00000000000E+00  0.00000000000E+00  0.85919320614E+03  0.85919320615E+03  0.50400001928E-02 0. -1.
       -1   -1    0    0    0  501  0.00000000000E+00  0.00000000000E+00 -0.23194539276E+03  0.23194539282E+03  0.50400001928E-02 0.  1.
    10030    2    1    2    0    0  0.00000000000E+00  0.00000000000E+00  0.62724781338E+03  0.10911385990E+04  0.89282899974E+03 0.  0.
        3    1    3    3  502    0  0.16741916784E+03  0.22181802778E+03  0.74058343987E+03  0.79100964395E+03  0.10100000352E+00 0. -1.
       -3    1    3    3    0  502 -0.16741916784E+03 -0.22181802778E+03 -0.11333562650E+03  0.30012895502E+03  0.10100000352E+00 0.  1.
</event>
<event>
 5   0  0.2008770E-02  0.8930639E+03  0.7818609E-02  0.9434294E-01
        2   -1    0    0  501    0  0.00000000000E+00  0.00000000000E+00  0.13667305810E+04  0.13667305810E+04  0.25500000920E-02 0.  1.
       -2   -1    0    0    0  501  0.00000000000E+00  0.00000000000E+00 -0.14588887352E+03  0.14588887354E+03  0.25500000920E-02 0. -1.
    10030    2    1    2    0    0  0.00000000000E+00  0.00000000000E+00  0.12208417075E+04  0.15126194545E+04  0.89306390563E+03 0.  0.
        1    1    3    3  502    0  0.23907048420E+03  0.14461428455E+03  0.12003751279E+04  0.12324643749E+04  0.50400001928E-02 0.  1.
       -1    1    3    3    0  502 -0.23907048420E+03 -0.14461428455E+03  0.20466579530E+02  0.28015507959E+03  0.50400001928E-02 0. -1.
</event>
<event>
 5   0  0.1206541E-02  0.9005774E+03  0.7818609E-02  0.9424860E-01
       -1   -1    0    0    0  501  0.00000000000E+00  0.00000000000E+00  0.12552365532E+03  0.12552365542E+03  0.50400001928E-02 0. -1.
        1   -1    0    0  501    0  0.00000000000E+00  0.00000000000E+00 -0.16153124464E+04  0.16153124464E+04  0.50400001928E-02 0.  1.
    10030    2    1    2    0    0  0.00000000000E+00  0.00000000000E+00 -0.14897887911E+04  0.17408361019E+04  0.90057742111E+03 0.  0.
        3    1    3    3  502    0 -0.65133279424E+02  0.26005340357E+03 -0.45552211567E+02  0.27192854020E+03  0.10100000352E+00 0. -1.
       -3    1    3    3    0  502  0.65133279424E+02 -0.26005340357E+03 -0.14442365795E+04  0.14689075617E+04  0.10100000352E+00 0.  1.
</event>
<event>
 5   0  0.1968763E-02  0.8590149E+03  0.7818609E-02  0.9478317E-01
        2   -1    0    0  501    0  0.00000000000E+00  0.00000000000E+00  0.38953769311E+03  0.38953769312E+03  0.25500000920E-02 0.  1.
       -2   -1    0    0    0  501  0.00000000000E+00  0.00000000000E+00 -0.47357844132E+03  0.47357844133E+03  0.25500000920E-02 0. -1.
    10030    2    1    2    0    0  0.00000000000E+00  0.00000000000E+00 -0.84040748206E+02  0.86311613445E+03  0.85901490918E+03 0.  0.
        2    1    3    3  502    0 -0.17060480943E+03  0.17429501692E+02  0.35364499219E+03  0.39303252924E+03  0.25500000920E-02 0.  1.
       -2    1    3    3    0  502  0.17060480943E+03 -0.17429501692E+02 -0.43768574040E+03  0.47008360521E+03  0.25500000920E-02 0. -1.
</event>
<event>
 5   0  0.2008643E-02  0.9103690E+03  0.7818609E-02  0.9412712E-01
        2   -1    0    0  501    0  0.00000000000E+00  0.00000000000E+00  0.10633769142E+04  0.10633769142E+04  0.25500000920E-02 0.  1.
       -2   -1    0    0    0  501  0.00000000000E+00  0.00000000000E+00 -0.19484431238E+03  0.19484431240E+03  0.25500000920E-02 0. -1.
    10030    2    1    2    0    0  0.00000000000E+00  0.00000000000E+00  0.86853260179E+03  0.12582212266E+04  0.91036903210E+03 0.  0.
        3    1    3    3  502    0  0.20829195850E+03 -0.34737472405E+02  0.99158130977E+03  0.10138174076E+04  0.10100000352E+00 0.  1.
       -3    1    3    3    0  502 -0.20829195850E+03  0.34737472405E+02 -0.12304870798E+03  0.24440381892E+03  0.10100000352E+00 0. -1.
</event>
<event>
 5   0  0.2008770E-02  0.9112248E+03  0.7818609E-02  0.9411658E-01
       -2   -1    0    0    0  501  0.00000000000E+00  0.00000000000E+00  0.20286488213E+03  0.20286488215E+03  0.25500000920E-02 0. -1.
        2   -1    0    0  501    0  0.00000000000E+00  0.00000000000E+00 -0.10232558222E+04  0.10232558222E+04  0.25500000920E-02 0.  1.
    10030    2    1    2    0    0  0.00000000000E+00  0.00000000000E+00 -0.82039094004E+03  0.12261207043E+04  0.91122482795E+03 0.  0.
        1    1    3    3  502    0 -0.40535744952E+03  0.30341254139E+02 -0.13329662113E+03  0.42778878294E+03  0.50400001928E-02 0. -1.
       -1    1    3    3    0  502  0.40535744952E+03 -0.30341254139E+02 -0.68709431891E+03  0.79833192138E+03  0.50400001928E-02 0.  1.
</event>
<event>
 5   0  0.2041861E-02  0.8143727E+03  0.7818609E-02  0.9539443E-01
        2   -1    0    0  501    0  0.00000000000E+00  0.00000000000E+00  0.73856410396E+03  0.73856410396E+03  0.25500000920E-02 0. -1.
       -2   -1    0    0    0  501  0.00000000000E+00  0.00000000000E+00 -0.22449064686E+03  0.22449064688E+03  0.25500000920E-02 0.  1.
    10030    2    1    2    0    0  0.00000000000E+00  0.00000000000E+00  0.51407345710E+03  0.96305475084E+03  0.81437272414E+03 0.  0.
        5    1    3    3  502    0  0.18327784552E+03 -0.27231270422E+03 -0.27847076455E+02  0.32945792934E+03  0.46999998093E+01 0.  1.
       -5    1    3    3    0  502 -0.18327784552E+03  0.27231270422E+03  0.54192053355E+03  0.63359682150E+03  0.46999998093E+01 0. -1.
</event>
<event>
 5   0  0.1175993E-02  0.8938112E+03  0.7818609E-02  0.9433351E-01
       -1   -1    0    0    0  501  0.00000000000E+00  0.00000000000E+00  0.66060634548E+03  0.66060634550E+03  0.50400001928E-02 0.  1.
        1   -1    0    0  501    0  0.00000000000E+00  0.00000000000E+00 -0.30233530883E+03  0.30233530888E+03  0.50400001928E-02 0. -1.
    10030    2    1    2    0    0  0.00000000000E+00  0.00000000000E+00  0.35827103664E+03  0.96294165437E+03  0.89381121834E+03 0.  0.
        4    1    3    3  502    0 -0.14452731533E+03 -0.24534602457E+03  0.55021769580E+03  0.61953526318E+03  0.12699999809E+01 0.  1.
       -4    1    3    3    0  502  0.14452731533E+03  0.24534602457E+03 -0.19194665916E+03  0.34340639119E+03  0.12699999809E+01 0. -1.
</event>
<event>
 5   0  0.1177712E-02  0.9043126E+03  0.7818609E-02  0.9420206E-01
        1   -1    0    0  501    0  0.00000000000E+00  0.00000000000E+00  0.85235146761E+03  0.85235146763E+03  0.50400001928E-02 0. -1.
       -1   -1    0    0    0  501  0.00000000000E+00  0.00000000000E+00 -0.23986036386E+03  0.23986036391E+03  0.50400001928E-02 0.  1.
    10030    2    1    2    0    0  0.00000000000E+00  0.00000000000E+00  0.61249110375E+03  0.10922118315E+04  0.90431263000E+03 0.  0.
        5    1    3    3  502    0 -0.38138113379E+03  0.50978197597E+02  0.59300877866E+03  0.70691714324E+03  0.46999998093E+01 0. -1.
       -5    1    3    3    0  502  0.38138113379E+03 -0.50978197597E+02  0.19482325091E+02  0.38529468830E+03  0.46999998093E+01 0.  1.
</event>
<event>
 5   0  0.7893875E-03  0.8981871E+03  0.7818609E-02  0.9427850E-01
        3   -1    0    0  501    0  0.00000000000E+00  0.00000000000E+00  0.17640613099E+03  0.17640615990E+03  0.10100000352E+00 0. -1.
       -3   -1    0    0    0  501  0.00000000000E+00  0.00000000000E+00 -0.11432993048E+04  0.11432993093E+04  0.10100000352E+00 0.  1.
    10030    2    1    2    0    0  0.00000000000E+00  0.00000000000E+00 -0.96689317383E+03  0.13197054692E+04  0.89818712739E+03 0.  0.
        4    1    3    3  502    0  0.10304395035E+03  0.23961450611E+03  0.53702789335E+02  0.26630578238E+03  0.12699999809E+01 0. -1.
       -4    1    3    3    0  502 -0.10304395035E+03 -0.23961450611E+03 -0.10205959632E+04  0.10533996868E+04  0.12699999809E+01 0.  1.
</event>
<event>
 5   0  0.1924218E-02  0.9177147E+03  0.7818609E-02  0.9403704E-01
        2   -1    0    0  501    0  0.00000000000E+00  0.00000000000E+00  0.23942433930E+03  0.23942433931E+03  0.25500000920E-02 0. -1.
       -2   -1    0    0    0  501  0.00000000000E+00  0.00000000000E+00 -0.87940123961E+03  0.87940123961E+03  0.25500000920E-02 0.  1.
    10030    2    1    2    0    0  0.00000000000E+00  0.00000000000E+00 -0.63997690031E+03  0.11188255789E+04  0.91771468504E+03 0.  0.
        4    1    3    3  502    0 -0.19185122927E+03 -0.27793160607E+03  0.58722974810E+02  0.34278691996E+03  0.12699999809E+01 0. -1.
       -4    1    3    3    0  502  0.19185122927E+03  0.27793160607E+03 -0.69869987512E+03  0.77603865897E+03  0.12699999809E+01 0.  1.
</event>
<event>
 5   0  0.1175993E-02  0.8927554E+03  0.7818609E-02  0.9434683E-01
        1   -1    0    0  501    0  0.00000000000E+00  0.00000000000E+00  0.33365986103E+03  0.33365986107E+03  0.50400001928E-02 0.  1.
       -1   -1    0    0    0  501  0.00000000000E+00  0.00000000000E+00 -0.59717416170E+03  0.59717416172E+03  0.50400001928E-02 0. -1.
    10030    2    1    2    0    0  0.00000000000E+00  0.00000000000E+00 -0.26351430067E+03  0.93083402279E+03  0.89275539277E+03 0.  0.
        4    1    3    3  502    0 -0.22909498356E+03  0.35552168881E+03 -0.28057280851E+03  0.50754595504E+03  0.12699999809E+01 0.  1.
       -4    1    3    3    0  502  0.22909498356E+03 -0.35552168881E+03  0.17058507834E+02  0.42328806774E+03  0.12699999809E+01 0. -1.
</event>
<event>
 5   0  0.7893875E-03  0.8663434E+03  0.7818609E-02  0.9468660E-01
        3   -1    0    0  501    0  0.00000000000E+00  0.00000000000E+00  0.28275978016E+03  0.28275979819E+03  0.10100000352E+00 0.  1.
       -3   -1    0    0    0  501  0.00000000000E+00  0.00000000000E+00 -0.66359411291E+03  0.66359412059E+03  0.10100000352E+00 0. -1.
    10030    2    1    2    0    0  0.00000000000E+00  0.00000000000E+00 -0.38083433275E+03  0.94635391879E+03  0.86634343687E+03 0.  0.
        1    1    3    3  502    0 -0.28706345104E+02 -0.10314061005E+03 -0.64891416335E+03  0.65768657514E+03  0.50400001928E-02 0. -1.
       -1    1    3    3    0  502  0.28706345104E+02  0.10314061005E+03  0.26807983060E+03  0.28866734365E+03  0.50400001928E-02 0.  1.
</event>
<event>
 5   0  0.1226424E-02  0.9173933E+03  0.7818609E-02  0.9404096E-01
        1   -1    0    0  501    0  0.00000000000E+00  0.00000000000E+00  0.62540095654E+03  0.62540095656E+03  0.50400001928E-02 0.  1.
       -1   -1    0    0    0  501  0.00000000000E+00  0.00000000000E+00 -0.33642832220E+03  0.33642832224E+03  0.50400001928E-02 0. -1.
    10030    2    1    2    0    0  0.00000000000E+00  0.00000000000E+00  0.28897263434E+03  0.96182927880E+03  0.91739325164E+03 0.  0.
        1    1    3    3  502    0 -0.28716515338E+03  0.11063201274E+03  0.50110810127E+03  0.58805832767E+03  0.50400001928E-02 0.  1.
       -1    1    3    3    0  502  0.28716515338E+03 -0.11063201274E+03 -0.21213546693E+03  0.37377095113E+03  0.50400001928E-02 0. -1.
</event>
<event>
 5   0  0.2008770E-02  0.8981190E+03  0.7818609E-02  0.9427936E-01
       -2   -1    0    0    0  501  0.00000000000E+00  0.00000000000E+00  0.40236698896E+03  0.40236698896E+03  0.25500000920E-02 0.  1.
        2   -1    0    0  501    0  0.00000000000E+00  0.00000000000E+00 -0.50117037591E+03  0.50117037592E+03  0.25500000920E-02 0. -1.
    10030    2    1    2    0    0  0.00000000000E+00  0.00000000000E+00 -0.98803386955E+02  0.90353736488E+03  0.89811895675E+03 0.  0.
        1    1    3    3  502    0 -0.19154320773E+03 -0.40598744906E+03 -0.61296981520E+02  0.45306945294E+03  0.50400001928E-02 0.  1.
       -1    1    3    3    0  502  0.19154320773E+03  0.40598744906E+03 -0.37506405435E+02  0.45046791194E+03  0.50400001928E-02 0. -1.
</event>
<event>
 5   0  0.1177712E-02  0.8006684E+03  0.7818609E-02  0.9559050E-01
       -1   -1    0    0    0  501  0.00000000000E+00  0.00000000000E+00  0.37660421671E+03  0.37660421675E+03  0.50400001928E-02 0.  1.
        1   -1    0    0  501    0  0.00000000000E+00  0.00000000000E+00 -0.42555942778E+03  0.42555942781E+03  0.50400001928E-02 0. -1.
    10030    2    1    2    0    0  0.00000000000E+00  0.00000000000E+00 -0.48955211067E+02  0.80216364456E+03  0.80066840824E+03 0.  0.
        5    1    3    3  502    0 -0.25786694018E+03  0.19621142742E+03  0.21101688656E+03  0.38670983890E+03  0.46999998093E+01 0.  1.
       -5    1    3    3    0  502  0.25786694018E+03 -0.19621142742E+03 -0.25997209763E+03  0.41545380566E+03  0.46999998093E+01 0. -1.
</event>
<event>
 5   0  0.1924218E-02  0.7991434E+03  0.7818609E-02  0.9561258E-01
       -2   -1    0    0    0  501  0.00000000000E+00  0.00000000000E+00  0.62624400303E+03  0.62624400304E+03  0.25500000920E-02 0.  1.
        2   -1    0    0  501    0  0.00000000000E+00  0.00000000000E+00 -0.25494460003E+03  0.25494460004E+03  0.25500000920E-02 0. -1.
    10030    2    1    2    0    0  0.00000000000E+00  0.00000000000E+00  0.37129940300E+03  0.88118860308E+03  0.79914335856E+03 0.  0.
        4    1    3    3  502    0  0.34421963556E+03 -0.15819418287E+03  0.32575065864E+03  0.49962752277E+03  0.12699999809E+01 0.  1.
       -4    1    3    3    0  502 -0.34421963556E+03  0.15819418287E+03  0.45548744356E+02  0.38156108031E+03  0.12699999809E+01 0. -1.
</event>
<event>
 5   0  0.2008770E-02  0.8909398E+03  0.7818609E-02  0.9436979E-01
        2   -1    0    0  501    0  0.00000000000E+00  0.00000000000E+00  0.17200093356E+04  0.17200093356E+04  0.25500000920E-02 0.  1.
       -2   -1    0    0    0  501  0.00000000000E+00  0.00000000000E+00 -0.11537346136E+03  0.11537346138E+03  0.25500000920E-02 0. -1.
    10030    2    1    2    0    0  0.00000000000E+00  0.00000000000E+00  0.16046358743E+04  0.18353827970E+04  0.89093979739E+03 0.  0.
        1    1    3    3  502    0  0.18082903883E+03  0.28636409006E+03  0.20618308941E+03  0.39650346751E+03  0.50400001928E-02 0. -1.
       -1    1    3    3    0  502 -0.18082903883E+03 -0.28636409006E+03  0.13984527849E+04  0.14388793295E+04  0.50400001928E-02 0.  1.
</event>
<event>
 5   0  0.2008643E-02  0.9071728E+03  0.7818609E-02  0.9416659E-01
       -2   -1    0    0    0  501  0.00000000000E+00  0.00000000000E+00  0.23805505381E+03  0.23805505383E+03  0.25500000920E-02 0. -1.
        2   -1    0    0  501    0  0.00000000000E+00  0.00000000000E+00 -0.86425645490E+03  0.86425645490E+03  0.25500000920E-02 0.  1.
    10030    2    1    2    0    0  0.00000000000E+00  0.00000000000E+00 -0.62620140109E+03  0.11023115087E+04  0.90717278815E+03 0.  0.
        3    1    3    3  502    0 -0.31833070534E+03  0.13728463892E+03  0.42323849646E+02  0.34924608587E+03  0.10100000352E+00 0. -1.
       -3    1    3    3    0  502  0.31833070534E+03 -0.13728463892E+03 -0.66852525073E+03  0.75306542286E+03  0.10100000352E+00 0.  1.
</event>
<event>
 5   0  0.1968763E-02  0.9069458E+03  0.7818609E-02  0.9416940E-01
       -2   -1    0    0    0  501  0.00000000000E+00  0.00000000000E+00  0.97437933491E+02  0.97437933525E+02  0.25500000920E-02 0.  1.
        2   -1    0    0  501    0  0.00000000000E+00  0.00000000000E+00 -0.21104478630E+04  0.21104478630E+04  0.25500000920E-02 0. -1.
    10030    2    1    2    0    0  0.00000000000E+00  0.00000000000E+00 -0.20130099295E+04  0.22078857965E+04  0.90694581657E+03 0.  0.
        2    1    3    3  502    0  0.26059343258E+03  0.30711618047E+03 -0.15137083209E+04  0.15663786790E+04  0.25500000920E-02 0. -1.
       -2    1    3    3    0  502 -0.26059343258E+03 -0.30711618047E+03 -0.49930160863E+03  0.64150711750E+03  0.25500000920E-02 0.  1.
</event>
<event>
 5   0  0.2008770E-02  0.8900350E+03  0.7818609E-02  0.9438125E-01
       -2   -1    0    0    0  501  0.00000000000E+00  0.00000000000E+00  0.17812727787E+03  0.17812727789E+03  0.25500000920E-02 0. -1.
        2   -1    0    0  501    0  0.00000000000E+00  0.00000000000E+00 -0.11117925362E+04  0.11117925362E+04  0.25500000920E-02 0.  1.
    10030    2    1    2    0    0  0.00000000000E+00  0.00000000000E+00 -0.93366525831E+03  0.12899198141E+04  0.89003500613E+03 0.  0.
        1    1    3    3  502    0 -0.42448719803E+03  0.13293849924E+03 -0.44746670815E+03  0.63094253367E+03  0.50400001928E-02 0.  1.
       -1    1    3    3    0  502  0.42448719803E+03 -0.13293849924E+03 -0.48619855016E+03  0.65897728040E+03  0.50400001928E-02 0. -1.
</event>
<event>
 5   0  0.2008643E-02  0.8718680E+03  0.7818609E-02  0.9461448E-01
        2   -1    0    0  501    0  0.00000000000E+00  0.00000000000E+00  0.68626068246E+03  0.68626068246E+03  0.25500000920E-02 0.  1.
       -2   -1    0    0    0  501  0.00000000000E+00  0.00000000000E+00 -0.27691873002E+03  0.27691873003E+03  0.25500000920E-02 0. -1.
    10030    2    1    2    0    0  0.00000000000E+00  0.00000000000E+00  0.40934195244E+03  0.96317941250E+03  0.87186796399E+03 0.  0.
        3    1    3    3  502    0  0.13651896415E+03 -0.33769889618E+03  0.46925447950E+03  0.59403514103E+03  0.10100000352E+00 0.  1.
       -3    1    3    3    0  502 -0.13651896415E+03  0.33769889618E+03 -0.59912527058E+02  0.36914427146E+03  0.10100000352E+00 0. -1.
</event>
<event>
 5   0  0.1968763E-02  0.9174943E+03  0.7818609E-02  0.9403973E-01
       -2   -1    0    0    0  501  0.00000000000E+00  0.00000000000E+00  0.15770012290E+03  0.15770012292E+03  0.25500000920E-02 0.  1.
        2   -1    0    0  501    0  0.00000000000E+00  0.00000000000E+00 -0.13344881478E+04  0.13344881479E+04  0.25500000920E-02 0. -1.
    10030    2    1    2    0    0  0.00000000000E+00  0.00000000000E+00 -0.11767880250E+04  0.14921882708E+04  0.91749429412E+03 0.  0.
        2    1    3    3  502    0 -0.39553241829E+03 -0.20185529481E+03 -0.77565655680E+03  0.89377544612E+03  0.25500000920E-02 0. -1.
       -2    1    3    3    0  502  0.39553241829E+03  0.20185529481E+03 -0.40113146815E+03  0.59841282465E+03  0.25500000920E-02 0.  1.
</event>
<event>
 5   0  0.1206541E-02  0.7823372E+03  0.7818609E-02  0.9585941E-01
       -1   -1    0    0    0  501  0.00000000000E+00  0.00000000000E+00  0.30024183901E+03  0.30024183906E+03  0.50400001928E-02 0. -1.
        1   -1    0    0  501    0  0.00000000000E+00  0.00000000000E+00 -0.50963202144E+03  0.50963202146E+03  0.50400001928E-02 0.  1.
    10030    2    1    2    0    0  0.00000000000E+00  0.00000000000E+00 -0.20939018243E+03  0.80987386052E+03  0.78233715332E+03 0.  0.
        3    1    3    3  502    0 -0.10402041759E+03  0.22453779629E+03 -0.41830264329E+03  0.48601911570E+03  0.10100000352E+00 0.  1.
       -3    1    3    3    0  502  0.10402041759E+03 -0.22453779629E+03  0.20891246086E+03  0.32385474482E+03  0.10100000352E+00 0. -1.
</event>
<event>
 5   0  0.1226424E-02  0.9168523E+03  0.7818609E-02  0.9404757E-01
       -1   -1    0    0    0  501  0.00000000000E+00  0.00000000000E+00  0.16507522510E+03  0.16507522518E+03  0.50400001928E-02 0. -1.
        1   -1    0    0  501    0  0.00000000000E+00  0.00000000000E+00 -0.12730833762E+04  0.12730833762E+04  0.50400001928E-02 0.  1.
    10030    2    1    2    0    0  0.00000000000E+00  0.00000000000E+00 -0.11080081511E+04  0.14381586014E+04  0.91685227810E+03 0.  0.
        1    1    3    3  502    0  0.31185407996E+03 -0.10890515404E+03 -0.10526091757E+04  0.11032222697E+04  0.50400001928E-02 0.  1.
       -1    1    3    3    0  502 -0.31185407996E+03  0.10890515404E+03 -0.55398975482E+02  0.33493633167E+03  0.50400001928E-02 0. -1.
</event>
<event>
 5   0  0.1968763E-02  0.8959967E+03  0.7818609E-02  0.9430600E-01
       -2   -1    0    0    0  501  0.00000000000E+00  0.00000000000E+00  0.55217790499E+03  0.55217790499E+03  0.25500000920E-02 0.  1.
        2   -1    0    0  501    0  0.00000000000E+00  0.00000000000E+00 -0.36347435057E+03  0.36347435058E+03  0.25500000920E-02 0. -1.
    10030    2    1    2    0    0  0.00000000000E+00  0.00000000000E+00  0.18870355441E+03  0.91565225557E+03  0.89599666388E+03 0.  0.
        2    1    3    3  502    0 -0.21152455835E+03 -0.61929685447E+02  0.49293946006E+03  0.53996966213E+03  0.25500000920E-02 0.  1.
       -2    1    3    3    0  502  0.21152455835E+03  0.61929685447E+02 -0.30423590565E+03  0.37568259344E+03  0.25500000920E-02 0. -1.
</event>
<event>
 5   0  0.2041861E-02  0.9741266E+03  0.7818609E-02  0.9337386E-01
        2   -1    0    0  501    0  0.00000000000E+00  0.00000000000E+00  0.10063468938E+04  0.10063468938E+04  0.25500000920E-02 0. -1.
       -2   -1    0    0    0  501  0.00000000000E+00  0.00000000000E+00 -0.23573448274E+03  0.23573448275E+03  0.25500000920E-02 0.  1.
    10030    2    1    2    0    0  0.00000000000E+00  0.00000000000E+00  0.77061241107E+03  0.12420813766E+04  0.97412661287E+03 0.  0.
        5    1    3    3  502    0  0.42199835055E+03  0.80216339737E+02  0.67799366913E+03  0.80262991123E+03  0.46999998093E+01 0.  1.
       -5    1    3    3    0  502 -0.42199835055E+03 -0.80216339737E+02  0.92618741942E+02  0.43945146533E+03  0.46999998093E+01 0. -1.
</event>
<event>
 5   0  0.2041861E-02  0.9000122E+03  0.7818609E-02  0.9425566E-01
        2   -1    0    0  501    0  0.00000000000E+00  0.00000000000E+00  0.26045754375E+03  0.26045754377E+03  0.25500000920E-02 0. -1.
       -2   -1    0    0    0  501  0.00000000000E+00  0.00000000000E+00 -0.77749895733E+03  0.77749895733E+03  0.25500000920E-02 0.  1.
    10030    2    1    2    0    0  0.00000000000E+00  0.00000000000E+00 -0.51704141357E+03  0.10379565011E+04  0.90001215260E+03 0.  0.
        5    1    3    3  502    0 -0.81033764408E+02 -0.30030651457E+03  0.11648326036E+03  0.33217602805E+03  0.46999998093E+01 0. -1.
       -5    1    3    3    0  502  0.81033764408E+02  0.30030651457E+03 -0.63352467393E+03  0.70578047305E+03  0.46999998093E+01 0.  1.
</event>
<event>
 5   0  0.1175993E-02  0.1015026E+04  0.7818609E-02  0.9292216E-01
        1   -1    0    0  501    0  0.00000000000E+00  0.00000000000E+00  0.85302905482E+03  0.85302905484E+03  0.50400001928E-02 0. -1.
       -1   -1    0    0    0  501  0.00000000000E+00  0.00000000000E+00 -0.30194712081E+03  0.30194712086E+03  0.50400001928E-02 0.  1.
    10030    2    1    2    0    0  0.00000000000E+00  0.00000000000E+00  0.55108193401E+03  0.11549761757E+04  0.10150264373E+04 0.  0.
        4    1    3    3  502    0  0.48776644535E+02  0.31362780055E+03  0.72615570439E+03  0.79249307773E+03  0.12699999809E+01 0. -1.
       -4    1    3    3    0  502 -0.48776644535E+02 -0.31362780055E+03 -0.17507377039E+03  0.36248309796E+03  0.12699999809E+01 0.  1.
</event>
<event>
 5   0  0.1177712E-02  0.9104982E+03  0.7818609E-02  0.9412552E-01
        1   -1    0    0  501    0  0.00000000000E+00  0.00000000000E+00  0.11419892141E+04  0.11419892141E+04  0.50400001928E-02 0. -1.
       -1   -1    0    0    0  501  0.00000000000E+00  0.00000000000E+00 -0.18148309879E+03  0.18148309886E+03  0.50400001928E-02 0.  1.
    10030    2    1    2    0    0  0.00000000000E+00  0.00000000000E+00  0.96050611530E+03  0.13234723130E+04  0.91049819641E+03 0.  0.
        5    1    3    3  502    0  0.84548970435E+02  0.10721037225E+03 -0.15098287739E+03  0.20361854430E+03  0.46999998093E+01 0.  1.
       -5    1    3    3    0  502 -0.84548970435E+02 -0.10721037225E+03  0.11114889927E+04  0.11198537687E+04  0.46999998093E+01 0. -1.
</event>
<event>
 5   0  0.2008770E-02  0.9015565E+03  0.7818609E-02  0.9423638E-01
       -2   -1    0    0    0  501  0.00000000000E+00  0.00000000000E+00  0.36365742916E+03  0.36365742917E+03  0.25500000920E-02 0.  1.
        2   -1    0    0  501    0  0.00000000000E+00  0.00000000000E+00 -0.55877047631E+03  0.55877047632E+03  0.25500000920E-02 0. -1.
    10030    2    1    2    0    0  0.00000000000E+00  0.00000000000E+00 -0.19511304715E+03  0.92242790549E+03  0.90155650941E+03 0.  0.
        1    1    3    3  502    0 -0.33126987590E+03  0.24241248720E+03  0.93028386111E+02  0.42090120608E+03  0.50400001928E-02 0.  1.
       -1    1    3    3    0  502  0.33126987590E+03 -0.24241248720E+03 -0.28814143326E+03  0.50152669941E+03  0.50400001928E-02 0. -1.
</event>
<event>
 5   0  0.1924218E-02  0.9022857E+03  0.7818609E-02  0.9422729E-01
       -2   -1    0    0    0  501  0.00000000000E+00  0.00000000000E+00  0.30444232028E+03  0.30444232029E+03  0.25500000920E-02 0. -1.
        2   -1    0    0  501    0  0.00000000000E+00  0.00000000000E+00 -0.66853346765E+03  0.66853346765E+03  0.25500000920E-02 0.  1.
    10030    2    1    2    0    0  0.00000000000E+00  0.00000000000E+00 -0.36409114737E+03  0.97297578794E+03  0.90228571990E+03 0.  0.
        4    1    3    3  502    0 -0.27483832937E+03 -0.11966522235E+03  0.18152226070E+03  0.35043946234E+03  0.12699999809E+01 0. -1.
       -4    1    3    3    0  502  0.27483832937E+03  0.11966522235E+03 -0.54561340807E+03  0.62253632561E+03  0.12699999809E+01 0.  1.
</event>
<event>
 5   0  0.1968763E-02  0.9039413E+03  0.7818609E-02  0.9420668E-01
       -2   -1    0    0    0  501  0.00000000000E+00  0.00000000000E+00  0.10989186048E+03  0.10989186051E+03  0.25500000920E-02 0.  1.
        2   -1    0    0  501    0  0.00000000000E+00  0.00000000000E+00 -0.18588951620E+04  0.18588951620E+04  0.25500000920E-02 0. -1.
    10030    2    1    2    0    0  0.00000000000E+00  0.00000000000E+00 -0.17490033015E+04  0.19687870225E+04  0.90394125434E+03 0.  0.
        2    1    3    3  502    0 -0.41801622652E+03  0.52402806080E+02 -0.51798820471E+03  0.66767911450E+03  0.25500000920E-02 0.  1.
       -2    1    3    3    0  502  0.41801622652E+03 -0.52402806080E+02 -0.12310150968E+04  0.13011079080E+04  0.25500000920E-02 0. -1.
</event>
<event>
 5   0  0.1968763E-02  0.9115417E+03  0.7818609E-02  0.9411268E-01
       -2   -1    0    0    0  501  0.00000000000E+00  0.00000000000E+00  0.13135984682E+03  0.13135984684E+03  0.25500000920E-02 0.  1.
        2   -1    0    0  501    0  0.00000000000E+00  0.00000000000E+00 -0.15813589363E+04  0.15813589363E+04  0.25500000920E-02 0. -1.
    10030    2    1    2    0    0  0.00000000000E+00  0.00000000000E+00 -0.14499990895E+04  0.17127187831E+04  0.91154169989E+03 0.  0.
        2    1    3    3  502    0 -0.18987393232E+03  0.41253937865E+02 -0.14996389387E+04  0.15121742440E+04  0.25500000920E-02 0. -1.
       -2    1    3    3    0  502  0.18987393232E+03 -0.41253937865E+02  0.49639849230E+02  0.20054453919E+03  0.25500000920E-02 0.  1.
</event>
<event>
 5   0  0.7893875E-03  0.9151219E+03  0.7818609E-02  0.9406873E-01
       -4   -1    0    0    0  501  0.00000000000E+00  0.00000000000E+00  0.80791112960E+03  0.80791212779E+03  0.12699999809E+01 0.  1.
        4   -1    0    0  501    0  0.00000000000E+00  0.00000000000E+00 -0.25913719086E+03  0.25914030290E+03  0.12699999809E+01 0. -1.
    10030    2    1    2    0    0  0.00000000000E+00  0.00000000000E+00  0.54877393874E+03  0.10670524307E+04  0.91512187932E+03 0.  0.
        4    1    3    3  502    0  0.51290924117E+01  0.42707534297E+03  0.83000329963E+02  0.43509806233E+03  0.12699999809E+01 0. -1.
       -4    1    3    3    0  502 -0.51290924117E+01 -0.42707534297E+03  0.46577360878E+03  0.63195436837E+03  0.12699999809E+01 0.  1.
</event>
<event>
 5   0  0.1226424E-02  0.8856813E+03  0.7818609E-02  0.9443660E-01
       -1   -1    0    0    0  501  0.00000000000E+00  0.00000000000E+00  0.33057866135E+03  0.33057866139E+03  0.50400001928E-02 0.  1.
        1   -1    0    0  501    0  0.00000000000E+00  0.00000000000E+00 -0.59322597953E+03  0.59322597955E+03  0.50400001928E-02 0. -1.
    10030    2    1    2    0    0  0.00000000000E+00  0.00000000000E+00 -0.26264731818E+03  0.92380464094E+03  0.88568132016E+03 0.  0.
        1    1    3    3  502    0  0.41534423039E+03  0.14029875108E+03 -0.66074763138E+02  0.44335137715E+03  0.50400001928E-02 0.  1.
       -1    1    3    3    0  502 -0.41534423039E+03 -0.14029875108E+03 -0.19657255504E+03  0.48045326380E+03  0.50400001928E-02 0. -1.
</event>
<event>
 5   0  0.2041861E-02  0.8852158E+03  0.7818609E-02  0.9444253E-01
        2   -1    0    0  501    0  0.00000000000E+00  0.00000000000E+00  0.11809717336E+04  0.11809717336E+04  0.25500000920E-02 0.  1.
       -2   -1    0    0    0  501  0.00000000000E+00  0.00000000000E+00 -0.16588182502E+03  0.16588182504E+03  0.25500000920E-02 0. -1.
    10030    2    1    2    0    0  0.00000000000E+00  0.00000000000E+00  0.10150899085E+04  0.13468535586E+04  0.88521578493E+03 0.  0.
        5    1    3    3  502    0  0.32374400086E+03 -0.77058514468E+02  0.63613130701E+02  0.33884644478E+03  0.46999998093E+01 0. -1.
       -5    1    3    3    0  502 -0.32374400086E+03  0.77058514468E+02  0.95147677784E+03  0.10080071138E+04  0.46999998093E+01 0.  1.
</event>
<event>
 5   0  0.2008770E-02  0.8704173E+03  0.7818609E-02  0.9463336E-01
       -2   -1    0    0    0  501  0.00000000000E+00  0.00000000000E+00  0.31167834468E+03  0.31167834469E+03  0.25500000920E-02 0.  1.
        2   -1    0    0  501    0  0.00000000000E+00  0.00000000000E+00 -0.60769885979E+03  0.60769885979E+03  0.25500000920E-02 0. -1.
    10030    2    1    2    0    0  0.00000000000E+00  0.00000000000E+00 -0.29602051511E+03  0.91937720448E+03  0.87041731299E+03 0.  0.
        1    1    3    3  502    0 -0.43328057521E+03 -0.95105527041E+00 -0.10479931203E+03  0.44577556819E+03  0.50400001928E-02 0.  1.
       -1    1    3    3    0  502  0.43328057521E+03  0.95105527041E+00 -0.19122120309E+03  0.47360163629E+03  0.50400001928E-02 0. -1.
</event>
<event>
 5   0  0.1175993E-02  0.9012179E+03  0.7818609E-02  0.9424060E-01
       -1   -1    0    0    0  501  0.00000000000E+00  0.00000000000E+00  0.30230533951E+03  0.30230533955E+03  0.50400001928E-02 0.  1.
        1   -1    0    0  501    0  0.00000000000E+00  0.00000000000E+00 -0.67166673590E+03  0.67166673592E+03  0.50400001928E-02 0. -1.
    10030    2    1    2    0    0  0.00000000000E+00  0.00000000000E+00 -0.36936139639E+03  0.97397207547E+03  0.90121793294E+03 0.  0.
        4    1    3    3  502    0  0.72298627976E+02 -0.27666815977E+03 -0.56103888294E+03  0.62971311191E+03  0.12699999809E+01 0. -1.
       -4    1    3    3    0  502 -0.72298627976E+02  0.27666815977E+03  0.19167748655E+03  0.34425896356E+03  0.12699999809E+01 0.  1.
</event>
<event>
 5   0  0.1206541E-02  0.9295443E+03  0.7818609E-02  0.9389385E-01
        1   -1    0    0  501    0  0.00000000000E+00  0.00000000000E+00  0.63060267546E+03  0.63060267548E+03  0.50400001928E-02 0. -1.
       -1   -1    0    0    0  501  0.00000000000E+00  0.00000000000E+00 -0.34255035155E+03  0.34255035158E+03  0.50400001928E-02 0.  1.
    10030    2    1    2    0    0  0.00000000000E+00  0.00000000000E+00  0.28805232391E+03  0.97315302706E+03  0.92954433610E+03 0.  0.
        3    1    3    3  502    0  0.14912432855E+01 -0.29729088626E+03  0.51803840567E+03  0.59728376406E+03  0.10100000352E+00 0. -1.
       -3    1    3    3    0  502 -0.14912432855E+01  0.29729088626E+03 -0.22998608176E+03  0.37586926300E+03  0.10100000352E+00 0.  1.
</event>
<event>
 5   0  0.2041861E-02  0.8978135E+03  0.7818609E-02  0.9428319E-01
        2   -1    0    0  501    0  0.00000000000E+00  0.00000000000E+00  0.13639847123E+04  0.13639847123E+04  0.25500000920E-02 0.  1.
       -2   -1    0    0    0  501  0.00000000000E+00  0.00000000000E+00 -0.14774158224E+03  0.14774158226E+03  0.25500000920E-02 0. -1.
    10030    2    1    2    0    0  0.00000000000E+00  0.00000000000E+00  0.12162431301E+04  0.15117262946E+04  0.89781347632E+03 0.  0.
        5    1    3    3  502    0  0.44295843860E+03  0.34408260064E+02  0.50031893965E+03  0.66913170457E+03  0.46999998093E+01 0.  1.
       -5    1    3    3    0  502 -0.44295843860E+03 -0.34408260064E+02  0.71592419043E+03  0.84259459002E+03  0.46999998093E+01 0. -1.
</event>
<event>
 5   0  0.2041861E-02  0.9537928E+03  0.7818609E-02  0.9360728E-01
        2   -1    0    0  501    0  0.00000000000E+00  0.00000000000E+00  0.15078622928E+04  0.15078622928E+04  0.25500000920E-02 0.  1.
       -2   -1    0    0    0  501  0.00000000000E+00  0.00000000000E+00 -0.15082954668E+03  0.15082954670E+03  0.25500000920E-02 0. -1.
    10030    2    1    2    0    0  0.00000000000E+00  0.00000000000E+00  0.13570327461E+04  0.16586918395E+04  0.95379282047E+03 0.  0.
        5    1    3    3  502    0 -0.28389149059E+03  0.31245550096E+03  0.10641982414E+04  0.11448854989E+04  0.46999998093E+01 0.  1.
       -5    1    3    3    0  502  0.28389149059E+03 -0.31245550096E+03  0.29283450466E+03  0.51380634058E+03  0.46999998093E+01 0. -1.
</event>
<event>
 5   0  0.1968763E-02  0.9077581E+03  0.7818609E-02  0.9415935E-01
       -2   -1    0    0    0  501  0.00000000000E+00  0.00000000000E+00  0.81259403691E+02  0.81259403731E+02  0.25500000920E-02 0. -1.
        2   -1    0    0  501    0  0.00000000000E+00  0.00000000000E+00 -0.25351671618E+04  0.25351671618E+04  0.25500000920E-02 0.  1.
    10030    2    1    2    0    0  0.00000000000E+00  0.00000000000E+00 -0.24539077581E+04  0.26164265655E+04  0.90775805560E+03 0.  0.
        2    1    3    3  502    0  0.25575744827E+03  0.36911693587E+03 -0.14169884515E+04  0.14864438961E+04  0.25500000920E-02 0. -1.
       -2    1    3    3    0  502 -0.25575744827E+03 -0.36911693587E+03 -0.10369193066E+04  0.11299826694E+04  0.25500000920E-02 0.  1.
</event>
<event>
 5   0  0.1924218E-02  0.9056123E+03  0.7818609E-02  0.9418593E-01
        2   -1    0    0  501    0  0.00000000000E+00  0.00000000000E+00  0.36881120671E+03  0.36881120671E+03  0.25500000920E-02 0.  1.
       -2   -1    0    0    0  501  0.00000000000E+00  0.00000000000E+00 -0.55593051944E+03  0.55593051945E+03  0.25500000920E-02 0. -1.
    10030    2    1    2    0    0  0.00000000000E+00  0.00000000000E+00 -0.18711931274E+03  0.92474172616E+03  0.90561229172E+03 0.  0.
        4    1    3    3  502    0  0.23035983196E+03  0.36538040167E+03  0.45190295455E+02  0.43429513675E+03  0.12699999809E+01 0.  1.
       -4    1    3    3    0  502 -0.23035983196E+03 -0.36538040167E+03 -0.23230960819E+03  0.49044658941E+03  0.12699999809E+01 0. -1.
</event>
<event>
 5   0  0.1226424E-02  0.8964621E+03  0.7818609E-02  0.9430015E-01
        1   -1    0    0  501    0  0.00000000000E+00  0.00000000000E+00  0.34346764539E+03  0.34346764543E+03  0.50400001928E-02 0.  1.
       -1   -1    0    0    0  501  0.00000000000E+00  0.00000000000E+00 -0.58494911634E+03  0.58494911636E+03  0.50400001928E-02 0. -1.
    10030    2    1    2    0    0  0.00000000000E+00  0.00000000000E+00 -0.24148147095E+03  0.92841676179E+03  0.89646214798E+03 0.  0.
        1    1    3    3  502    0  0.42132175375E+03 -0.10192478563E+03 -0.26117248172E+01  0.43348299071E+03  0.50400001928E-02 0. -1.
       -1    1    3    3    0  502 -0.42132175375E+03  0.10192478563E+03 -0.23886974614E+03  0.49493377108E+03  0.50400001928E-02 0.  1.
</event>
<event>
 5   0  0.1226424E-02  0.8976221E+03  0.7818609E-02  0.9428559E-01
       -1   -1    0    0    0  501  0.00000000000E+00  0.00000000000E+00  0.30306615545E+03  0.30306615549E+03  0.50400001928E-02 0.  1.
        1   -1    0    0  501    0  0.00000000000E+00  0.00000000000E+00 -0.66464484242E+03  0.66464484244E+03  0.50400001928E-02 0. -1.
    10030    2    1    2    0    0  0.00000000000E+00  0.00000000000E+00 -0.36157868696E+03  0.96771099793E+03  0.89762209679E+03 0.  0.
        1    1    3    3  502    0 -0.11552607661E+03 -0.39846126715E+02  0.28478441769E+03  0.30989700350E+03  0.50400001928E-02 0.  1.
       -1    1    3    3    0  502  0.11552607661E+03  0.39846126715E+02 -0.64636310465E+03  0.65781399443E+03  0.50400001928E-02 0. -1.
</event>
<event>
 5   0  0.1206541E-02  0.8349317E+03  0.7818609E-02  0.9510787E-01
        1   -1    0    0  501    0  0.00000000000E+00  0.00000000000E+00  0.12933687515E+04  0.12933687515E+04  0.50400001928E-02 0. -1.
       -1   -1    0    0    0  501  0.00000000000E+00  0.00000000000E+00 -0.13474712510E+03  0.13474712519E+03  0.50400001928E-02 0.  1.
    10030    2    1    2    0    0  0.00000000000E+00  0.00000000000E+00  0.11586216264E+04  0.14281158767E+04  0.83493166435E+03 0.  0.
        3    1    3    3  502    0 -0.37773643668E+03  0.30307986734E+02  0.27973965683E+03  0.47101770185E+03  0.10100000352E+00 0.  1.
       -3    1    3    3    0  502  0.37773643668E+03 -0.30307986734E+02  0.87888196960E+03  0.95709817487E+03  0.10100000352E+00 0. -1.
</event>
<event>
 5   0  0.2008770E-02  0.9072499E+03  0.7818609E-02  0.9416564E-01
       -2   -1    0    0    0  501  0.00000000000E+00  0.00000000000E+00  0.27197007596E+03  0.27197007597E+03  0.25500000920E-02 0. -1.
        2   -1    0    0  501    0  0.00000000000E+00  0.00000000000E+00 -0.75661108769E+03  0.75661108770E+03  0.25500000920E-02 0.  1.
    10030    2    1    2    0    0  0.00000000000E+00  0.00000000000E+00 -0.48464101173E+03  0.10285811637E+04  0.90724985533E+03 0.  0.
        1    1    3    3  502    0  0.23039227174E+02 -0.45013912670E+03 -0.30034666329E+03  0.54163101605E+03  0.50400001928E-02 0.  1.
       -1    1    3    3    0  502 -0.23039227174E+02  0.45013912670E+03 -0.18429434844E+03  0.48695014762E+03  0.50400001928E-02 0. -1.
</event>
<event>
 5   0  0.7893875E-03  0.8888775E+03  0.7818609E-02  0.9439593E-01
        3   -1    0    0  501    0  0.00000000000E+00  0.00000000000E+00  0.26687304995E+03  0.26687306906E+03  0.10100000352E+00 0. -1.
       -3   -1    0    0    0  501  0.00000000000E+00  0.00000000000E+00 -0.74014895661E+03  0.74014896350E+03  0.10100000352E+00 0.  1.
    10030    2    1    2    0    0  0.00000000000E+00  0.00000000000E+00 -0.47327590666E+03  0.10070220326E+04  0.88887754514E+03 0.  0.
        2    1    3    3  502    0 -0.21920741238E+03 -0.84128078665E+02 -0.66414821255E+03  0.70443045895E+03  0.25500000920E-02 0.  1.
       -2    1    3    3    0  502  0.21920741238E+03  0.84128078665E+02  0.19087230589E+03  0.30259157361E+03  0.25500000920E-02 0. -1.
</event>
<event>
 5   0  0.1924218E-02  0.8937716E+03  0.7818609E-02  0.9433401E-01
       -2   -1    0    0    0  501  0.00000000000E+00  0.00000000000E+00  0.51628246131E+03  0.51628246131E+03  0.25500000920E-02 0. -1.
        2   -1    0    0  501    0  0.00000000000E+00  0.00000000000E+00 -0.38681715172E+03  0.38681715173E+03  0.25500000920E-02 0.  1.
    10030    2    1    2    0    0  0.00000000000E+00  0.00000000000E+00  0.12946530959E+03  0.90309961304E+03  0.89377158418E+03 0.  0.
        4    1    3    3  502    0 -0.13443304984E+03 -0.36821918835E+03  0.28155947613E+03  0.48263336712E+03  0.12699999809E+01 0. -1.
       -4    1    3    3    0  502  0.13443304984E+03  0.36821918835E+03 -0.15209416655E+03  0.42046624592E+03  0.12699999809E+01 0.  1.
</event>
<event>
 5   0  0.1175993E-02  0.7442242E+03  0.7818609E-02  0.9644455E-01
       -1   -1    0    0    0  501  0.00000000000E+00  0.00000000000E+00  0.13152519061E+03  0.13152519070E+03  0.50400001928E-02 0.  1.
        1   -1    0    0  501    0  0.00000000000E+00  0.00000000000E+00 -0.10527825172E+04  0.10527825172E+04  0.50400001928E-02 0. -1.
    10030    2    1    2    0    0  0.00000000000E+00  0.00000000000E+00 -0.92125732655E+03  0.11843077079E+04  0.74422421702E+03 0.  0.
        4    1    3    3  502    0 -0.24643336699E+03  0.11167826748E+03 -0.86716449354E+03  0.90839270778E+03  0.12699999809E+01 0. -1.
       -4    1    3    3    0  502  0.24643336699E+03 -0.11167826748E+03 -0.54092833011E+02  0.27591500009E+03  0.12699999809E+01 0.  1.
</event>
<event>
 5   0  0.1177712E-02  0.9011063E+03  0.7818609E-02  0.9424200E-01
        1   -1    0    0  501    0  0.00000000000E+00  0.00000000000E+00  0.40981811710E+03  0.40981811713E+03  0.50400001928E-02 0.  1.
       -1   -1    0    0    0  501  0.00000000000E+00  0.00000000000E+00 -0.49533717608E+03  0.49533717610E+03  0.50400001928E-02 0. -1.
    10030    2    1    2    0    0  0.00000000000E+00  0.00000000000E+00 -0.85519058978E+02  0.90515529323E+03  0.90110631749E+03 0.  0.
        5    1    3    3  502    0 -0.21452519732E+03 -0.37438122792E+03 -0.17293231209E+03  0.46487636923E+03  0.46999998093E+01 0.  1.
       -5    1    3    3    0  502  0.21452519732E+03  0.37438122792E+03  0.87413253117E+02  0.44027892400E+03  0.46999998093E+01 0. -1.
</event>
<event>
 5   0  0.2008770E-02  0.7758329E+03  0.7818609E-02  0.9595672E-01
       -2   -1    0    0    0  501  0.00000000000E+00  0.00000000000E+00  0.14342434132E+03  0.14342434135E+03  0.25500000920E-02 0. -1.
        2   -1    0    0  501    0  0.00000000000E+00  0.00000000000E+00 -0.10491886406E+04  0.10491886406E+04  0.25500000920E-02 0.  1.
    10030    2    1    2    0    0  0.00000000000E+00  0.00000000000E+00 -0.90576429931E+03  0.11926129820E+04  0.77583294522E+03 0.  0.
        1    1    3    3  502    0  0.35764208422E+03  0.11832530136E+03 -0.59519141840E+03  0.70438736637E+03  0.50400001928E-02 0.  1.
       -1    1    3    3    0  502 -0.35764208422E+03 -0.11832530136E+03 -0.31057288091E+03  0.48822561560E+03  0.50400001928E-02 0. -1.
</event>
<event>
 5   0  0.1206541E-02  0.9269425E+03  0.7818609E-02  0.9392515E-01
       -1   -1    0    0    0  501  0.00000000000E+00  0.00000000000E+00  0.52657507147E+03  0.52657507149E+03  0.50400001928E-02 0. -1.
        1   -1    0    0  501    0  0.00000000000E+00  0.00000000000E+00 -0.40792965016E+03  0.40792965019E+03  0.50400001928E-02 0.  1.
    10030    2    1    2    0    0  0.00000000000E+00  0.00000000000E+00  0.11864542131E+03  0.93450472168E+03  0.92694246793E+03 0.  0.
        3    1    3    3  502    0  0.23384570004E+03  0.33581219153E+03  0.27870299046E+03  0.49510504593E+03  0.10100000352E+00 0. -1.
       -3    1    3    3    0  502 -0.23384570004E+03 -0.33581219153E+03 -0.16005756915E+03  0.43939967575E+03  0.10100000352E+00 0.  1.
</event>
<event>
 5   0  0.1968763E-02  0.9049146E+03  0.7818609E-02  0.9419459E-01
        2   -1    0    0  501    0  0.00000000000E+00  0.00000000000E+00  0.41583181820E+03  0.41583181821E+03  0.25500000920E-02 0.  1.
       -2   -1    0    0    0  501  0.00000000000E+00  0.00000000000E+00 -0.49230863041E+03  0.49230863042E+03  0.25500000920E-02 0. -1.
    10030    2    1    2    0    0  0.00000000000E+00  0.00000000000E+00 -0.76476812209E+02  0.90814044862E+03  0.90491456592E+03 0.  0.
        2    1    3    3  502    0 -0.53370353650E+02  0.19635849459E+03 -0.44379849283E+03  0.48822346860E+03  0.25500000920E-02 0. -1.
       -2    1    3    3    0  502  0.53370353650E+02 -0.19635849459E+03  0.36732168062E+03  0.41991698002E+03  0.25500000920E-02 0.  1.
</event>
<event>
 5   0  0.1968763E-02  0.8899943E+03  0.7818609E-02  0.9438176E-01
       -2   -1    0    0    0  501  0.00000000000E+00  0.00000000000E+00  0.44477014718E+03  0.44477014719E+03  0.25500000920E-02 0.  1.
        2   -1    0    0  501    0  0.00000000000E+00  0.00000000000E+00 -0.44522428323E+03  0.44522428324E+03  0.25500000920E-02 0. -1.
    10030    2    1    2    0    0  0.00000000000E+00  0.00000000000E+00 -0.45413605391E+00  0.88999443043E+03  0.88999431456E+03 0.  0.
        2    1    3    3  502    0  0.13891859833E+03 -0.82795665821E+02  0.41434381312E+03  0.44478567278E+03  0.25500000920E-02 0.  1.
       -2    1    3    3    0  502 -0.13891859833E+03  0.82795665821E+02 -0.41479794917E+03  0.44520875764E+03  0.25500000920E-02 0. -1.
</event>
<event>
 5   0  0.1924218E-02  0.8919584E+03  0.7818609E-02  0.9435690E-01
        2   -1    0    0  501    0  0.00000000000E+00  0.00000000000E+00  0.94405285641E+03  0.94405285642E+03  0.25500000920E-02 0. -1.
       -2   -1    0    0    0  501  0.00000000000E+00  0.00000000000E+00 -0.21068466163E+03  0.21068466165E+03  0.25500000920E-02 0.  1.
    10030    2    1    2    0    0  0.00000000000E+00  0.00000000000E+00  0.73336819478E+03  0.11547375181E+04  0.89195842196E+03 0.  0.
        4    1    3    3  502    0  0.42692884771E+03  0.12880473343E+03  0.35881532631E+03  0.57237134070E+03  0.12699999809E+01 0.  1.
       -4    1    3    3    0  502 -0.42692884771E+03 -0.12880473343E+03  0.37455286847E+03  0.58236617736E+03  0.12699999809E+01 0. -1.
</event>
<event>
 5   0  0.2008643E-02  0.8686560E+03  0.7818609E-02  0.9465634E-01
        2   -1    0    0  501    0  0.00000000000E+00  0.00000000000E+00  0.49964420168E+03  0.49964420168E+03  0.25500000920E-02 0.  1.
       -2   -1    0    0    0  501  0.00000000000E+00  0.00000000000E+00 -0.37755030315E+03  0.37755030316E+03  0.25500000920E-02 0. -1.
    10030    2    1    2    0    0  0.00000000000E+00  0.00000000000E+00  0.12209389853E+03  0.87719450484E+03  0.86865601895E+03 0.  0.
        3    1    3    3  502    0  0.94071769165E+02 -0.39189748034E+03 -0.10243218570E+03  0.41584311431E+03  0.10100000352E+00 0.  1.
       -3    1    3    3    0  502 -0.94071769165E+02  0.39189748034E+03  0.22452608423E+03  0.46135139053E+03  0.10100000352E+00 0. -1.
</event>
<event>
 5   0  0.2008770E-02  0.9016372E+03  0.7818609E-02  0.9423537E-01
       -2   -1    0    0    0  501  0.00000000000E+00  0.00000000000E+00  0.29743999513E+03  0.29743999514E+03  0.25500000920E-02 0. -1.
        2   -1    0    0  501    0  0.00000000000E+00  0.00000000000E+00 -0.68328878969E+03  0.68328878970E+03  0.25500000920E-02 0.  1.
    10030    2    1    2    0    0  0.00000000000E+00  0.00000000000E+00 -0.38584879456E+03  0.98072878484E+03  0.90163720927E+03 0.  0.
        1    1    3    3  502    0  0.31298452251E+03  0.29947564838E+03 -0.57101145938E+02  0.43692735803E+03  0.50400001928E-02 0. -1.
       -1    1    3    3    0  502 -0.31298452251E+03 -0.29947564838E+03 -0.32874764862E+03  0.54380142681E+03  0.50400001928E-02 0.  1.
</event>
<event>
 5   0  0.2041861E-02  0.9183771E+03  0.7818609E-02  0.9402896E-01
        2   -1    0    0  501    0  0.00000000000E+00  0.00000000000E+00  0.11383033915E+04  0.11383033915E+04  0.25500000920E-02 0.  1.
       -2   -1    0    0    0  501  0.00000000000E+00  0.00000000000E+00 -0.18523543229E+03  0.18523543230E+03  0.25500000920E-02 0. -1.
    10030    2    1    2    0    0  0.00000000000E+00  0.00000000000E+00  0.95306795919E+03  0.13235388238E+04  0.91837709206E+03 0.  0.
        5    1    3    3  502    0  0.18506501078E+03  0.18920218057E+03  0.10172816016E+04  0.10511567296E+04  0.46999998093E+01 0.  1.
       -5    1    3    3    0  502 -0.18506501078E+03 -0.18920218057E+03 -0.64213642384E+02  0.27238209415E+03  0.46999998093E+01 0. -1.
</event>
<event>
 5   0  0.1175993E-02  0.9356254E+03  0.7818609E-02  0.9382112E-01
        1   -1    0    0  501    0  0.00000000000E+00  0.00000000000E+00  0.83083287429E+03  0.83083287431E+03  0.50400001928E-02 0.  1.
       -1   -1    0    0    0  501  0.00000000000E+00  0.00000000000E+00 -0.26340881203E+03  0.26340881207E+03  0.50400001928E-02 0. -1.
    10030    2    1    2    0    0  0.00000000000E+00  0.00000000000E+00  0.56742406227E+03  0.10942416864E+04  0.93562535332E+03 0.  0.
        4    1    3    3  502    0  0.36466926704E+03 -0.44254072493E+01  0.62637392777E+03  0.72480974665E+03  0.12699999809E+01 0.  1.
       -4    1    3    3    0  502 -0.36466926704E+03  0.44254072493E+01 -0.58949865503E+02  0.36943193973E+03  0.12699999809E+01 0. -1.
</event>
<event>
 5   0  0.1177712E-02  0.8994380E+03  0.7818609E-02  0.9426284E-01
        1   -1    0    0  501    0  0.00000000000E+00  0.00000000000E+00  0.40392548175E+03  0.40392548178E+03  0.50400001928E-02 0. -1.
       -1   -1    0    0    0  501  0.00000000000E+00  0.00000000000E+00 -0.50070413408E+03  0.50070413410E+03  0.50400001928E-02 0.  1.
    10030    2    1    2    0    0  0.00000000000E+00  0.00000000000E+00 -0.96778652329E+02  0.90462961588E+03  0.89943795471E+03 0.  0.
        5    1    3    3  502    0 -0.42733117538E+03  0.86948588801E+01 -0.18897286496E+03  0.46735464876E+03  0.46999998093E+01 0. -1.
       -5    1    3    3    0  502  0.42733117538E+03 -0.86948588801E+01  0.92194212635E+02  0.43727496712E+03  0.46999998093E+01 0.  1.
</event>
<event>
 5   0  0.1924218E-02  0.8815921E+03  0.7818609E-02  0.9448889E-01
       -2   -1    0    0    0  501  0.00000000000E+00  0.00000000000E+00  0.59599495542E+03  0.59599495543E+03  0.25500000920E-02 0.  1.
        2   -1    0    0  501    0  0.00000000000E+00  0.00000000000E+00 -0.32601139997E+03  0.32601139998E+03  0.25500000920E-02 0. -1.
    10030    2    1    2    0    0  0.00000000000E+00  0.00000000000E+00  0.26998355546E+03  0.92200635541E+03  0.88159208209E+03 0.  0.
        4    1    3    3  502    0  0.29515089464E+03 -0.31270336955E+03  0.23640122414E+03  0.49069807377E+03  0.12699999809E+01 0.  1.
       -4    1    3    3    0  502 -0.29515089464E+03  0.31270336955E+03  0.33582331320E+02  0.43130828164E+03  0.12699999809E+01 0. -1.
</event>
<event>
 5   0  0.1968763E-02  0.9087958E+03  0.7818609E-02  0.9414653E-01
       -2   -1    0    0    0  501  0.00000000000E+00  0.00000000000E+00  0.85957289062E+02  0.85957289100E+02  0.25500000920E-02 0. -1.
        2   -1    0    0  501    0  0.00000000000E+00  0.00000000000E+00 -0.24020936487E+04  0.24020936487E+04  0.25500000920E-02 0.  1.
    10030    2    1    2    0    0  0.00000000000E+00  0.00000000000E+00 -0.23161363597E+04  0.24880509378E+04  0.90879581462E+03 0.  0.
        2    1    3    3  502    0 -0.16388497548E+03  0.20380009990E+03 -0.14072912430E+03  0.29698055886E+03  0.25500000920E-02 0. -1.
       -2    1    3    3    0  502  0.16388497548E+03 -0.20380009990E+03 -0.21754072354E+04  0.21910703790E+04  0.25500000920E-02 0.  1.
</event>
<event>
 5   0  0.1177712E-02  0.8930048E+03  0.7818609E-02  0.9434368E-01
       -1   -1    0    0    0  501  0.00000000000E+00  0.00000000000E+00  0.67320281623E+03  0.67320281625E+03  0.50400001928E-02 0.  1.
        1   -1    0    0  501    0  0.00000000000E+00  0.00000000000E+00 -0.29614314647E+03  0.29614314651E+03  0.50400001928E-02 0. -1.
    10030    2    1    2    0    0  0.00000000000E+00  0.00000000000E+00  0.37705966976E+03  0.96934596276E+03  0.89300481576E+03 0.  0.
        5    1    3    3  502    0 -0.13935916936E+03  0.18719503276E+03  0.60169933254E+03  0.64538913467E+03  0.46999998093E+01 0.  1.
       -5    1    3    3    0  502  0.13935916936E+03 -0.18719503276E+03 -0.22463966278E+03  0.32395682809E+03  0.46999998093E+01 0. -1.
</event>
<event>
 5   0  0.1162839E-02  0.9030208E+03  0.7818609E-02  0.9421813E-01
        1   -1    0    0  501    0  0.00000000000E+00  0.00000000000E+00  0.90209908724E+03  0.90209908725E+03  0.50400001928E-02 0.  1.
       -1   -1    0    0    0  501  0.00000000000E+00  0.00000000000E+00 -0.22598585893E+03  0.22598585899E+03  0.50400001928E-02 0. -1.
    10030    2    1    2    0    0  0.00000000000E+00  0.00000000000E+00  0.67611322830E+03  0.11280849462E+04  0.90302079071E+03 0.  0.
        2    1    3    3  502    0 -0.30129241693E+03 -0.17904509005E+03 -0.17541895405E+02  0.35091591995E+03  0.25500000920E-02 0. -1.
       -2    1    3    3    0  502  0.30129241693E+03  0.17904509005E+03  0.69365512371E+03  0.77716902629E+03  0.25500000920E-02 0.  1.
</event>
<event>
 5   0  0.2041861E-02  0.7474858E+03  0.7818609E-02  0.9639303E-01
       -2   -1    0    0    0  501  0.00000000000E+00  0.00000000000E+00  0.29571222524E+03  0.29571222525E+03  0.25500000920E-02 0. -1.
        2   -1    0    0  501    0  0.00000000000E+00  0.00000000000E+00 -0.47236376124E+03  0.47236376125E+03  0.25500000920E-02 0.  1.
    10030    2    1    2    0    0  0.00000000000E+00  0.00000000000E+00 -0.17665153600E+03  0.76807598650E+03  0.74748575630E+03 0.  0.
        5    1    3    3  502    0  0.27786447469E+03  0.24624246080E+03 -0.13213386483E+03  0.39411351668E+03  0.46999998093E+01 0.  1.
       -5    1    3    3    0  502 -0.27786447469E+03 -0.24624246080E+03 -0.44517671171E+02  0.37396246983E+03  0.46999998093E+01 0. -1.
</event>
<event>
 5   0  0.1162839E-02  0.9235856E+03  0.7818609E-02  0.9396569E-01
       -1   -1    0    0    0  501  0.00000000000E+00  0.00000000000E+00  0.14445014802E+03  0.14445014810E+03  0.50400001928E-02 0.  1.
        1   -1    0    0  501    0  0.00000000000E+00  0.00000000000E+00 -0.14763057001E+04  0.14763057001E+04  0.50400001928E-02 0. -1.
    10030    2    1    2    0    0  0.00000000000E+00  0.00000000000E+00 -0.13318555521E+04  0.16207558482E+04  0.92358557152E+03 0.  0.
        2    1    3    3  502    0  0.38762013111E+03  0.51273176940E+02 -0.10971155241E+04  0.11647063055E+04  0.25500000920E-02 0. -1.
       -2    1    3    3    0  502 -0.38762013111E+03 -0.51273176940E+02 -0.23474002799E+03  0.45604954278E+03  0.25500000920E-02 0.  1.
</event>
<event>
 5   0  0.1206541E-02  0.8889636E+03  0.7818609E-02  0.9439484E-01
        1   -1    0    0  501    0  0.00000000000E+00  0.00000000000E+00  0.96371232232E+03  0.96371232234E+03  0.50400001928E-02 0. -1.
       -1   -1    0    0    0  501  0.00000000000E+00  0.00000000000E+00 -0.20500313622E+03  0.20500313628E+03  0.50400001928E-02 0.  1.
    10030    2    1    2    0    0  0.00000000000E+00  0.00000000000E+00  0.75870918610E+03  0.11687154586E+04  0.88896355051E+03 0.  0.
        3    1    3    3  502    0  0.31000028911E+03 -0.26267481157E+03  0.61623978059E+03  0.73813935897E+03  0.10100000352E+00 0. -1.
       -3    1    3    3    0  502 -0.31000028911E+03  0.26267481157E+03  0.14246940551E+03  0.43057609965E+03  0.10100000352E+00 0.  1.
</event>
<event>
 5   0  0.1226424E-02  0.8964855E+03  0.7818609E-02  0.9429985E-01
       -1   -1    0    0    0  501  0.00000000000E+00  0.00000000000E+00  0.37016977503E+03  0.37016977506E+03  0.50400001928E-02 0.  1.
        1   -1    0    0  501    0  0.00000000000E+00  0.00000000000E+00 -0.54278216150E+03  0.54278216152E+03  0.50400001928E-02 0. -1.
    10030    2    1    2    0    0  0.00000000000E+00  0.00000000000E+00 -0.17261238647E+03  0.91295193659E+03  0.89648547258E+03 0.  0.
        1    1    3    3  502    0  0.20250927354E+03 -0.11255575661E+03  0.30446416463E+03  0.38259277540E+03  0.50400001928E-02 0.  1.
       -1    1    3    3    0  502 -0.20250927354E+03  0.11255575661E+03 -0.47707655110E+03  0.53035916119E+03  0.50400001928E-02 0. -1.
</event>
<event>
 5   0  0.2008770E-02  0.9051658E+03  0.7818609E-02  0.9419147E-01
       -2   -1    0    0    0  501  0.00000000000E+00  0.00000000000E+00  0.92578312702E+03  0.92578312702E+03  0.25500000920E-02 0. -1.
        2   -1    0    0  501    0  0.00000000000E+00  0.00000000000E+00 -0.22125190895E+03  0.22125190897E+03  0.25500000920E-02 0.  1.
    10030    2    1    2    0    0  0.00000000000E+00  0.00000000000E+00  0.70453121806E+03  0.11470350360E+04  0.90516580611E+03 0.  0.
        1    1    3    3  502    0  0.42503518464E+02  0.42902120701E+03  0.17775126121E+03  0.46632741291E+03  0.50400001928E-02 0.  1.
       -1    1    3    3    0  502 -0.42503518464E+02 -0.42902120701E+03  0.52677995686E+03  0.68070762308E+03  0.50400001928E-02 0. -1.
</event>
<event>
 5   0  0.7893875E-03  0.9332151E+03  0.7818609E-02  0.9384988E-01
       -3   -1    0    0    0  501  0.00000000000E+00  0.00000000000E+00  0.86579784907E+03  0.86579785496E+03  0.10100000352E+00 0.  1.
        3   -1    0    0  501    0  0.00000000000E+00  0.00000000000E+00 -0.25147048929E+03  0.25147050957E+03  0.10100000352E+00 0. -1.
    10030    2    1    2    0    0  0.00000000000E+00  0.00000000000E+00  0.61432735978E+03  0.11172683645E+04  0.93321513780E+03 0.  0.
        2    1    3    3  502    0 -0.31087750548E+03  0.97515571905E+02 -0.92731850141E+02  0.33875257374E+03  0.25500000920E-02 0. -1.
       -2    1    3    3    0  502  0.31087750548E+03 -0.97515571905E+02  0.70705920992E+03  0.77851579080E+03  0.25500000920E-02 0.  1.
</event>
<event>
 5   0  0.2008643E-02  0.9016392E+03  0.7818609E-02  0.9423535E-01
        2   -1    0    0  501    0  0.00000000000E+00  0.00000000000E+00  0.11059808321E+04  0.11059808321E+04  0.25500000920E-02 0. -1.
       -2   -1    0    0    0  501  0.00000000000E+00  0.00000000000E+00 -0.18376294721E+03  0.18376294723E+03  0.25500000920E-02 0.  1.
    10030    2    1    2    0    0  0.00000000000E+00  0.00000000000E+00  0.92221788488E+03  0.12897437793E+04  0.90163916790E+03 0.  0.
        3    1    3    3  502    0 -0.17467425988E+03  0.53172693125E+02  0.10507221130E+04  0.10664686593E+04  0.10100000352E+00 0. -1.
       -3    1    3    3    0  502  0.17467425988E+03 -0.53172693125E+02 -0.12850422813E+03  0.22327511999E+03  0.10100000352E+00 0.  1.
</event>
<event>
 5   0  0.2041861E-02  0.9141706E+03  0.7818609E-02  0.9408039E-01
       -2   -1    0    0    0  501  0.00000000000E+00  0.00000000000E+00  0.11060768030E+03  0.11060768032E+03  0.25500000920E-02 0. -1.
        2   -1    0    0  501    0  0.00000000000E+00  0.00000000000E+00 -0.18889009600E+04  0.18889009600E+04  0.25500000920E-02 0.  1.
    10030    2    1    2    0    0  0.00000000000E+00  0.00000000000E+00 -0.17782932797E+04  0.19995086403E+04  0.91417056073E+03 0.  0.
        5    1    3    3  502    0 -0.27913232373E+03 -0.33185743237E+03 -0.57323908423E+03  0.71879715306E+03  0.46999998093E+01 0. -1.
       -5    1    3    3    0  502  0.27913232373E+03  0.33185743237E+03 -0.12050541955E+04  0.12807114873E+04  0.46999998093E+01 0.  1.
</event>
<event>
 5   0  0.1924218E-02  0.9005344E+03  0.7818609E-02  0.9424914E-01
       -2   -1    0    0    0  501  0.00000000000E+00  0.00000000000E+00  0.19860929514E+03  0.19860929515E+03  0.25500000920E-02 0.  1.
        2   -1    0    0  501    0  0.00000000000E+00  0.00000000000E+00 -0.10208008125E+04  0.10208008125E+04  0.25500000920E-02 0. -1.
    10030    2    1    2    0    0  0.00000000000E+00  0.00000000000E+00 -0.82219151736E+03  0.12194101077E+04  0.90053435217E+03 0.  0.
        4    1    3    3  502    0  0.29857604136E+03 -0.42634158454E+02 -0.86380474167E+03  0.91494566428E+03  0.12699999809E+01 0. -1.
       -4    1    3    3    0  502 -0.29857604136E+03  0.42634158454E+02  0.41613224313E+02  0.30446444338E+03  0.12699999809E+01 0.  1.
</event>
<event>
 5   0  0.2008770E-02  0.8874924E+03  0.7818609E-02  0.9441353E-01
        2   -1    0    0  501    0  0.00000000000E+00  0.00000000000E+00  0.94042491428E+03  0.94042491429E+03  0.25500000920E-02 0.  1.
       -2   -1    0    0    0  501  0.00000000000E+00  0.00000000000E+00 -0.20938479055E+03  0.20938479056E+03  0.25500000920E-02 0. -1.
    10030    2    1    2    0    0  0.00000000000E+00  0.00000000000E+00  0.73104012374E+03  0.11498097048E+04  0.88749236326E+03 0.  0.
        1    1    3    3  502    0 -0.56554908433E+02 -0.49810028524E+02 -0.20103313485E+03  0.21469470870E+03  0.50400001928E-02 0. -1.
       -1    1    3    3    0  502  0.56554908433E+02  0.49810028524E+02  0.93207325859E+03  0.93511499615E+03  0.50400001928E-02 0.  1.
</event>
<event>
 5   0  0.1162839E-02  0.9004523E+03  0.7818609E-02  0.9425016E-01
       -1   -1    0    0    0  501  0.00000000000E+00  0.00000000000E+00  0.24543462332E+03  0.24543462337E+03  0.50400001928E-02 0.  1.
        1   -1    0    0  501    0  0.00000000000E+00  0.00000000000E+00 -0.82589650203E+03  0.82589650204E+03  0.50400001928E-02 0. -1.
    10030    2    1    2    0    0  0.00000000000E+00  0.00000000000E+00 -0.58046187871E+03  0.10713311254E+04  0.90045232392E+03 0.  0.
        2    1    3    3  502    0  0.32934880281E+03  0.30441605302E+03 -0.24318114581E+03  0.51017334008E+03  0.25500000920E-02 0. -1.
       -2    1    3    3    0  502 -0.32934880281E+03 -0.30441605302E+03 -0.33728073290E+03  0.56115778533E+03  0.25500000920E-02 0.  1.
</event>
<event>
 5   0  0.1206541E-02  0.8804547E+03  0.7818609E-02  0.9450349E-01
        1   -1    0    0  501    0  0.00000000000E+00  0.00000000000E+00  0.14860213838E+04  0.14860213838E+04  0.50400001928E-02 0.  1.
       -1   -1    0    0    0  501  0.00000000000E+00  0.00000000000E+00 -0.13041543510E+03  0.13041543519E+03  0.50400001928E-02 0. -1.
    10030    2    1    2    0    0  0.00000000000E+00  0.00000000000E+00  0.13556059487E+04  0.16164368190E+04  0.88045471302E+03 0.  0.
        3    1    3    3  502    0  0.21398492195E+03  0.21907782565E+03  0.12584140444E+04  0.12951411344E+04  0.10100000352E+00 0.  1.
       -3    1    3    3    0  502 -0.21398492195E+03 -0.21907782565E+03  0.97191904296E+02  0.32129568465E+03  0.10100000352E+00 0. -1.
</event>
<event>
 5   0  0.7893875E-03  0.9011154E+03  0.7818609E-02  0.9424188E-01
        3   -1    0    0  501    0  0.00000000000E+00  0.00000000000E+00  0.46606693836E+03  0.46606694930E+03  0.10100000352E+00 0. -1.
       -3   -1    0    0    0  501  0.00000000000E+00  0.00000000000E+00 -0.43556456654E+03  0.43556457825E+03  0.10100000352E+00 0.  1.
    10030    2    1    2    0    0  0.00000000000E+00  0.00000000000E+00  0.30502371818E+02  0.90163152755E+03  0.90111542922E+03 0.  0.
        1    1    3    3  502    0 -0.63520021781E+02  0.63927080764E+02 -0.42645469191E+03  0.43587276710E+03  0.50400001928E-02 0.  1.
       -1    1    3    3    0  502  0.63520021781E+02 -0.63927080764E+02  0.45695706373E+03  0.46575876045E+03  0.50400001928E-02 0. -1.
</event>
<event>
 5   0  0.2008643E-02  0.9120231E+03  0.7818609E-02  0.9410675E-01
       -2   -1    0    0    0  501  0.00000000000E+00  0.00000000000E+00  0.41479924548E+03  0.41479924548E+03  0.25500000920E-02 0.  1.
        2   -1    0    0  501    0  0.00000000000E+00  0.00000000000E+00 -0.50131854821E+03  0.50131854822E+03  0.25500000920E-02 0. -1.
    10030    2    1    2    0    0  0.00000000000E+00  0.00000000000E+00 -0.86519302737E+02  0.91611779370E+03  0.91202314784E+03 0.  0.
        3    1    3    3  502    0 -0.43891267580E+03  0.96335432816E+02  0.34688308619E+02  0.45069739466E+03  0.10100000352E+00 0.  1.
       -3    1    3    3    0  502  0.43891267580E+03 -0.96335432816E+02 -0.12120761136E+03  0.46542039904E+03  0.10100000352E+00 0. -1.
</event>
<event>
 5   0  0.2008643E-02  0.9103400E+03  0.7818609E-02  0.9412747E-01
       -2   -1    0    0    0  501  0.00000000000E+00  0.00000000000E+00  0.12700774604E+03  0.12700774606E+03  0.25500000920E-02 0.  1.
        2   -1    0    0  501    0  0.00000000000E+00  0.00000000000E+00 -0.16312368920E+04  0.16312368920E+04  0.25500000920E-02 0. -1.
    10030    2    1    2    0    0  0.00000000000E+00  0.00000000000E+00 -0.15042291460E+04  0.17582446381E+04  0.91033998248E+03 0.  0.
        3    1    3    3  502    0 -0.17071312936E+03  0.33224102416E+03 -0.12544780511E+04  0.13089088057E+04  0.10100000352E+00 0. -1.
       -3    1    3    3    0  502  0.17071312936E+03 -0.33224102416E+03 -0.24975109484E+03  0.44933583236E+03  0.10100000352E+00 0.  1.
</event>
<event>
 5   0  0.1162839E-02  0.8266723E+03  0.7818609E-02  0.9522193E-01
        1   -1    0    0  501    0  0.00000000000E+00  0.00000000000E+00  0.49925716511E+03  0.49925716514E+03  0.50400001928E-02 0. -1.
       -1   -1    0    0    0  501  0.00000000000E+00  0.00000000000E+00 -0.34220195837E+03  0.34220195841E+03  0.50400001928E-02 0.  1.
    10030    2    1    2    0    0  0.00000000000E+00  0.00000000000E+00  0.15705520674E+03  0.84145912355E+03  0.82667231636E+03 0.  0.
        2    1    3    3  502    0 -0.39721443617E+03  0.11140431554E+03  0.10460915814E+03  0.42559758669E+03  0.25500000920E-02 0. -1.
       -2    1    3    3    0  502  0.39721443617E+03 -0.11140431554E+03  0.52446048605E+02  0.41586153686E+03  0.25500000920E-02 0.  1.
</event>
<event>
 5   0  0.1226424E-02  0.8945883E+03  0.7818609E-02  0.9432372E-01
        1   -1    0    0  501    0  0.00000000000E+00  0.00000000000E+00  0.95785542807E+03  0.95785542808E+03  0.50400001928E-02 0.  1.
       -1   -1    0    0    0  501  0.00000000000E+00  0.00000000000E+00 -0.20887502343E+03  0.20887502349E+03  0.50400001928E-02 0. -1.
    10030    2    1    2    0    0  0.00000000000E+00  0.00000000000E+00  0.74898040464E+03  0.11667304516E+04  0.89458834113E+03 0.  0.
        1    1    3    3  502    0  0.27294205112E+03  0.32786655314E+03  0.54984809332E+03  0.69593589194E+03  0.50400001928E-02 0.  1.
       -1    1    3    3    0  502 -0.27294205112E+03 -0.32786655314E+03  0.19913231132E+03  0.47079455963E+03  0.50400001928E-02 0. -1.
</event>
<event>
 5   0  0.2041861E-02  0.9019495E+03  0.7818609E-02  0.9423148E-01
        2   -1    0    0  501    0  0.00000000000E+00  0.00000000000E+00  0.65828267274E+03  0.65828267274E+03  0.25500000920E-02 0.  1.
       -2   -1    0    0    0  501  0.00000000000E+00  0.00000000000E+00 -0.30895270759E+03  0.30895270760E+03  0.25500000920E-02 0. -1.
    10030    2    1    2    0    0  0.00000000000E+00  0.00000000000E+00  0.34932996515E+03  0.96723538034E+03  0.90194947554E+03 0.  0.
        5    1    3    3  502    0  0.17607302471E+03  0.28009907597E+03 -0.15394463222E+03  0.36493594256E+03  0.46999998093E+01 0. -1.
       -5    1    3    3    0  502 -0.17607302471E+03 -0.28009907597E+03  0.50327459737E+03  0.60229943778E+03  0.46999998093E+01 0.  1.
</event>
<event>
 5   0  0.1175993E-02  0.8843893E+03  0.7818609E-02  0.9445309E-01
       -1   -1    0    0    0  501  0.00000000000E+00  0.00000000000E+00  0.33674197101E+03  0.33674197104E+03  0.50400001928E-02 0. -1.
        1   -1    0    0  501    0  0.00000000000E+00  0.00000000000E+00 -0.58067042992E+03  0.58067042994E+03  0.50400001928E-02 0.  1.
    10030    2    1    2    0    0  0.00000000000E+00  0.00000000000E+00 -0.24392845891E+03  0.91741240099E+03  0.88438929234E+03 0.  0.
        4    1    3    3  502    0 -0.43243958033E+03 -0.92143858534E+02 -0.12852583777E+03  0.46045084990E+03  0.12699999809E+01 0. -1.
       -4    1    3    3    0  502  0.43243958033E+03  0.92143858534E+02 -0.11540262115E+03  0.45696155108E+03  0.12699999809E+01 0.  1.
</event>
<event>
 5   0  0.1175993E-02  0.8547363E+03  0.7818609E-02  0.9484002E-01
        1   -1    0    0  501    0  0.00000000000E+00  0.00000000000E+00  0.34196086883E+03  0.34196086886E+03  0.50400001928E-02 0. -1.
       -1   -1    0    0    0  501  0.00000000000E+00  0.00000000000E+00 -0.53410648398E+03  0.53410648400E+03  0.50400001928E-02 0.  1.
    10030    2    1    2    0    0  0.00000000000E+00  0.00000000000E+00 -0.19214561515E+03  0.87606735287E+03  0.85473625718E+03 0.  0.
        4    1    3    3  502    0 -0.52566094391E+02  0.14148013064E+03 -0.50587860988E+03  0.52791533647E+03  0.12699999809E+01 0.  1.
       -4    1    3    3    0  502  0.52566094391E+02 -0.14148013064E+03  0.31373299472E+03  0.34815201640E+03  0.12699999809E+01 0. -1.
</event>
<event>
 5   0  0.1924218E-02  0.8944561E+03  0.7818609E-02  0.9432538E-01
       -2   -1    0    0    0  501  0.00000000000E+00  0.00000000000E+00  0.35004861288E+03  0.35004861289E+03  0.25500000920E-02 0. -1.
        2   -1    0    0  501    0  0.00000000000E+00  0.00000000000E+00 -0.57138614615E+03  0.57138614616E+03  0.25500000920E-02 0.  1.
    10030    2    1    2    0    0  0.00000000000E+00  0.00000000000E+00 -0.22133753327E+03  0.92143475905E+03  0.89445609817E+03 0.  0.
        4    1    3    3  502    0  0.38293171951E+03  0.25981950176E+02 -0.34715671904E+03  0.51752407096E+03  0.12699999809E+01 0.  1.
       -4    1    3    3    0  502 -0.38293171951E+03 -0.25981950176E+02  0.12581918577E+03  0.40391068809E+03  0.12699999809E+01 0. -1.
</event>
<event>
 5   0  0.1226424E-02  0.9046342E+03  0.7818609E-02  0.9419807E-01
        1   -1    0    0  501    0  0.00000000000E+00  0.00000000000E+00  0.48354356298E+03  0.48354356300E+03  0.50400001928E-02 0.  1.
       -1   -1    0    0    0  501  0.00000000000E+00  0.00000000000E+00 -0.42310714693E+03  0.42310714696E+03  0.50400001928E-02 0. -1.
    10030    2    1    2    0    0  0.00000000000E+00  0.00000000000E+00  0.60436416048E+02  0.90665070996E+03  0.90463415229E+03 0.  0.
        1    1    3    3  502    0 -0.37955740633E+03  0.48986675110E+02  0.27185151440E+03  0.46943238592E+03  0.50400001928E-02 0.  1.
       -1    1    3    3    0  502  0.37955740633E+03 -0.48986675110E+02 -0.21141509836E+03  0.43721832404E+03  0.50400001928E-02 0. -1.
</event>
<event>
 5   0  0.1226424E-02  0.9158354E+03  0.7818609E-02  0.9406000E-01
        1   -1    0    0  501    0  0.00000000000E+00  0.00000000000E+00  0.90698395849E+03  0.90698395850E+03  0.50400001928E-02 0.  1.
       -1   -1    0    0    0  501  0.00000000000E+00  0.00000000000E+00 -0.23119329710E+03  0.23119329716E+03  0.50400001928E-02 0. -1.
    10030    2    1    2    0    0  0.00000000000E+00  0.00000000000E+00  0.67579066138E+03  0.11381772557E+04  0.91583538220E+03 0.  0.
        1    1    3    3  502    0  0.24009542017E+03  0.70793638369E+02 -0.13864211386E+03  0.28614539273E+03  0.50400001928E-02 0. -1.
       -1    1    3    3    0  502 -0.24009542017E+03 -0.70793638369E+02  0.81443277525E+03  0.85203186293E+03  0.50400001928E-02 0.  1.
</event>
<event>
 5   0  0.1226424E-02  0.8732740E+03  0.7818609E-02  0.9459621E-01
        1   -1    0    0  501    0  0.00000000000E+00  0.00000000000E+00  0.36874137070E+03  0.36874137073E+03  0.50400001928E-02 0. -1.
       -1   -1    0    0    0  501  0.00000000000E+00  0.00000000000E+00 -0.51703406304E+03  0.51703406307E+03  0.50400001928E-02 0.  1.
    10030    2    1    2    0    0  0.00000000000E+00  0.00000000000E+00 -0.14829269234E+03  0.88577543380E+03  0.87327395273E+03 0.  0.
        1    1    3    3  502    0  0.33080177766E+03  0.27511990172E+03 -0.14958219950E+03  0.45551686122E+03  0.50400001928E-02 0. -1.
       -1    1    3    3    0  502 -0.33080177766E+03 -0.27511990172E+03  0.12895071541E+01  0.43025857258E+03  0.50400001928E-02 0.  1.
</event>
<event>
 5   0  0.1177712E-02  0.8884531E+03  0.7818609E-02  0.9440132E-01
        1   -1    0    0  501    0  0.00000000000E+00  0.00000000000E+00  0.15947251341E+03  0.15947251349E+03  0.50400001928E-02 0.  1.
       -1   -1    0    0    0  501  0.00000000000E+00  0.00000000000E+00 -0.12374373267E+04  0.12374373267E+04  0.50400001928E-02 0. -1.
    10030    2    1    2    0    0  0.00000000000E+00  0.00000000000E+00 -0.10779648133E+04  0.13969098402E+04  0.88845312929E+03 0.  0.
        5    1    3    3  502    0 -0.18839719486E+02 -0.12719884459E+02  0.15851831173E+03  0.16020885008E+03  0.46999998093E+01 0.  1.
       -5    1    3    3    0  502  0.18839719486E+02  0.12719884459E+02 -0.12364831250E+04  0.12367009901E+04  0.46999998093E+01 0. -1.
</event>
<event>
 5   0  0.1206541E-02  0.9181054E+03  0.7818609E-02  0.9403228E-01
       -1   -1    0    0    0  501  0.00000000000E+00  0.00000000000E+00  0.75904505705E+03  0.75904505707E+03  0.50400001928E-02 0.  1.
        1   -1    0    0  501    0  0.00000000000E+00  0.00000000000E+00 -0.27762436690E+03  0.27762436694E+03  0.50400001928E-02 0. -1.
    10030    2    1    2    0    0  0.00000000000E+00  0.00000000000E+00  0.48142069015E+03  0.10366694240E+04  0.91810544807E+03 0.  0.
        3    1    3    3  502    0 -0.39398595797E+03 -0.89409260677E+02  0.48682771278E+03  0.63262957811E+03  0.10100000352E+00 0.  1.
       -3    1    3    3    0  502  0.39398595797E+03  0.89409260677E+02 -0.54070226265E+01  0.40403984589E+03  0.10100000352E+00 0. -1.
</event>
<event>
 5   0  0.1162839E-02  0.8971085E+03  0.7818609E-02  0.9429203E-01
        1   -1    0    0  501    0  0.00000000000E+00  0.00000000000E+00  0.45541651807E+03  0.45541651809E+03  0.50400001928E-02 0.  1.
       -1   -1    0    0    0  501  0.00000000000E+00  0.00000000000E+00 -0.44179535781E+03  0.44179535784E+03  0.50400001928E-02 0. -1.
    10030    2    1    2    0    0  0.00000000000E+00  0.00000000000E+00  0.13621160256E+02  0.89721187593E+03  0.89710847410E+03 0.  0.
        2    1    3    3  502    0 -0.10314635251E+03  0.13059561443E+02  0.44319925249E+03  0.45523103980E+03  0.25500000920E-02 0.  1.
       -2    1    3    3    0  502  0.10314635251E+03 -0.13059561443E+02 -0.42957809223E+03  0.44198083614E+03  0.25500000920E-02 0. -1.
</event>
<event>
 5   0  0.1162839E-02  0.9060444E+03  0.7818609E-02  0.9418057E-01
       -1   -1    0    0    0  501  0.00000000000E+00  0.00000000000E+00  0.20497665197E+03  0.20497665203E+03  0.50400001928E-02 0.  1.
        1   -1    0    0  501    0  0.00000000000E+00  0.00000000000E+00 -0.10012315575E+04  0.10012315575E+04  0.50400001928E-02 0. -1.
    10030    2    1    2    0    0  0.00000000000E+00  0.00000000000E+00 -0.79625490556E+03  0.12062082096E+04  0.90604435334E+03 0.  0.
        2    1    3    3  502    0 -0.13616042978E+03 -0.13135571279E+01 -0.97334308457E+03  0.98282152416E+03  0.25500000920E-02 0. -1.
       -2    1    3    3    0  502  0.13616042978E+03  0.13135571279E+01  0.17708817900E+03  0.22338668541E+03  0.25500000920E-02 0.  1.
</event>
<event>
 5   0  0.1162839E-02  0.8932374E+03  0.7818609E-02  0.9434075E-01
        1   -1    0    0  501    0  0.00000000000E+00  0.00000000000E+00  0.73746479583E+03  0.73746479585E+03  0.50400001928E-02 0. -1.
       -1   -1    0    0    0  501  0.00000000000E+00  0.00000000000E+00 -0.27047834628E+03  0.27047834632E+03  0.50400001928E-02 0.  1.
    10030    2    1    2    0    0  0.00000000000E+00  0.00000000000E+00  0.46698644955E+03  0.10079431422E+04  0.89323738938E+03 0.  0.
        2    1    3    3  502    0  0.27102211059E+03 -0.27186870282E+03 -0.24079090758E+02  0.38463668393E+03  0.25500000920E-02 0. -1.
       -2    1    3    3    0  502 -0.27102211059E+03  0.27186870282E+03  0.49106554031E+03  0.62330645825E+03  0.25500000920E-02 0.  1.
</event>
<event>
 5   0  0.2008643E-02  0.6524413E+03  0.7818609E-02  0.9802209E-01
        2   -1    0    0  501    0  0.00000000000E+00  0.00000000000E+00  0.23562257650E+04  0.23562257650E+04  0.25500000920E-02 0. -1.
       -2   -1    0    0    0  501  0.00000000000E+00  0.00000000000E+00 -0.45165420780E+02  0.45165420852E+02  0.25500000920E-02 0.  1.
    10030    2    1    2    0    0  0.00000000000E+00  0.00000000000E+00  0.23110603443E+04  0.24013911859E+04  0.65244134822E+03 0.  0.
        3    1    3    3  502    0  0.78266539559E+02 -0.18877405502E+03  0.21961893582E+03  0.29998963688E+03  0.10100000352E+00 0.  1.
       -3    1    3    3    0  502 -0.78266539559E+02  0.18877405502E+03  0.20914414084E+04  0.21014015490E+04  0.10100000352E+00 0. -1.
</event>
<event>
 5   0  0.1226424E-02  0.9148005E+03  0.7818609E-02  0.9407267E-01
        1   -1    0    0  501    0  0.00000000000E+00  0.00000000000E+00  0.88138032153E+03  0.88138032154E+03  0.50400001928E-02 0. -1.
       -1   -1    0    0    0  501  0.00000000000E+00  0.00000000000E+00 -0.23737199931E+03  0.23737199937E+03  0.50400001928E-02 0.  1.
    10030    2    1    2    0    0  0.00000000000E+00  0.00000000000E+00  0.64400832221E+03  0.11187523209E+04  0.91480054463E+03 0.  0.
        1    1    3    3  502    0  0.48606335718E+02  0.45270291804E+03  0.26852206812E+03  0.52858926301E+03  0.50400001928E-02 0. -1.
       -1    1    3    3    0  502 -0.48606335718E+02 -0.45270291804E+03  0.37548625409E+03  0.59016305790E+03  0.50400001928E-02 0.  1.
</event>
<event>
 5   0  0.1177712E-02  0.8992547E+03  0.7818609E-02  0.9426514E-01
        1   -1    0    0  501    0  0.00000000000E+00  0.00000000000E+00  0.43077562958E+03  0.43077562961E+03  0.50400001928E-02 0. -1.
       -1   -1    0    0    0  501  0.00000000000E+00  0.00000000000E+00 -0.46930404336E+03  0.46930404338E+03  0.50400001928E-02 0.  1.
    10030    2    1    2    0    0  0.00000000000E+00  0.00000000000E+00 -0.38528413770E+02  0.90007967300E+03  0.89925467976E+03 0.  0.
        5    1    3    3  502    0 -0.40754428949E+03 -0.18767091806E+03 -0.48099200997E+02  0.45127413455E+03  0.46999998093E+01 0. -1.
       -5    1    3    3    0  502  0.40754428949E+03  0.18767091806E+03  0.95707872264E+01  0.44880553845E+03  0.46999998093E+01 0.  1.
</event>
<event>
 5   0  0.2008643E-02  0.8960709E+03  0.7818609E-02  0.9430506E-01
        2   -1    0    0  501    0  0.00000000000E+00  0.00000000000E+00  0.14471942106E+04  0.14471942106E+04  0.25500000920E-02 0. -1.
       -2   -1    0    0    0  501  0.00000000000E+00  0.00000000000E+00 -0.13870684597E+03  0.13870684599E+03  0.25500000920E-02 0.  1.
    10030    2    1    2    0    0  0.00000000000E+00  0.00000000000E+00  0.13084873646E+04  0.15859010566E+04  0.89607085541E+03 0.  0.
        3    1    3    3  502    0  0.42875003362E+02 -0.39957800555E+03  0.10048097951E+04  0.10821938749E+04  0.10100000352E+00 0. -1.
       -3    1    3    3    0  502 -0.42875003362E+02  0.39957800555E+03  0.30367756959E+03  0.50370718171E+03  0.10100000352E+00 0.  1.
</event>
<event>
 5   0  0.1175993E-02  0.8673093E+03  0.7818609E-02  0.9467395E-01
        1   -1    0    0  501    0  0.00000000000E+00  0.00000000000E+00  0.51427969458E+03  0.51427969461E+03  0.50400001928E-02 0.  1.
       -1   -1    0    0    0  501  0.00000000000E+00  0.00000000000E+00 -0.36566940691E+03  0.36566940694E+03  0.50400001928E-02 0. -1.
    10030    2    1    2    0    0  0.00000000000E+00  0.00000000000E+00  0.14861028767E+03  0.87994910155E+03  0.86730928953E+03 0.  0.
        4    1    3    3  502    0  0.40319427690E+03  0.27573512694E+02 -0.85240592446E+02  0.41302965393E+03  0.12699999809E+01 0. -1.
       -4    1    3    3    0  502 -0.40319427690E+03 -0.27573512694E+02  0.23385088012E+03  0.46691944761E+03  0.12699999809E+01 0.  1.
</event>
<event>
 5   0  0.1924218E-02  0.9009245E+03  0.7818609E-02  0.9424426E-01
       -2   -1    0    0    0  501  0.00000000000E+00  0.00000000000E+00  0.18484844547E+03  0.18484844548E+03  0.25500000920E-02 0. -1.
        2   -1    0    0  501    0  0.00000000000E+00  0.00000000000E+00 -0.10977438908E+04  0.10977438908E+04  0.25500000920E-02 0.  1.
    10030    2    1    2    0    0  0.00000000000E+00  0.00000000000E+00 -0.91289544530E+03  0.12825923362E+04  0.90092452900E+03 0.  0.
        4    1    3    3  502    0  0.33907950784E+03  0.64536686844E+02 -0.44391213118E+02  0.34801162235E+03  0.12699999809E+01 0. -1.
       -4    1    3    3    0  502 -0.33907950784E+03 -0.64536686844E+02 -0.86850423218E+03  0.93458071390E+03  0.12699999809E+01 0.  1.
</event>
<event>
 5   0  0.2008770E-02  0.8882987E+03  0.7818609E-02  0.9440328E-01
        2   -1    0    0  501    0  0.00000000000E+00  0.00000000000E+00  0.24183304939E+03  0.24183304940E+03  0.25500000920E-02 0. -1.
       -2   -1    0    0    0  501  0.00000000000E+00  0.00000000000E+00 -0.81572244760E+03  0.81572244760E+03  0.25500000920E-02 0.  1.
    10030    2    1    2    0    0  0.00000000000E+00  0.00000000000E+00 -0.57388939821E+03  0.10575554970E+04  0.88829870419E+03 0.  0.
        1    1    3    3  502    0 -0.25282793400E+03  0.18520823047E+03  0.87734451182E+02  0.32545566026E+03  0.50400001928E-02 0. -1.
       -1    1    3    3    0  502  0.25282793400E+03 -0.18520823047E+03 -0.66162384939E+03  0.73209983674E+03  0.50400001928E-02 0.  1.
</event>
<event>
 5   0  0.1206541E-02  0.8862989E+03  0.7818609E-02  0.9442872E-01
        1   -1    0    0  501    0  0.00000000000E+00  0.00000000000E+00  0.11658907033E+04  0.11658907033E+04  0.50400001928E-02 0. -1.
       -1   -1    0    0    0  501  0.00000000000E+00  0.00000000000E+00 -0.16843899206E+03  0.16843899214E+03  0.50400001928E-02 0.  1.
    10030    2    1    2    0    0  0.00000000000E+00  0.00000000000E+00  0.99745171120E+03  0.13343296954E+04  0.88629894498E+03 0.  0.
        3    1    3    3  502    0  0.34837173784E+03 -0.20394952988E+03  0.22348891999E+03  0.46141693296E+03  0.10100000352E+00 0.  1.
       -3    1    3    3    0  502 -0.34837173784E+03  0.20394952988E+03  0.77396279121E+03  0.87291276245E+03  0.10100000352E+00 0. -1.
</event>
<event>
 5   0  0.2008643E-02  0.8688239E+03  0.7818609E-02  0.9465415E-01
       -2   -1    0    0    0  501  0.00000000000E+00  0.00000000000E+00  0.38326065548E+03  0.38326065549E+03  0.25500000920E-02 0.  1.
        2   -1    0    0  501    0  0.00000000000E+00  0.00000000000E+00 -0.49239003607E+03  0.49239003608E+03  0.25500000920E-02 0. -1.
    10030    2    1    2    0    0  0.00000000000E+00  0.00000000000E+00 -0.10912938059E+03  0.87565069157E+03  0.86882386704E+03 0.  0.
        3    1    3    3  502    0  0.32156546428E+03 -0.99156605521E+02  0.22232541620E+03  0.40331746941E+03  0.10100000352E+00 0.  1.
       -3    1    3    3    0  502 -0.32156546428E+03  0.99156605521E+02 -0.33145479680E+03  0.47233322216E+03  0.10100000352E+00 0. -1.
</event>
<event>
 5   0  0.1175993E-02  0.9053391E+03  0.7818609E-02  0.9418932E-01
        1   -1    0    0  501    0  0.00000000000E+00  0.00000000000E+00  0.10996925600E+04  0.10996925600E+04  0.50400001928E-02 0.  1.
       -1   -1    0    0    0  501  0.00000000000E+00  0.00000000000E+00 -0.18633366189E+03  0.18633366195E+03  0.50400001928E-02 0. -1.
    10030    2    1    2    0    0  0.00000000000E+00  0.00000000000E+00  0.91335889809E+03  0.12860262219E+04  0.90533914463E+03 0.  0.
        4    1    3    3  502    0 -0.22947518103E+03 -0.33483135299E+03  0.17209428767E+03  0.44089562303E+03  0.12699999809E+01 0. -1.
       -4    1    3    3    0  502  0.22947518103E+03  0.33483135299E+03  0.74126461041E+03  0.84513059891E+03  0.12699999809E+01 0.  1.
</event>
<event>
 5   0  0.1968763E-02  0.9199772E+03  0.7818609E-02  0.9400948E-01
       -2   -1    0    0    0  501  0.00000000000E+00  0.00000000000E+00  0.23164254638E+03  0.23164254639E+03  0.25500000920E-02 0. -1.
        2   -1    0    0  501    0  0.00000000000E+00  0.00000000000E+00 -0.91343107164E+03  0.91343107165E+03  0.25500000920E-02 0.  1.
    10030    2    1    2    0    0  0.00000000000E+00  0.00000000000E+00 -0.68178852526E+03  0.11450736180E+04  0.91997717230E+03 0.  0.
        2    1    3    3  502    0  0.27283463030E+03 -0.28034081781E+03 -0.64209505642E+03  0.75187483740E+03  0.25500000920E-02 0.  1.
       -2    1    3    3    0  502 -0.27283463030E+03  0.28034081781E+03 -0.39693468846E+02  0.39319878065E+03  0.25500000920E-02 0. -1.
</event>
<event>
 5   0  0.1175993E-02  0.9015199E+03  0.7818609E-02  0.9423683E-01
       -1   -1    0    0    0  501  0.00000000000E+00  0.00000000000E+00  0.15886555438E+03  0.15886555446E+03  0.50400001928E-02 0.  1.
        1   -1    0    0  501    0  0.00000000000E+00  0.00000000000E+00 -0.12789716742E+04  0.12789716742E+04  0.50400001928E-02 0. -1.
    10030    2    1    2    0    0  0.00000000000E+00  0.00000000000E+00 -0.11201061198E+04  0.14378372287E+04  0.90151992573E+03 0.  0.
        4    1    3    3  502    0  0.31656359615E+03 -0.14745832851E+03 -0.10550148894E+03  0.36481316605E+03  0.12699999809E+01 0.  1.
       -4    1    3    3    0  502 -0.31656359615E+03  0.14745832851E+03 -0.10146046309E+04  0.10730240626E+04  0.12699999809E+01 0. -1.
</event>
<event>
 5   0  0.1175993E-02  0.9380433E+03  0.7818609E-02  0.9379236E-01
       -1   -1    0    0    0  501  0.00000000000E+00  0.00000000000E+00  0.88774231147E+03  0.88774231148E+03  0.50400001928E-02 0. -1.
        1   -1    0    0  501    0  0.00000000000E+00  0.00000000000E+00 -0.24779861439E+03  0.24779861445E+03  0.50400001928E-02 0.  1.
    10030    2    1    2    0    0  0.00000000000E+00  0.00000000000E+00  0.63994369707E+03  0.11355409259E+04  0.93804331405E+03 0.  0.
        4    1    3    3  502    0 -0.21047126070E+03  0.87172153467E+02  0.81626837263E+03  0.84746256848E+03  0.12699999809E+01 0. -1.
       -4    1    3    3    0  502  0.21047126070E+03 -0.87172153467E+02 -0.17632467555E+03  0.28807835745E+03  0.12699999809E+01 0.  1.
</event>
<event>
 5   0  0.1162839E-02  0.8298288E+03  0.7818609E-02  0.9517817E-01
        1   -1    0    0  501    0  0.00000000000E+00  0.00000000000E+00  0.95446591047E+03  0.95446591049E+03  0.50400001928E-02 0. -1.
       -1   -1    0    0    0  501  0.00000000000E+00  0.00000000000E+00 -0.18036678969E+03  0.18036678976E+03  0.50400001928E-02 0.  1.
    10030    2    1    2    0    0  0.00000000000E+00  0.00000000000E+00  0.77409912079E+03  0.11348327002E+04  0.82982878279E+03 0.  0.
        2    1    3    3  502    0 -0.26407424480E+03 -0.16290392996E+03  0.10337063611E+02  0.31045088509E+03  0.25500000920E-02 0.  1.
       -2    1    3    3    0  502  0.26407424480E+03  0.16290392996E+03  0.76376205717E+03  0.82438181515E+03  0.25500000920E-02 0. -1.
</event>
<event>
 5   0  0.1968763E-02  0.9189216E+03  0.7818609E-02  0.9402233E-01
       -2   -1    0    0    0  501  0.00000000000E+00  0.00000000000E+00  0.10720541067E+03  0.10720541070E+03  0.25500000920E-02 0. -1.
        2   -1    0    0  501    0  0.00000000000E+00  0.00000000000E+00 -0.19691564922E+04  0.19691564922E+04  0.25500000920E-02 0.  1.
    10030    2    1    2    0    0  0.00000000000E+00  0.00000000000E+00 -0.18619510816E+04  0.20763619029E+04  0.91892160809E+03 0.  0.
        2    1    3    3  502    0 -0.14172963345E+03  0.31042808269E+03 -0.16261406832E+04  0.16615614358E+04  0.25500000920E-02 0.  1.
       -2    1    3    3    0  502  0.14172963345E+03 -0.31042808269E+03 -0.23581039838E+03  0.41480046711E+03  0.25500000920E-02 0. -1.
</event>
<event>
 5   0  0.2008770E-02  0.9117241E+03  0.7818609E-02  0.9411043E-01
        2   -1    0    0  501    0  0.00000000000E+00  0.00000000000E+00  0.27668072676E+03  0.27668072677E+03  0.25500000920E-02 0. -1.
       -2   -1    0    0    0  501  0.00000000000E+00  0.00000000000E+00 -0.75108307029E+03  0.75108307029E+03  0.25500000920E-02 0.  1.
    10030    2    1    2    0    0  0.00000000000E+00  0.00000000000E+00 -0.47440234353E+03  0.10277637971E+04  0.91172410245E+03 0.  0.
        1    1    3    3  502    0  0.68253236527E+02  0.30584320976E+03 -0.61041541566E+03  0.68615271839E+03  0.50400001928E-02 0.  1.
       -1    1    3    3    0  502 -0.68253236527E+02 -0.30584320976E+03  0.13601307213E+03  0.34161107867E+03  0.50400001928E-02 0. -1.
</event>
<event>
 5   0  0.2041861E-02  0.8851013E+03  0.7818609E-02  0.9444400E-01
       -2   -1    0    0    0  501  0.00000000000E+00  0.00000000000E+00  0.17129494165E+03  0.17129494167E+03  0.25500000920E-02 0.  1.
        2   -1    0    0  501    0  0.00000000000E+00  0.00000000000E+00 -0.11433558766E+04  0.11433558766E+04  0.25500000920E-02 0. -1.
    10030    2    1    2    0    0  0.00000000000E+00  0.00000000000E+00 -0.97206093495E+03  0.13146508183E+04  0.88510130084E+03 0.  0.
        5    1    3    3  502    0 -0.14377963774E+03  0.41851346755E+03 -0.48350918130E+03  0.65546115457E+03  0.46999998093E+01 0. -1.
       -5    1    3    3    0  502  0.14377963774E+03 -0.41851346755E+03 -0.48855175365E+03  0.65918966371E+03  0.46999998093E+01 0.  1.
</event>
<event>
 5   0  0.2008770E-02  0.8660147E+03  0.7818609E-02  0.9469091E-01
       -2   -1    0    0    0  501  0.00000000000E+00  0.00000000000E+00  0.14492332349E+03  0.14492332351E+03  0.25500000920E-02 0.  1.
        2   -1    0    0  501    0  0.00000000000E+00  0.00000000000E+00 -0.12937554886E+04  0.12937554886E+04  0.25500000920E-02 0. -1.
    10030    2    1    2    0    0  0.00000000000E+00  0.00000000000E+00 -0.11488321651E+04  0.14386788121E+04  0.86601465393E+03 0.  0.
        1    1    3    3  502    0  0.21067530853E+03 -0.30682346768E+03 -0.94204223985E+03  0.10129009367E+04  0.50400001928E-02 0.  1.
       -1    1    3    3    0  502 -0.21067530853E+03  0.30682346768E+03 -0.20678992526E+03  0.42577787538E+03  0.50400001928E-02 0. -1.
</event>
<event>
 5   0  0.1226424E-02  0.9080423E+03  0.7818609E-02  0.9415584E-01
        1   -1    0    0  501    0  0.00000000000E+00  0.00000000000E+00  0.42882906459E+03  0.42882906462E+03  0.50400001928E-02 0.  1.
       -1   -1    0    0    0  501  0.00000000000E+00  0.00000000000E+00 -0.48069316516E+03  0.48069316518E+03  0.50400001928E-02 0. -1.
    10030    2    1    2    0    0  0.00000000000E+00  0.00000000000E+00 -0.51864100568E+02  0.90952222980E+03  0.90804229063E+03 0.  0.
        1    1    3    3  502    0 -0.15906307732E+03 -0.37019238356E+03 -0.23553786598E+03  0.46671356284E+03  0.50400001928E-02 0. -1.
       -1    1    3    3    0  502  0.15906307732E+03  0.37019238356E+03  0.18367376541E+03  0.44280866696E+03  0.50400001928E-02 0.  1.
</event>
<event>
 5   0  0.2041861E-02  0.9047252E+03  0.7818609E-02  0.9419694E-01
        2   -1    0    0  501    0  0.00000000000E+00  0.00000000000E+00  0.58091911408E+03  0.58091911408E+03  0.25500000920E-02 0.  1.
       -2   -1    0    0    0  501  0.00000000000E+00  0.00000000000E+00 -0.35225548384E+03  0.35225548384E+03  0.25500000920E-02 0. -1.
    10030    2    1    2    0    0  0.00000000000E+00  0.00000000000E+00  0.22866363024E+03  0.93317459793E+03  0.90472524803E+03 0.  0.
        5    1    3    3  502    0 -0.34450498484E+03 -0.29294733404E+03  0.10361130659E+03  0.46396036248E+03  0.46999998093E+01 0. -1.
       -5    1    3    3    0  502  0.34450498484E+03  0.29294733404E+03  0.12505232365E+03  0.46921423545E+03  0.46999998093E+01 0.  1.
</event>
<event>
 5   0  0.1177712E-02  0.8711652E+03  0.7818609E-02  0.9462362E-01
        1   -1    0    0  501    0  0.00000000000E+00  0.00000000000E+00  0.11702597807E+04  0.11702597807E+04  0.50400001928E-02 0.  1.
       -1   -1    0    0    0  501  0.00000000000E+00  0.00000000000E+00 -0.16212828447E+03  0.16212828455E+03  0.50400001928E-02 0. -1.
    10030    2    1    2    0    0  0.00000000000E+00  0.00000000000E+00  0.10081314963E+04  0.13323880653E+04  0.87116522128E+03 0.  0.
        5    1    3    3  502    0 -0.58412535383E+01  0.33278151497E+02 -0.16008222699E+03  0.16367640333E+03  0.46999998093E+01 0. -1.
       -5    1    3    3    0  502  0.58412535383E+01 -0.33278151497E+02  0.11682137232E+04  0.11687116620E+04  0.46999998093E+01 0.  1.
</event>
<event>
 5   0  0.1924218E-02  0.8918551E+03  0.7818609E-02  0.9435821E-01
       -2   -1    0    0    0  501  0.00000000000E+00  0.00000000000E+00  0.11454893686E+04  0.11454893686E+04  0.25500000920E-02 0. -1.
        2   -1    0    0  501    0  0.00000000000E+00  0.00000000000E+00 -0.17359512414E+03  0.17359512416E+03  0.25500000920E-02 0.  1.
    10030    2    1    2    0    0  0.00000000000E+00  0.00000000000E+00  0.97189424444E+03  0.13190844927E+04  0.89185507602E+03 0.  0.
        4    1    3    3  502    0  0.16702927795E+03  0.59093638475E+02 -0.11929962946E+03  0.21359974787E+03  0.12699999809E+01 0.  1.
       -4    1    3    3    0  502 -0.16702927795E+03 -0.59093638475E+02  0.10911938739E+04  0.11054847449E+04  0.12699999809E+01 0. -1.
</event>
<event>
 5   0  0.1924218E-02  0.8280614E+03  0.7818609E-02  0.9520265E-01
       -2   -1    0    0    0  501  0.00000000000E+00  0.00000000000E+00  0.13353922941E+03  0.13353922943E+03  0.25500000920E-02 0.  1.
        2   -1    0    0  501    0  0.00000000000E+00  0.00000000000E+00 -0.12836785237E+04  0.12836785237E+04  0.25500000920E-02 0. -1.
    10030    2    1    2    0    0  0.00000000000E+00  0.00000000000E+00 -0.11501392943E+04  0.14172177531E+04  0.82806144911E+03 0.  0.
        4    1    3    3  502    0 -0.35757974344E+03 -0.60161964875E+02 -0.91709810536E+03  0.98618116119E+03  0.12699999809E+01 0. -1.
       -4    1    3    3    0  502  0.35757974344E+03  0.60161964875E+02 -0.23304118890E+03  0.43103659191E+03  0.12699999809E+01 0.  1.
</event>
<event>
 5   0  0.7893875E-03  0.9057605E+03  0.7818609E-02  0.9418409E-01
       -4   -1    0    0    0  501  0.00000000000E+00  0.00000000000E+00  0.49928769904E+03  0.49928931424E+03  0.12699999809E+01 0. -1.
        4   -1    0    0  501    0  0.00000000000E+00  0.00000000000E+00 -0.41078301522E+03  0.41078497842E+03  0.12699999809E+01 0.  1.
    10030    2    1    2    0    0  0.00000000000E+00  0.00000000000E+00  0.88504683818E+02  0.91007429266E+03  0.90576053077E+03 0.  0.
        3    1    3    3  502    0  0.23896005376E+03 -0.33045773924E+03  0.24215818119E+03  0.47428348025E+03  0.10100000352E+00 0. -1.
       -3    1    3    3    0  502 -0.23896005376E+03  0.33045773924E+03 -0.15365349737E+03  0.43579081241E+03  0.10100000352E+00 0.  1.
</event>
<event>
 5   0  0.7893875E-03  0.8261891E+03  0.7818609E-02  0.9522864E-01
        3   -1    0    0  501    0  0.00000000000E+00  0.00000000000E+00  0.29153444431E+03  0.29153446180E+03  0.10100000352E+00 0.  1.
       -3   -1    0    0    0  501  0.00000000000E+00  0.00000000000E+00 -0.58534110326E+03  0.58534111197E+03  0.10100000352E+00 0. -1.
    10030    2    1    2    0    0  0.00000000000E+00  0.00000000000E+00 -0.29380665895E+03  0.87687557377E+03  0.82618909400E+03 0.  0.
        5    1    3    3  502    0 -0.30573117016E+03  0.27587353105E+03 -0.11255654965E+03  0.42692952628E+03  0.46999998093E+01 0. -1.
       -5    1    3    3    0  502  0.30573117016E+03 -0.27587353105E+03 -0.18125010930E+03  0.44994604750E+03  0.46999998093E+01 0.  1.
</event>
<event>
 5   0  0.1226424E-02  0.9031935E+03  0.7818609E-02  0.9421598E-01
       -1   -1    0    0    0  501  0.00000000000E+00  0.00000000000E+00  0.10096788430E+04  0.10096788431E+04  0.50400001928E-02 0.  1.
        1   -1    0    0  501    0  0.00000000000E+00  0.00000000000E+00 -0.20198465534E+03  0.20198465540E+03  0.50400001928E-02 0. -1.
    10030    2    1    2    0    0  0.00000000000E+00  0.00000000000E+00  0.80769418770E+03  0.12116634985E+04  0.90319351893E+03 0.  0.
        1    1    3    3  502    0  0.11467827921E+03 -0.10862757179E+03  0.97140982366E+03  0.98416873685E+03  0.50400001928E-02 0.  1.
       -1    1    3    3    0  502 -0.11467827921E+03  0.10862757179E+03 -0.16371563596E+03  0.22749476160E+03  0.50400001928E-02 0. -1.
</event>
<event>
 5   0  0.1177712E-02  0.7656047E+03  0.7818609E-02  0.9611182E-01
        1   -1    0    0  501    0  0.00000000000E+00  0.00000000000E+00  0.84609734698E+03  0.84609734699E+03  0.50400001928E-02 0.  1.
       -1   -1    0    0    0  501  0.00000000000E+00  0.00000000000E+00 -0.17319239849E+03  0.17319239857E+03  0.50400001928E-02 0. -1.
    10030    2    1    2    0    0  0.00000000000E+00  0.00000000000E+00  0.67290494848E+03  0.10192897456E+04  0.76560467325E+03 0.  0.
        5    1    3    3  502    0  0.28321356947E+03  0.17902475612E+03  0.58286331901E+03  0.67231802585E+03  0.46999998093E+01 0.  1.
       -5    1    3    3    0  502 -0.28321356947E+03 -0.17902475612E+03  0.90041629472E+02  0.34697171970E+03  0.46999998093E+01 0. -1.
</event>
<event>
 5   0  0.1924218E-02  0.9260416E+03  0.7818609E-02  0.9393601E-01
        2   -1    0    0  501    0  0.00000000000E+00  0.00000000000E+00  0.29316222979E+03  0.29316222980E+03  0.25500000920E-02 0. -1.
       -2   -1    0    0    0  501  0.00000000000E+00  0.00000000000E+00 -0.73129570217E+03  0.73129570217E+03  0.25500000920E-02 0.  1.
    10030    2    1    2    0    0  0.00000000000E+00  0.00000000000E+00 -0.43813347238E+03  0.10244579320E+04  0.92604163771E+03 0.  0.
        4    1    3    3  502    0 -0.35721482997E+03 -0.27846506069E+03 -0.11271772334E+03  0.46674631528E+03  0.12699999809E+01 0.  1.
       -4    1    3    3    0  502  0.35721482997E+03  0.27846506069E+03 -0.32541574904E+03  0.55771161669E+03  0.12699999809E+01 0. -1.
</event>
<event>
 5   0  0.2041861E-02  0.8860508E+03  0.7818609E-02  0.9443189E-01
       -2   -1    0    0    0  501  0.00000000000E+00  0.00000000000E+00  0.86489218958E+02  0.86489218996E+02  0.25500000920E-02 0.  1.
        2   -1    0    0  501    0  0.00000000000E+00  0.00000000000E+00 -0.22693177585E+04  0.22693177585E+04  0.25500000920E-02 0. -1.
    10030    2    1    2    0    0  0.00000000000E+00  0.00000000000E+00 -0.21828285395E+04  0.23558069775E+04  0.88605083499E+03 0.  0.
        5    1    3    3  502    0 -0.15518169111E+03 -0.27189665048E+03 -0.25806728023E+03  0.40574617303E+03  0.46999998093E+01 0.  1.
       -5    1    3    3    0  502  0.15518169111E+03  0.27189665048E+03 -0.19247612593E+04  0.19500608045E+04  0.46999998093E+01 0. -1.
</event>
<event>
 5   0  0.2008770E-02  0.8912614E+03  0.7818609E-02  0.9436571E-01
        2   -1    0    0  501    0  0.00000000000E+00  0.00000000000E+00  0.10079653360E+04  0.10079653360E+04  0.25500000920E-02 0. -1.
       -2   -1    0    0    0  501  0.00000000000E+00  0.00000000000E+00 -0.19701742075E+03  0.19701742076E+03  0.25500000920E-02 0.  1.
    10030    2    1    2    0    0  0.00000000000E+00  0.00000000000E+00  0.81094791525E+03  0.12049827568E+04  0.89126142228E+03 0.  0.
        1    1    3    3  502    0 -0.25798053363E+03  0.35760232289E+03  0.31834246015E+03  0.54385227684E+03  0.50400001928E-02 0.  1.
       -1    1    3    3    0  502  0.25798053363E+03 -0.35760232289E+03  0.49260545510E+03  0.66113047992E+03  0.50400001928E-02 0. -1.
</event>
<event>
 5   0  0.2008770E-02  0.8961341E+03  0.7818609E-02  0.9430427E-01
        2   -1    0    0  501    0  0.00000000000E+00  0.00000000000E+00  0.24857324863E+04  0.24857324863E+04  0.25500000920E-02 0. -1.
       -2   -1    0    0    0  501  0.00000000000E+00  0.00000000000E+00 -0.80766564262E+02  0.80766564302E+02  0.25500000920E-02 0.  1.
    10030    2    1    2    0    0  0.00000000000E+00  0.00000000000E+00  0.24049659220E+04  0.25664990506E+04  0.89613408069E+03 0.  0.
        1    1    3    3  502    0  0.22073289630E+03  0.13917462440E+03  0.22456573326E+04  0.22607674456E+04  0.50400001928E-02 0. -1.
       -1    1    3    3    0  502 -0.22073289630E+03 -0.13917462440E+03  0.15930858937E+03  0.30573160494E+03  0.50400001928E-02 0.  1.
</event>
<event>
 5   0  0.1177712E-02  0.9043245E+03  0.7818609E-02  0.9420192E-01
        1   -1    0    0  501    0  0.00000000000E+00  0.00000000000E+00  0.10925001058E+04  0.10925001058E+04  0.50400001928E-02 0.  1.
       -1   -1    0    0    0  501  0.00000000000E+00  0.00000000000E+00 -0.18714022318E+03  0.18714022325E+03  0.50400001928E-02 0. -1.
    10030    2    1    2    0    0  0.00000000000E+00  0.00000000000E+00  0.90535988265E+03  0.12796403291E+04  0.90432452953E+03 0.  0.
        5    1    3    3  502    0  0.28663465852E+03  0.64062261451E+02 -0.33736724979E+02  0.29567491848E+03  0.46999998093E+01 0. -1.
       -5    1    3    3    0  502 -0.28663465852E+03 -0.64062261451E+02  0.93909660763E+03  0.98396541061E+03  0.46999998093E+01 0.  1.
</event>
<event>
 5   0  0.1177712E-02  0.8737397E+03  0.7818609E-02  0.9459017E-01
       -1   -1    0    0    0  501  0.00000000000E+00  0.00000000000E+00  0.15119061407E+03  0.15119061416E+03  0.50400001928E-02 0. -1.
        1   -1    0    0  501    0  0.00000000000E+00  0.00000000000E+00 -0.12623487524E+04  0.12623487524E+04  0.50400001928E-02 0.  1.
    10030    2    1    2    0    0  0.00000000000E+00  0.00000000000E+00 -0.11111581383E+04  0.14135393666E+04  0.87373973956E+03 0.  0.
        5    1    3    3  502    0 -0.62195461668E+02 -0.24768139598E+03 -0.11289731627E+04  0.11575045751E+04  0.46999998093E+01 0.  1.
       -5    1    3    3    0  502  0.62195461668E+02  0.24768139598E+03  0.17815024306E+02  0.25603479150E+03  0.46999998093E+01 0. -1.
</event>
<event>
 5   0  0.1924218E-02  0.8963613E+03  0.7818609E-02  0.9430141E-01
       -2   -1    0    0    0  501  0.00000000000E+00  0.00000000000E+00  0.77562629830E+02  0.77562629872E+02  0.25500000920E-02 0.  1.
        2   -1    0    0  501    0  0.00000000000E+00  0.00000000000E+00 -0.25897253578E+04  0.25897253578E+04  0.25500000920E-02 0. -1.
    10030    2    1    2    0    0  0.00000000000E+00  0.00000000000E+00 -0.25121627279E+04  0.26672879876E+04  0.89636133192E+03 0.  0.
        4    1    3    3  502    0  0.34245786562E+03  0.28490413665E+03 -0.11098017662E+04  0.11958717866E+04  0.12699999809E+01 0.  1.
       -4    1    3    3    0  502 -0.34245786562E+03 -0.28490413665E+03 -0.14023609618E+04  0.14714162011E+04  0.12699999809E+01 0. -1.
</event>
<event>
 5   0  0.1175993E-02  0.8939876E+03  0.7818609E-02  0.9433129E-01
       -1   -1    0    0    0  501  0.00000000000E+00  0.00000000000E+00  0.44131861683E+03  0.44131861686E+03  0.50400001928E-02 0.  1.
        1   -1    0    0  501    0  0.00000000000E+00  0.00000000000E+00 -0.45274192541E+03  0.45274192544E+03  0.50400001928E-02 0. -1.
    10030    2    1    2    0    0  0.00000000000E+00  0.00000000000E+00 -0.11423308577E+02  0.89406054230E+03  0.89398756217E+03 0.  0.
        4    1    3    3  502    0 -0.14591084553E+03 -0.40997607397E+03  0.96431258154E+02  0.44572520292E+03  0.12699999809E+01 0.  1.
       -4    1    3    3    0  502  0.14591084553E+03  0.40997607397E+03 -0.10785456673E+03  0.44833533938E+03  0.12699999809E+01 0. -1.
</event>
<event>
 5   0  0.1924218E-02  0.8965825E+03  0.7818609E-02  0.9429864E-01
        2   -1    0    0  501    0  0.00000000000E+00  0.00000000000E+00  0.48007422694E+03  0.48007422694E+03  0.25500000920E-02 0. -1.
       -2   -1    0    0    0  501  0.00000000000E+00  0.00000000000E+00 -0.41861243881E+03  0.41861243882E+03  0.25500000920E-02 0.  1.
    10030    2    1    2    0    0  0.00000000000E+00  0.00000000000E+00  0.61461788122E+02  0.89868666576E+03  0.89658249583E+03 0.  0.
        4    1    3    3  502    0 -0.15717497657E+03  0.20146959099E+03 -0.33846689488E+03  0.42409364671E+03  0.12699999809E+01 0.  1.
       -4    1    3    3    0  502  0.15717497657E+03 -0.20146959099E+03  0.39992868300E+03  0.47459301906E+03  0.12699999809E+01 0. -1.
</event>
<event>
 5   0  0.1206541E-02  0.9069421E+03  0.7818609E-02  0.9416945E-01
       -1   -1    0    0    0  501  0.00000000000E+00  0.00000000000E+00  0.14956292573E+03  0.14956292581E+03  0.50400001928E-02 0.  1.
        1   -1    0    0  501    0  0.00000000000E+00  0.00000000000E+00 -0.13749128167E+04  0.13749128167E+04  0.50400001928E-02 0. -1.
    10030    2    1    2    0    0  0.00000000000E+00  0.00000000000E+00 -0.12253498910E+04  0.15244757425E+04  0.90694207877E+03 0.  0.
        3    1    3    3  502    0  0.26127727300E+03  0.35081109415E+03 -0.81369313063E+03  0.92381316195E+03  0.10100000352E+00 0.  1.
       -3    1    3    3    0  502 -0.26127727300E+03 -0.35081109415E+03 -0.41165676035E+03  0.60066258058E+03  0.10100000352E+00 0. -1.
</event>
<event>
 5   0  0.1175993E-02  0.9093262E+03  0.7818609E-02  0.9413998E-01
        1   -1    0    0  501    0  0.00000000000E+00  0.00000000000E+00  0.51556560710E+03  0.51556560712E+03  0.50400001928E-02 0. -1.
       -1   -1    0    0    0  501  0.00000000000E+00  0.00000000000E+00 -0.40095488438E+03  0.40095488441E+03  0.50400001928E-02 0.  1.
    10030    2    1    2    0    0  0.00000000000E+00  0.00000000000E+00  0.11461072272E+03  0.91652049153E+03  0.90932623059E+03 0.  0.
        4    1    3    3  502    0 -0.13963979833E+03 -0.33330102189E+03 -0.22079075900E+03  0.42348437590E+03  0.12699999809E+01 0.  1.
       -4    1    3    3    0  502  0.13963979833E+03  0.33330102189E+03  0.33540148172E+03  0.49303611563E+03  0.12699999809E+01 0. -1.
</event>
<event>
 5   0  0.1162839E-02  0.8881462E+03  0.7818609E-02  0.9440522E-01
       -1   -1    0    0    0  501  0.00000000000E+00  0.00000000000E+00  0.54457725561E+03  0.54457725564E+03  0.50400001928E-02 0. -1.
        1   -1    0    0  501    0  0.00000000000E+00  0.00000000000E+00 -0.36211745177E+03  0.36211745180E+03  0.50400001928E-02 0.  1.
    10030    2    1    2    0    0  0.00000000000E+00  0.00000000000E+00  0.18245980384E+03  0.90669470744E+03  0.88814622247E+03 0.  0.
        2    1    3    3  502    0 -0.15341984772E+03  0.23319492745E+02  0.51599573568E+03  0.53882561897E+03  0.25500000920E-02 0. -1.
       -2    1    3    3    0  502  0.15341984772E+03 -0.23319492745E+02 -0.33353593183E+03  0.36786908847E+03  0.25500000920E-02 0.  1.
</event>
<event>
 5   0  0.2008770E-02  0.9429698E+03  0.7818609E-02  0.9373406E-01
        2   -1    0    0  501    0  0.00000000000E+00  0.00000000000E+00  0.77526539354E+03  0.77526539354E+03  0.25500000920E-02 0.  1.
       -2   -1    0    0    0  501  0.00000000000E+00  0.00000000000E+00 -0.28673794743E+03  0.28673794744E+03  0.25500000920E-02 0. -1.
    10030    2    1    2    0    0  0.00000000000E+00  0.00000000000E+00  0.48852744611E+03  0.10620033410E+04  0.94296979308E+03 0.  0.
        1    1    3    3  502    0 -0.30609628153E+02 -0.43010942529E+03  0.29489831853E+02  0.43220448548E+03  0.50400001928E-02 0. -1.
       -1    1    3    3    0  502  0.30609628153E+02  0.43010942529E+03  0.45903761426E+03  0.62979885550E+03  0.50400001928E-02 0.  1.
</event>
<event>
 5   0  0.1226424E-02  0.9074257E+03  0.7818609E-02  0.9416346E-01
        1   -1    0    0  501    0  0.00000000000E+00  0.00000000000E+00  0.10151061343E+04  0.10151061343E+04  0.50400001928E-02 0. -1.
       -1   -1    0    0    0  501  0.00000000000E+00  0.00000000000E+00 -0.20279194844E+03  0.20279194850E+03  0.50400001928E-02 0.  1.
    10030    2    1    2    0    0  0.00000000000E+00  0.00000000000E+00  0.81231418584E+03  0.12178980828E+04  0.90742570140E+03 0.  0.
        1    1    3    3  502    0  0.35655768996E+03  0.27022384946E+03  0.50749612555E+03  0.67654019287E+03  0.50400001928E-02 0.  1.
       -1    1    3    3    0  502 -0.35655768996E+03 -0.27022384946E+03  0.30481806029E+03  0.54135788993E+03  0.50400001928E-02 0. -1.
</event>
<event>
 5   0  0.2008770E-02  0.9101637E+03  0.7818609E-02  0.9412965E-01
       -2   -1    0    0    0  501  0.00000000000E+00  0.00000000000E+00  0.26111701296E+03  0.26111701297E+03  0.25500000920E-02 0. -1.
        2   -1    0    0  501    0  0.00000000000E+00  0.00000000000E+00 -0.79312899631E+03  0.79312899632E+03  0.25500000920E-02 0.  1.
    10030    2    1    2    0    0  0.00000000000E+00  0.00000000000E+00 -0.53201198336E+03  0.10542460093E+04  0.91016366532E+03 0.  0.
        1    1    3    3  502    0 -0.48393470656E+01 -0.87166143678E+02  0.25132691416E+03  0.26605746314E+03  0.50400001928E-02 0. -1.
       -1    1    3    3    0  502  0.48393470656E+01  0.87166143678E+02 -0.78333889752E+03  0.78818854615E+03  0.50400001928E-02 0.  1.
</event>
<event>
 5   0  0.1968763E-02  0.9418982E+03  0.7818609E-02  0.9374671E-01
       -2   -1    0    0    0  501  0.00000000000E+00  0.00000000000E+00  0.27114821724E+03  0.27114821725E+03  0.25500000920E-02 0. -1.
        2   -1    0    0  501    0  0.00000000000E+00  0.00000000000E+00 -0.81797719898E+03  0.81797719898E+03  0.25500000920E-02 0.  1.
    10030    2    1    2    0    0  0.00000000000E+00  0.00000000000E+00 -0.54682898174E+03  0.10891254162E+04  0.94189820947E+03 0.  0.
        2    1    3    3  502    0  0.16047711121E+03  0.43879260056E+03 -0.20499450435E+03  0.51021034520E+03  0.25500000920E-02 0. -1.
       -2    1    3    3    0  502 -0.16047711121E+03 -0.43879260056E+03 -0.34183447739E+03  0.57891507103E+03  0.25500000920E-02 0.  1.
</event>
<event>
 5   0  0.1924218E-02  0.6682541E+03  0.7818609E-02  0.9773117E-01
       -2   -1    0    0    0  501  0.00000000000E+00  0.00000000000E+00  0.11164029307E+03  0.11164029310E+03  0.25500000920E-02 0. -1.
        2   -1    0    0  501    0  0.00000000000E+00  0.00000000000E+00 -0.10000052544E+04  0.10000052544E+04  0.25500000920E-02 0.  1.
    10030    2    1    2    0    0  0.00000000000E+00  0.00000000000E+00 -0.88836496128E+03  0.11116455475E+04  0.66825408247E+03 0.  0.
        4    1    3    3  502    0  0.78750591999E+02 -0.34294007802E+02  0.92956614720E+02  0.12657124409E+03  0.12699999809E+01 0. -1.
       -4    1    3    3    0  502 -0.78750591999E+02  0.34294007802E+02 -0.98132157600E+03  0.98507430336E+03  0.12699999809E+01 0.  1.
</event>
<event>
 5   0  0.1162839E-02  0.8269189E+03  0.7818609E-02  0.9521850E-01
        1   -1    0    0  501    0  0.00000000000E+00  0.00000000000E+00  0.32109702288E+03  0.32109702292E+03  0.50400001928E-02 0. -1.
       -1   -1    0    0    0  501  0.00000000000E+00  0.00000000000E+00 -0.53238960601E+03  0.53238960604E+03  0.50400001928E-02 0.  1.
    10030    2    1    2    0    0  0.00000000000E+00  0.00000000000E+00 -0.21129258314E+03  0.85348662895E+03  0.82691890177E+03 0.  0.
        2    1    3    3  502    0 -0.21927391635E+03  0.50465833617E+02 -0.46366381037E+03  0.51537557161E+03  0.25500000920E-02 0.  1.
       -2    1    3    3    0  502  0.21927391635E+03 -0.50465833617E+02  0.25237122724E+03  0.33811105734E+03  0.25500000920E-02 0. -1.
</event>
<event>
 5   0  0.1226424E-02  0.8915631E+03  0.7818609E-02  0.9436190E-01
        1   -1    0    0  501    0  0.00000000000E+00  0.00000000000E+00  0.12595248375E+04  0.12595248375E+04  0.50400001928E-02 0.  1.
       -1   -1    0    0    0  501  0.00000000000E+00  0.00000000000E+00 -0.15777473355E+03  0.15777473363E+03  0.50400001928E-02 0. -1.
    10030    2    1    2    0    0  0.00000000000E+00  0.00000000000E+00  0.11017501039E+04  0.14172995711E+04  0.89156311207E+03 0.  0.
        1    1    3    3  502    0 -0.49804238295E+02 -0.44246620973E+03  0.51661803982E+03  0.68201980030E+03  0.50400001928E-02 0. -1.
       -1    1    3    3    0  502  0.49804238295E+02  0.44246620973E+03  0.58513206409E+03  0.73527977081E+03  0.50400001928E-02 0.  1.
</event>
<event>
 5   0  0.1924218E-02  0.7559566E+03  0.7818609E-02  0.9626052E-01
       -2   -1    0    0    0  501  0.00000000000E+00  0.00000000000E+00  0.23631421289E+03  0.23631421291E+03  0.25500000920E-02 0. -1.
        2   -1    0    0  501    0  0.00000000000E+00  0.00000000000E+00 -0.60456618744E+03  0.60456618744E+03  0.25500000920E-02 0.  1.
    10030    2    1    2    0    0  0.00000000000E+00  0.00000000000E+00 -0.36825197454E+03  0.84088040035E+03  0.75595656683E+03 0.  0.
        4    1    3    3  502    0 -0.31269165977E+02  0.32141739139E+03  0.34354804354E+02  0.32475955060E+03  0.12699999809E+01 0. -1.
       -4    1    3    3    0  502  0.31269165977E+02 -0.32141739139E+03 -0.40260677890E+03  0.51612084974E+03  0.12699999809E+01 0.  1.
</event>
<event>
 5   0  0.2008643E-02  0.7872001E+03  0.7818609E-02  0.9578732E-01
       -2   -1    0    0    0  501  0.00000000000E+00  0.00000000000E+00  0.17819907958E+03  0.17819907960E+03  0.25500000920E-02 0.  1.
        2   -1    0    0  501    0  0.00000000000E+00  0.00000000000E+00 -0.86937031079E+03  0.86937031080E+03  0.25500000920E-02 0. -1.
    10030    2    1    2    0    0  0.00000000000E+00  0.00000000000E+00 -0.69117123121E+03  0.10475693904E+04  0.78720007421E+03 0.  0.
        3    1    3    3  502    0 -0.17531771825E+02 -0.13050380297E+03 -0.83919007223E+03  0.84945782306E+03  0.10100000352E+00 0. -1.
       -3    1    3    3    0  502  0.17531771825E+02  0.13050380297E+03  0.14801884102E+03  0.19811156734E+03  0.10100000352E+00 0.  1.
</event>
<event>
 5   0  0.7893875E-03  0.9113237E+03  0.7818609E-02  0.9411536E-01
        4   -1    0    0  501    0  0.00000000000E+00  0.00000000000E+00  0.13196205040E+03  0.13196816148E+03  0.12699999809E+01 0. -1.
       -4   -1    0    0    0  501  0.00000000000E+00  0.00000000000E+00 -0.15733469872E+04  0.15733474998E+04  0.12699999809E+01 0.  1.
    10030    2    1    2    0    0  0.00000000000E+00  0.00000000000E+00 -0.14413849368E+04  0.17053156613E+04  0.91132374514E+03 0.  0.
        3    1    3    3  502    0 -0.38022153356E+03 -0.24756760158E+03 -0.64197526677E+03  0.78612364503E+03  0.10100000352E+00 0.  1.
       -3    1    3    3    0  502  0.38022153356E+03  0.24756760158E+03 -0.79940967004E+03  0.91919201623E+03  0.10100000352E+00 0. -1.
</event>
<event>
 5   0  0.7893875E-03  0.9271779E+03  0.7818609E-02  0.9392231E-01
       -3   -1    0    0    0  501  0.00000000000E+00  0.00000000000E+00  0.34008684871E+03  0.34008686371E+03  0.10100000352E+00 0. -1.
        3   -1    0    0  501    0  0.00000000000E+00  0.00000000000E+00 -0.63194058580E+03  0.63194059387E+03  0.10100000352E+00 0.  1.
    10030    2    1    2    0    0  0.00000000000E+00  0.00000000000E+00 -0.29185373709E+03  0.97202745758E+03  0.92717785480E+03 0.  0.
        4    1    3    3  502    0  0.24745745889E+03  0.18945045858E+03  0.21387471984E+03  0.37798237909E+03  0.12699999809E+01 0. -1.
       -4    1    3    3    0  502 -0.24745745889E+03 -0.18945045858E+03 -0.50572845693E+03  0.59404507848E+03  0.12699999809E+01 0.  1.
</event>
<event>
 5   0  0.1206541E-02  0.8949384E+03  0.7818609E-02  0.9431931E-01
        1   -1    0    0  501    0  0.00000000000E+00  0.00000000000E+00  0.16082621971E+04  0.16082621971E+04  0.50400001928E-02 0. -1.
       -1   -1    0    0    0  501  0.00000000000E+00  0.00000000000E+00 -0.12450002608E+03  0.12450002618E+03  0.50400001928E-02 0.  1.
    10030    2    1    2    0    0  0.00000000000E+00  0.00000000000E+00  0.14837621710E+04  0.17327622233E+04  0.89493840140E+03 0.  0.
        3    1    3    3  502    0  0.97727600213E+02 -0.41360251586E+03  0.47074011392E+03  0.63420342953E+03  0.10100000352E+00 0.  1.
       -3    1    3    3    0  502 -0.97727600213E+02  0.41360251586E+03  0.10130220571E+04  0.10985587938E+04  0.10100000352E+00 0. -1.
</event>
<event>
 5   0  0.1968763E-02  0.5873829E+03  0.7818609E-02  0.9931934E-01
        2   -1    0    0  501    0  0.00000000000E+00  0.00000000000E+00  0.19751386741E+03  0.19751386743E+03  0.25500000920E-02 0.  1.
       -2   -1    0    0    0  501  0.00000000000E+00  0.00000000000E+00 -0.43670184816E+03  0.43670184817E+03  0.25500000920E-02 0. -1.
    10030    2    1    2    0    0  0.00000000000E+00  0.00000000000E+00 -0.23918798075E+03  0.63421571560E+03  0.58738291070E+03 0.  0.
        2    1    3    3  502    0 -0.15765774191E+03  0.11850171866E+03 -0.35455912697E+03  0.40572255969E+03  0.25500000920E-02 0. -1.
       -2    1    3    3    0  502  0.15765774191E+03 -0.11850171866E+03  0.11537114622E+03  0.22849315591E+03  0.25500000920E-02 0.  1.
</event>
<event>
 5   0  0.1924218E-02  0.9025809E+03  0.7818609E-02  0.9422361E-01
        2   -1    0    0  501    0  0.00000000000E+00  0.00000000000E+00  0.19422329417E+04  0.19422329417E+04  0.25500000920E-02 0. -1.
       -2   -1    0    0    0  501  0.00000000000E+00  0.00000000000E+00 -0.10486026972E+03  0.10486026975E+03  0.25500000920E-02 0.  1.
    10030    2    1    2    0    0  0.00000000000E+00  0.00000000000E+00  0.18373726720E+04  0.20470932114E+04  0.90258089976E+03 0.  0.
        4    1    3    3  502    0  0.33234466894E+03 -0.11393446857E+03  0.15610972035E+04  0.16001437854E+04  0.12699999809E+01 0. -1.
       -4    1    3    3    0  502 -0.33234466894E+03  0.11393446857E+03  0.27627546845E+03  0.44694942607E+03  0.12699999809E+01 0.  1.
</event>
<event>
 5   0  0.1226424E-02  0.8968001E+03  0.7818609E-02  0.9429590E-01
        1   -1    0    0  501    0  0.00000000000E+00  0.00000000000E+00  0.39468466811E+03  0.39468466814E+03  0.50400001928E-02 0.  1.
       -1   -1    0    0    0  501  0.00000000000E+00  0.00000000000E+00 -0.50942598461E+03  0.50942598463E+03  0.50400001928E-02 0. -1.
    10030    2    1    2    0    0  0.00000000000E+00  0.00000000000E+00 -0.11474131650E+03  0.90411065278E+03  0.89680014650E+03 0.  0.
        1    1    3    3  502    0 -0.62050774686E+02 -0.14624829479E+03  0.36536093022E+03  0.39840616427E+03  0.50400001928E-02 0.  1.
       -1    1    3    3    0  502  0.62050774686E+02  0.14624829479E+03 -0.48010224672E+03  0.50570448851E+03  0.50400001928E-02 0. -1.
</event>
<event>
 5   0  0.1226424E-02  0.8895029E+03  0.7818609E-02  0.9438799E-01
       -1   -1    0    0    0  501  0.00000000000E+00  0.00000000000E+00  0.28556063043E+03  0.28556063047E+03  0.50400001928E-02 0.  1.
        1   -1    0    0  501    0  0.00000000000E+00  0.00000000000E+00 -0.69268596957E+03  0.69268596958E+03  0.50400001928E-02 0. -1.
    10030    2    1    2    0    0  0.00000000000E+00  0.00000000000E+00 -0.40712533914E+03  0.97824660005E+03  0.88950287731E+03 0.  0.
        1    1    3    3  502    0  0.33975715274E+03 -0.27826940938E+03 -0.12630404113E+03  0.45696990915E+03  0.50400001928E-02 0.  1.
       -1    1    3    3    0  502 -0.33975715274E+03  0.27826940938E+03 -0.28082129801E+03  0.52127669090E+03  0.50400001928E-02 0. -1.
</event>
<event>
 5   0  0.2008643E-02  0.8937312E+03  0.7818609E-02  0.9433452E-01
        2   -1    0    0  501    0  0.00000000000E+00  0.00000000000E+00  0.14857618421E+04  0.14857618421E+04  0.25500000920E-02 0.  1.
       -2   -1    0    0    0  501  0.00000000000E+00  0.00000000000E+00 -0.13440165735E+03  0.13440165738E+03  0.25500000920E-02 0. -1.
    10030    2    1    2    0    0  0.00000000000E+00  0.00000000000E+00  0.13513601847E+04  0.16201634995E+04  0.89373117665E+03 0.  0.
        3    1    3    3  502    0  0.31734013036E+03  0.29582041712E+03  0.86986536580E+03  0.97204950611E+03  0.10100000352E+00 0.  1.
       -3    1    3    3    0  502 -0.31734013036E+03 -0.29582041712E+03  0.48149481892E+03  0.64811399335E+03  0.10100000352E+00 0. -1.
</event>
<event>
 5   0  0.1175993E-02  0.8949970E+03  0.7818609E-02  0.9431857E-01
       -1   -1    0    0    0  501  0.00000000000E+00  0.00000000000E+00  0.15090954684E+03  0.15090954692E+03  0.50400001928E-02 0.  1.
        1   -1    0    0  501    0  0.00000000000E+00  0.00000000000E+00 -0.13269863126E+04  0.13269863127E+04  0.50400001928E-02 0. -1.
    10030    2    1    2    0    0  0.00000000000E+00  0.00000000000E+00 -0.11760767658E+04  0.14778958596E+04  0.89499699032E+03 0.  0.
        4    1    3    3  502    0  0.28890371038E+02  0.22254752710E+03  0.51269966495E+02  0.23020051633E+03  0.12699999809E+01 0.  1.
       -4    1    3    3    0  502 -0.28890371038E+02 -0.22254752710E+03 -0.12273467323E+04  0.12476953432E+04  0.12699999809E+01 0. -1.
</event>
<event>
 5   0  0.1226424E-02  0.9011470E+03  0.7818609E-02  0.9424149E-01
        1   -1    0    0  501    0  0.00000000000E+00  0.00000000000E+00  0.11860634979E+04  0.11860634979E+04  0.50400001928E-02 0. -1.
       -1   -1    0    0    0  501  0.00000000000E+00  0.00000000000E+00 -0.17116830758E+03  0.17116830765E+03  0.50400001928E-02 0.  1.
    10030    2    1    2    0    0  0.00000000000E+00  0.00000000000E+00  0.10148951903E+04  0.13572318056E+04  0.90114700616E+03 0.  0.
        1    1    3    3  502    0  0.85074540629E+02  0.15538673630E+03  0.11314119071E+04  0.11451967599E+04  0.50400001928E-02 0. -1.
       -1    1    3    3    0  502 -0.85074540629E+02 -0.15538673630E+03 -0.11651671679E+03  0.21203504568E+03  0.50400001928E-02 0.  1.
</event>
<event>
 5   0  0.7893875E-03  0.8944266E+03  0.7818609E-02  0.9432575E-01
        3   -1    0    0  501    0  0.00000000000E+00  0.00000000000E+00  0.30183818000E+03  0.30183819690E+03  0.10100000352E+00 0.  1.
       -3   -1    0    0    0  501  0.00000000000E+00  0.00000000000E+00 -0.66260576638E+03  0.66260577408E+03  0.10100000352E+00 0. -1.
    10030    2    1    2    0    0  0.00000000000E+00  0.00000000000E+00 -0.36076758638E+03  0.96444397098E+03  0.89442658825E+03 0.  0.
        4    1    3    3  502    0  0.19349947871E+03 -0.27108072060E+03 -0.50219504663E+03  0.60260126378E+03  0.12699999809E+01 0. -1.
       -4    1    3    3    0  502 -0.19349947871E+03  0.27108072060E+03  0.14142746025E+03  0.36184270720E+03  0.12699999809E+01 0.  1.
</event>
<event>
 5   0  0.1226424E-02  0.8948854E+03  0.7818609E-02  0.9431998E-01
        1   -1    0    0  501    0  0.00000000000E+00  0.00000000000E+00  0.44247948237E+03  0.44247948240E+03  0.50400001928E-02 0. -1.
       -1   -1    0    0    0  501  0.00000000000E+00  0.00000000000E+00 -0.45246161250E+03  0.45246161252E+03  0.50400001928E-02 0.  1.
    10030    2    1    2    0    0  0.00000000000E+00  0.00000000000E+00 -0.99821301242E+01  0.89494109493E+03  0.89488542309E+03 0.  0.
        1    1    3    3  502    0 -0.10909079703E+03  0.49569694090E+02  0.42613553786E+03  0.44266178198E+03  0.50400001928E-02 0. -1.
       -1    1    3    3    0  502  0.10909079703E+03 -0.49569694090E+02 -0.43611766798E+03  0.45227931295E+03  0.50400001928E-02 0.  1.
</event>
<event>
 5   0  0.1206541E-02  0.1033499E+04  0.7818609E-02  0.9272548E-01
        1   -1    0    0  501    0  0.00000000000E+00  0.00000000000E+00  0.83839951067E+03  0.83839951068E+03  0.50400001928E-02 0. -1.
       -1   -1    0    0    0  501  0.00000000000E+00  0.00000000000E+00 -0.31849994889E+03  0.31849994893E+03  0.50400001928E-02 0.  1.
    10030    2    1    2    0    0  0.00000000000E+00  0.00000000000E+00  0.51989956178E+03  0.11568994596E+04  0.10334993011E+04 0.  0.
        3    1    3    3  502    0  0.13723779908E+03 -0.36134804339E+02  0.81615800209E+03  0.82840438927E+03  0.10100000352E+00 0. -1.
       -3    1    3    3    0  502 -0.13723779908E+03  0.36134804339E+02 -0.29625844032E+03  0.32849507034E+03  0.10100000352E+00 0.  1.
</event>
<event>
 5   0  0.2041861E-02  0.8986836E+03  0.7818609E-02  0.9427228E-01
        2   -1    0    0  501    0  0.00000000000E+00  0.00000000000E+00  0.11163747259E+04  0.11163747259E+04  0.25500000920E-02 0.  1.
       -2   -1    0    0    0  501  0.00000000000E+00  0.00000000000E+00 -0.18086046273E+03  0.18086046275E+03  0.25500000920E-02 0. -1.
    10030    2    1    2    0    0  0.00000000000E+00  0.00000000000E+00  0.93551426320E+03  0.12972351887E+04  0.89868359177E+03 0.  0.
        5    1    3    3  502    0 -0.35627486762E+02  0.28639187775E+03  0.96486145559E+03  0.10071094002E+04  0.46999998093E+01 0.  1.
       -5    1    3    3    0  502  0.35627486762E+02 -0.28639187775E+03 -0.29347192393E+02  0.29012578850E+03  0.46999998093E+01 0. -1.
</event>
<event>
 5   0  0.1175993E-02  0.8885484E+03  0.7818609E-02  0.9440011E-01
        1   -1    0    0  501    0  0.00000000000E+00  0.00000000000E+00  0.31897672099E+03  0.31897672103E+03  0.50400001928E-02 0.  1.
       -1   -1    0    0    0  501  0.00000000000E+00  0.00000000000E+00 -0.61878980952E+03  0.61878980954E+03  0.50400001928E-02 0. -1.
    10030    2    1    2    0    0  0.00000000000E+00  0.00000000000E+00 -0.29981308853E+03  0.93776653058E+03  0.88854835424E+03 0.  0.
        4    1    3    3  502    0  0.13132940975E+03 -0.10711234074E+03 -0.58333402618E+03  0.60745425046E+03  0.12699999809E+01 0. -1.
       -4    1    3    3    0  502 -0.13132940975E+03  0.10711234074E+03  0.28352093765E+03  0.33031228011E+03  0.12699999809E+01 0.  1.
</event>
<event>
 5   0  0.1226424E-02  0.9202797E+03  0.7818609E-02  0.9400580E-01
       -1   -1    0    0    0  501  0.00000000000E+00  0.00000000000E+00  0.61392285828E+03  0.61392285830E+03  0.50400001928E-02 0.  1.
        1   -1    0    0  501    0  0.00000000000E+00  0.00000000000E+00 -0.34487828139E+03  0.34487828142E+03  0.50400001928E-02 0. -1.
    10030    2    1    2    0    0  0.00000000000E+00  0.00000000000E+00  0.26904457690E+03  0.95880113973E+03  0.92027965379E+03 0.  0.
        1    1    3    3  502    0  0.11999679994E+03  0.15359285030E+03  0.56878942064E+03  0.60125818142E+03  0.50400001928E-02 0.  1.
       -1    1    3    3    0  502 -0.11999679994E+03 -0.15359285030E+03 -0.29974484375E+03  0.35754295831E+03  0.50400001928E-02 0. -1.
</event>
<event>
 5   0  0.1226424E-02  0.9154246E+03  0.7818609E-02  0.9406503E-01
        1   -1    0    0  501    0  0.00000000000E+00  0.00000000000E+00  0.73218631241E+03  0.73218631243E+03  0.50400001928E-02 0.  1.
       -1   -1    0    0    0  501  0.00000000000E+00  0.00000000000E+00 -0.28613012639E+03  0.28613012644E+03  0.50400001928E-02 0. -1.
    10030    2    1    2    0    0  0.00000000000E+00  0.00000000000E+00  0.44605618602E+03  0.10183164389E+04  0.91542462747E+03 0.  0.
        1    1    3    3  502    0 -0.52338960526E+02  0.34892905744E+03  0.54736354722E+03  0.65122784551E+03  0.50400001928E-02 0.  1.
       -1    1    3    3    0  502  0.52338960526E+02 -0.34892905744E+03 -0.10130736120E+03  0.36708859336E+03  0.50400001928E-02 0. -1.
</event>
<event>
 5   0  0.2041861E-02  0.8979769E+03  0.7818609E-02  0.9428114E-01
       -2   -1    0    0    0  501  0.00000000000E+00  0.00000000000E+00  0.18925547610E+03  0.18925547612E+03  0.25500000920E-02 0. -1.
        2   -1    0    0  501    0  0.00000000000E+00  0.00000000000E+00 -0.10651772930E+04  0.10651772930E+04  0.25500000920E-02 0.  1.
    10030    2    1    2    0    0  0.00000000000E+00  0.00000000000E+00 -0.87592181686E+03  0.12544327691E+04  0.89797691669E+03 0.  0.
        5    1    3    3  502    0  0.12871107096E+03  0.22327261656E+03  0.75600525713E+02  0.26861632598E+03  0.46999998093E+01 0. -1.
       -5    1    3    3    0  502 -0.12871107096E+03 -0.22327261656E+03 -0.95152234257E+03  0.98581644311E+03  0.46999998093E+01 0.  1.
</event>
<event>
 5   0  0.1924218E-02  0.8863436E+03  0.7818609E-02  0.9442815E-01
       -2   -1    0    0    0  501  0.00000000000E+00  0.00000000000E+00  0.24816625389E+03  0.24816625390E+03  0.25500000920E-02 0. -1.
        2   -1    0    0  501    0  0.00000000000E+00  0.00000000000E+00 -0.79141001267E+03  0.79141001268E+03  0.25500000920E-02 0.  1.
    10030    2    1    2    0    0  0.00000000000E+00  0.00000000000E+00 -0.54324375878E+03  0.10395762666E+04  0.88634363121E+03 0.  0.
        4    1    3    3  502    0  0.42367649715E+02  0.41663419853E+03 -0.44167182356E+03  0.60864988766E+03  0.12699999809E+01 0. -1.
       -4    1    3    3    0  502 -0.42367649715E+02 -0.41663419853E+03 -0.10157193522E+03  0.43092637892E+03  0.12699999809E+01 0.  1.
</event>
<event>
 5   0  0.1177712E-02  0.8917152E+03  0.7818609E-02  0.9435998E-01
       -1   -1    0    0    0  501  0.00000000000E+00  0.00000000000E+00  0.15369635637E+04  0.15369635638E+04  0.50400001928E-02 0.  1.
        1   -1    0    0  501    0  0.00000000000E+00  0.00000000000E+00 -0.12933877572E+03  0.12933877582E+03  0.50400001928E-02 0. -1.
    10030    2    1    2    0    0  0.00000000000E+00  0.00000000000E+00  0.14076247880E+04  0.16663023396E+04  0.89171516922E+03 0.  0.
        5    1    3    3  502    0 -0.33798370646E+03 -0.21260799686E+03  0.10744071608E+04  0.11462146323E+04  0.46999998093E+01 0.  1.
       -5    1    3    3    0  502  0.33798370646E+03  0.21260799686E+03  0.33321762726E+03  0.52008770729E+03  0.46999998093E+01 0. -1.
</event>
<event>
 5   0  0.1924218E-02  0.8923360E+03  0.7818609E-02  0.9435213E-01
        2   -1    0    0  501    0  0.00000000000E+00  0.00000000000E+00  0.16368988658E+04  0.16368988658E+04  0.25500000920E-02 0. -1.
       -2   -1    0    0    0  501  0.00000000000E+00  0.00000000000E+00 -0.12161158740E+03  0.12161158743E+03  0.25500000920E-02 0.  1.
    10030    2    1    2    0    0  0.00000000000E+00  0.00000000000E+00  0.15152872784E+04  0.17585104532E+04  0.89233596702E+03 0.  0.
        4    1    3    3  502    0  0.20988685362E+03  0.13111312273E+03  0.14892448819E+04  0.15096672062E+04  0.12699999809E+01 0. -1.
       -4    1    3    3    0  502 -0.20988685362E+03 -0.13111312273E+03  0.26042396475E+02  0.24884324702E+03  0.12699999809E+01 0.  1.
</event>
<event>
 5   0  0.1206541E-02  0.7667907E+03  0.7818609E-02  0.9609371E-01
       -1   -1    0    0    0  501  0.00000000000E+00  0.00000000000E+00  0.41206072444E+03  0.41206072447E+03  0.50400001928E-02 0.  1.
        1   -1    0    0  501    0  0.00000000000E+00  0.00000000000E+00 -0.35672407001E+03  0.35672407005E+03  0.50400001928E-02 0. -1.
    10030    2    1    2    0    0  0.00000000000E+00  0.00000000000E+00  0.55336654426E+02  0.76878479452E+03  0.76679065915E+03 0.  0.
        3    1    3    3  502    0 -0.10475897023E+01 -0.33422726003E+03 -0.16065789022E+03  0.37083679251E+03  0.10100000352E+00 0. -1.
       -3    1    3    3    0  502  0.10475897023E+01  0.33422726003E+03  0.21599454464E+03  0.39794800201E+03  0.10100000352E+00 0.  1.
</event>
<event>
 5   0  0.1968763E-02  0.8994668E+03  0.7818609E-02  0.9426248E-01
        2   -1    0    0  501    0  0.00000000000E+00  0.00000000000E+00  0.96649500596E+03  0.96649500596E+03  0.25500000920E-02 0. -1.
       -2   -1    0    0    0  501  0.00000000000E+00  0.00000000000E+00 -0.20927178523E+03  0.20927178524E+03  0.25500000920E-02 0.  1.
    10030    2    1    2    0    0  0.00000000000E+00  0.00000000000E+00  0.75722322073E+03  0.11757667912E+04  0.89946680944E+03 0.  0.
        2    1    3    3  502    0 -0.14182002136E+03  0.38352418360E+03  0.13386323751E+03  0.43025932207E+03  0.25500000920E-02 0.  1.
       -2    1    3    3    0  502  0.14182002136E+03 -0.38352418360E+03  0.62335998322E+03  0.74550746914E+03  0.25500000920E-02 0. -1.
</event>
<event>
 5   0  0.2008770E-02  0.9018341E+03  0.7818609E-02  0.9423292E-01
       -2   -1    0    0    0  501  0.00000000000E+00  0.00000000000E+00  0.46275617829E+03  0.46275617830E+03  0.25500000920E-02 0. -1.
        2   -1    0    0  501    0  0.00000000000E+00  0.00000000000E+00 -0.43938078190E+03  0.43938078191E+03  0.25500000920E-02 0.  1.
    10030    2    1    2    0    0  0.00000000000E+00  0.00000000000E+00  0.23375396389E+02  0.90213696021E+03  0.90183406779E+03 0.  0.
        1    1    3    3  502    0  0.17400356301E+03 -0.49060632758E+02 -0.40153939386E+03  0.44036129539E+03  0.50400001928E-02 0.  1.
       -1    1    3    3    0  502 -0.17400356301E+03  0.49060632758E+02  0.42491479025E+03  0.46177566482E+03  0.50400001928E-02 0. -1.
</event>
<event>
 5   0  0.7893875E-03  0.8954563E+03  0.7818609E-02  0.9431279E-01
        3   -1    0    0  501    0  0.00000000000E+00  0.00000000000E+00  0.72932255442E+03  0.72932256142E+03  0.10100000352E+00 0. -1.
       -3   -1    0    0    0  501  0.00000000000E+00  0.00000000000E+00 -0.27485849314E+03  0.27485851170E+03  0.10100000352E+00 0.  1.
    10030    2    1    2    0    0  0.00000000000E+00  0.00000000000E+00  0.45446406128E+03  0.10041810731E+04  0.89545633317E+03 0.  0.
        5    1    3    3  502    0 -0.12148683170E+03 -0.42902661779E+03  0.27230595957E+03  0.52248972685E+03  0.46999998093E+01 0.  1.
       -5    1    3    3    0  502  0.12148683170E+03  0.42902661779E+03  0.18215810171E+03  0.48169134627E+03  0.46999998093E+01 0. -1.
</event>
<event>
 5   0  0.1175993E-02  0.8978809E+03  0.7818609E-02  0.9428234E-01
       -1   -1    0    0    0  501  0.00000000000E+00  0.00000000000E+00  0.43732493444E+03  0.43732493447E+03  0.50400001928E-02 0. -1.
        1   -1    0    0  501    0  0.00000000000E+00  0.00000000000E+00 -0.46086447773E+03  0.46086447776E+03  0.50400001928E-02 0.  1.
    10030    2    1    2    0    0  0.00000000000E+00  0.00000000000E+00 -0.23539543290E+02  0.89818941223E+03  0.89788089976E+03 0.  0.
        4    1    3    3  502    0  0.40092545477E+03  0.16917464698E+03  0.98652182295E+02  0.44620079273E+03  0.12699999809E+01 0. -1.
       -4    1    3    3    0  502 -0.40092545477E+03 -0.16917464698E+03 -0.12219172559E+03  0.45198861950E+03  0.12699999809E+01 0.  1.
</event>
<event>
 5   0  0.2008770E-02  0.8910874E+03  0.7818609E-02  0.9436792E-01
        2   -1    0    0  501    0  0.00000000000E+00  0.00000000000E+00  0.96316902097E+03  0.96316902098E+03  0.25500000920E-02 0.  1.
       -2   -1    0    0    0  501  0.00000000000E+00  0.00000000000E+00 -0.20610005090E+03  0.20610005092E+03  0.25500000920E-02 0. -1.
    10030    2    1    2    0    0  0.00000000000E+00  0.00000000000E+00  0.75706897007E+03  0.11692690719E+04  0.89108739024E+03 0.  0.
        1    1    3    3  502    0  0.43224821129E+03 -0.10138877074E+03  0.32959544740E+03  0.55294787998E+03  0.50400001928E-02 0.  1.
       -1    1    3    3    0  502 -0.43224821129E+03  0.10138877074E+03  0.42747352267E+03  0.61632119192E+03  0.50400001928E-02 0. -1.
</event>
<event>
 5   0  0.7893875E-03  0.8350363E+03  0.7818609E-02  0.9510644E-01
       -4   -1    0    0    0  501  0.00000000000E+00  0.00000000000E+00  0.70841922729E+03  0.70842036567E+03  0.12699999809E+01 0. -1.
        4   -1    0    0  501    0  0.00000000000E+00  0.00000000000E+00 -0.24606801859E+03  0.24607129592E+03  0.12699999809E+01 0.  1.
    10030    2    1    2    0    0  0.00000000000E+00  0.00000000000E+00  0.46235120870E+03  0.95449166159E+03  0.83503634164E+03 0.  0.
        4    1    3    3  502    0 -0.21379329560E+03 -0.11245546586E+03 -0.15807752258E+03  0.28869347254E+03  0.12699999809E+01 0.  1.
       -4    1    3    3    0  502  0.21379329560E+03  0.11245546586E+03  0.62042873128E+03  0.66579818905E+03  0.12699999809E+01 0. -1.
</event>
<event>
 5   0  0.1924218E-02  0.9057225E+03  0.7818609E-02  0.9418456E-01
        2   -1    0    0  501    0  0.00000000000E+00  0.00000000000E+00  0.13887760901E+04  0.13887760902E+04  0.25500000920E-02 0.  1.
       -2   -1    0    0    0  501  0.00000000000E+00  0.00000000000E+00 -0.14767198632E+03  0.14767198635E+03  0.25500000920E-02 0. -1.
    10030    2    1    2    0    0  0.00000000000E+00  0.00000000000E+00  0.12411041038E+04  0.15364480765E+04  0.90572252663E+03 0.  0.
        4    1    3    3  502    0  0.49337073627E+02 -0.18530922578E+03 -0.75393348970E+02  0.20605685129E+03  0.12699999809E+01 0. -1.
       -4    1    3    3    0  502 -0.49337073627E+02  0.18530922578E+03  0.13164974528E+04  0.13303912252E+04  0.12699999809E+01 0.  1.
</event>
<event>
 5   0  0.2008643E-02  0.8997096E+03  0.7818609E-02  0.9425945E-01
       -2   -1    0    0    0  501  0.00000000000E+00  0.00000000000E+00  0.26469961510E+03  0.26469961511E+03  0.25500000920E-02 0.  1.
        2   -1    0    0  501    0  0.00000000000E+00  0.00000000000E+00 -0.76452449152E+03  0.76452449153E+03  0.25500000920E-02 0. -1.
    10030    2    1    2    0    0  0.00000000000E+00  0.00000000000E+00 -0.49982487643E+03  0.10292241066E+04  0.89970959458E+03 0.  0.
        3    1    3    3  502    0 -0.27971057178E+03  0.38534082362E+02 -0.65053470795E+03  0.70916732576E+03  0.10100000352E+00 0. -1.
       -3    1    3    3    0  502  0.27971057178E+03 -0.38534082362E+02  0.15070983152E+03  0.32005678088E+03  0.10100000352E+00 0.  1.
</event>
<event>
 5   0  0.1162839E-02  0.8980582E+03  0.7818609E-02  0.9428012E-01
        1   -1    0    0  501    0  0.00000000000E+00  0.00000000000E+00  0.19913336060E+04  0.19913336060E+04  0.50400001928E-02 0. -1.
       -1   -1    0    0    0  501  0.00000000000E+00  0.00000000000E+00 -0.10125230358E+03  0.10125230371E+03  0.50400001928E-02 0.  1.
    10030    2    1    2    0    0  0.00000000000E+00  0.00000000000E+00  0.18900813024E+04  0.20925859097E+04  0.89805816057E+03 0.  0.
        2    1    3    3  502    0 -0.93682997015E+00  0.29847405632E+03  0.16335655609E+03  0.34025432307E+03  0.25500000920E-02 0.  1.
       -2    1    3    3    0  502  0.93682997015E+00 -0.29847405632E+03  0.17267247463E+04  0.17523315867E+04  0.25500000920E-02 0. -1.
</event>
<event>
 5   0  0.1175993E-02  0.8960483E+03  0.7818609E-02  0.9430535E-01
        1   -1    0    0  501    0  0.00000000000E+00  0.00000000000E+00  0.13096523844E+04  0.13096523844E+04  0.50400001928E-02 0. -1.
       -1   -1    0    0    0  501  0.00000000000E+00  0.00000000000E+00 -0.15326636340E+03  0.15326636349E+03  0.50400001928E-02 0.  1.
    10030    2    1    2    0    0  0.00000000000E+00  0.00000000000E+00  0.11563860210E+04  0.14629187479E+04  0.89604834323E+03 0.  0.
        4    1    3    3  502    0  0.15778697205E+03 -0.13629256382E+03  0.12256134041E+04  0.12432225145E+04  0.12699999809E+01 0. -1.
       -4    1    3    3    0  502 -0.15778697205E+03  0.13629256382E+03 -0.69227383052E+02  0.21969623339E+03  0.12699999809E+01 0.  1.
</event>
<event>
 5   0  0.1206541E-02  0.8777065E+03  0.7818609E-02  0.9453887E-01
        1   -1    0    0  501    0  0.00000000000E+00  0.00000000000E+00  0.35588199523E+03  0.35588199526E+03  0.50400001928E-02 0.  1.
       -1   -1    0    0    0  501  0.00000000000E+00  0.00000000000E+00 -0.54116862211E+03  0.54116862214E+03  0.50400001928E-02 0. -1.
    10030    2    1    2    0    0  0.00000000000E+00  0.00000000000E+00 -0.18528662688E+03  0.89705061740E+03  0.87770648629E+03 0.  0.
        3    1    3    3  502    0 -0.98585407246E+02 -0.36288312345E+03 -0.32387939631E+03  0.49628733347E+03  0.10100000352E+00 0. -1.
       -3    1    3    3    0  502  0.98585407246E+02  0.36288312345E+03  0.13859276942E+03  0.40076328393E+03  0.10100000352E+00 0.  1.
</event>
<event>
 5   0  0.1206541E-02  0.9004362E+03  0.7818609E-02  0.9425036E-01
        1   -1    0    0  501    0  0.00000000000E+00  0.00000000000E+00  0.51812399974E+03  0.51812399976E+03  0.50400001928E-02 0. -1.
       -1   -1    0    0    0  501  0.00000000000E+00  0.00000000000E+00 -0.39121203308E+03  0.39121203311E+03  0.50400001928E-02 0.  1.
    10030    2    1    2    0    0  0.00000000000E+00  0.00000000000E+00  0.12691196666E+03  0.90933603287E+03  0.90043621284E+03 0.  0.
        3    1    3    3  502    0  0.42614078417E+03 -0.10788926827E+03 -0.34769287903E+02  0.44095915426E+03  0.10100000352E+00 0.  1.
       -3    1    3    3    0  502 -0.42614078417E+03  0.10788926827E+03  0.16168125456E+03  0.46837687861E+03  0.10100000352E+00 0. -1.
</event>
<event>
 5   0  0.2008770E-02  0.9524950E+03  0.7818609E-02  0.9362239E-01
        2   -1    0    0  501    0  0.00000000000E+00  0.00000000000E+00  0.12772457991E+04  0.12772457991E+04  0.25500000920E-02 0.  1.
       -2   -1    0    0    0  501  0.00000000000E+00  0.00000000000E+00 -0.17757871728E+03  0.17757871730E+03  0.25500000920E-02 0. -1.
    10030    2    1    2    0    0  0.00000000000E+00  0.00000000000E+00  0.10996670818E+04  0.14548245164E+04  0.95249497778E+03 0.  0.
        1    1    3    3  502    0  0.22924386268E+03 -0.41537950490E+03  0.48651087401E+03  0.67954816769E+03  0.50400001928E-02 0. -1.
       -1    1    3    3    0  502 -0.22924386268E+03  0.41537950490E+03  0.61315620784E+03  0.77527634873E+03  0.50400001928E-02 0.  1.
</event>
<event>
 5   0  0.2041861E-02  0.8992139E+03  0.7818609E-02  0.9426565E-01
       -2   -1    0    0    0  501  0.00000000000E+00  0.00000000000E+00  0.39544515816E+03  0.39544515817E+03  0.25500000920E-02 0.  1.
        2   -1    0    0  501    0  0.00000000000E+00  0.00000000000E+00 -0.51118695397E+03  0.51118695398E+03  0.25500000920E-02 0. -1.
    10030    2    1    2    0    0  0.00000000000E+00  0.00000000000E+00 -0.11574179581E+03  0.90663211214E+03  0.89921389195E+03 0.  0.
        5    1    3    3  502    0 -0.32433409465E+03 -0.25653466863E+03 -0.23573961357E+03  0.47602300004E+03  0.46999998093E+01 0. -1.
       -5    1    3    3    0  502  0.32433409465E+03  0.25653466863E+03  0.11999781776E+03  0.43060911210E+03  0.46999998093E+01 0.  1.
</event>
<event>
 5   0  0.1968763E-02  0.8910837E+03  0.7818609E-02  0.9436796E-01
       -2   -1    0    0    0  501  0.00000000000E+00  0.00000000000E+00  0.39326483347E+03  0.39326483348E+03  0.25500000920E-02 0. -1.
        2   -1    0    0  501    0  0.00000000000E+00  0.00000000000E+00 -0.50476804495E+03  0.50476804495E+03  0.25500000920E-02 0.  1.
    10030    2    1    2    0    0  0.00000000000E+00  0.00000000000E+00 -0.11150321148E+03  0.89803287844E+03  0.89108365745E+03 0.  0.
        2    1    3    3  502    0 -0.41567189568E+03  0.13242878021E+03  0.35436152046E+02  0.43769421696E+03  0.25500000920E-02 0. -1.
       -2    1    3    3    0  502  0.41567189568E+03 -0.13242878021E+03 -0.14693936352E+03  0.46033866147E+03  0.25500000920E-02 0.  1.
</event>
<event>
 5   0  0.1226424E-02  0.6003535E+03  0.7818609E-02  0.9904673E-01
        1   -1    0    0  501    0  0.00000000000E+00  0.00000000000E+00  0.98885668376E+03  0.98885668377E+03  0.50400001928E-02 0. -1.
       -1   -1    0    0    0  501  0.00000000000E+00  0.00000000000E+00 -0.91121479269E+02  0.91121479408E+02  0.50400001928E-02 0.  1.
    10030    2    1    2    0    0  0.00000000000E+00  0.00000000000E+00  0.89773520449E+03  0.10799781632E+04  0.60035350883E+03 0.  0.
        1    1    3    3  502    0 -0.18410287582E+03 -0.17148973242E+03  0.15435521442E+03  0.29517474392E+03  0.50400001928E-02 0.  1.
       -1    1    3    3    0  502  0.18410287582E+03  0.17148973242E+03  0.74337999007E+03  0.78480341925E+03  0.50400001928E-02 0. -1.
</event>
<event>
 5   0  0.1968763E-02  0.8897408E+03  0.7818609E-02  0.9438498E-01
       -2   -1    0    0    0  501  0.00000000000E+00  0.00000000000E+00  0.79624541018E+02  0.79624541059E+02  0.25500000920E-02 0.  1.
        2   -1    0    0  501    0  0.00000000000E+00  0.00000000000E+00 -0.24855363366E+04  0.24855363366E+04  0.25500000920E-02 0. -1.
    10030    2    1    2    0    0  0.00000000000E+00  0.00000000000E+00 -0.24059117956E+04  0.25651608777E+04  0.88974083876E+03 0.  0.
        2    1    3    3  502    0  0.98320344921E+02 -0.36664528134E+03 -0.53415188349E+03  0.65529679321E+03  0.25500000920E-02 0.  1.
       -2    1    3    3    0  502 -0.98320344921E+02  0.36664528134E+03 -0.18717599121E+04  0.19098640844E+04  0.25500000920E-02 0. -1.
</event>
<event>
 5   0  0.1226424E-02  0.9120059E+03  0.7818609E-02  0.9410697E-01
        1   -1    0    0  501    0  0.00000000000E+00  0.00000000000E+00  0.63148646621E+03  0.63148646623E+03  0.50400001928E-02 0.  1.
       -1   -1    0    0    0  501  0.00000000000E+00  0.00000000000E+00 -0.32928445493E+03  0.32928445497E+03  0.50400001928E-02 0. -1.
    10030    2    1    2    0    0  0.00000000000E+00  0.00000000000E+00  0.30220201129E+03  0.96077092120E+03  0.91200587027E+03 0.  0.
        1    1    3    3  502    0 -0.16582210572E+03  0.25296539555E+03  0.51059559911E+03  0.59346131125E+03  0.50400001928E-02 0.  1.
       -1    1    3    3    0  502  0.16582210572E+03 -0.25296539555E+03 -0.20839358783E+03  0.36730960995E+03  0.50400001928E-02 0. -1.
</event>
<event>
 5   0  0.1177712E-02  0.9200018E+03  0.7818609E-02  0.9400918E-01
       -1   -1    0    0    0  501  0.00000000000E+00  0.00000000000E+00  0.17461010062E+03  0.17461010069E+03  0.50400001928E-02 0. -1.
        1   -1    0    0  501    0  0.00000000000E+00  0.00000000000E+00 -0.12118474641E+04  0.12118474641E+04  0.50400001928E-02 0.  1.
    10030    2    1    2    0    0  0.00000000000E+00  0.00000000000E+00 -0.10372373635E+04  0.13864575648E+04  0.92000175586E+03 0.  0.
        5    1    3    3  502    0  0.22095201555E+03  0.92529701186E+02  0.73155671715E+02  0.25051024147E+03  0.46999998093E+01 0. -1.
       -5    1    3    3    0  502 -0.22095201555E+03 -0.92529701186E+02 -0.11103930352E+04  0.11359473233E+04  0.46999998093E+01 0.  1.
</event>
<event>
 5   0  0.1924218E-02  0.9030991E+03  0.7818609E-02  0.9421716E-01
        2   -1    0    0  501    0  0.00000000000E+00  0.00000000000E+00  0.69142380593E+03  0.69142380593E+03  0.25500000920E-02 0.  1.
       -2   -1    0    0    0  501  0.00000000000E+00  0.00000000000E+00 -0.29489437045E+03  0.29489437046E+03  0.25500000920E-02 0. -1.
    10030    2    1    2    0    0  0.00000000000E+00  0.00000000000E+00  0.39652943548E+03  0.98631817640E+03  0.90309908199E+03 0.  0.
        4    1    3    3  502    0  0.15364583277E+03 -0.27314618430E+03  0.55330448545E+03  0.63589570406E+03  0.12699999809E+01 0.  1.
       -4    1    3    3    0  502 -0.15364583277E+03  0.27314618430E+03 -0.15677504997E+03  0.35042247234E+03  0.12699999809E+01 0. -1.
</event>
<event>
 5   0  0.1226424E-02  0.9051030E+03  0.7818609E-02  0.9419225E-01
       -1   -1    0    0    0  501  0.00000000000E+00  0.00000000000E+00  0.40724616266E+03  0.40724616269E+03  0.50400001928E-02 0.  1.
        1   -1    0    0  501    0  0.00000000000E+00  0.00000000000E+00 -0.50289694202E+03  0.50289694204E+03  0.50400001928E-02 0. -1.
    10030    2    1    2    0    0  0.00000000000E+00  0.00000000000E+00 -0.95650779356E+02  0.91014310474E+03  0.90510297729E+03 0.  0.
        1    1    3    3  502    0 -0.24021671993E+03  0.15367474819E+03 -0.40118345657E+03  0.49220744266E+03  0.50400001928E-02 0. -1.
       -1    1    3    3    0  502  0.24021671993E+03 -0.15367474819E+03  0.30553267721E+03  0.41793566207E+03  0.50400001928E-02 0.  1.
</event>
<event>
 5   0  0.1177712E-02  0.8948654E+03  0.7818609E-02  0.9432023E-01
        1   -1    0    0  501    0  0.00000000000E+00  0.00000000000E+00  0.13149303348E+04  0.13149303348E+04  0.50400001928E-02 0.  1.
       -1   -1    0    0    0  501  0.00000000000E+00  0.00000000000E+00 -0.15224839037E+03  0.15224839045E+03  0.50400001928E-02 0. -1.
    10030    2    1    2    0    0  0.00000000000E+00  0.00000000000E+00  0.11626819444E+04  0.14671787252E+04  0.89486541330E+03 0.  0.
        5    1    3    3  502    0  0.27124164762E+03  0.35467901082E+03  0.62785068001E+03  0.77044649296E+03  0.46999998093E+01 0. -1.
       -5    1    3    3    0  502 -0.27124164762E+03 -0.35467901082E+03  0.53483126439E+03  0.69673223227E+03  0.46999998093E+01 0.  1.
</event>
<event>
 5   0  0.1226424E-02  0.9004771E+03  0.7818609E-02  0.9424985E-01
        1   -1    0    0  501    0  0.00000000000E+00  0.00000000000E+00  0.34310847110E+03  0.34310847114E+03  0.50400001928E-02 0. -1.
       -1   -1    0    0    0  501  0.00000000000E+00  0.00000000000E+00 -0.59081830759E+03  0.59081830761E+03  0.50400001928E-02 0.  1.
    10030    2    1    2    0    0  0.00000000000E+00  0.00000000000E+00 -0.24770983649E+03  0.93392677875E+03  0.90047713184E+03 0.  0.
        1    1    3    3  502    0 -0.21757948984E+03  0.29059876045E+02  0.28384983729E+03  0.35882592012E+03  0.50400001928E-02 0. -1.
       -1    1    3    3    0  502  0.21757948984E+03 -0.29059876045E+02 -0.53155967377E+03  0.57510085863E+03  0.50400001928E-02 0.  1.
</event>
<event>
 5   0  0.1162839E-02  0.9034264E+03  0.7818609E-02  0.9421308E-01
        1   -1    0    0  501    0  0.00000000000E+00  0.00000000000E+00  0.64610685917E+03  0.64610685919E+03  0.50400001928E-02 0. -1.
       -1   -1    0    0    0  501  0.00000000000E+00  0.00000000000E+00 -0.31580657468E+03  0.31580657472E+03  0.50400001928E-02 0.  1.
    10030    2    1    2    0    0  0.00000000000E+00  0.00000000000E+00  0.33030028449E+03  0.96191343391E+03  0.90342635361E+03 0.  0.
        2    1    3    3  502    0 -0.70009034824E+02  0.44361189638E+03  0.11351287680E+03  0.46322559598E+03  0.25500000920E-02 0. -1.
       -2    1    3    3    0  502  0.70009034824E+02 -0.44361189638E+03  0.21678740769E+03  0.49868783793E+03  0.25500000920E-02 0.  1.
</event>
<event>
 5   0  0.1162839E-02  0.8959493E+03  0.7818609E-02  0.9430659E-01
        1   -1    0    0  501    0  0.00000000000E+00  0.00000000000E+00  0.14676681473E+04  0.14676681473E+04  0.50400001928E-02 0. -1.
       -1   -1    0    0    0  501  0.00000000000E+00  0.00000000000E+00 -0.13673477521E+03  0.13673477531E+03  0.50400001928E-02 0.  1.
    10030    2    1    2    0    0  0.00000000000E+00  0.00000000000E+00  0.13309333721E+04  0.16044029226E+04  0.89594927153E+03 0.  0.
        2    1    3    3  502    0  0.40936819804E+03  0.10392308424E+03  0.39806004754E+03  0.58037412973E+03  0.25500000920E-02 0.  1.
       -2    1    3    3    0  502 -0.40936819804E+03 -0.10392308424E+03  0.93287332451E+03  0.10240287929E+04  0.25500000920E-02 0. -1.
</event>
<event>
 5   0  0.1177712E-02  0.8941512E+03  0.7818609E-02  0.9432922E-01
        1   -1    0    0  501    0  0.00000000000E+00  0.00000000000E+00  0.13851127664E+04  0.13851127664E+04  0.50400001928E-02 0. -1.
       -1   -1    0    0    0  501  0.00000000000E+00  0.00000000000E+00 -0.14430347592E+03  0.14430347600E+03  0.50400001928E-02 0.  1.
    10030    2    1    2    0    0  0.00000000000E+00  0.00000000000E+00  0.12408092905E+04  0.15294162424E+04  0.89415118811E+03 0.  0.
        5    1    3    3  502    0 -0.14068432749E+03 -0.16402557202E+03  0.12898029741E+04  0.13077883125E+04  0.46999998093E+01 0. -1.
       -5    1    3    3    0  502  0.14068432749E+03  0.16402557202E+03 -0.48993683642E+02  0.22162792990E+03  0.46999998093E+01 0.  1.
</event>
<event>
 5   0  0.2008770E-02  0.9076540E+03  0.7818609E-02  0.9416064E-01
        2   -1    0    0  501    0  0.00000000000E+00  0.00000000000E+00  0.12171916055E+04  0.12171916055E+04  0.25500000920E-02 0.  1.
       -2   -1    0    0    0  501  0.00000000000E+00  0.00000000000E+00 -0.16920833547E+03  0.16920833548E+03  0.25500000920E-02 0. -1.
    10030    2    1    2    0    0  0.00000000000E+00  0.00000000000E+00  0.10479832701E+04  0.13863999410E+04  0.90765404320E+03 0.  0.
        1    1    3    3  502    0  0.35637921248E+03  0.12204346219E+03  0.13739719514E+03  0.40097224219E+03  0.50400001928E-02 0. -1.
       -1    1    3    3    0  502 -0.35637921248E+03 -0.12204346219E+03  0.91058607494E+03  0.98542769884E+03  0.50400001928E-02 0.  1.
</event>
<event>
 5   0  0.1162839E-02  0.8987432E+03  0.7818609E-02  0.9427154E-01
       -1   -1    0    0    0  501  0.00000000000E+00  0.00000000000E+00  0.13631600605E+04  0.13631600605E+04  0.50400001928E-02 0. -1.
        1   -1    0    0  501    0  0.00000000000E+00  0.00000000000E+00 -0.14813729260E+03  0.14813729268E+03  0.50400001928E-02 0.  1.
    10030    2    1    2    0    0  0.00000000000E+00  0.00000000000E+00  0.12150227679E+04  0.15112973532E+04  0.89874321318E+03 0.  0.
        2    1    3    3  502    0 -0.14074509834E+03  0.14020893856E+02  0.13247527859E+04  0.13322821443E+04  0.25500000920E-02 0. -1.
       -2    1    3    3    0  502  0.14074509834E+03 -0.14020893856E+02 -0.10973001800E+03  0.17901520893E+03  0.25500000920E-02 0.  1.
</event>
<event>
 5   0  0.2008643E-02  0.8866367E+03  0.7818609E-02  0.9442442E-01
        2   -1    0    0  501    0  0.00000000000E+00  0.00000000000E+00  0.63963432677E+03  0.63963432677E+03  0.25500000920E-02 0. -1.
       -2   -1    0    0    0  501  0.00000000000E+00  0.00000000000E+00 -0.30725549925E+03  0.30725549926E+03  0.25500000920E-02 0.  1.
    10030    2    1    2    0    0  0.00000000000E+00  0.00000000000E+00  0.33237882752E+03  0.94688982603E+03  0.88663671120E+03 0.  0.
        3    1    3    3  502    0  0.18841089934E+03 -0.98585341375E+02 -0.24923542627E+03  0.32762180091E+03  0.10100000352E+00 0.  1.
       -3    1    3    3    0  502 -0.18841089934E+03  0.98585341375E+02  0.58161425379E+03  0.61926802512E+03  0.10100000352E+00 0. -1.
</event>
<event>
 5   0  0.1175993E-02  0.8866525E+03  0.7818609E-02  0.9442422E-01
        1   -1    0    0  501    0  0.00000000000E+00  0.00000000000E+00  0.19594950501E+04  0.19594950501E+04  0.50400001928E-02 0. -1.
       -1   -1    0    0    0  501  0.00000000000E+00  0.00000000000E+00 -0.10030041819E+03  0.10030041832E+03  0.50400001928E-02 0.  1.
    10030    2    1    2    0    0  0.00000000000E+00  0.00000000000E+00  0.18591946319E+04  0.20597954684E+04  0.88665252067E+03 0.  0.
        4    1    3    3  502    0 -0.20218852340E+03 -0.31131742239E+03  0.14926247685E+04  0.15380926659E+04  0.12699999809E+01 0. -1.
       -4    1    3    3    0  502  0.20218852340E+03  0.31131742239E+03  0.36656986334E+03  0.52170280245E+03  0.12699999809E+01 0.  1.
</event>
<event>
 5   0  0.2008770E-02  0.8947203E+03  0.7818609E-02  0.9432205E-01
       -2   -1    0    0    0  501  0.00000000000E+00  0.00000000000E+00  0.50980711911E+03  0.50980711912E+03  0.25500000920E-02 0. -1.
        2   -1    0    0  501    0  0.00000000000E+00  0.00000000000E+00 -0.39256237916E+03  0.39256237916E+03  0.25500000920E-02 0.  1.
    10030    2    1    2    0    0  0.00000000000E+00  0.00000000000E+00  0.11724473996E+03  0.90236949828E+03  0.89472028164E+03 0.  0.
        1    1    3    3  502    0  0.22880733057E+03  0.23518923905E+03  0.36530149936E+03  0.49103152459E+03  0.50400001928E-02 0. -1.
       -1    1    3    3    0  502 -0.22880733057E+03 -0.23518923905E+03 -0.24805675940E+03  0.41133797369E+03  0.50400001928E-02 0.  1.
</event>
<event>
 5   0  0.1226424E-02  0.9286119E+03  0.7818609E-02  0.9390505E-01
       -1   -1    0    0    0  501  0.00000000000E+00  0.00000000000E+00  0.46791961455E+03  0.46791961458E+03  0.50400001928E-02 0.  1.
        1   -1    0    0  501    0  0.00000000000E+00  0.00000000000E+00 -0.46072022635E+03  0.46072022638E+03  0.50400001928E-02 0. -1.
    10030    2    1    2    0    0  0.00000000000E+00  0.00000000000E+00  0.71993882013E+01  0.92863984095E+03  0.92861193349E+03 0.  0.
        1    1    3    3  502    0  0.24871726117E+03  0.36002427582E+03 -0.15165404742E+03  0.46311629782E+03  0.50400001928E-02 0. -1.
       -1    1    3    3    0  502 -0.24871726117E+03 -0.36002427582E+03  0.15885343562E+03  0.46552354314E+03  0.50400001928E-02 0.  1.
</event>
<event>
 5   0  0.1924218E-02  0.9068505E+03  0.7818609E-02  0.9417058E-01
        2   -1    0    0  501    0  0.00000000000E+00  0.00000000000E+00  0.17090429971E+04  0.17090429971E+04  0.25500000920E-02 0.  1.
       -2   -1    0    0    0  501  0.00000000000E+00  0.00000000000E+00 -0.12029799200E+03  0.12029799202E+03  0.25500000920E-02 0. -1.
    10030    2    1    2    0    0  0.00000000000E+00  0.00000000000E+00  0.15887450051E+04  0.18293409891E+04  0.90685046356E+03 0.  0.
        4    1    3    3  502    0  0.39822509762E+03  0.21304619053E+03  0.71315683685E+03  0.84413636015E+03  0.12699999809E+01 0. -1.
       -4    1    3    3    0  502 -0.39822509762E+03 -0.21304619053E+03  0.87558816825E+03  0.98520462898E+03  0.12699999809E+01 0.  1.
</event>
<event>
 5   0  0.7893875E-03  0.8916875E+03  0.7818609E-02  0.9436032E-01
        3   -1    0    0  501    0  0.00000000000E+00  0.00000000000E+00  0.82462326464E+03  0.82462327082E+03  0.10100000352E+00 0. -1.
       -3   -1    0    0    0  501  0.00000000000E+00  0.00000000000E+00 -0.24105145736E+03  0.24105147852E+03  0.10100000352E+00 0.  1.
    10030    2    1    2    0    0  0.00000000000E+00  0.00000000000E+00  0.58357180728E+03  0.10656747493E+04  0.89168751093E+03 0.  0.
        2    1    3    3  502    0 -0.12349296496E+03  0.40850981852E+03  0.44597911076E+03  0.61727477793E+03  0.25500000920E-02 0. -1.
       -2    1    3    3    0  502  0.12349296496E+03 -0.40850981852E+03  0.13759269651E+03  0.44839997141E+03  0.25500000920E-02 0.  1.
</event>
<event>
 5   0  0.1968763E-02  0.9096438E+03  0.7818609E-02  0.9413606E-01
       -2   -1    0    0    0  501  0.00000000000E+00  0.00000000000E+00  0.44867716001E+03  0.44867716002E+03  0.25500000920E-02 0. -1.
        2   -1    0    0  501    0  0.00000000000E+00  0.00000000000E+00 -0.46105078508E+03  0.46105078508E+03  0.25500000920E-02 0.  1.
    10030    2    1    2    0    0  0.00000000000E+00  0.00000000000E+00 -0.12373625064E+02  0.90972794511E+03  0.90964379155E+03 0.  0.
        2    1    3    3  502    0 -0.44848349170E+03  0.36882433225E+02  0.59888964997E+02  0.45396524574E+03  0.25500000920E-02 0. -1.
       -2    1    3    3    0  502  0.44848349170E+03 -0.36882433225E+02 -0.72262590061E+02  0.45576269937E+03  0.25500000920E-02 0.  1.
</event>
<event>
 5   0  0.2041861E-02  0.9014471E+03  0.7818609E-02  0.9423774E-01
        2   -1    0    0  501    0  0.00000000000E+00  0.00000000000E+00  0.10648165330E+04  0.10648165330E+04  0.25500000920E-02 0. -1.
       -2   -1    0    0    0  501  0.00000000000E+00  0.00000000000E+00 -0.19078564073E+03  0.19078564075E+03  0.25500000920E-02 0.  1.
    10030    2    1    2    0    0  0.00000000000E+00  0.00000000000E+00  0.87403089225E+03  0.12556021737E+04  0.90144706892E+03 0.  0.
        5    1    3    3  502    0  0.33226803119E+03  0.27972431277E+03  0.60463484637E+03  0.74448178161E+03  0.46999998093E+01 0. -1.
       -5    1    3    3    0  502 -0.33226803119E+03 -0.27972431277E+03  0.26939604588E+03  0.51112039212E+03  0.46999998093E+01 0.  1.
</event>
<event>
 5   0  0.1968763E-02  0.9187795E+03  0.7818609E-02  0.9402406E-01
       -2   -1    0    0    0  501  0.00000000000E+00  0.00000000000E+00  0.67504215373E+03  0.67504215373E+03  0.25500000920E-02 0.  1.
        2   -1    0    0  501    0  0.00000000000E+00  0.00000000000E+00 -0.31263077856E+03  0.31263077857E+03  0.25500000920E-02 0. -1.
    10030    2    1    2    0    0  0.00000000000E+00  0.00000000000E+00  0.36241137516E+03  0.98767293230E+03  0.91877952544E+03 0.  0.
        2    1    3    3  502    0  0.24594571851E+02  0.88340983594E+01  0.67424246456E+03  0.67474872010E+03  0.25500000920E-02 0.  1.
       -2    1    3    3    0  502 -0.24594571851E+02 -0.88340983594E+01 -0.31183108940E+03  0.31292421220E+03  0.25500000920E-02 0. -1.
</event>
<event>
 5   0  0.2008643E-02  0.8989821E+03  0.7818609E-02  0.9426855E-01
       -2   -1    0    0    0  501  0.00000000000E+00  0.00000000000E+00  0.43430664342E+03  0.43430664343E+03  0.25500000920E-02 0. -1.
        2   -1    0    0  501    0  0.00000000000E+00  0.00000000000E+00 -0.46520633886E+03  0.46520633887E+03  0.25500000920E-02 0.  1.
    10030    2    1    2    0    0  0.00000000000E+00  0.00000000000E+00 -0.30899695438E+02  0.89951298229E+03  0.89898209890E+03 0.  0.
        3    1    3    3  502    0 -0.64986223902E+02 -0.44475150433E+03 -0.11563814953E+02  0.44962299977E+03  0.10100000352E+00 0.  1.
       -3    1    3    3    0  502  0.64986223902E+02  0.44475150433E+03 -0.19335880485E+02  0.44988998253E+03  0.10100000352E+00 0. -1.
</event>
<event>
 5   0  0.2008643E-02  0.1127380E+04  0.7818609E-02  0.9178909E-01
        2   -1    0    0  501    0  0.00000000000E+00  0.00000000000E+00  0.32612695535E+03  0.32612695536E+03  0.25500000920E-02 0.  1.
       -2   -1    0    0    0  501  0.00000000000E+00  0.00000000000E+00 -0.97430300220E+03  0.97430300221E+03  0.25500000920E-02 0. -1.
    10030    2    1    2    0    0  0.00000000000E+00  0.00000000000E+00 -0.64817604685E+03  0.13004299576E+04  0.11273800987E+04 0.  0.
        3    1    3    3  502    0  0.35711770837E+03  0.19419600628E+03  0.12636903439E+03  0.42569271728E+03  0.10100000352E+00 0.  1.
       -3    1    3    3    0  502 -0.35711770837E+03 -0.19419600628E+03 -0.77454508123E+03  0.87473724029E+03  0.10100000352E+00 0. -1.
</event>
<event>
 5   0  0.1968763E-02  0.8985050E+03  0.7818609E-02  0.9427452E-01
       -2   -1    0    0    0  501  0.00000000000E+00  0.00000000000E+00  0.28659530681E+03  0.28659530682E+03  0.25500000920E-02 0.  1.
        2   -1    0    0  501    0  0.00000000000E+00  0.00000000000E+00 -0.70422587384E+03  0.70422587385E+03  0.25500000920E-02 0. -1.
    10030    2    1    2    0    0  0.00000000000E+00  0.00000000000E+00 -0.41763056704E+03  0.99082118067E+03  0.89850504814E+03 0.  0.
        2    1    3    3  502    0 -0.12801233592E+03  0.41956294639E+03 -0.10185702425E+03  0.45032774457E+03  0.25500000920E-02 0. -1.
       -2    1    3    3    0  502  0.12801233592E+03 -0.41956294639E+03 -0.31577354278E+03  0.54049343610E+03  0.25500000920E-02 0.  1.
</event>
<event>
 5   0  0.1177712E-02  0.9234757E+03  0.7818609E-02  0.9396702E-01
        1   -1    0    0  501    0  0.00000000000E+00  0.00000000000E+00  0.19688568625E+03  0.19688568632E+03  0.50400001928E-02 0. -1.
       -1   -1    0    0    0  501  0.00000000000E+00  0.00000000000E+00 -0.10828712602E+04  0.10828712602E+04  0.50400001928E-02 0.  1.
    10030    2    1    2    0    0  0.00000000000E+00  0.00000000000E+00 -0.88598557392E+03  0.12797569465E+04  0.92347571972E+03 0.  0.
        5    1    3    3  502    0 -0.38599096363E+03 -0.79320039112E+02 -0.77644822401E+03  0.87073223621E+03  0.46999998093E+01 0.  1.
       -5    1    3    3    0  502  0.38599096363E+03  0.79320039112E+02 -0.10953734992E+03  0.40902471030E+03  0.46999998093E+01 0. -1.
</event>
<event>
 5   0  0.2041861E-02  0.8933860E+03  0.7818609E-02  0.9433887E-01
        2   -1    0    0  501    0  0.00000000000E+00  0.00000000000E+00  0.92296585485E+03  0.92296585485E+03  0.25500000920E-02 0.  1.
       -2   -1    0    0    0  501  0.00000000000E+00  0.00000000000E+00 -0.21618853849E+03  0.21618853850E+03  0.25500000920E-02 0. -1.
    10030    2    1    2    0    0  0.00000000000E+00  0.00000000000E+00  0.70677731636E+03  0.11391543934E+04  0.89338600671E+03 0.  0.
        5    1    3    3  502    0  0.42610077574E+03  0.64902966270E+02  0.50284339184E+03  0.66230493946E+03  0.46999998093E+01 0. -1.
       -5    1    3    3    0  502 -0.42610077574E+03 -0.64902966270E+02  0.20393392452E+03  0.47684945390E+03  0.46999998093E+01 0.  1.
</event>
<event>
 5   0  0.2008643E-02  0.8957603E+03  0.7818609E-02  0.9430897E-01
        2   -1    0    0  501    0  0.00000000000E+00  0.00000000000E+00  0.15470458295E+04  0.15470458295E+04  0.25500000920E-02 0.  1.
       -2   -1    0    0    0  501  0.00000000000E+00  0.00000000000E+00 -0.12966430612E+03  0.12966430615E+03  0.25500000920E-02 0. -1.
    10030    2    1    2    0    0  0.00000000000E+00  0.00000000000E+00  0.14173815233E+04  0.16767101356E+04  0.89576028945E+03 0.  0.
        3    1    3    3  502    0 -0.14887752050E+03 -0.41986730327E+03  0.62202799997E+03  0.76509601450E+03  0.10100000352E+00 0.  1.
       -3    1    3    3    0  502  0.14887752050E+03  0.41986730327E+03  0.79535352337E+03  0.91161412110E+03  0.10100000352E+00 0. -1.
</event>
<event>
 5   0  0.1175993E-02  0.9053610E+03  0.7818609E-02  0.9418905E-01
        1   -1    0    0  501    0  0.00000000000E+00  0.00000000000E+00  0.65842851559E+03  0.65842851561E+03  0.50400001928E-02 0.  1.
       -1   -1    0    0    0  501  0.00000000000E+00  0.00000000000E+00 -0.31122535234E+03  0.31122535238E+03  0.50400001928E-02 0. -1.
    10030    2    1    2    0    0  0.00000000000E+00  0.00000000000E+00  0.34720316325E+03  0.96965386799E+03  0.90536102586E+03 0.  0.
        4    1    3    3  502    0 -0.75203000728E+01  0.45388128377E+02 -0.30871302020E+03  0.31212494109E+03  0.12699999809E+01 0. -1.
       -4    1    3    3    0  502  0.75203000728E+01 -0.45388128377E+02  0.65591618345E+03  0.65752892691E+03  0.12699999809E+01 0.  1.
</event>
<event>
 5   0  0.2008770E-02  0.8187721E+03  0.7818609E-02  0.9533236E-01
       -2   -1    0    0    0  501  0.00000000000E+00  0.00000000000E+00  0.15633777541E+03  0.15633777543E+03  0.25500000920E-02 0. -1.
        2   -1    0    0  501    0  0.00000000000E+00  0.00000000000E+00 -0.10720181745E+04  0.10720181746E+04  0.25500000920E-02 0.  1.
    10030    2    1    2    0    0  0.00000000000E+00  0.00000000000E+00 -0.91568039914E+03  0.12283559500E+04  0.81877209680E+03 0.  0.
        1    1    3    3  502    0 -0.35226728692E+03  0.20437340381E+03 -0.39532840755E+03  0.56757843463E+03  0.50400001928E-02 0. -1.
       -1    1    3    3    0  502  0.35226728692E+03 -0.20437340381E+03 -0.52035199159E+03  0.66077751535E+03  0.50400001928E-02 0.  1.
</event>
<event>
 5   0  0.1968763E-02  0.8731252E+03  0.7818609E-02  0.9459814E-01
        2   -1    0    0  501    0  0.00000000000E+00  0.00000000000E+00  0.13495166158E+04  0.13495166158E+04  0.25500000920E-02 0.  1.
       -2   -1    0    0    0  501  0.00000000000E+00  0.00000000000E+00 -0.14122606600E+03  0.14122606603E+03  0.25500000920E-02 0. -1.
    10030    2    1    2    0    0  0.00000000000E+00  0.00000000000E+00  0.12082905498E+04  0.14907426818E+04  0.87312524343E+03 0.  0.
        2    1    3    3  502    0 -0.31782938489E+03 -0.22176001278E+03  0.26099524381E+03  0.46723820313E+03  0.25500000920E-02 0.  1.
       -2    1    3    3    0  502  0.31782938489E+03  0.22176001278E+03  0.94729530600E+03  0.10235044787E+04  0.25500000920E-02 0. -1.
</event>
<event>
 5   0  0.1162839E-02  0.9418714E+03  0.7818609E-02  0.9374702E-01
       -1   -1    0    0    0  501  0.00000000000E+00  0.00000000000E+00  0.13828603766E+03  0.13828603775E+03  0.50400001928E-02 0.  1.
        1   -1    0    0  501    0  0.00000000000E+00  0.00000000000E+00 -0.16037802593E+04  0.16037802593E+04  0.50400001928E-02 0. -1.
    10030    2    1    2    0    0  0.00000000000E+00  0.00000000000E+00 -0.14654942216E+04  0.17420662970E+04  0.94187136578E+03 0.  0.
        2    1    3    3  502    0  0.11908796173E+03  0.11686958292E+03 -0.15472764889E+04  0.15562470804E+04  0.25500000920E-02 0. -1.
       -2    1    3    3    0  502 -0.11908796173E+03 -0.11686958292E+03  0.81782267266E+02  0.18581921668E+03  0.25500000920E-02 0.  1.
</event>
<event>
 5   0  0.2041861E-02  0.8704978E+03  0.7818609E-02  0.9463231E-01
        2   -1    0    0  501    0  0.00000000000E+00  0.00000000000E+00  0.81318368883E+03  0.81318368883E+03  0.25500000920E-02 0. -1.
       -2   -1    0    0    0  501  0.00000000000E+00  0.00000000000E+00 -0.23296287940E+03  0.23296287942E+03  0.25500000920E-02 0.  1.
    10030    2    1    2    0    0  0.00000000000E+00  0.00000000000E+00  0.58022080942E+03  0.10461465682E+04  0.87049781997E+03 0.  0.
        5    1    3    3  502    0  0.61958116153E+02 -0.15462211580E+03  0.77332852889E+03  0.79107895336E+03  0.46999998093E+01 0. -1.
       -5    1    3    3    0  502 -0.61958116153E+02  0.15462211580E+03 -0.19310771947E+03  0.25506761489E+03  0.46999998093E+01 0.  1.
</event>
<event>
 5   0  0.1206541E-02  0.7782687E+03  0.7818609E-02  0.9592016E-01
       -1   -1    0    0    0  501  0.00000000000E+00  0.00000000000E+00  0.62615123045E+03  0.62615123047E+03  0.50400001928E-02 0.  1.
        1   -1    0    0  501    0  0.00000000000E+00  0.00000000000E+00 -0.24183541080E+03  0.24183541085E+03  0.50400001928E-02 0. -1.
    10030    2    1    2    0    0  0.00000000000E+00  0.00000000000E+00  0.38431581965E+03  0.86798664133E+03  0.77826869414E+03 0.  0.
        3    1    3    3  502    0 -0.19293464329E+03  0.22856261332E+03  0.46977249962E+03  0.55691189284E+03  0.10100000352E+00 0.  1.
       -3    1    3    3    0  502  0.19293464329E+03 -0.22856261332E+03 -0.85456679967E+02  0.31107474848E+03  0.10100000352E+00 0. -1.
</event>
<event>
 5   0  0.1206541E-02  0.8200082E+03  0.7818609E-02  0.9531499E-01
        1   -1    0    0  501    0  0.00000000000E+00  0.00000000000E+00  0.56637436150E+03  0.56637436152E+03  0.50400001928E-02 0.  1.
       -1   -1    0    0    0  501  0.00000000000E+00  0.00000000000E+00 -0.29680606487E+03  0.29680606491E+03  0.50400001928E-02 0. -1.
    10030    2    1    2    0    0  0.00000000000E+00  0.00000000000E+00  0.26956829663E+03  0.86318042643E+03  0.82000815973E+03 0.  0.
        3    1    3    3  502    0  0.84535722707E+02 -0.11273829399E+03  0.54008409633E+03  0.55816400157E+03  0.10100000352E+00 0.  1.
       -3    1    3    3    0  502 -0.84535722707E+02  0.11273829399E+03 -0.27051579970E+03  0.30501642486E+03  0.10100000352E+00 0. -1.
</event>
<event>
 5   0  0.1175993E-02  0.8697119E+03  0.7818609E-02  0.9464256E-01
        1   -1    0    0  501    0  0.00000000000E+00  0.00000000000E+00  0.27974973804E+03  0.27974973809E+03  0.50400001928E-02 0.  1.
       -1   -1    0    0    0  501  0.00000000000E+00  0.00000000000E+00 -0.67596026017E+03  0.67596026019E+03  0.50400001928E-02 0. -1.
    10030    2    1    2    0    0  0.00000000000E+00  0.00000000000E+00 -0.39621052213E+03  0.95570999828E+03  0.86971191952E+03 0.  0.
        4    1    3    3  502    0 -0.41554677252E+03 -0.45772118281E+02 -0.32962203079E+03  0.53237815794E+03  0.12699999809E+01 0. -1.
       -4    1    3    3    0  502  0.41554677252E+03  0.45772118281E+02 -0.66588491345E+02  0.42333184034E+03  0.12699999809E+01 0.  1.
</event>
<event>
 5   0  0.1924218E-02  0.8940624E+03  0.7818609E-02  0.9433034E-01
        2   -1    0    0  501    0  0.00000000000E+00  0.00000000000E+00  0.85040057901E+03  0.85040057902E+03  0.25500000920E-02 0. -1.
       -2   -1    0    0    0  501  0.00000000000E+00  0.00000000000E+00 -0.23499147138E+03  0.23499147139E+03  0.25500000920E-02 0.  1.
    10030    2    1    2    0    0  0.00000000000E+00  0.00000000000E+00  0.61540910764E+03  0.10853920504E+04  0.89406237664E+03 0.  0.
        4    1    3    3  502    0 -0.22307325293E+03 -0.19916981562E+03  0.71108342490E+03  0.77140880323E+03  0.12699999809E+01 0. -1.
       -4    1    3    3    0  502  0.22307325293E+03  0.19916981562E+03 -0.95674317263E+02  0.31398324718E+03  0.12699999809E+01 0.  1.
</event>
<event>
 5   0  0.1968763E-02  0.9124516E+03  0.7818609E-02  0.9410149E-01
        2   -1    0    0  501    0  0.00000000000E+00  0.00000000000E+00  0.92648497380E+03  0.92648497381E+03  0.25500000920E-02 0.  1.
       -2   -1    0    0    0  501  0.00000000000E+00  0.00000000000E+00 -0.22465768527E+03  0.22465768528E+03  0.25500000920E-02 0. -1.
    10030    2    1    2    0    0  0.00000000000E+00  0.00000000000E+00  0.70182728854E+03  0.11511426591E+04  0.91245157605E+03 0.  0.
        2    1    3    3  502    0 -0.20085675254E+03  0.25284238995E+03 -0.55682112841E+02  0.32767851149E+03  0.25500000920E-02 0. -1.
       -2    1    3    3    0  502  0.20085675254E+03 -0.25284238995E+03  0.75750940138E+03  0.82346414760E+03  0.25500000920E-02 0.  1.
</event>
<event>
 5   0  0.1924218E-02  0.9296847E+03  0.7818609E-02  0.9389216E-01
        2   -1    0    0  501    0  0.00000000000E+00  0.00000000000E+00  0.20196964755E+03  0.20196964756E+03  0.25500000920E-02 0.  1.
       -2   -1    0    0    0  501  0.00000000000E+00  0.00000000000E+00 -0.10698559428E+04  0.10698559428E+04  0.25500000920E-02 0. -1.
    10030    2    1    2    0    0  0.00000000000E+00  0.00000000000E+00 -0.86788629520E+03  0.12718255903E+04  0.92968473731E+03 0.  0.
        4    1    3    3  502    0 -0.57124666411E+02 -0.45869693912E+03 -0.50111138028E+03  0.68174800170E+03  0.12699999809E+01 0. -1.
       -4    1    3    3    0  502  0.57124666411E+02  0.45869693912E+03 -0.36677491492E+03  0.59007758862E+03  0.12699999809E+01 0.  1.
</event>
<event>
 5   0  0.2008770E-02  0.8829406E+03  0.7818609E-02  0.9447161E-01
       -2   -1    0    0    0  501  0.00000000000E+00  0.00000000000E+00  0.30447883525E+03  0.30447883526E+03  0.25500000920E-02 0.  1.
        2   -1    0    0  501    0  0.00000000000E+00  0.00000000000E+00 -0.64009716702E+03  0.64009716702E+03  0.25500000920E-02 0. -1.
    10030    2    1    2    0    0  0.00000000000E+00  0.00000000000E+00 -0.33561833177E+03  0.94457600228E+03  0.88294063191E+03 0.  0.
        1    1    3    3  502    0  0.15040325807E+03  0.70757209388E+02  0.26972527901E+03  0.31682715931E+03  0.50400001928E-02 0.  1.
       -1    1    3    3    0  502 -0.15040325807E+03 -0.70757209388E+02 -0.60534361077E+03  0.62774884297E+03  0.50400001928E-02 0. -1.
</event>
<event>
 5   0  0.2008643E-02  0.9399273E+03  0.7818609E-02  0.9377002E-01
       -2   -1    0    0    0  501  0.00000000000E+00  0.00000000000E+00  0.23531900762E+03  0.23531900763E+03  0.25500000920E-02 0. -1.
        2   -1    0    0  501    0  0.00000000000E+00  0.00000000000E+00 -0.93858053347E+03  0.93858053347E+03  0.25500000920E-02 0.  1.
    10030    2    1    2    0    0  0.00000000000E+00  0.00000000000E+00 -0.70326152585E+03  0.11738995411E+04  0.93992731574E+03 0.  0.
        3    1    3    3  502    0  0.29828913232E+03  0.12016920408E+03  0.76386146538E+02  0.33053274823E+03  0.10100000352E+00 0. -1.
       -3    1    3    3    0  502 -0.29828913232E+03 -0.12016920408E+03 -0.77964767239E+03  0.84336679288E+03  0.10100000352E+00 0.  1.
</event>
<event>
 5   0  0.1226424E-02  0.9064337E+03  0.7818609E-02  0.9417575E-01
        1   -1    0    0  501    0  0.00000000000E+00  0.00000000000E+00  0.57989115657E+03  0.57989115659E+03  0.50400001928E-02 0. -1.
       -1   -1    0    0    0  501  0.00000000000E+00  0.00000000000E+00 -0.35421388137E+03  0.35421388141E+03  0.50400001928E-02 0.  1.
    10030    2    1    2    0    0  0.00000000000E+00  0.00000000000E+00  0.22567727520E+03  0.93410503800E+03  0.90643366524E+03 0.  0.
        1    1    3    3  502    0  0.29906698648E+03 -0.15645223461E+03 -0.19886343996E+03  0.39174613195E+03  0.50400001928E-02 0.  1.
       -1    1    3    3    0  502 -0.29906698648E+03  0.15645223461E+03  0.42454071516E+03  0.54235890605E+03  0.50400001928E-02 0. -1.
</event>
<event>
 5   0  0.1968763E-02  0.9165804E+03  0.7818609E-02  0.9405089E-01
        2   -1    0    0  501    0  0.00000000000E+00  0.00000000000E+00  0.84330421183E+03  0.84330421183E+03  0.25500000920E-02 0.  1.
       -2   -1    0    0    0  501  0.00000000000E+00  0.00000000000E+00 -0.24905593485E+03  0.24905593486E+03  0.25500000920E-02 0. -1.
    10030    2    1    2    0    0  0.00000000000E+00  0.00000000000E+00  0.59424827698E+03  0.10923601467E+04  0.91658042495E+03 0.  0.
        2    1    3    3  502    0 -0.40272845057E+03  0.15110573763E+03  0.10866201985E+03  0.44365592908E+03  0.25500000920E-02 0. -1.
       -2    1    3    3    0  502  0.40272845057E+03 -0.15110573763E+03  0.48558625713E+03  0.64870421762E+03  0.25500000920E-02 0.  1.
</event>
<event>
 5   0  0.1162839E-02  0.8911707E+03  0.7818609E-02  0.9436686E-01
        1   -1    0    0  501    0  0.00000000000E+00  0.00000000000E+00  0.59208145163E+03  0.59208145165E+03  0.50400001928E-02 0. -1.
       -1   -1    0    0    0  501  0.00000000000E+00  0.00000000000E+00 -0.33533615990E+03  0.33533615993E+03  0.50400001928E-02 0.  1.
    10030    2    1    2    0    0  0.00000000000E+00  0.00000000000E+00  0.25674529174E+03  0.92741761159E+03  0.89117073642E+03 0.  0.
        2    1    3    3  502    0  0.19754502676E+03  0.35683933172E+03  0.31507992214E+03  0.51539664687E+03  0.25500000920E-02 0. -1.
       -2    1    3    3    0  502 -0.19754502676E+03 -0.35683933172E+03 -0.58334630407E+02  0.41202096472E+03  0.25500000920E-02 0.  1.
</event>
<event>
 5   0  0.1968763E-02  0.9072819E+03  0.7818609E-02  0.9416524E-01
        2   -1    0    0  501    0  0.00000000000E+00  0.00000000000E+00  0.16462881810E+04  0.16462881810E+04  0.25500000920E-02 0.  1.
       -2   -1    0    0    0  501  0.00000000000E+00  0.00000000000E+00 -0.12500248229E+03  0.12500248232E+03  0.25500000920E-02 0. -1.
    10030    2    1    2    0    0  0.00000000000E+00  0.00000000000E+00  0.15212856987E+04  0.17712906633E+04  0.90728189493E+03 0.  0.
        2    1    3    3  502    0  0.24283659789E+03 -0.13943957145E+03  0.63866709206E+02  0.28721414295E+03  0.25500000920E-02 0. -1.
       -2    1    3    3    0  502 -0.24283659789E+03  0.13943957145E+03  0.14574189895E+04  0.14840765203E+04  0.25500000920E-02 0.  1.
</event>
<event>
 5   0  0.1924218E-02  0.8984366E+03  0.7818609E-02  0.9427538E-01
       -2   -1    0    0    0  501  0.00000000000E+00  0.00000000000E+00  0.13195865057E+03  0.13195865060E+03  0.25500000920E-02 0.  1.
        2   -1    0    0  501    0  0.00000000000E+00  0.00000000000E+00 -0.15292448718E+04  0.15292448718E+04  0.25500000920E-02 0. -1.
    10030    2    1    2    0    0  0.00000000000E+00  0.00000000000E+00 -0.13972862213E+04  0.16612035224E+04  0.89843661925E+03 0.  0.
        4    1    3    3  502    0 -0.42184711211E+03 -0.12052903393E+03 -0.52020572124E+03  0.68051292370E+03  0.12699999809E+01 0.  1.
       -4    1    3    3    0  502  0.42184711211E+03  0.12052903393E+03 -0.87708050001E+03  0.98069059872E+03  0.12699999809E+01 0. -1.
</event>
<event>
 5   0  0.1175993E-02  0.9020678E+03  0.7818609E-02  0.9423000E-01
       -1   -1    0    0    0  501  0.00000000000E+00  0.00000000000E+00  0.18829184450E+03  0.18829184457E+03  0.50400001928E-02 0.  1.
        1   -1    0    0  501    0  0.00000000000E+00  0.00000000000E+00 -0.10804057265E+04  0.10804057265E+04  0.50400001928E-02 0. -1.
    10030    2    1    2    0    0  0.00000000000E+00  0.00000000000E+00 -0.89211388203E+03  0.12686975711E+04  0.90206781808E+03 0.  0.
        4    1    3    3  502    0 -0.39761076256E+03  0.19175691034E+03 -0.57621802554E+03  0.72587454634E+03  0.12699999809E+01 0. -1.
       -4    1    3    3    0  502  0.39761076256E+03 -0.19175691034E+03 -0.31589585649E+03  0.54282302477E+03  0.12699999809E+01 0.  1.
</event>
<event>
 5   0  0.1206541E-02  0.9078430E+03  0.7818609E-02  0.9415830E-01
        1   -1    0    0  501    0  0.00000000000E+00  0.00000000000E+00  0.37431495572E+03  0.37431495576E+03  0.50400001928E-02 0.  1.
       -1   -1    0    0    0  501  0.00000000000E+00  0.00000000000E+00 -0.55045818149E+03  0.55045818151E+03  0.50400001928E-02 0. -1.
    10030    2    1    2    0    0  0.00000000000E+00  0.00000000000E+00 -0.17614322576E+03  0.92477313727E+03  0.90784300374E+03 0.  0.
        3    1    3    3  502    0  0.24423857782E+03 -0.65173630244E+02  0.29598008611E+03  0.38923554122E+03  0.10100000352E+00 0.  1.
       -3    1    3    3    0  502 -0.24423857782E+03  0.65173630244E+02 -0.47212331187E+03  0.53553759605E+03  0.10100000352E+00 0. -1.
</event>
<event>
 5   0  0.2008643E-02  0.9079072E+03  0.7818609E-02  0.9415751E-01
        2   -1    0    0  501    0  0.00000000000E+00  0.00000000000E+00  0.26282851571E+03  0.26282851572E+03  0.25500000920E-02 0. -1.
       -2   -1    0    0    0  501  0.00000000000E+00  0.00000000000E+00 -0.78406210052E+03  0.78406210053E+03  0.25500000920E-02 0.  1.
    10030    2    1    2    0    0  0.00000000000E+00  0.00000000000E+00 -0.52123358482E+03  0.10468906162E+04  0.90790721577E+03 0.  0.
        3    1    3    3  502    0  0.18610672671E+03 -0.79459839881E+02 -0.72917690818E+03  0.75673545807E+03  0.10100000352E+00 0.  1.
       -3    1    3    3    0  502 -0.18610672671E+03  0.79459839881E+02  0.20794332336E+03  0.29015515817E+03  0.10100000352E+00 0. -1.
</event>
<event>
 5   0  0.1177712E-02  0.8784111E+03  0.7818609E-02  0.9452978E-01
        1   -1    0    0  501    0  0.00000000000E+00  0.00000000000E+00  0.13714314042E+04  0.13714314042E+04  0.50400001928E-02 0.  1.
       -1   -1    0    0    0  501  0.00000000000E+00  0.00000000000E+00 -0.14065705603E+03  0.14065705612E+03  0.50400001928E-02 0. -1.
    10030    2    1    2    0    0  0.00000000000E+00  0.00000000000E+00  0.12307743482E+04  0.15120884604E+04  0.87841107449E+03 0.  0.
        5    1    3    3  502    0  0.31706182113E+03 -0.13004999960E+03  0.10881845887E+04  0.11408807957E+04  0.46999998093E+01 0.  1.
       -5    1    3    3    0  502 -0.31706182113E+03  0.13004999960E+03  0.14258975947E+03  0.37120766469E+03  0.46999998093E+01 0. -1.
</event>
<event>
 5   0  0.1175993E-02  0.9007085E+03  0.7818609E-02  0.9424696E-01
       -1   -1    0    0    0  501  0.00000000000E+00  0.00000000000E+00  0.58762888383E+03  0.58762888385E+03  0.50400001928E-02 0.  1.
        1   -1    0    0  501    0  0.00000000000E+00  0.00000000000E+00 -0.34514799164E+03  0.34514799167E+03  0.50400001928E-02 0. -1.
    10030    2    1    2    0    0  0.00000000000E+00  0.00000000000E+00  0.24248089219E+03  0.93277687553E+03  0.90070845252E+03 0.  0.
        4    1    3    3  502    0 -0.34905897764E+03 -0.97253312363E+02 -0.15570740095E+03  0.39439419905E+03  0.12699999809E+01 0.  1.
       -4    1    3    3    0  502  0.34905897764E+03  0.97253312363E+02  0.39818829314E+03  0.53838267648E+03  0.12699999809E+01 0. -1.
</event>
<event>
 5   0  0.1924218E-02  0.8918980E+03  0.7818609E-02  0.9435766E-01
       -2   -1    0    0    0  501  0.00000000000E+00  0.00000000000E+00  0.36095811297E+03  0.36095811298E+03  0.25500000920E-02 0. -1.
        2   -1    0    0  501    0  0.00000000000E+00  0.00000000000E+00 -0.55095175727E+03  0.55095175727E+03  0.25500000920E-02 0.  1.
    10030    2    1    2    0    0  0.00000000000E+00  0.00000000000E+00 -0.18999364429E+03  0.91190987026E+03  0.89189799114E+03 0.  0.
        4    1    3    3  502    0 -0.16212829607E+03  0.23140883211E+03  0.25775632565E+03  0.38245989108E+03  0.12699999809E+01 0. -1.
       -4    1    3    3    0  502  0.16212829607E+03 -0.23140883211E+03 -0.44774996995E+03  0.52944997918E+03  0.12699999809E+01 0.  1.
</event>
<event>
 5   0  0.2008770E-02  0.8771500E+03  0.7818609E-02  0.9454605E-01
        2   -1    0    0  501    0  0.00000000000E+00  0.00000000000E+00  0.12433947354E+04  0.12433947354E+04  0.25500000920E-02 0.  1.
       -2   -1    0    0    0  501  0.00000000000E+00  0.00000000000E+00 -0.15469588079E+03  0.15469588081E+03  0.25500000920E-02 0. -1.
    10030    2    1    2    0    0  0.00000000000E+00  0.00000000000E+00  0.10886988547E+04  0.13980906163E+04  0.87715003000E+03 0.  0.
        1    1    3    3  502    0 -0.24670404814E+03 -0.34037961611E+03  0.34509981546E+03  0.54388882420E+03  0.50400001928E-02 0.  1.
       -1    1    3    3    0  502  0.24670404814E+03  0.34037961611E+03  0.74359903920E+03  0.85420179205E+03  0.50400001928E-02 0. -1.
</event>
<event>
 5   0  0.1162839E-02  0.8998644E+03  0.7818609E-02  0.9425751E-01
        1   -1    0    0  501    0  0.00000000000E+00  0.00000000000E+00  0.42607146283E+03  0.42607146286E+03  0.50400001928E-02 0. -1.
       -1   -1    0    0    0  501  0.00000000000E+00  0.00000000000E+00 -0.47512917401E+03  0.47512917404E+03  0.50400001928E-02 0.  1.
    10030    2    1    2    0    0  0.00000000000E+00  0.00000000000E+00 -0.49057711185E+02  0.90120063690E+03  0.89986439474E+03 0.  0.
        2    1    3    3  502    0 -0.35377876593E+03 -0.58635571359E+02 -0.29667017806E+03  0.46541458938E+03  0.25500000920E-02 0.  1.
       -2    1    3    3    0  502  0.35377876593E+03  0.58635571359E+02  0.24761246688E+03  0.43578604752E+03  0.25500000920E-02 0. -1.
</event>
<event>
 5   0  0.1968763E-02  0.9042912E+03  0.7818609E-02  0.9420233E-01
       -2   -1    0    0    0  501  0.00000000000E+00  0.00000000000E+00  0.15651161958E+03  0.15651161960E+03  0.25500000920E-02 0. -1.
        2   -1    0    0  501    0  0.00000000000E+00  0.00000000000E+00 -0.13062009424E+04  0.13062009424E+04  0.25500000920E-02 0.  1.
    10030    2    1    2    0    0  0.00000000000E+00  0.00000000000E+00 -0.11496893229E+04  0.14627125620E+04  0.90429115889E+03 0.  0.
        2    1    3    3  502    0  0.11103654476E+03 -0.38058299497E+03 -0.92649560231E+03  0.10077532592E+04  0.25500000920E-02 0.  1.
       -2    1    3    3    0  502 -0.11103654476E+03  0.38058299497E+03 -0.22319372055E+03  0.45495930283E+03  0.25500000920E-02 0. -1.
</event>
<event>
 5   0  0.7893875E-03  0.8859009E+03  0.7818609E-02  0.9443380E-01
       -3   -1    0    0    0  501  0.00000000000E+00  0.00000000000E+00  0.24641182132E+03  0.24641184202E+03  0.10100000352E+00 0. -1.
        3   -1    0    0  501    0  0.00000000000E+00  0.00000000000E+00 -0.79624868169E+03  0.79624868809E+03  0.10100000352E+00 0.  1.
    10030    2    1    2    0    0  0.00000000000E+00  0.00000000000E+00 -0.54983686037E+03  0.10426605301E+04  0.88590090192E+03 0.  0.
        1    1    3    3  502    0  0.34472257688E+01  0.24521506082E+03 -0.70905610901E+03  0.75026853538E+03  0.50400001928E-02 0.  1.
       -1    1    3    3    0  502 -0.34472257688E+01 -0.24521506082E+03  0.15921924865E+03  0.29239199473E+03  0.50400001928E-02 0. -1.
</event>
<event>
 5   0  0.2008770E-02  0.8885842E+03  0.7818609E-02  0.9439965E-01
        2   -1    0    0  501    0  0.00000000000E+00  0.00000000000E+00  0.89465188842E+03  0.89465188842E+03  0.25500000920E-02 0.  1.
       -2   -1    0    0    0  501  0.00000000000E+00  0.00000000000E+00 -0.22063941642E+03  0.22063941644E+03  0.25500000920E-02 0. -1.
    10030    2    1    2    0    0  0.00000000000E+00  0.00000000000E+00  0.67401247200E+03  0.11152913049E+04  0.88858420101E+03 0.  0.
        1    1    3    3  502    0 -0.19476855251E+03  0.27325160207E+03 -0.28481588574E+02  0.33676761720E+03  0.50400001928E-02 0. -1.
       -1    1    3    3    0  502  0.19476855251E+03 -0.27325160207E+03  0.70249406057E+03  0.77852368766E+03  0.50400001928E-02 0.  1.
</event>
<event>
 5   0  0.2008643E-02  0.1039468E+04  0.7818609E-02  0.9266286E-01
       -2   -1    0    0    0  501  0.00000000000E+00  0.00000000000E+00  0.16633320220E+03  0.16633320222E+03  0.25500000920E-02 0. -1.
        2   -1    0    0  501    0  0.00000000000E+00  0.00000000000E+00 -0.16239895373E+04  0.16239895373E+04  0.25500000920E-02 0.  1.
    10030    2    1    2    0    0  0.00000000000E+00  0.00000000000E+00 -0.14576563351E+04  0.17903227395E+04  0.10394679025E+04 0.  0.
        3    1    3    3  502    0  0.22560153055E+03 -0.46534266586E+03 -0.63960597808E+03  0.82251788105E+03  0.10100000352E+00 0. -1.
       -3    1    3    3    0  502 -0.22560153055E+03  0.46534266586E+03 -0.81805035703E+03  0.96780485848E+03  0.10100000352E+00 0.  1.
</event>
<event>
 5   0  0.1968763E-02  0.9061056E+03  0.7818609E-02  0.9417981E-01
       -2   -1    0    0    0  501  0.00000000000E+00  0.00000000000E+00  0.12426940090E+03  0.12426940093E+03  0.25500000920E-02 0. -1.
        2   -1    0    0  501    0  0.00000000000E+00  0.00000000000E+00 -0.16517087847E+04  0.16517087847E+04  0.25500000920E-02 0.  1.
    10030    2    1    2    0    0  0.00000000000E+00  0.00000000000E+00 -0.15274393838E+04  0.17759781857E+04  0.90610564762E+03 0.  0.
        2    1    3    3  502    0 -0.13437265908E+03  0.27731668390E+03 -0.14146571661E+04  0.14478312928E+04  0.25500000920E-02 0.  1.
       -2    1    3    3    0  502  0.13437265908E+03 -0.27731668390E+03 -0.11278221773E+03  0.32814689290E+03  0.25500000920E-02 0. -1.
</event>
<event>
 5   0  0.1177712E-02  0.8543915E+03  0.7818609E-02  0.9484462E-01
        1   -1    0    0  501    0  0.00000000000E+00  0.00000000000E+00  0.87929532263E+03  0.87929532264E+03  0.50400001928E-02 0. -1.
       -1   -1    0    0    0  501  0.00000000000E+00  0.00000000000E+00 -0.20754826316E+03  0.20754826322E+03  0.50400001928E-02 0.  1.
    10030    2    1    2    0    0  0.00000000000E+00  0.00000000000E+00  0.67174705947E+03  0.10868435859E+04  0.85439151928E+03 0.  0.
        5    1    3    3  502    0  0.21919229712E+03 -0.14031136688E+03 -0.95020561556E+02  0.27709843000E+03  0.46999998093E+01 0.  1.
       -5    1    3    3    0  502 -0.21919229712E+03  0.14031136688E+03  0.76676762103E+03  0.80974515586E+03  0.46999998093E+01 0. -1.
</event>
<event>
 5   0  0.1924218E-02  0.9178351E+03  0.7818609E-02  0.9403557E-01
       -2   -1    0    0    0  501  0.00000000000E+00  0.00000000000E+00  0.19867828451E+03  0.19867828452E+03  0.25500000920E-02 0. -1.
        2   -1    0    0  501    0  0.00000000000E+00  0.00000000000E+00 -0.10600319830E+04  0.10600319830E+04  0.25500000920E-02 0.  1.
    10030    2    1    2    0    0  0.00000000000E+00  0.00000000000E+00 -0.86135369848E+03  0.12587102675E+04  0.91783513970E+03 0.  0.
        4    1    3    3  502    0  0.14099270975E+03 -0.31767092212E+03 -0.19694324956E+02  0.34811382951E+03  0.12699999809E+01 0. -1.
       -4    1    3    3    0  502 -0.14099270975E+03  0.31767092212E+03 -0.84165937352E+03  0.91059643800E+03  0.12699999809E+01 0.  1.
</event>
<event>
 5   0  0.1206541E-02  0.7906830E+03  0.7818609E-02  0.9573602E-01
       -1   -1    0    0    0  501  0.00000000000E+00  0.00000000000E+00  0.21287537555E+03  0.21287537561E+03  0.50400001928E-02 0.  1.
        1   -1    0    0  501    0  0.00000000000E+00  0.00000000000E+00 -0.73420851684E+03  0.73420851685E+03  0.50400001928E-02 0. -1.
    10030    2    1    2    0    0  0.00000000000E+00  0.00000000000E+00 -0.52133314129E+03  0.94708389246E+03  0.79068303078E+03 0.  0.
        3    1    3    3  502    0  0.17961182294E+03 -0.87112062312E+02  0.14807451302E+03  0.24854575021E+03  0.10100000352E+00 0.  1.
       -3    1    3    3    0  502 -0.17961182294E+03  0.87112062312E+02 -0.66940765430E+03  0.69853814225E+03  0.10100000352E+00 0. -1.
</event>
<event>
 5   0  0.1226424E-02  0.8972528E+03  0.7818609E-02  0.9429022E-01
       -1   -1    0    0    0  501  0.00000000000E+00  0.00000000000E+00  0.26620306438E+03  0.26620306442E+03  0.50400001928E-02 0.  1.
        1   -1    0    0  501    0  0.00000000000E+00  0.00000000000E+00 -0.75606059111E+03  0.75606059113E+03  0.50400001928E-02 0. -1.
    10030    2    1    2    0    0  0.00000000000E+00  0.00000000000E+00 -0.48985752674E+03  0.10222636556E+04  0.89725279881E+03 0.  0.
        1    1    3    3  502    0  0.39043387225E+03 -0.22019274951E+03 -0.22385305466E+03  0.50103257942E+03  0.50400001928E-02 0.  1.
       -1    1    3    3    0  502 -0.39043387225E+03  0.22019274951E+03 -0.26600447208E+03  0.52123107614E+03  0.50400001928E-02 0. -1.
</event>
<event>
 5   0  0.2008643E-02  0.9597461E+03  0.7818609E-02  0.9353831E-01
        2   -1    0    0  501    0  0.00000000000E+00  0.00000000000E+00  0.17989698052E+03  0.17989698054E+03  0.25500000920E-02 0.  1.
       -2   -1    0    0    0  501  0.00000000000E+00  0.00000000000E+00 -0.12800556912E+04  0.12800556912E+04  0.25500000920E-02 0. -1.
    10030    2    1    2    0    0  0.00000000000E+00  0.00000000000E+00 -0.11001587106E+04  0.14599526717E+04  0.95974612009E+03 0.  0.
        3    1    3    3  502    0 -0.29996751723E+03 -0.98811621978E+01  0.19502847478E+02  0.30076322917E+03  0.10100000352E+00 0.  1.
       -3    1    3    3    0  502  0.29996751723E+03  0.98811621978E+01 -0.11196615581E+04  0.11591894425E+04  0.10100000352E+00 0. -1.
</event>
<event>
 5   0  0.1177712E-02  0.1146788E+04  0.7818609E-02  0.9160752E-01
       -1   -1    0    0    0  501  0.00000000000E+00  0.00000000000E+00  0.90480893629E+03  0.90480893630E+03  0.50400001928E-02 0.  1.
        1   -1    0    0  501    0  0.00000000000E+00  0.00000000000E+00 -0.36336999699E+03  0.36336999702E+03  0.50400001928E-02 0. -1.
    10030    2    1    2    0    0  0.00000000000E+00  0.00000000000E+00  0.54143893930E+03  0.12681789333E+04  0.11467875487E+04 0.  0.
        5    1    3    3  502    0  0.97872130704E+02  0.79809672348E+02  0.88921666672E+03  0.89815194045E+03  0.46999998093E+01 0.  1.
       -5    1    3    3    0  502 -0.97872130704E+02 -0.79809672348E+02 -0.34777772742E+03  0.37002699287E+03  0.46999998093E+01 0. -1.
</event>
<event>
 5   0  0.1206541E-02  0.9293705E+03  0.7818609E-02  0.9389594E-01
        1   -1    0    0  501    0  0.00000000000E+00  0.00000000000E+00  0.51758992237E+03  0.51758992239E+03  0.50400001928E-02 0.  1.
       -1   -1    0    0    0  501  0.00000000000E+00  0.00000000000E+00 -0.41718811668E+03  0.41718811671E+03  0.50400001928E-02 0. -1.
    10030    2    1    2    0    0  0.00000000000E+00  0.00000000000E+00  0.10040180568E+03  0.93477803910E+03  0.92937046424E+03 0.  0.
        3    1    3    3  502    0 -0.12996773728E+02 -0.20663068618E+03 -0.36823314526E+03  0.42244622861E+03  0.10100000352E+00 0. -1.
       -3    1    3    3    0  502  0.12996773728E+02  0.20663068618E+03  0.46863495094E+03  0.51233181049E+03  0.10100000352E+00 0.  1.
</event>
<event>
 5   0  0.1175993E-02  0.8975456E+03  0.7818609E-02  0.9428655E-01
       -1   -1    0    0    0  501  0.00000000000E+00  0.00000000000E+00  0.19797947336E+04  0.19797947336E+04  0.50400001928E-02 0.  1.
        1   -1    0    0  501    0  0.00000000000E+00  0.00000000000E+00 -0.10172622213E+03  0.10172622226E+03  0.50400001928E-02 0. -1.
    10030    2    1    2    0    0  0.00000000000E+00  0.00000000000E+00  0.18780685115E+04  0.20815209559E+04  0.89754562890E+03 0.  0.
        4    1    3    3  502    0  0.25707245529E+03  0.16362454033E+03  0.17030662314E+04  0.17301142849E+04  0.12699999809E+01 0.  1.
       -4    1    3    3    0  502 -0.25707245529E+03 -0.16362454033E+03  0.17500228010E+03  0.35140667098E+03  0.12699999809E+01 0. -1.
</event>
<event>
 5   0  0.1177712E-02  0.8922652E+03  0.7818609E-02  0.9435302E-01
       -1   -1    0    0    0  501  0.00000000000E+00  0.00000000000E+00  0.70768544125E+03  0.70768544127E+03  0.50400001928E-02 0. -1.
        1   -1    0    0  501    0  0.00000000000E+00  0.00000000000E+00 -0.28124682706E+03  0.28124682710E+03  0.50400001928E-02 0.  1.
    10030    2    1    2    0    0  0.00000000000E+00  0.00000000000E+00  0.42643861419E+03  0.98893226837E+03  0.89226517345E+03 0.  0.
        5    1    3    3  502    0 -0.41721501757E+03  0.13632682796E+03  0.30160070628E+03  0.53257717839E+03  0.46999998093E+01 0. -1.
       -5    1    3    3    0  502  0.41721501757E+03 -0.13632682796E+03  0.12483790791E+03  0.45635508999E+03  0.46999998093E+01 0.  1.
</event>
<event>
 5   0  0.1175993E-02  0.9050296E+03  0.7818609E-02  0.9419316E-01
       -1   -1    0    0    0  501  0.00000000000E+00  0.00000000000E+00  0.16879125589E+03  0.16879125596E+03  0.50400001928E-02 0. -1.
        1   -1    0    0  501    0  0.00000000000E+00  0.00000000000E+00 -0.12131530481E+04  0.12131530482E+04  0.50400001928E-02 0.  1.
    10030    2    1    2    0    0  0.00000000000E+00  0.00000000000E+00 -0.10443617923E+04  0.13819443041E+04  0.90502956115E+03 0.  0.
        4    1    3    3  502    0  0.65370707950E+02  0.19365723903E+03 -0.11386486024E+04  0.11568486108E+04  0.12699999809E+01 0.  1.
       -4    1    3    3    0  502 -0.65370707950E+02 -0.19365723903E+03  0.94286810129E+02  0.22509569332E+03  0.12699999809E+01 0. -1.
</event>
<event>
 5   0  0.2008770E-02  0.8876311E+03  0.7818609E-02  0.9441177E-01
        2   -1    0    0  501    0  0.00000000000E+00  0.00000000000E+00  0.15905382429E+04  0.15905382429E+04  0.25500000920E-02 0.  1.
       -2   -1    0    0    0  501  0.00000000000E+00  0.00000000000E+00 -0.12384000046E+03  0.12384000048E+03  0.25500000920E-02 0. -1.
    10030    2    1    2    0    0  0.00000000000E+00  0.00000000000E+00  0.14666982424E+04  0.17143782434E+04  0.88763113229E+03 0.  0.
        1    1    3    3  502    0 -0.42262290201E+03 -0.26186802184E+02  0.99013487040E+03  0.10768764681E+04  0.50400001928E-02 0.  1.
       -1    1    3    3    0  502  0.42262290201E+03  0.26186802184E+02  0.47656337204E+03  0.63750177530E+03  0.50400001928E-02 0. -1.
</event>
<event>
 5   0  0.1175993E-02  0.8805974E+03  0.7818609E-02  0.9450166E-01
        1   -1    0    0  501    0  0.00000000000E+00  0.00000000000E+00  0.53524469932E+03  0.53524469935E+03  0.50400001928E-02 0. -1.
       -1   -1    0    0    0  501  0.00000000000E+00  0.00000000000E+00 -0.36219497421E+03  0.36219497424E+03  0.50400001928E-02 0.  1.
    10030    2    1    2    0    0  0.00000000000E+00  0.00000000000E+00  0.17304972511E+03  0.89743967359E+03  0.88059738835E+03 0.  0.
        4    1    3    3  502    0 -0.11563721465E+03  0.39641120279E+03 -0.69196519843E+02  0.41869270159E+03  0.12699999809E+01 0. -1.
       -4    1    3    3    0  502  0.11563721465E+03 -0.39641120279E+03  0.24224624496E+03  0.47874697200E+03  0.12699999809E+01 0.  1.
</event>
<event>
 5   0  0.2008643E-02  0.9059671E+03  0.7818609E-02  0.9418153E-01
        2   -1    0    0  501    0  0.00000000000E+00  0.00000000000E+00  0.51247375636E+03  0.51247375636E+03  0.25500000920E-02 0.  1.
       -2   -1    0    0    0  501  0.00000000000E+00  0.00000000000E+00 -0.40039920869E+03  0.40039920869E+03  0.25500000920E-02 0. -1.
    10030    2    1    2    0    0  0.00000000000E+00  0.00000000000E+00  0.11207454767E+03  0.91287296506E+03  0.90596707782E+03 0.  0.
        3    1    3    3  502    0  0.28093403850E+03  0.12114989385E+03  0.39263881919E+03  0.49776147230E+03  0.10100000352E+00 0.  1.
       -3    1    3    3    0  502 -0.28093403850E+03 -0.12114989385E+03 -0.28056427152E+03  0.41511149276E+03  0.10100000352E+00 0. -1.
</event>
<event>
 5   0  0.1924218E-02  0.9333771E+03  0.7818609E-02  0.9384794E-01
        2   -1    0    0  501    0  0.00000000000E+00  0.00000000000E+00  0.48665131202E+03  0.48665131203E+03  0.25500000920E-02 0.  1.
       -2   -1    0    0    0  501  0.00000000000E+00  0.00000000000E+00 -0.44754467562E+03  0.44754467563E+03  0.25500000920E-02 0. -1.
    10030    2    1    2    0    0  0.00000000000E+00  0.00000000000E+00  0.39106636402E+02  0.93419598765E+03  0.93337710189E+03 0.  0.
        4    1    3    3  502    0  0.27998597611E+03 -0.19283105535E+03  0.33955342821E+03  0.48049360686E+03  0.12699999809E+01 0.  1.
       -4    1    3    3    0  502 -0.27998597611E+03  0.19283105535E+03 -0.30044679181E+03  0.45370238079E+03  0.12699999809E+01 0. -1.
</event>
<event>
 5   0  0.1175993E-02  0.9013155E+03  0.7818609E-02  0.9423938E-01
        1   -1    0    0  501    0  0.00000000000E+00  0.00000000000E+00  0.48411408633E+03  0.48411408635E+03  0.50400001928E-02 0.  1.
       -1   -1    0    0    0  501  0.00000000000E+00  0.00000000000E+00 -0.41951355428E+03  0.41951355431E+03  0.50400001928E-02 0. -1.
    10030    2    1    2    0    0  0.00000000000E+00  0.00000000000E+00  0.64600532045E+02  0.90362764066E+03  0.90131552978E+03 0.  0.
        4    1    3    3  502    0  0.79990258159E+02  0.26418277985E+03 -0.32484357527E+03  0.42628153123E+03  0.12699999809E+01 0. -1.
       -4    1    3    3    0  502 -0.79990258159E+02 -0.26418277985E+03  0.38944410731E+03  0.47734610944E+03  0.12699999809E+01 0.  1.
</event>
<event>
 5   0  0.1226424E-02  0.5981504E+03  0.7818609E-02  0.9909251E-01
       -1   -1    0    0    0  501  0.00000000000E+00  0.00000000000E+00  0.21114289151E+03  0.21114289157E+03  0.50400001928E-02 0.  1.
        1   -1    0    0  501    0  0.00000000000E+00  0.00000000000E+00 -0.42362775812E+03  0.42362775815E+03  0.50400001928E-02 0. -1.
    10030    2    1    2    0    0  0.00000000000E+00  0.00000000000E+00 -0.21248486661E+03  0.63477064973E+03  0.59815044865E+03 0.  0.
        1    1    3    3  502    0 -0.10731995625E+03  0.17087119080E+03  0.12802454995E+03  0.23896615298E+03  0.50400001928E-02 0.  1.
       -1    1    3    3    0  502  0.10731995625E+03 -0.17087119080E+03 -0.34050941655E+03  0.39580449674E+03  0.50400001928E-02 0. -1.
</event>
<event>
 5   0  0.1968763E-02  0.1155388E+04  0.7818609E-02  0.9152827E-01
       -2   -1    0    0    0  501  0.00000000000E+00  0.00000000000E+00  0.18538085973E+03  0.18538085975E+03  0.25500000920E-02 0.  1.
        2   -1    0    0  501    0  0.00000000000E+00  0.00000000000E+00 -0.18002431436E+04  0.18002431436E+04  0.25500000920E-02 0. -1.
    10030    2    1    2    0    0  0.00000000000E+00  0.00000000000E+00 -0.16148622839E+04  0.19856240034E+04  0.11553884571E+04 0.  0.
        2    1    3    3  502    0  0.29387642423E+03  0.13755537746E+03 -0.16288422404E+04  0.16608467354E+04  0.25500000920E-02 0. -1.
       -2    1    3    3    0  502 -0.29387642423E+03 -0.13755537746E+03  0.13979956464E+02  0.32477726795E+03  0.25500000920E-02 0.  1.
</event>
<event>
 5   0  0.2008643E-02  0.9036504E+03  0.7818609E-02  0.9421030E-01
       -2   -1    0    0    0  501  0.00000000000E+00  0.00000000000E+00  0.83404461524E+03  0.83404461524E+03  0.25500000920E-02 0. -1.
        2   -1    0    0  501    0  0.00000000000E+00  0.00000000000E+00 -0.24476630080E+03  0.24476630081E+03  0.25500000920E-02 0.  1.
    10030    2    1    2    0    0  0.00000000000E+00  0.00000000000E+00  0.58927831444E+03  0.10788109161E+04  0.90365040847E+03 0.  0.
        3    1    3    3  502    0 -0.18067415507E+03 -0.24684044893E+03 -0.10234094300E+03  0.32256322846E+03  0.10100000352E+00 0.  1.
       -3    1    3    3    0  502  0.18067415507E+03  0.24684044893E+03  0.69161925744E+03  0.75624768760E+03  0.10100000352E+00 0. -1.
</event>
<event>
 5   0  0.1175993E-02  0.9114206E+03  0.7818609E-02  0.9411417E-01
        1   -1    0    0  501    0  0.00000000000E+00  0.00000000000E+00  0.32406005248E+03  0.32406005252E+03  0.50400001928E-02 0. -1.
       -1   -1    0    0    0  501  0.00000000000E+00  0.00000000000E+00 -0.64084387315E+03  0.64084387317E+03  0.50400001928E-02 0.  1.
    10030    2    1    2    0    0  0.00000000000E+00  0.00000000000E+00 -0.31678382066E+03  0.96490392569E+03  0.91142064755E+03 0.  0.
        4    1    3    3  502    0  0.35621068876E+02  0.45244005789E+03 -0.11474881525E+03  0.46812366959E+03  0.12699999809E+01 0.  1.
       -4    1    3    3    0  502 -0.35621068876E+02 -0.45244005789E+03 -0.20203500542E+03  0.49678025610E+03  0.12699999809E+01 0. -1.
</event>
<event>
 5   0  0.1162839E-02  0.9078145E+03  0.7818609E-02  0.9415865E-01
        1   -1    0    0  501    0  0.00000000000E+00  0.00000000000E+00  0.55143819654E+03  0.55143819656E+03  0.50400001928E-02 0. -1.
       -1   -1    0    0    0  501  0.00000000000E+00  0.00000000000E+00 -0.37362624893E+03  0.37362624896E+03  0.50400001928E-02 0.  1.
    10030    2    1    2    0    0  0.00000000000E+00  0.00000000000E+00  0.17781194761E+03  0.92506444553E+03  0.90781448527E+03 0.  0.
        2    1    3    3  502    0 -0.14060343738E+03 -0.43109522448E+03  0.10977351859E+03  0.46654329334E+03  0.25500000920E-02 0.  1.
       -2    1    3    3    0  502  0.14060343738E+03  0.43109522448E+03  0.68038429020E+02  0.45852115219E+03  0.25500000920E-02 0. -1.
</event>
<event>
 5   0  0.1226424E-02  0.9034795E+03  0.7818609E-02  0.9421242E-01
        1   -1    0    0  501    0  0.00000000000E+00  0.00000000000E+00  0.68070234106E+03  0.68070234108E+03  0.50400001928E-02 0.  1.
       -1   -1    0    0    0  501  0.00000000000E+00  0.00000000000E+00 -0.29979154676E+03  0.29979154680E+03  0.50400001928E-02 0. -1.
    10030    2    1    2    0    0  0.00000000000E+00  0.00000000000E+00  0.38091079431E+03  0.98049388788E+03  0.90347951330E+03 0.  0.
        1    1    3    3  502    0  0.85679187824E+02 -0.57225810513E+02  0.66778065767E+03  0.67568241312E+03  0.50400001928E-02 0.  1.
       -1    1    3    3    0  502 -0.85679187824E+02  0.57225810513E+02 -0.28686986336E+03  0.30481147476E+03  0.50400001928E-02 0. -1.
</event>
<event>
 5   0  0.1968763E-02  0.9232736E+03  0.7818609E-02  0.9396947E-01
       -2   -1    0    0    0  501  0.00000000000E+00  0.00000000000E+00  0.25078787482E+03  0.25078787483E+03  0.25500000920E-02 0.  1.
        2   -1    0    0  501    0  0.00000000000E+00  0.00000000000E+00 -0.84975604726E+03  0.84975604727E+03  0.25500000920E-02 0. -1.
    10030    2    1    2    0    0  0.00000000000E+00  0.00000000000E+00 -0.59896817244E+03  0.11005439221E+04  0.92327355257E+03 0.  0.
        2    1    3    3  502    0 -0.20047683586E+02  0.25249306151E+03 -0.75953178409E+03  0.80065172627E+03  0.25500000920E-02 0. -1.
       -2    1    3    3    0  502  0.20047683586E+02 -0.25249306151E+03  0.16056361165E+03  0.29989219583E+03  0.25500000920E-02 0.  1.
</event>
<event>
 5   0  0.7893875E-03  0.8941209E+03  0.7818609E-02  0.9432961E-01
        3   -1    0    0  501    0  0.00000000000E+00  0.00000000000E+00  0.36875948837E+03  0.36875950220E+03  0.10100000352E+00 0. -1.
       -3   -1    0    0    0  501  0.00000000000E+00  0.00000000000E+00 -0.54198746172E+03  0.54198747113E+03  0.10100000352E+00 0.  1.
    10030    2    1    2    0    0  0.00000000000E+00  0.00000000000E+00 -0.17322797335E+03  0.91074697333E+03  0.89412086357E+03 0.  0.
        3    1    3    3  502    0  0.30340099856E+03 -0.61388546476E+02  0.24193980209E+03  0.39288114946E+03  0.10100000352E+00 0. -1.
       -3    1    3    3    0  502 -0.30340099856E+03  0.61388546476E+02 -0.41516777544E+03  0.51786582387E+03  0.10100000352E+00 0.  1.
</event>
<event>
 5   0  0.1206541E-02  0.8618405E+03  0.7818609E-02  0.9474581E-01
       -1   -1    0    0    0  501  0.00000000000E+00  0.00000000000E+00  0.22863052731E+03  0.22863052737E+03  0.50400001928E-02 0.  1.
        1   -1    0    0  501    0  0.00000000000E+00  0.00000000000E+00 -0.81219361556E+03  0.81219361557E+03  0.50400001928E-02 0. -1.
    10030    2    1    2    0    0  0.00000000000E+00  0.00000000000E+00 -0.58356308825E+03  0.10408241429E+04  0.86184048325E+03 0.  0.
        3    1    3    3  502    0  0.24393093711E+03  0.29919299933E+03 -0.52305542961E+03  0.65008133765E+03  0.10100000352E+00 0. -1.
       -3    1    3    3    0  502 -0.24393093711E+03 -0.29919299933E+03 -0.60507658641E+02  0.39074280528E+03  0.10100000352E+00 0.  1.
</event>
<event>
 5   0  0.1206541E-02  0.9122116E+03  0.7818609E-02  0.9410444E-01
        1   -1    0    0  501    0  0.00000000000E+00  0.00000000000E+00  0.55942567172E+03  0.55942567174E+03  0.50400001928E-02 0.  1.
       -1   -1    0    0    0  501  0.00000000000E+00  0.00000000000E+00 -0.37186801448E+03  0.37186801452E+03  0.50400001928E-02 0. -1.
    10030    2    1    2    0    0  0.00000000000E+00  0.00000000000E+00  0.18755765724E+03  0.93129368626E+03  0.91221162856E+03 0.  0.
        3    1    3    3  502    0 -0.36572663471E+03  0.93208728890E+02  0.35523894526E+03  0.51830353743E+03  0.10100000352E+00 0.  1.
       -3    1    3    3    0  502  0.36572663471E+03 -0.93208728890E+02 -0.16768128803E+03  0.41299014883E+03  0.10100000352E+00 0. -1.
</event>
<event>
 5   0  0.2008643E-02  0.8952678E+03  0.7818609E-02  0.9431516E-01
       -2   -1    0    0    0  501  0.00000000000E+00  0.00000000000E+00  0.10103023036E+03  0.10103023040E+03  0.25500000920E-02 0. -1.
        2   -1    0    0  501    0  0.00000000000E+00  0.00000000000E+00 -0.19833281301E+04  0.19833281301E+04  0.25500000920E-02 0.  1.
    10030    2    1    2    0    0  0.00000000000E+00  0.00000000000E+00 -0.18822978997E+04  0.20843583605E+04  0.89526777649E+03 0.  0.
        3    1    3    3  502    0  0.21830676617E+03  0.22871287336E+03 -0.16788918390E+04  0.17084042963E+04  0.10100000352E+00 0.  1.
       -3    1    3    3    0  502 -0.21830676617E+03 -0.22871287336E+03 -0.20340606075E+03  0.37595406415E+03  0.10100000352E+00 0. -1.
</event>
<event>
 5   0  0.2008643E-02  0.8913253E+03  0.7818609E-02  0.9436491E-01
       -2   -1    0    0    0  501  0.00000000000E+00  0.00000000000E+00  0.10279694967E+03  0.10279694970E+03  0.25500000920E-02 0. -1.
        2   -1    0    0  501    0  0.00000000000E+00  0.00000000000E+00 -0.19321118707E+04  0.19321118707E+04  0.25500000920E-02 0.  1.
    10030    2    1    2    0    0  0.00000000000E+00  0.00000000000E+00 -0.18293149210E+04  0.20349088204E+04  0.89132532053E+03 0.  0.
        3    1    3    3  502    0  0.30563294071E+03 -0.16278930629E+03 -0.27417785902E+03  0.44168468534E+03  0.10100000352E+00 0. -1.
       -3    1    3    3    0  502 -0.30563294071E+03  0.16278930629E+03 -0.15551370620E+04  0.15932241350E+04  0.10100000352E+00 0.  1.
</event>
<event>
 5   0  0.1226424E-02  0.9104866E+03  0.7818609E-02  0.9412567E-01
       -1   -1    0    0    0  501  0.00000000000E+00  0.00000000000E+00  0.24625483303E+03  0.24625483308E+03  0.50400001928E-02 0. -1.
        1   -1    0    0  501    0  0.00000000000E+00  0.00000000000E+00 -0.84159350355E+03  0.84159350357E+03  0.50400001928E-02 0.  1.
    10030    2    1    2    0    0  0.00000000000E+00  0.00000000000E+00 -0.59533867052E+03  0.10878483366E+04  0.91048661216E+03 0.  0.
        1    1    3    3  502    0 -0.31177001730E+03  0.32235721227E+03 -0.39122865777E+03  0.59512568309E+03  0.50400001928E-02 0. -1.
       -1    1    3    3    0  502  0.31177001730E+03 -0.32235721227E+03 -0.20411001275E+03  0.49272265355E+03  0.50400001928E-02 0.  1.
</event>
<event>
 5   0  0.2008770E-02  0.8976597E+03  0.7818609E-02  0.9428512E-01
        2   -1    0    0  501    0  0.00000000000E+00  0.00000000000E+00  0.26791545491E+03  0.26791545492E+03  0.25500000920E-02 0.  1.
       -2   -1    0    0    0  501  0.00000000000E+00  0.00000000000E+00 -0.75190969376E+03  0.75190969377E+03  0.25500000920E-02 0. -1.
    10030    2    1    2    0    0  0.00000000000E+00  0.00000000000E+00 -0.48399423886E+03  0.10198251487E+04  0.89765968532E+03 0.  0.
        1    1    3    3  502    0  0.25872325736E+03  0.16590222556E+03 -0.61360028968E+03  0.68627005462E+03  0.50400001928E-02 0. -1.
       -1    1    3    3    0  502 -0.25872325736E+03 -0.16590222556E+03  0.12960605082E+03  0.33355509407E+03  0.50400001928E-02 0.  1.
</event>
<event>
 5   0  0.1162839E-02  0.9026102E+03  0.7818609E-02  0.9422324E-01
        1   -1    0    0  501    0  0.00000000000E+00  0.00000000000E+00  0.69244146916E+03  0.69244146917E+03  0.50400001928E-02 0.  1.
       -1   -1    0    0    0  501  0.00000000000E+00  0.00000000000E+00 -0.29414227238E+03  0.29414227242E+03  0.50400001928E-02 0. -1.
    10030    2    1    2    0    0  0.00000000000E+00  0.00000000000E+00  0.39829919678E+03  0.98658374159E+03  0.90261023095E+03 0.  0.
        2    1    3    3  502    0  0.15360599789E+03  0.39477238374E+03  0.36931316926E+03  0.56198955021E+03  0.25500000920E-02 0. -1.
       -2    1    3    3    0  502 -0.15360599789E+03 -0.39477238374E+03  0.28986027519E+02  0.42459419138E+03  0.25500000920E-02 0.  1.
</event>
<event>
 5   0  0.1226424E-02  0.8481214E+03  0.7818609E-02  0.9492862E-01
        1   -1    0    0  501    0  0.00000000000E+00  0.00000000000E+00  0.63933434205E+03  0.63933434207E+03  0.50400001928E-02 0. -1.
       -1   -1    0    0    0  501  0.00000000000E+00  0.00000000000E+00 -0.28127298817E+03  0.28127298822E+03  0.50400001928E-02 0.  1.
    10030    2    1    2    0    0  0.00000000000E+00  0.00000000000E+00  0.35806135388E+03  0.92060733028E+03  0.84812140843E+03 0.  0.
        1    1    3    3  502    0  0.22332521617E+03 -0.10291719085E+03 -0.19598404682E+03  0.31444530046E+03  0.50400001928E-02 0.  1.
       -1    1    3    3    0  502 -0.22332521617E+03  0.10291719085E+03  0.55404540069E+03  0.60616202983E+03  0.50400001928E-02 0. -1.
</event>
<event>
 5   0  0.2041861E-02  0.9073364E+03  0.7818609E-02  0.9416457E-01
       -2   -1    0    0    0  501  0.00000000000E+00  0.00000000000E+00  0.24047620067E+03  0.24047620068E+03  0.25500000920E-02 0.  1.
        2   -1    0    0  501    0  0.00000000000E+00  0.00000000000E+00 -0.85586367813E+03  0.85586367814E+03  0.25500000920E-02 0. -1.
    10030    2    1    2    0    0  0.00000000000E+00  0.00000000000E+00 -0.61538747746E+03  0.10963398788E+04  0.90733642188E+03 0.  0.
        5    1    3    3  502    0  0.13009243451E+03 -0.34952443769E+03 -0.61975817773E+03  0.72333509725E+03  0.46999998093E+01 0. -1.
       -5    1    3    3    0  502 -0.13009243451E+03  0.34952443769E+03  0.43707002643E+01  0.37300478157E+03  0.46999998093E+01 0.  1.
</event>
<event>
 5   0  0.2008770E-02  0.8898604E+03  0.7818609E-02  0.9438346E-01
        2   -1    0    0  501    0  0.00000000000E+00  0.00000000000E+00  0.97058288445E+03  0.97058288446E+03  0.25500000920E-02 0.  1.
       -2   -1    0    0    0  501  0.00000000000E+00  0.00000000000E+00 -0.20396287427E+03  0.20396287429E+03  0.25500000920E-02 0. -1.
    10030    2    1    2    0    0  0.00000000000E+00  0.00000000000E+00  0.76662001018E+03  0.11745457587E+04  0.88986038196E+03 0.  0.
        1    1    3    3  502    0 -0.21278741448E+02 -0.42667208497E+02  0.96720122035E+03  0.96837568959E+03  0.50400001928E-02 0.  1.
       -1    1    3    3    0  502  0.21278741448E+02  0.42667208497E+02 -0.20058121017E+03  0.20617006916E+03  0.50400001928E-02 0. -1.
</event>
<event>
 5   0  0.1162839E-02  0.8975711E+03  0.7818609E-02  0.9428623E-01
        1   -1    0    0  501    0  0.00000000000E+00  0.00000000000E+00  0.13619288058E+04  0.13619288058E+04  0.50400001928E-02 0. -1.
       -1   -1    0    0    0  501  0.00000000000E+00  0.00000000000E+00 -0.14788471607E+03  0.14788471616E+03  0.50400001928E-02 0.  1.
    10030    2    1    2    0    0  0.00000000000E+00  0.00000000000E+00  0.12140440898E+04  0.15098135220E+04  0.89757106646E+03 0.  0.
        2    1    3    3  502    0 -0.44824736388E+03  0.21720902905E+02  0.61259030783E+03  0.75938421244E+03  0.25500000920E-02 0.  1.
       -2    1    3    3    0  502  0.44824736388E+03 -0.21720902905E+02  0.60145378192E+03  0.75042930956E+03  0.25500000920E-02 0. -1.
</event>
<event>
 5   0  0.1162839E-02  0.9346503E+03  0.7818609E-02  0.9383274E-01
       -1   -1    0    0    0  501  0.00000000000E+00  0.00000000000E+00  0.28780334548E+03  0.28780334552E+03  0.50400001928E-02 0. -1.
        1   -1    0    0  501    0  0.00000000000E+00  0.00000000000E+00 -0.75882654713E+03  0.75882654714E+03  0.50400001928E-02 0.  1.
    10030    2    1    2    0    0  0.00000000000E+00  0.00000000000E+00 -0.47102320165E+03  0.10466298927E+04  0.93465034946E+03 0.  0.
        2    1    3    3  502    0 -0.57152888918E+02  0.42732695153E+03 -0.43744407213E+03  0.61419222761E+03  0.25500000920E-02 0.  1.
       -2    1    3    3    0  502  0.57152888918E+02 -0.42732695153E+03 -0.33579129520E+02  0.43243766506E+03  0.25500000920E-02 0. -1.
</event>
<event>
 5   0  0.1968763E-02  0.9171715E+03  0.7818609E-02  0.9404367E-01
        2   -1    0    0  501    0  0.00000000000E+00  0.00000000000E+00  0.13530430892E+04  0.13530430892E+04  0.25500000920E-02 0.  1.
       -2   -1    0    0    0  501  0.00000000000E+00  0.00000000000E+00 -0.15542807881E+03  0.15542807883E+03  0.25500000920E-02 0. -1.
    10030    2    1    2    0    0  0.00000000000E+00  0.00000000000E+00  0.11976150104E+04  0.15084711681E+04  0.91717149524E+03 0.  0.
        2    1    3    3  502    0 -0.34970288975E+03 -0.25681600447E+03  0.84305677158E+03  0.94815151288E+03  0.25500000920E-02 0.  1.
       -2    1    3    3    0  502  0.34970288975E+03  0.25681600447E+03  0.35455823884E+03  0.56031965519E+03  0.25500000920E-02 0. -1.
</event>
<event>
 5   0  0.7893875E-03  0.9190529E+03  0.7818609E-02  0.9402073E-01
       -3   -1    0    0    0  501  0.00000000000E+00  0.00000000000E+00  0.84825345115E+03  0.84825345716E+03  0.10100000352E+00 0. -1.
        3   -1    0    0  501    0  0.00000000000E+00  0.00000000000E+00 -0.24894039316E+03  0.24894041365E+03  0.10100000352E+00 0.  1.
    10030    2    1    2    0    0  0.00000000000E+00  0.00000000000E+00  0.59931305799E+03  0.10971938708E+04  0.91905290852E+03 0.  0.
        4    1    3    3  502    0  0.10880626161E+03 -0.29578431486E+03  0.69889580177E+03  0.76667080166E+03  0.12699999809E+01 0. -1.
       -4    1    3    3    0  502 -0.10880626161E+03  0.29578431486E+03 -0.99582743784E+02  0.33052306915E+03  0.12699999809E+01 0.  1.
</event>
<event>
 5   0  0.1206541E-02  0.8932227E+03  0.7818609E-02  0.9434093E-01
       -1   -1    0    0    0  501  0.00000000000E+00  0.00000000000E+00  0.13576187486E+03  0.13576187495E+03  0.50400001928E-02 0.  1.
        1   -1    0    0  501    0  0.00000000000E+00  0.00000000000E+00 -0.14692026745E+04  0.14692026745E+04  0.50400001928E-02 0. -1.
    10030    2    1    2    0    0  0.00000000000E+00  0.00000000000E+00 -0.13334407996E+04  0.16049645494E+04  0.89322272634E+03 0.  0.
        3    1    3    3  502    0  0.37505198422E+03  0.24109167650E+03 -0.71331716336E+03  0.84119591837E+03  0.10100000352E+00 0.  1.
       -3    1    3    3    0  502 -0.37505198422E+03 -0.24109167650E+03 -0.62012363623E+03  0.76376863104E+03  0.10100000352E+00 0. -1.
</event>
<event>
 5   0  0.2041861E-02  0.9117577E+03  0.7818609E-02  0.9411002E-01
        2   -1    0    0  501    0  0.00000000000E+00  0.00000000000E+00  0.79504505993E+03  0.79504505993E+03  0.25500000920E-02 0. -1.
       -2   -1    0    0    0  501  0.00000000000E+00  0.00000000000E+00 -0.26140096818E+03  0.26140096819E+03  0.25500000920E-02 0.  1.
    10030    2    1    2    0    0  0.00000000000E+00  0.00000000000E+00  0.53364409175E+03  0.10564460281E+04  0.91175774944E+03 0.  0.
        5    1    3    3  502    0  0.19483897956E+03 -0.60182615298E+02  0.73922059387E+03  0.76684636762E+03  0.46999998093E+01 0. -1.
       -5    1    3    3    0  502 -0.19483897956E+03  0.60182615298E+02 -0.20557650212E+03  0.28959966050E+03  0.46999998093E+01 0.  1.
</event>
<event>
 5   0  0.1206541E-02  0.9174659E+03  0.7818609E-02  0.9404008E-01
       -1   -1    0    0    0  501  0.00000000000E+00  0.00000000000E+00  0.23111182325E+03  0.23111182330E+03  0.50400001928E-02 0.  1.
        1   -1    0    0  501    0  0.00000000000E+00  0.00000000000E+00 -0.91053721456E+03  0.91053721457E+03  0.50400001928E-02 0. -1.
    10030    2    1    2    0    0  0.00000000000E+00  0.00000000000E+00 -0.67942539131E+03  0.11416490379E+04  0.91746589218E+03 0.  0.
        3    1    3    3  502    0  0.19889640649E+03  0.30882154662E+03 -0.68163830429E+03  0.77431344832E+03  0.10100000352E+00 0. -1.
       -3    1    3    3    0  502 -0.19889640649E+03 -0.30882154662E+03  0.22129129777E+01  0.36733558956E+03  0.10100000352E+00 0.  1.
</event>
<event>
 5   0  0.1968763E-02  0.9091858E+03  0.7818609E-02  0.9414171E-01
        2   -1    0    0  501    0  0.00000000000E+00  0.00000000000E+00  0.11011222616E+04  0.11011222616E+04  0.25500000920E-02 0.  1.
       -2   -1    0    0    0  501  0.00000000000E+00  0.00000000000E+00 -0.18767642842E+03  0.18767642844E+03  0.25500000920E-02 0. -1.
    10030    2    1    2    0    0  0.00000000000E+00  0.00000000000E+00  0.91344583320E+03  0.12887986901E+04  0.90918577491E+03 0.  0.
        2    1    3    3  502    0 -0.19464884295E+03  0.41058394428E+03  0.43732055434E+03  0.63064777382E+03  0.25500000920E-02 0.  1.
       -2    1    3    3    0  502  0.19464884295E+03 -0.41058394428E+03  0.47612527885E+03  0.65815091623E+03  0.25500000920E-02 0. -1.
</event>
<event>
 5   0  0.1968763E-02  0.9064654E+03  0.7818609E-02  0.9417535E-01
        2   -1    0    0  501    0  0.00000000000E+00  0.00000000000E+00  0.18129634663E+04  0.18129634663E+04  0.25500000920E-02 0.  1.
       -2   -1    0    0    0  501  0.00000000000E+00  0.00000000000E+00 -0.11330612341E+03  0.11330612344E+03  0.25500000920E-02 0. -1.
    10030    2    1    2    0    0  0.00000000000E+00  0.00000000000E+00  0.16996573429E+04  0.19262695897E+04  0.90646536015E+03 0.  0.
        2    1    3    3  502    0  0.44811748645E+03  0.65211308688E+02  0.89003989620E+03  0.99861544814E+03  0.25500000920E-02 0. -1.
       -2    1    3    3    0  502 -0.44811748645E+03 -0.65211308688E+02  0.80961744667E+03  0.92765414158E+03  0.25500000920E-02 0.  1.
</event>
<event>
 5   0  0.1226424E-02  0.8897367E+03  0.7818609E-02  0.9438503E-01
        1   -1    0    0  501    0  0.00000000000E+00  0.00000000000E+00  0.16891570476E+04  0.16891570476E+04  0.50400001928E-02 0.  1.
       -1   -1    0    0    0  501  0.00000000000E+00  0.00000000000E+00 -0.11716368055E+03  0.11716368066E+03  0.50400001928E-02 0. -1.
    10030    2    1    2    0    0  0.00000000000E+00  0.00000000000E+00  0.15719933670E+04  0.18063207283E+04  0.88973671797E+03 0.  0.
        1    1    3    3  502    0  0.11131568354E+03 -0.14872492338E+03 -0.34649874456E+02  0.18897327341E+03  0.50400001928E-02 0. -1.
       -1    1    3    3    0  502 -0.11131568354E+03  0.14872492338E+03  0.16066432415E+04  0.16173474549E+04  0.50400001928E-02 0.  1.
</event>
<event>
 5   0  0.2008643E-02  0.8544041E+03  0.7818609E-02  0.9484445E-01
       -2   -1    0    0    0  501  0.00000000000E+00  0.00000000000E+00  0.31886035044E+03  0.31886035045E+03  0.25500000920E-02 0. -1.
        2   -1    0    0  501    0  0.00000000000E+00  0.00000000000E+00 -0.57235590412E+03  0.57235590413E+03  0.25500000920E-02 0.  1.
    10030    2    1    2    0    0  0.00000000000E+00  0.00000000000E+00 -0.25349555368E+03  0.89121625458E+03  0.85440412961E+03 0.  0.
        3    1    3    3  502    0 -0.77561499596E+02  0.26299881427E+03 -0.46845557884E+03  0.54280272851E+03  0.10100000352E+00 0.  1.
       -3    1    3    3    0  502  0.77561499596E+02 -0.26299881427E+03  0.21496002516E+03  0.34841352607E+03  0.10100000352E+00 0. -1.
</event>
<event>
 5   0  0.1968763E-02  0.9026621E+03  0.7818609E-02  0.9422260E-01
        2   -1    0    0  501    0  0.00000000000E+00  0.00000000000E+00  0.28752873194E+03  0.28752873195E+03  0.25500000920E-02 0.  1.
       -2   -1    0    0    0  501  0.00000000000E+00  0.00000000000E+00 -0.70845002855E+03  0.70845002855E+03  0.25500000920E-02 0. -1.
    10030    2    1    2    0    0  0.00000000000E+00  0.00000000000E+00 -0.42092129661E+03  0.99597876050E+03  0.90266214800E+03 0.  0.
        2    1    3    3  502    0  0.23062698623E+03 -0.21496427565E+03  0.14588354758E+03  0.34739092683E+03  0.25500000920E-02 0.  1.
       -2    1    3    3    0  502 -0.23062698623E+03  0.21496427565E+03 -0.56680484419E+03  0.64858783367E+03  0.25500000920E-02 0. -1.
</event>
<event>
 5   0  0.1206541E-02  0.8976774E+03  0.7818609E-02  0.9428489E-01
        1   -1    0    0  501    0  0.00000000000E+00  0.00000000000E+00  0.48414260302E+03  0.48414260305E+03  0.50400001928E-02 0.  1.
       -1   -1    0    0    0  501  0.00000000000E+00  0.00000000000E+00 -0.41610921820E+03  0.41610921823E+03  0.50400001928E-02 0. -1.
    10030    2    1    2    0    0  0.00000000000E+00  0.00000000000E+00  0.68033384821E+02  0.90025182128E+03  0.89767744779E+03 0.  0.
        3    1    3    3  502    0 -0.13279970092E+03 -0.11439413179E+03 -0.38036849766E+03  0.41881019826E+03  0.10100000352E+00 0. -1.
       -3    1    3    3    0  502  0.13279970092E+03  0.11439413179E+03  0.44840188249E+03  0.48144162301E+03  0.10100000352E+00 0.  1.
</event>
<event>
 5   0  0.1206541E-02  0.8694198E+03  0.7818609E-02  0.9464637E-01
       -1   -1    0    0    0  501  0.00000000000E+00  0.00000000000E+00  0.70982715915E+03  0.70982715917E+03  0.50400001928E-02 0. -1.
        1   -1    0    0  501    0  0.00000000000E+00  0.00000000000E+00 -0.26622352637E+03  0.26622352642E+03  0.50400001928E-02 0.  1.
    10030    2    1    2    0    0  0.00000000000E+00  0.00000000000E+00  0.44360363278E+03  0.97605068559E+03  0.86941978228E+03 0.  0.
        3    1    3    3  502    0 -0.20008252318E+02 -0.22919413509E+03  0.63587775191E+03  0.67621801757E+03  0.10100000352E+00 0. -1.
       -3    1    3    3    0  502  0.20008252318E+02  0.22919413509E+03 -0.19227411913E+03  0.29983266801E+03  0.10100000352E+00 0.  1.
</event>
<event>
 5   0  0.1175993E-02  0.9438951E+03  0.7818609E-02  0.9372315E-01
       -1   -1    0    0    0  501  0.00000000000E+00  0.00000000000E+00  0.24760937204E+03  0.24760937209E+03  0.50400001928E-02 0. -1.
        1   -1    0    0  501    0  0.00000000000E+00  0.00000000000E+00 -0.89953989993E+03  0.89953989994E+03  0.50400001928E-02 0.  1.
    10030    2    1    2    0    0  0.00000000000E+00  0.00000000000E+00 -0.65193052789E+03  0.11471492720E+04  0.94389514202E+03 0.  0.
        4    1    3    3  502    0 -0.26800648458E+02  0.46651196930E+03 -0.40640913320E+03  0.61929127938E+03  0.12699999809E+01 0. -1.
       -4    1    3    3    0  502  0.26800648458E+02 -0.46651196930E+03 -0.24552139468E+03  0.52785799265E+03  0.12699999809E+01 0.  1.
</event>
<event>
 5   0  0.2008643E-02  0.8523488E+03  0.7818609E-02  0.9487190E-01
       -2   -1    0    0    0  501  0.00000000000E+00  0.00000000000E+00  0.20349801198E+03  0.20349801199E+03  0.25500000920E-02 0.  1.
        2   -1    0    0  501    0  0.00000000000E+00  0.00000000000E+00 -0.89251306932E+03  0.89251306932E+03  0.25500000920E-02 0. -1.
    10030    2    1    2    0    0  0.00000000000E+00  0.00000000000E+00 -0.68901505734E+03  0.10960110813E+04  0.85234883770E+03 0.  0.
        3    1    3    3  502    0  0.19901069753E+03 -0.36072447928E+03 -0.20425190924E+03  0.45983286128E+03  0.10100000352E+00 0.  1.
       -3    1    3    3    0  502 -0.19901069753E+03  0.36072447928E+03 -0.48476314810E+03  0.63617822003E+03  0.10100000352E+00 0. -1.
</event>
<event>
 5   0  0.1968763E-02  0.9063204E+03  0.7818609E-02  0.9417715E-01
        2   -1    0    0  501    0  0.00000000000E+00  0.00000000000E+00  0.10633129152E+04  0.10633129152E+04  0.25500000920E-02 0. -1.
       -2   -1    0    0    0  501  0.00000000000E+00  0.00000000000E+00 -0.19312676737E+03  0.19312676739E+03  0.25500000920E-02 0.  1.
    10030    2    1    2    0    0  0.00000000000E+00  0.00000000000E+00  0.87018614783E+03  0.12564396826E+04  0.90632044229E+03 0.  0.
        2    1    3    3  502    0 -0.83181622832E+02  0.25929397117E+03 -0.67052340185E+02  0.28044350981E+03  0.25500000920E-02 0.  1.
       -2    1    3    3    0  502  0.83181622832E+02 -0.25929397117E+03  0.93723848801E+03  0.97599617278E+03  0.25500000920E-02 0. -1.
</event>
<event>
 5   0  0.1924218E-02  0.9485255E+03  0.7818609E-02  0.9366876E-01
        2   -1    0    0  501    0  0.00000000000E+00  0.00000000000E+00  0.20687468440E+03  0.20687468442E+03  0.25500000920E-02 0. -1.
       -2   -1    0    0    0  501  0.00000000000E+00  0.00000000000E+00 -0.10872530771E+04  0.10872530771E+04  0.25500000920E-02 0.  1.
    10030    2    1    2    0    0  0.00000000000E+00  0.00000000000E+00 -0.88037839274E+03  0.12941277616E+04  0.94852546030E+03 0.  0.
        4    1    3    3  502    0 -0.11039249563E+03  0.25594455631E+03 -0.96369974857E+03  0.10032013443E+04  0.12699999809E+01 0.  1.
       -4    1    3    3    0  502  0.11039249563E+03 -0.25594455631E+03  0.83321355832E+02  0.29092641722E+03  0.12699999809E+01 0. -1.
</event>
<event>
 5   0  0.1162839E-02  0.8977955E+03  0.7818609E-02  0.9428341E-01
        1   -1    0    0  501    0  0.00000000000E+00  0.00000000000E+00  0.53875247606E+03  0.53875247609E+03  0.50400001928E-02 0.  1.
       -1   -1    0    0    0  501  0.00000000000E+00  0.00000000000E+00 -0.37402924371E+03  0.37402924374E+03  0.50400001928E-02 0. -1.
    10030    2    1    2    0    0  0.00000000000E+00  0.00000000000E+00  0.16472323235E+03  0.91278171983E+03  0.89779548048E+03 0.  0.
        2    1    3    3  502    0 -0.12059657471E+03 -0.41485903440E+03  0.20628814148E+03  0.47875499953E+03  0.25500000920E-02 0.  1.
       -2    1    3    3    0  502  0.12059657471E+03  0.41485903440E+03 -0.41564909121E+02  0.43402672030E+03  0.25500000920E-02 0. -1.
</event>
<event>
 5   0  0.1177712E-02  0.7391259E+03  0.7818609E-02  0.9652566E-01
        1   -1    0    0  501    0  0.00000000000E+00  0.00000000000E+00  0.24615797803E+03  0.24615797808E+03  0.50400001928E-02 0. -1.
       -1   -1    0    0    0  501  0.00000000000E+00  0.00000000000E+00 -0.55483384740E+03  0.55483384743E+03  0.50400001928E-02 0.  1.
    10030    2    1    2    0    0  0.00000000000E+00  0.00000000000E+00 -0.30867586937E+03  0.80099182551E+03  0.73912591093E+03 0.  0.
        5    1    3    3  502    0  0.22650880463E+03  0.22980474609E+03  0.40843370900E+02  0.32527946576E+03  0.46999998093E+01 0. -1.
       -5    1    3    3    0  502 -0.22650880463E+03 -0.22980474609E+03 -0.34951924027E+03  0.47571235975E+03  0.46999998093E+01 0.  1.
</event>
<event>
 5   0  0.2008770E-02  0.8932750E+03  0.7818609E-02  0.9434027E-01
       -2   -1    0    0    0  501  0.00000000000E+00  0.00000000000E+00  0.51035500138E+03  0.51035500138E+03  0.25500000920E-02 0. -1.
        2   -1    0    0  501    0  0.00000000000E+00  0.00000000000E+00 -0.39087512933E+03  0.39087512934E+03  0.25500000920E-02 0.  1.
    10030    2    1    2    0    0  0.00000000000E+00  0.00000000000E+00  0.11947987204E+03  0.90123013073E+03  0.89327504650E+03 0.  0.
        1    1    3    3  502    0 -0.36735414297E+03 -0.11625013697E+03 -0.16815196144E+03  0.42040247724E+03  0.50400001928E-02 0.  1.
       -1    1    3    3    0  502  0.36735414297E+03  0.11625013697E+03  0.28763183348E+03  0.48082765349E+03  0.50400001928E-02 0. -1.
</event>
<event>
 5   0  0.1968763E-02  0.8737781E+03  0.7818609E-02  0.9458967E-01
        2   -1    0    0  501    0  0.00000000000E+00  0.00000000000E+00  0.84673834127E+03  0.84673834127E+03  0.25500000920E-02 0.  1.
       -2   -1    0    0    0  501  0.00000000000E+00  0.00000000000E+00 -0.22542031429E+03  0.22542031430E+03  0.25500000920E-02 0. -1.
    10030    2    1    2    0    0  0.00000000000E+00  0.00000000000E+00  0.62131802698E+03  0.10721586556E+04  0.87377805653E+03 0.  0.
        2    1    3    3  502    0  0.25930372907E+03  0.89623961028E+02 -0.10653588518E+03  0.29431407228E+03  0.25500000920E-02 0. -1.
       -2    1    3    3    0  502 -0.25930372907E+03 -0.89623961028E+02  0.72785391217E+03  0.77784458330E+03  0.25500000920E-02 0.  1.
</event>
<event>
 5   0  0.1226424E-02  0.8989568E+03  0.7818609E-02  0.9426886E-01
       -1   -1    0    0    0  501  0.00000000000E+00  0.00000000000E+00  0.43160609373E+03  0.43160609376E+03  0.50400001928E-02 0.  1.
        1   -1    0    0  501    0  0.00000000000E+00  0.00000000000E+00 -0.46809076346E+03  0.46809076348E+03  0.50400001928E-02 0. -1.
    10030    2    1    2    0    0  0.00000000000E+00  0.00000000000E+00 -0.36484669727E+02  0.89969685724E+03  0.89895678640E+03 0.  0.
        1    1    3    3  502    0 -0.41050424832E+03 -0.16858707909E+03  0.53199095881E+02  0.44695132280E+03  0.50400001928E-02 0.  1.
       -1    1    3    3    0  502  0.41050424832E+03  0.16858707909E+03 -0.89683765608E+02  0.45274553445E+03  0.50400001928E-02 0. -1.
</event>
<event>
 5   0  0.1206541E-02  0.8740624E+03  0.7818609E-02  0.9458598E-01
        1   -1    0    0  501    0  0.00000000000E+00  0.00000000000E+00  0.69405169779E+03  0.69405169781E+03  0.50400001928E-02 0. -1.
       -1   -1    0    0    0  501  0.00000000000E+00  0.00000000000E+00 -0.27519025747E+03  0.27519025752E+03  0.50400001928E-02 0.  1.
    10030    2    1    2    0    0  0.00000000000E+00  0.00000000000E+00  0.41886144032E+03  0.96924195532E+03  0.87406239009E+03 0.  0.
        3    1    3    3  502    0 -0.34013413121E+03  0.21433565845E+03  0.39945392968E+03  0.56674019959E+03  0.10100000352E+00 0. -1.
       -3    1    3    3    0  502  0.34013413121E+03 -0.21433565845E+03  0.19407510636E+02  0.40250175573E+03  0.10100000352E+00 0.  1.
</event>
<event>
 5   0  0.1175993E-02  0.8912983E+03  0.7818609E-02  0.9436525E-01
       -1   -1    0    0    0  501  0.00000000000E+00  0.00000000000E+00  0.23825956572E+03  0.23825956577E+03  0.50400001928E-02 0.  1.
        1   -1    0    0  501    0  0.00000000000E+00  0.00000000000E+00 -0.83355807719E+03  0.83355807720E+03  0.50400001928E-02 0. -1.
    10030    2    1    2    0    0  0.00000000000E+00  0.00000000000E+00 -0.59529851147E+03  0.10718176430E+04  0.89129834626E+03 0.  0.
        4    1    3    3  502    0  0.43766354469E+03 -0.12818382678E+02 -0.19784692313E+03  0.48047758239E+03  0.12699999809E+01 0.  1.
       -4    1    3    3    0  502 -0.43766354469E+03  0.12818382678E+02 -0.39745158833E+03  0.59134006059E+03  0.12699999809E+01 0. -1.
</event>
<event>
 5   0  0.7893875E-03  0.9070762E+03  0.7818609E-02  0.9416779E-01
        3   -1    0    0  501    0  0.00000000000E+00  0.00000000000E+00  0.21597128529E+03  0.21597130890E+03  0.10100000352E+00 0.  1.
       -3   -1    0    0    0  501  0.00000000000E+00  0.00000000000E+00 -0.95242655832E+03  0.95242656368E+03  0.10100000352E+00 0. -1.
    10030    2    1    2    0    0  0.00000000000E+00  0.00000000000E+00 -0.73645527304E+03  0.11683978726E+04  0.90707619276E+03 0.  0.
        4    1    3    3  502    0  0.33608410991E+03  0.10506947160E+03 -0.42565871407E-01  0.35212744498E+03  0.12699999809E+01 0.  1.
       -4    1    3    3    0  502 -0.33608410991E+03 -0.10506947160E+03 -0.73641270717E+03  0.81627042760E+03  0.12699999809E+01 0. -1.
</event>
<event>
 5   0  0.1226424E-02  0.9228638E+03  0.7818609E-02  0.9397443E-01
       -1   -1    0    0    0  501  0.00000000000E+00  0.00000000000E+00  0.31393247955E+03  0.31393247959E+03  0.50400001928E-02 0.  1.
        1   -1    0    0  501    0  0.00000000000E+00  0.00000000000E+00 -0.67823315311E+03  0.67823315313E+03  0.50400001928E-02 0. -1.
    10030    2    1    2    0    0  0.00000000000E+00  0.00000000000E+00 -0.36430067356E+03  0.99216563271E+03  0.92286383718E+03 0.  0.
        1    1    3    3  502    0 -0.25536345735E+02  0.33208228518E+03 -0.52548883861E+03  0.62214891193E+03  0.50400001928E-02 0. -1.
       -1    1    3    3    0  502  0.25536345735E+02 -0.33208228518E+03  0.16118816505E+03  0.37001672078E+03  0.50400001928E-02 0.  1.
</event>
<event>
 5   0  0.2008643E-02  0.8934709E+03  0.7818609E-02  0.9433780E-01
       -2   -1    0    0    0  501  0.00000000000E+00  0.00000000000E+00  0.15198686259E+03  0.15198686261E+03  0.25500000920E-02 0. -1.
        2   -1    0    0  501    0  0.00000000000E+00  0.00000000000E+00 -0.13130909817E+04  0.13130909817E+04  0.25500000920E-02 0.  1.
    10030    2    1    2    0    0  0.00000000000E+00  0.00000000000E+00 -0.11611041191E+04  0.14650778443E+04  0.89347093657E+03 0.  0.
        3    1    3    3  502    0  0.28347041122E+02 -0.38374075744E+03 -0.95271632061E+03  0.10274867013E+04  0.10100000352E+00 0. -1.
       -3    1    3    3    0  502 -0.28347041122E+02  0.38374075744E+03 -0.20838779853E+03  0.43759114300E+03  0.10100000352E+00 0.  1.
</event>
<event>
 5   0  0.1162839E-02  0.8750837E+03  0.7818609E-02  0.9457275E-01
       -1   -1    0    0    0  501  0.00000000000E+00  0.00000000000E+00  0.91867155033E+03  0.91867155034E+03  0.50400001928E-02 0.  1.
        1   -1    0    0  501    0  0.00000000000E+00  0.00000000000E+00 -0.20839100254E+03  0.20839100260E+03  0.50400001928E-02 0. -1.
    10030    2    1    2    0    0  0.00000000000E+00  0.00000000000E+00  0.71028054779E+03  0.11270625529E+04  0.87508373409E+03 0.  0.
        2    1    3    3  502    0  0.23413720929E+03  0.51248643793E+02 -0.11631955856E+03  0.26641489444E+03  0.25500000920E-02 0. -1.
       -2    1    3    3    0  502 -0.23413720929E+03 -0.51248643793E+02  0.82660010635E+03  0.86064765851E+03  0.25500000920E-02 0.  1.
</event>
<event>
 5   0  0.2008770E-02  0.8851281E+03  0.7818609E-02  0.9444365E-01
       -2   -1    0    0    0  501  0.00000000000E+00  0.00000000000E+00  0.16868991977E+03  0.16868991979E+03  0.25500000920E-02 0.  1.
        2   -1    0    0  501    0  0.00000000000E+00  0.00000000000E+00 -0.11610826152E+04  0.11610826152E+04  0.25500000920E-02 0. -1.
    10030    2    1    2    0    0  0.00000000000E+00  0.00000000000E+00 -0.99239269544E+03  0.13297725350E+04  0.88512808841E+03 0.  0.
        1    1    3    3  502    0  0.15741363745E+03  0.12963569500E+03 -0.10862940082E+04  0.11052688084E+04  0.50400001928E-02 0. -1.
       -1    1    3    3    0  502 -0.15741363745E+03 -0.12963569500E+03  0.93901312753E+02  0.22450372656E+03  0.50400001928E-02 0.  1.
</event>
<event>
 5   0  0.1162839E-02  0.8826086E+03  0.7818609E-02  0.9447586E-01
        1   -1    0    0  501    0  0.00000000000E+00  0.00000000000E+00  0.38749670250E+03  0.38749670253E+03  0.50400001928E-02 0.  1.
       -1   -1    0    0    0  501  0.00000000000E+00  0.00000000000E+00 -0.50258358418E+03  0.50258358421E+03  0.50400001928E-02 0. -1.
    10030    2    1    2    0    0  0.00000000000E+00  0.00000000000E+00 -0.11508688168E+03  0.89008028674E+03  0.88260859190E+03 0.  0.
        2    1    3    3  502    0 -0.20151039124E+03  0.37162049597E+02 -0.45169998027E+03  0.49600436277E+03  0.25500000920E-02 0. -1.
       -2    1    3    3    0  502  0.20151039124E+03 -0.37162049597E+02  0.33661309858E+03  0.39407592397E+03  0.25500000920E-02 0.  1.
</event>
<event>
 5   0  0.1206541E-02  0.7752961E+03  0.7818609E-02  0.9596480E-01
       -1   -1    0    0    0  501  0.00000000000E+00  0.00000000000E+00  0.14502453287E+03  0.14502453296E+03  0.50400001928E-02 0. -1.
        1   -1    0    0  501    0  0.00000000000E+00  0.00000000000E+00 -0.10361763864E+04  0.10361763864E+04  0.50400001928E-02 0.  1.
    10030    2    1    2    0    0  0.00000000000E+00  0.00000000000E+00 -0.89115185349E+03  0.11812009193E+04  0.77529606335E+03 0.  0.
        3    1    3    3  502    0  0.35720152505E+03 -0.29192911210E+02 -0.67065835331E+03  0.76041290930E+03  0.10100000352E+00 0. -1.
       -3    1    3    3    0  502 -0.35720152505E+03  0.29192911210E+02 -0.22049350018E+03  0.42078801003E+03  0.10100000352E+00 0.  1.
</event>
<event>
 5   0  0.1924218E-02  0.8556924E+03  0.7818609E-02  0.9482728E-01
        2   -1    0    0  501    0  0.00000000000E+00  0.00000000000E+00  0.32559772848E+03  0.32559772849E+03  0.25500000920E-02 0.  1.
       -2   -1    0    0    0  501  0.00000000000E+00  0.00000000000E+00 -0.56220410064E+03  0.56220410064E+03  0.25500000920E-02 0. -1.
    10030    2    1    2    0    0  0.00000000000E+00  0.00000000000E+00 -0.23660637216E+03  0.88780182914E+03  0.85569241698E+03 0.  0.
        4    1    3    3  502    0  0.21593178921E+03 -0.36167364937E+03 -0.40548364715E+02  0.42317862543E+03  0.12699999809E+01 0.  1.
       -4    1    3    3    0  502 -0.21593178921E+03  0.36167364937E+03 -0.19605800744E+03  0.46462320371E+03  0.12699999809E+01 0. -1.
</event>
<event>
 5   0  0.1175993E-02  0.8115304E+03  0.7818609E-02  0.9543476E-01
        1   -1    0    0  501    0  0.00000000000E+00  0.00000000000E+00  0.25431059808E+03  0.25431059813E+03  0.50400001928E-02 0.  1.
       -1   -1    0    0    0  501  0.00000000000E+00  0.00000000000E+00 -0.64741861554E+03  0.64741861556E+03  0.50400001928E-02 0. -1.
    10030    2    1    2    0    0  0.00000000000E+00  0.00000000000E+00 -0.39310801746E+03  0.90172921369E+03  0.81153044393E+03 0.  0.
        4    1    3    3  502    0 -0.19716890371E+03 -0.23351721232E+03 -0.49312385466E+03  0.58015395713E+03  0.12699999809E+01 0. -1.
       -4    1    3    3    0  502  0.19716890371E+03  0.23351721232E+03  0.10001583720E+03  0.32157525656E+03  0.12699999809E+01 0.  1.
</event>
<event>
 5   0  0.1968763E-02  0.9034811E+03  0.7818609E-02  0.9421240E-01
       -2   -1    0    0    0  501  0.00000000000E+00  0.00000000000E+00  0.19381745734E+03  0.19381745736E+03  0.25500000920E-02 0.  1.
        2   -1    0    0  501    0  0.00000000000E+00  0.00000000000E+00 -0.10528953977E+04  0.10528953977E+04  0.25500000920E-02 0. -1.
    10030    2    1    2    0    0  0.00000000000E+00  0.00000000000E+00 -0.85907794031E+03  0.12467128550E+04  0.90348106529E+03 0.  0.
        2    1    3    3  502    0 -0.39028792004E+03 -0.21695702165E+03 -0.52388310811E+03  0.68836655986E+03  0.25500000920E-02 0.  1.
       -2    1    3    3    0  502  0.39028792004E+03  0.21695702165E+03 -0.33519483220E+03  0.55834629515E+03  0.25500000920E-02 0. -1.
</event>
<event>
 5   0  0.1206541E-02  0.8964268E+03  0.7818609E-02  0.9430059E-01
       -1   -1    0    0    0  501  0.00000000000E+00  0.00000000000E+00  0.29074490320E+03  0.29074490324E+03  0.50400001928E-02 0. -1.
        1   -1    0    0  501    0  0.00000000000E+00  0.00000000000E+00 -0.69096739794E+03  0.69096739796E+03  0.50400001928E-02 0.  1.
    10030    2    1    2    0    0  0.00000000000E+00  0.00000000000E+00 -0.40022249474E+03  0.98171230120E+03  0.89642679401E+03 0.  0.
        3    1    3    3  502    0 -0.56965643085E+02  0.17908767610E+03  0.24551463161E+03  0.30918428931E+03  0.10100000352E+00 0. -1.
       -3    1    3    3    0  502  0.56965643085E+02 -0.17908767610E+03 -0.64573712635E+03  0.67252801189E+03  0.10100000352E+00 0.  1.
</event>
<event>
 5   0  0.2008643E-02  0.9000483E+03  0.7818609E-02  0.9425521E-01
       -2   -1    0    0    0  501  0.00000000000E+00  0.00000000000E+00  0.10435136658E+04  0.10435136658E+04  0.25500000920E-02 0.  1.
        2   -1    0    0  501    0  0.00000000000E+00  0.00000000000E+00 -0.19407675821E+03  0.19407675822E+03  0.25500000920E-02 0. -1.
    10030    2    1    2    0    0  0.00000000000E+00  0.00000000000E+00  0.84943690756E+03  0.12375904240E+04  0.90004833072E+03 0.  0.
        3    1    3    3  502    0 -0.33892646274E+03  0.58970808856E+02  0.25787619848E+02  0.34498364451E+03  0.10100000352E+00 0. -1.
       -3    1    3    3    0  502  0.33892646274E+03 -0.58970808856E+02  0.82364928771E+03  0.89260677949E+03  0.10100000352E+00 0.  1.
</event>
<event>
 5   0  0.1162839E-02  0.8952456E+03  0.7818609E-02  0.9431544E-01
        1   -1    0    0  501    0  0.00000000000E+00  0.00000000000E+00  0.61689469170E+03  0.61689469172E+03  0.50400001928E-02 0. -1.
       -1   -1    0    0    0  501  0.00000000000E+00  0.00000000000E+00 -0.32479803718E+03  0.32479803722E+03  0.50400001928E-02 0.  1.
    10030    2    1    2    0    0  0.00000000000E+00  0.00000000000E+00  0.29209665452E+03  0.94169272894E+03  0.89524563119E+03 0.  0.
        2    1    3    3  502    0  0.65813742766E+02  0.38321328846E+03  0.37932508815E+03  0.54320474565E+03  0.25500000920E-02 0. -1.
       -2    1    3    3    0  502 -0.65813742766E+02 -0.38321328846E+03 -0.87228433631E+02  0.39848798329E+03  0.25500000920E-02 0.  1.
</event>
<event>
 5   0  0.1968763E-02  0.9231993E+03  0.7818609E-02  0.9397037E-01
       -2   -1    0    0    0  501  0.00000000000E+00  0.00000000000E+00  0.29162874482E+03  0.29162874483E+03  0.25500000920E-02 0.  1.
        2   -1    0    0  501    0  0.00000000000E+00  0.00000000000E+00 -0.73063530364E+03  0.73063530364E+03  0.25500000920E-02 0. -1.
    10030    2    1    2    0    0  0.00000000000E+00  0.00000000000E+00 -0.43900655882E+03  0.10222640485E+04  0.92319934257E+03 0.  0.
        2    1    3    3  502    0  0.41051549322E+03  0.97377156587E+02 -0.42686526450E+03  0.60018266790E+03  0.25500000920E-02 0. -1.
       -2    1    3    3    0  502 -0.41051549322E+03 -0.97377156587E+02 -0.12141294311E+02  0.42208138058E+03  0.25500000920E-02 0.  1.
</event>
<event>
 5   0  0.2008770E-02  0.8278748E+03  0.7818609E-02  0.9520523E-01
       -2   -1    0    0    0  501  0.00000000000E+00  0.00000000000E+00  0.57757319989E+03  0.57757319990E+03  0.25500000920E-02 0.  1.
        2   -1    0    0  501    0  0.00000000000E+00  0.00000000000E+00 -0.29666229286E+03  0.29666229287E+03  0.25500000920E-02 0. -1.
    10030    2    1    2    0    0  0.00000000000E+00  0.00000000000E+00  0.28091090703E+03  0.87423549277E+03  0.82787484509E+03 0.  0.
        1    1    3    3  502    0  0.20536454245E+03  0.15041928487E+02 -0.23874006546E+03  0.31527396624E+03  0.50400001928E-02 0. -1.
       -1    1    3    3    0  502 -0.20536454245E+03 -0.15041928487E+02  0.51965097249E+03  0.55896152653E+03  0.50400001928E-02 0.  1.
</event>
<event>
 5   0  0.1226424E-02  0.9016591E+03  0.7818609E-02  0.9423510E-01
        1   -1    0    0  501    0  0.00000000000E+00  0.00000000000E+00  0.10846749700E+04  0.10846749700E+04  0.50400001928E-02 0. -1.
       -1   -1    0    0    0  501  0.00000000000E+00  0.00000000000E+00 -0.18738081449E+03  0.18738081456E+03  0.50400001928E-02 0.  1.
    10030    2    1    2    0    0  0.00000000000E+00  0.00000000000E+00  0.89729415553E+03  0.12720557846E+04  0.90165909166E+03 0.  0.
        1    1    3    3  502    0 -0.44672687118E+03  0.43130318052E+02  0.50886929756E+03  0.67850798359E+03  0.50400001928E-02 0. -1.
       -1    1    3    3    0  502  0.44672687118E+03 -0.43130318052E+02  0.38842485797E+03  0.59354780100E+03  0.50400001928E-02 0.  1.
</event>
<event>
 5   0  0.1162839E-02  0.8822354E+03  0.7818609E-02  0.9448065E-01
       -1   -1    0    0    0  501  0.00000000000E+00  0.00000000000E+00  0.16761038440E+03  0.16761038448E+03  0.50400001928E-02 0. -1.
        1   -1    0    0  501    0  0.00000000000E+00  0.00000000000E+00 -0.11609352737E+04  0.11609352737E+04  0.50400001928E-02 0.  1.
    10030    2    1    2    0    0  0.00000000000E+00  0.00000000000E+00 -0.99332488928E+03  0.13285456582E+04  0.88223535985E+03 0.  0.
        2    1    3    3  502    0  0.25698900918E+02 -0.18166901115E+03 -0.11007474290E+04  0.11159341224E+04  0.25500000920E-02 0.  1.
       -2    1    3    3    0  502 -0.25698900918E+02  0.18166901115E+03  0.10742253967E+03  0.21261153580E+03  0.25500000920E-02 0. -1.
</event>
<event>
 5   0  0.1968763E-02  0.8999390E+03  0.7818609E-02  0.9425658E-01
        2   -1    0    0  501    0  0.00000000000E+00  0.00000000000E+00  0.65748127468E+03  0.65748127469E+03  0.25500000920E-02 0.  1.
       -2   -1    0    0    0  501  0.00000000000E+00  0.00000000000E+00 -0.30795184350E+03  0.30795184351E+03  0.25500000920E-02 0. -1.
    10030    2    1    2    0    0  0.00000000000E+00  0.00000000000E+00  0.34952943118E+03  0.96543311820E+03  0.89993904374E+03 0.  0.
        2    1    3    3  502    0 -0.27954610791E+03 -0.57345245612E+02 -0.19845973579E+03  0.34759282268E+03  0.25500000920E-02 0. -1.
       -2    1    3    3    0  502  0.27954610791E+03  0.57345245612E+02  0.54798916697E+03  0.61784029552E+03  0.25500000920E-02 0.  1.
</event>
<event>
 5   0  0.1924218E-02  0.8756558E+03  0.7818609E-02  0.9456535E-01
       -2   -1    0    0    0  501  0.00000000000E+00  0.00000000000E+00  0.31507414065E+03  0.31507414066E+03  0.25500000920E-02 0. -1.
        2   -1    0    0  501    0  0.00000000000E+00  0.00000000000E+00 -0.60840685293E+03  0.60840685294E+03  0.25500000920E-02 0.  1.
    10030    2    1    2    0    0  0.00000000000E+00  0.00000000000E+00 -0.29333271229E+03  0.92348099360E+03  0.87565579164E+03 0.  0.
        4    1    3    3  502    0 -0.27088371234E+03  0.17806406439E+03  0.16369716879E+03  0.36315722850E+03  0.12699999809E+01 0. -1.
       -4    1    3    3    0  502  0.27088371234E+03 -0.17806406439E+03 -0.45702988107E+03  0.56032376510E+03  0.12699999809E+01 0.  1.
</event>
<event>
 5   0  0.2008643E-02  0.9014924E+03  0.7818609E-02  0.9423718E-01
        2   -1    0    0  501    0  0.00000000000E+00  0.00000000000E+00  0.54547277919E+03  0.54547277919E+03  0.25500000920E-02 0.  1.
       -2   -1    0    0    0  501  0.00000000000E+00  0.00000000000E+00 -0.37246977711E+03  0.37246977712E+03  0.25500000920E-02 0. -1.
    10030    2    1    2    0    0  0.00000000000E+00  0.00000000000E+00  0.17300300208E+03  0.91794255631E+03  0.90149237266E+03 0.  0.
        3    1    3    3  502    0 -0.48625824531E+02 -0.41229966156E+03 -0.92248493782E+02  0.42528258433E+03  0.10100000352E+00 0. -1.
       -3    1    3    3    0  502  0.48625824531E+02  0.41229966156E+03  0.26525149586E+03  0.49265997198E+03  0.10100000352E+00 0.  1.
</event>
<event>
 5   0  0.2041861E-02  0.8768729E+03  0.7818609E-02  0.9454962E-01
        2   -1    0    0  501    0  0.00000000000E+00  0.00000000000E+00  0.73351029189E+03  0.73351029190E+03  0.25500000920E-02 0. -1.
       -2   -1    0    0    0  501  0.00000000000E+00  0.00000000000E+00 -0.26206385561E+03  0.26206385563E+03  0.25500000920E-02 0.  1.
    10030    2    1    2    0    0  0.00000000000E+00  0.00000000000E+00  0.47144643628E+03  0.99557414752E+03  0.87687293317E+03 0.  0.
        5    1    3    3  502    0  0.14646540851E+03 -0.71690210964E+02  0.69776787475E+03  0.71658474674E+03  0.46999998093E+01 0. -1.
       -5    1    3    3    0  502 -0.14646540851E+03  0.71690210964E+02 -0.22632143847E+03  0.27898940078E+03  0.46999998093E+01 0.  1.
</event>
<event>
 5   0  0.1175993E-02  0.9419341E+03  0.7818609E-02  0.9374628E-01
        1   -1    0    0  501    0  0.00000000000E+00  0.00000000000E+00  0.10396967459E+04  0.10396967459E+04  0.50400001928E-02 0. -1.
       -1   -1    0    0    0  501  0.00000000000E+00  0.00000000000E+00 -0.21334102090E+03  0.21334102096E+03  0.50400001928E-02 0.  1.
    10030    2    1    2    0    0  0.00000000000E+00  0.00000000000E+00  0.82635572500E+03  0.12530377669E+04  0.94193410649E+03 0.  0.
        4    1    3    3  502    0 -0.35702415252E+03 -0.14126134169E+03  0.50356246312E+02  0.38724459529E+03  0.12699999809E+01 0.  1.
       -4    1    3    3    0  502  0.35702415252E+03  0.14126134169E+03  0.77599947869E+03  0.86579317159E+03  0.12699999809E+01 0. -1.
</event>
<event>
 5   0  0.1206541E-02  0.8969700E+03  0.7818609E-02  0.9429377E-01
       -1   -1    0    0    0  501  0.00000000000E+00  0.00000000000E+00  0.28464250816E+03  0.28464250821E+03  0.50400001928E-02 0.  1.
        1   -1    0    0  501    0  0.00000000000E+00  0.00000000000E+00 -0.70663656359E+03  0.70663656361E+03  0.50400001928E-02 0. -1.
    10030    2    1    2    0    0  0.00000000000E+00  0.00000000000E+00 -0.42199405543E+03  0.99127907182E+03  0.89697001924E+03 0.  0.
        3    1    3    3  502    0 -0.16319814047E+03 -0.32812537878E+02 -0.67123054262E+03  0.69156398637E+03  0.10100000352E+00 0. -1.
       -3    1    3    3    0  502  0.16319814047E+03  0.32812537878E+02  0.24923648719E+03  0.29971508545E+03  0.10100000352E+00 0.  1.
</event>
<event>
 5   0  0.1175993E-02  0.8279962E+03  0.7818609E-02  0.9520355E-01
        1   -1    0    0  501    0  0.00000000000E+00  0.00000000000E+00  0.47331107682E+03  0.47331107685E+03  0.50400001928E-02 0. -1.
       -1   -1    0    0    0  501  0.00000000000E+00  0.00000000000E+00 -0.36211789734E+03  0.36211789737E+03  0.50400001928E-02 0.  1.
    10030    2    1    2    0    0  0.00000000000E+00  0.00000000000E+00  0.11119317948E+03  0.83542897422E+03  0.82799616412E+03 0.  0.
        4    1    3    3  502    0 -0.12752155882E+03  0.31016075769E+03  0.30053360633E+03  0.45031489539E+03  0.12699999809E+01 0. -1.
       -4    1    3    3    0  502  0.12752155882E+03 -0.31016075769E+03 -0.18934042684E+03  0.38511407883E+03  0.12699999809E+01 0.  1.
</event>
<event>
 5   0  0.1924218E-02  0.9097438E+03  0.7818609E-02  0.9413483E-01
        2   -1    0    0  501    0  0.00000000000E+00  0.00000000000E+00  0.80589818544E+03  0.80589818544E+03  0.25500000920E-02 0. -1.
       -2   -1    0    0    0  501  0.00000000000E+00  0.00000000000E+00 -0.25674263539E+03  0.25674263541E+03  0.25500000920E-02 0.  1.
    10030    2    1    2    0    0  0.00000000000E+00  0.00000000000E+00  0.54915555004E+03  0.10626408208E+04  0.90974375292E+03 0.  0.
        4    1    3    3  502    0 -0.52319513470E+02  0.41843700611E+03  0.75389279139E+02  0.42838302474E+03  0.12699999809E+01 0. -1.
       -4    1    3    3    0  502  0.52319513470E+02 -0.41843700611E+03  0.47376627090E+03  0.63425779611E+03  0.12699999809E+01 0.  1.
</event>
<event>
 5   0  0.1924218E-02  0.9684280E+03  0.7818609E-02  0.9343867E-01
        2   -1    0    0  501    0  0.00000000000E+00  0.00000000000E+00  0.10752593058E+04  0.10752593058E+04  0.25500000920E-02 0. -1.
       -2   -1    0    0    0  501  0.00000000000E+00  0.00000000000E+00 -0.21805269542E+03  0.21805269543E+03  0.25500000920E-02 0.  1.
    10030    2    1    2    0    0  0.00000000000E+00  0.00000000000E+00  0.85720661036E+03  0.12933120012E+04  0.96842798371E+03 0.  0.
        4    1    3    3  502    0  0.95903178780E+02 -0.43198133775E+03  0.16603275578E+03  0.47262435903E+03  0.12699999809E+01 0.  1.
       -4    1    3    3    0  502 -0.95903178780E+02  0.43198133775E+03  0.69117385458E+03  0.82068764218E+03  0.12699999809E+01 0. -1.
</event>
<event>
 5   0  0.1177712E-02  0.8901909E+03  0.7818609E-02  0.9437927E-01
       -1   -1    0    0    0  501  0.00000000000E+00  0.00000000000E+00  0.29272376426E+03  0.29272376430E+03  0.50400001928E-02 0. -1.
        1   -1    0    0  501    0  0.00000000000E+00  0.00000000000E+00 -0.67678130688E+03  0.67678130690E+03  0.50400001928E-02 0.  1.
    10030    2    1    2    0    0  0.00000000000E+00  0.00000000000E+00 -0.38405754262E+03  0.96950507120E+03  0.89019092729E+03 0.  0.
        5    1    3    3  502    0 -0.20401306446E+03  0.17283058976E+03 -0.57953362877E+03  0.63825783199E+03  0.46999998093E+01 0.  1.
       -5    1    3    3    0  502  0.20401306446E+03 -0.17283058976E+03  0.19547608615E+03  0.33124723920E+03  0.46999998093E+01 0. -1.
</event>
<event>
 5   0  0.1968763E-02  0.9032822E+03  0.7818609E-02  0.9421488E-01
        2   -1    0    0  501    0  0.00000000000E+00  0.00000000000E+00  0.11871324258E+04  0.11871324258E+04  0.25500000920E-02 0. -1.
       -2   -1    0    0    0  501  0.00000000000E+00  0.00000000000E+00 -0.17182553814E+03  0.17182553816E+03  0.25500000920E-02 0.  1.
    10030    2    1    2    0    0  0.00000000000E+00  0.00000000000E+00  0.10153068876E+04  0.13589579639E+04  0.90328216614E+03 0.  0.
        2    1    3    3  502    0 -0.29188362362E+03  0.10780303088E+03  0.10001500534E+04  0.10474338512E+04  0.25500000920E-02 0. -1.
       -2    1    3    3    0  502  0.29188362362E+03 -0.10780303088E+03  0.15156834210E+02  0.31152411277E+03  0.25500000920E-02 0.  1.
</event>
<event>
 5   0  0.1162839E-02  0.8755752E+03  0.7818609E-02  0.9456639E-01
        1   -1    0    0  501    0  0.00000000000E+00  0.00000000000E+00  0.12861760579E+04  0.12861760579E+04  0.50400001928E-02 0.  1.
       -1   -1    0    0    0  501  0.00000000000E+00  0.00000000000E+00 -0.14901378469E+03  0.14901378477E+03  0.50400001928E-02 0. -1.
    10030    2    1    2    0    0  0.00000000000E+00  0.00000000000E+00  0.11371622732E+04  0.14351898427E+04  0.87557515323E+03 0.  0.
        2    1    3    3  502    0  0.35845874377E+03  0.23833285626E+03  0.43783223731E+03  0.61399697833E+03  0.25500000920E-02 0. -1.
       -2    1    3    3    0  502 -0.35845874377E+03 -0.23833285626E+03  0.69933003593E+03  0.82119286438E+03  0.25500000920E-02 0.  1.
</event>
<event>
 5   0  0.1206541E-02  0.9046139E+03  0.7818609E-02  0.9419832E-01
       -1   -1    0    0    0  501  0.00000000000E+00  0.00000000000E+00  0.88506671608E+02  0.88506671751E+02  0.50400001928E-02 0. -1.
        1   -1    0    0  501    0  0.00000000000E+00  0.00000000000E+00 -0.23114821056E+04  0.23114821056E+04  0.50400001928E-02 0.  1.
    10030    2    1    2    0    0  0.00000000000E+00  0.00000000000E+00 -0.22229754339E+04  0.23999887773E+04  0.90461392389E+03 0.  0.
        3    1    3    3  502    0  0.44738727098E+03  0.54604965504E+02 -0.10106540674E+04  0.11065978161E+04  0.10100000352E+00 0. -1.
       -3    1    3    3    0  502 -0.44738727098E+03 -0.54604965504E+02 -0.12123213665E+04  0.12933909612E+04  0.10100000352E+00 0.  1.
</event>
<event>
 5   0  0.2041861E-02  0.9011897E+03  0.7818609E-02  0.9424095E-01
        2   -1    0    0  501    0  0.00000000000E+00  0.00000000000E+00  0.43184089510E+03  0.43184089510E+03  0.25500000920E-02 0. -1.
       -2   -1    0    0    0  501  0.00000000000E+00  0.00000000000E+00 -0.47016323383E+03  0.47016323383E+03  0.25500000920E-02 0.  1.
    10030    2    1    2    0    0  0.00000000000E+00  0.00000000000E+00 -0.38322338730E+02  0.90200412894E+03  0.90118968424E+03 0.  0.
        5    1    3    3  502    0 -0.30222481560E+02  0.33311752154E+03 -0.32131632208E+03  0.46383935838E+03  0.46999998093E+01 0.  1.
       -5    1    3    3    0  502  0.30222481560E+02 -0.33311752154E+03  0.28299398335E+03  0.43816477056E+03  0.46999998093E+01 0. -1.
</event>
<event>
 5   0  0.2008770E-02  0.9078090E+03  0.7818609E-02  0.9415872E-01
       -2   -1    0    0    0  501  0.00000000000E+00  0.00000000000E+00  0.34804634151E+03  0.34804634152E+03  0.25500000920E-02 0.  1.
        2   -1    0    0  501    0  0.00000000000E+00  0.00000000000E+00 -0.59195932419E+03  0.59195932420E+03  0.25500000920E-02 0. -1.
    10030    2    1    2    0    0  0.00000000000E+00  0.00000000000E+00 -0.24391298268E+03  0.94000566571E+03  0.90780896033E+03 0.  0.
        1    1    3    3  502    0  0.30966516999E+03 -0.33156598420E+03 -0.10728507255E+03  0.46619588823E+03  0.50400001928E-02 0.  1.
       -1    1    3    3    0  502 -0.30966516999E+03  0.33156598420E+03 -0.13662791013E+03  0.47380977748E+03  0.50400001928E-02 0. -1.
</event>
<event>
 5   0  0.1175993E-02  0.9194996E+03  0.7818609E-02  0.9401529E-01
        1   -1    0    0  501    0  0.00000000000E+00  0.00000000000E+00  0.13873483844E+04  0.13873483844E+04  0.50400001928E-02 0. -1.
       -1   -1    0    0    0  501  0.00000000000E+00  0.00000000000E+00 -0.15235530833E+03  0.15235530841E+03  0.50400001928E-02 0.  1.
    10030    2    1    2    0    0  0.00000000000E+00  0.00000000000E+00  0.12349930761E+04  0.15397036928E+04  0.91949962683E+03 0.  0.
        4    1    3    3  502    0 -0.25440992984E+03  0.41517501822E+02 -0.19959149712E+02  0.25854998727E+03  0.12699999809E+01 0.  1.
       -4    1    3    3    0  502  0.25440992984E+03 -0.41517501822E+02  0.12549522258E+04  0.12811537056E+04  0.12699999809E+01 0. -1.
</event>
<event>
 5   0  0.1175993E-02  0.8029122E+03  0.7818609E-02  0.9555811E-01
        1   -1    0    0  501    0  0.00000000000E+00  0.00000000000E+00  0.72473055734E+03  0.72473055736E+03  0.50400001928E-02 0. -1.
       -1   -1    0    0    0  501  0.00000000000E+00  0.00000000000E+00 -0.22238196779E+03  0.22238196784E+03  0.50400001928E-02 0.  1.
    10030    2    1    2    0    0  0.00000000000E+00  0.00000000000E+00  0.50234858956E+03  0.94711252520E+03  0.80291221810E+03 0.  0.
        4    1    3    3  502    0 -0.16628211834E+03 -0.92441105689E-01 -0.17984785571E+03  0.24494206566E+03  0.12699999809E+01 0.  1.
       -4    1    3    3    0  502  0.16628211834E+03  0.92441105689E-01  0.68219644527E+03  0.70217045955E+03  0.12699999809E+01 0. -1.
</event>
<event>
 5   0  0.1206541E-02  0.8891790E+03  0.7818609E-02  0.9439210E-01
        1   -1    0    0  501    0  0.00000000000E+00  0.00000000000E+00  0.14720153326E+04  0.14720153326E+04  0.50400001928E-02 0.  1.
       -1   -1    0    0    0  501  0.00000000000E+00  0.00000000000E+00 -0.13427837990E+03  0.13427838000E+03  0.50400001928E-02 0. -1.
    10030    2    1    2    0    0  0.00000000000E+00  0.00000000000E+00  0.13377369526E+04  0.16062937126E+04  0.88917902389E+03 0.  0.
        3    1    3    3  502    0  0.26609891056E+03 -0.36589618574E+02  0.28869828625E+02  0.27014978733E+03  0.10100000352E+00 0. -1.
       -3    1    3    3    0  502 -0.26609891056E+03  0.36589618574E+02  0.13088671240E+04  0.13361439252E+04  0.10100000352E+00 0.  1.
</event>
<event>
 5   0  0.1924218E-02  0.8766807E+03  0.7818609E-02  0.9455210E-01
        2   -1    0    0  501    0  0.00000000000E+00  0.00000000000E+00  0.13194473345E+04  0.13194473345E+04  0.25500000920E-02 0. -1.
       -2   -1    0    0    0  501  0.00000000000E+00  0.00000000000E+00 -0.14562328794E+03  0.14562328797E+03  0.25500000920E-02 0.  1.
    10030    2    1    2    0    0  0.00000000000E+00  0.00000000000E+00  0.11738240466E+04  0.14650706225E+04  0.87668069248E+03 0.  0.
        4    1    3    3  502    0  0.12326022245E+03 -0.21439441673E+03 -0.17904876792E+02  0.24795210400E+03  0.12699999809E+01 0.  1.
       -4    1    3    3    0  502 -0.12326022245E+03  0.21439441673E+03  0.11917289234E+04  0.12171185185E+04  0.12699999809E+01 0. -1.
</event>
<event>
 5   0  0.1177712E-02  0.8277497E+03  0.7818609E-02  0.9520697E-01
       -1   -1    0    0    0  501  0.00000000000E+00  0.00000000000E+00  0.75230668453E+02  0.75230668622E+02  0.50400001928E-02 0.  1.
        1   -1    0    0  501    0  0.00000000000E+00  0.00000000000E+00 -0.22768958897E+04  0.22768958897E+04  0.50400001928E-02 0. -1.
    10030    2    1    2    0    0  0.00000000000E+00  0.00000000000E+00 -0.22016652213E+04  0.23521265583E+04  0.82774972060E+03 0.  0.
        5    1    3    3  502    0 -0.30686543478E+03  0.15734282892E+03 -0.17509745165E+04  0.17846167679E+04  0.46999998093E+01 0. -1.
       -5    1    3    3    0  502  0.30686543478E+03 -0.15734282892E+03 -0.45069070473E+03  0.56750979040E+03  0.46999998093E+01 0.  1.
</event>
<event>
 5   0  0.2008643E-02  0.8998875E+03  0.7818609E-02  0.9425722E-01
        2   -1    0    0  501    0  0.00000000000E+00  0.00000000000E+00  0.80353999864E+03  0.80353999865E+03  0.25500000920E-02 0. -1.
       -2   -1    0    0    0  501  0.00000000000E+00  0.00000000000E+00 -0.25194688075E+03  0.25194688076E+03  0.25500000920E-02 0.  1.
    10030    2    1    2    0    0  0.00000000000E+00  0.00000000000E+00  0.55159311790E+03  0.10554868794E+04  0.89988754014E+03 0.  0.
        3    1    3    3  502    0  0.39732309150E+03 -0.18960400753E+02  0.29138766931E+02  0.39884108837E+03  0.10100000352E+00 0.  1.
       -3    1    3    3    0  502 -0.39732309150E+03  0.18960400753E+02  0.52245435097E+03  0.65664579103E+03  0.10100000352E+00 0. -1.
</event>
<event>
 5   0  0.2008643E-02  0.8962165E+03  0.7818609E-02  0.9430323E-01
        2   -1    0    0  501    0  0.00000000000E+00  0.00000000000E+00  0.15657142354E+04  0.15657142354E+04  0.25500000920E-02 0.  1.
       -2   -1    0    0    0  501  0.00000000000E+00  0.00000000000E+00 -0.12824880941E+03  0.12824880944E+03  0.25500000920E-02 0. -1.
    10030    2    1    2    0    0  0.00000000000E+00  0.00000000000E+00  0.14374654260E+04  0.16939630448E+04  0.89621646178E+03 0.  0.
        3    1    3    3  502    0  0.16544996558E+03 -0.70798379110E+02  0.14944102917E+04  0.15052070395E+04  0.10100000352E+00 0.  1.
       -3    1    3    3    0  502 -0.16544996558E+03  0.70798379110E+02 -0.56944865769E+02  0.18875600529E+03  0.10100000352E+00 0. -1.
</event>
<event>
 5   0  0.1177712E-02  0.9390971E+03  0.7818609E-02  0.9377986E-01
        1   -1    0    0  501    0  0.00000000000E+00  0.00000000000E+00  0.43099986316E+03  0.43099986319E+03  0.50400001928E-02 0.  1.
       -1   -1    0    0    0  501  0.00000000000E+00  0.00000000000E+00 -0.51154508736E+03  0.51154508738E+03  0.50400001928E-02 0. -1.
    10030    2    1    2    0    0  0.00000000000E+00  0.00000000000E+00 -0.80545224199E+02  0.94254495057E+03  0.93909714658E+03 0.  0.
        5    1    3    3  502    0 -0.35275460570E+03  0.25685970070E+03 -0.21423250851E+03  0.48613822662E+03  0.46999998093E+01 0. -1.
       -5    1    3    3    0  502  0.35275460570E+03 -0.25685970070E+03  0.13368728431E+03  0.45640672395E+03  0.46999998093E+01 0.  1.
</event>
<event>
 5   0  0.7893875E-03  0.8848405E+03  0.7818609E-02  0.9444732E-01
       -3   -1    0    0    0  501  0.00000000000E+00  0.00000000000E+00  0.16491565756E+03  0.16491568849E+03  0.10100000352E+00 0. -1.
        3   -1    0    0  501    0  0.00000000000E+00  0.00000000000E+00 -0.11868835129E+04  0.11868835172E+04  0.10100000352E+00 0.  1.
    10030    2    1    2    0    0  0.00000000000E+00  0.00000000000E+00 -0.10219678554E+04  0.13517992057E+04  0.88484054788E+03 0.  0.
        5    1    3    3  502    0 -0.71706177148E+02  0.12966042891E+03 -0.11478118285E+04  0.11573451025E+04  0.46999998093E+01 0.  1.
       -5    1    3    3    0  502  0.71706177148E+02 -0.12966042891E+03  0.12584397316E+03  0.19445410318E+03  0.46999998093E+01 0. -1.
</event>
<event>
 5   0  0.7893875E-03  0.8936795E+03  0.7818609E-02  0.9433517E-01
        3   -1    0    0  501    0  0.00000000000E+00  0.00000000000E+00  0.12747778970E+03  0.12747782971E+03  0.10100000352E+00 0. -1.
       -3   -1    0    0    0  501  0.00000000000E+00  0.00000000000E+00 -0.15662786016E+04  0.15662786048E+04  0.10100000352E+00 0.  1.
    10030    2    1    2    0    0  0.00000000000E+00  0.00000000000E+00 -0.14388008119E+04  0.16937564345E+04  0.89367951933E+03 0.  0.
        3    1    3    3  502    0  0.16685425570E+03  0.34589690521E+03 -0.11523370107E+04  0.12146462893E+04  0.10100000352E+00 0.  1.
       -3    1    3    3    0  502 -0.16685425570E+03 -0.34589690521E+03 -0.28646380115E+03  0.47911014521E+03  0.10100000352E+00 0. -1.
</event>
<event>
 5   0  0.1177712E-02  0.9060637E+03  0.7818609E-02  0.9418033E-01
       -1   -1    0    0    0  501  0.00000000000E+00  0.00000000000E+00  0.16849951674E+03  0.16849951682E+03  0.50400001928E-02 0.  1.
        1   -1    0    0  501    0  0.00000000000E+00  0.00000000000E+00 -0.12180321895E+04  0.12180321895E+04  0.50400001928E-02 0. -1.
    10030    2    1    2    0    0  0.00000000000E+00  0.00000000000E+00 -0.10495326727E+04  0.13865317063E+04  0.90606365198E+03 0.  0.
        5    1    3    3  502    0 -0.25565621136E+03  0.35798710591E+03 -0.35923495468E+03  0.56796717252E+03  0.46999998093E+01 0.  1.
       -5    1    3    3    0  502  0.25565621136E+03 -0.35798710591E+03 -0.69029771804E+03  0.81856453376E+03  0.46999998093E+01 0. -1.
</event>
<event>
 5   0  0.2008643E-02  0.8507595E+03  0.7818609E-02  0.9489318E-01
        2   -1    0    0  501    0  0.00000000000E+00  0.00000000000E+00  0.32765189508E+03  0.32765189509E+03  0.25500000920E-02 0. -1.
       -2   -1    0    0    0  501  0.00000000000E+00  0.00000000000E+00 -0.55225668949E+03  0.55225668949E+03  0.25500000920E-02 0.  1.
    10030    2    1    2    0    0  0.00000000000E+00  0.00000000000E+00 -0.22460479441E+03  0.87990858458E+03  0.85075954508E+03 0.  0.
        3    1    3    3  502    0 -0.25896284906E+03 -0.29851823635E+03  0.50484868888E+02  0.39840133887E+03  0.10100000352E+00 0. -1.
       -3    1    3    3    0  502  0.25896284906E+03  0.29851823635E+03 -0.27508966329E+03  0.48150724571E+03  0.10100000352E+00 0.  1.
</event>
<event>
 5   0  0.1177712E-02  0.9106533E+03  0.7818609E-02  0.9412361E-01
        1   -1    0    0  501    0  0.00000000000E+00  0.00000000000E+00  0.42149387854E+03  0.42149387857E+03  0.50400001928E-02 0.  1.
       -1   -1    0    0    0  501  0.00000000000E+00  0.00000000000E+00 -0.49187516020E+03  0.49187516023E+03  0.50400001928E-02 0. -1.
    10030    2    1    2    0    0  0.00000000000E+00  0.00000000000E+00 -0.70381281660E+02  0.91336903879E+03  0.91065332384E+03 0.  0.
        5    1    3    3  502    0  0.36310473235E+03  0.19284612954E+03  0.16100867471E+03  0.44156603092E+03  0.46999998093E+01 0.  1.
       -5    1    3    3    0  502 -0.36310473235E+03 -0.19284612954E+03 -0.23138995637E+03  0.47180300787E+03  0.46999998093E+01 0. -1.
</event>
<event>
 5   0  0.1968763E-02  0.8950445E+03  0.7818609E-02  0.9431797E-01
       -2   -1    0    0    0  501  0.00000000000E+00  0.00000000000E+00  0.52660399327E+03  0.52660399328E+03  0.25500000920E-02 0.  1.
        2   -1    0    0  501    0  0.00000000000E+00  0.00000000000E+00 -0.38031642346E+03  0.38031642347E+03  0.25500000920E-02 0. -1.
    10030    2    1    2    0    0  0.00000000000E+00  0.00000000000E+00  0.14628756981E+03  0.90692041674E+03  0.89504446215E+03 0.  0.
        2    1    3    3  502    0  0.68940947832E+02  0.41792453996E+03 -0.73210826419E+02  0.42985299871E+03  0.25500000920E-02 0.  1.
       -2    1    3    3    0  502 -0.68940947832E+02 -0.41792453996E+03  0.21949839623E+03  0.47706741803E+03  0.25500000920E-02 0. -1.
</event>
<event>
 5   0  0.2008770E-02  0.8505395E+03  0.7818609E-02  0.9489613E-01
        2   -1    0    0  501    0  0.00000000000E+00  0.00000000000E+00  0.45119949199E+03  0.45119949199E+03  0.25500000920E-02 0. -1.
       -2   -1    0    0    0  501  0.00000000000E+00  0.00000000000E+00 -0.40083017163E+03  0.40083017164E+03  0.25500000920E-02 0.  1.
    10030    2    1    2    0    0  0.00000000000E+00  0.00000000000E+00  0.50369320352E+02  0.85202966364E+03  0.85053952247E+03 0.  0.
        1    1    3    3  502    0 -0.25885711952E+03 -0.24449258101E+03  0.25812321134E+03  0.43978542808E+03  0.50400001928E-02 0. -1.
       -1    1    3    3    0  502  0.25885711952E+03  0.24449258101E+03 -0.20775389098E+03  0.41224423555E+03  0.50400001928E-02 0.  1.
</event>
<event>
 5   0  0.1226424E-02  0.9030898E+03  0.7818609E-02  0.9421727E-01
       -1   -1    0    0    0  501  0.00000000000E+00  0.00000000000E+00  0.19567955030E+03  0.19567955037E+03  0.50400001928E-02 0.  1.
        1   -1    0    0  501    0  0.00000000000E+00  0.00000000000E+00 -0.10419728559E+04  0.10419728560E+04  0.50400001928E-02 0. -1.
    10030    2    1    2    0    0  0.00000000000E+00  0.00000000000E+00 -0.84629330564E+03  0.12376524063E+04  0.90308976282E+03 0.  0.
        1    1    3    3  502    0  0.12575000497E+03 -0.10501286997E+03  0.15351119407E+03  0.22451381547E+03  0.50400001928E-02 0.  1.
       -1    1    3    3    0  502 -0.12575000497E+03  0.10501286997E+03 -0.99980449971E+03  0.10131385909E+04  0.50400001928E-02 0. -1.
</event>
<event>
 5   0  0.1924218E-02  0.9084185E+03  0.7818609E-02  0.9415119E-01
       -2   -1    0    0    0  501  0.00000000000E+00  0.00000000000E+00  0.91627154981E+02  0.91627155016E+02  0.25500000920E-02 0.  1.
        2   -1    0    0  501    0  0.00000000000E+00  0.00000000000E+00 -0.22515817102E+04  0.22515817102E+04  0.25500000920E-02 0. -1.
    10030    2    1    2    0    0  0.00000000000E+00  0.00000000000E+00 -0.21599545552E+04  0.23432088652E+04  0.90841846382E+03 0.  0.
        4    1    3    3  502    0 -0.40248596676E+03  0.12318903996E+03 -0.15202527726E+04  0.15774474947E+04  0.12699999809E+01 0. -1.
       -4    1    3    3    0  502  0.40248596676E+03 -0.12318903996E+03 -0.63970178258E+03  0.76576137049E+03  0.12699999809E+01 0.  1.
</event>
<event>
 5   0  0.1924218E-02  0.9066262E+03  0.7818609E-02  0.9417336E-01
       -2   -1    0    0    0  501  0.00000000000E+00  0.00000000000E+00  0.26920558956E+03  0.26920558957E+03  0.25500000920E-02 0.  1.
        2   -1    0    0  501    0  0.00000000000E+00  0.00000000000E+00 -0.76333032014E+03  0.76333032015E+03  0.25500000920E-02 0. -1.
    10030    2    1    2    0    0  0.00000000000E+00  0.00000000000E+00 -0.49412473058E+03  0.10325359097E+04  0.90662624906E+03 0.  0.
        4    1    3    3  502    0  0.17294857856E+03  0.82956827361E+02 -0.71483198255E+03  0.74012122130E+03  0.12699999809E+01 0. -1.
       -4    1    3    3    0  502 -0.17294857856E+03 -0.82956827361E+02  0.22070725197E+03  0.29241468842E+03  0.12699999809E+01 0.  1.
</event>
<event>
 5   0  0.2008643E-02  0.8840738E+03  0.7818609E-02  0.9445712E-01
       -2   -1    0    0    0  501  0.00000000000E+00  0.00000000000E+00  0.95323626461E+03  0.95323626462E+03  0.25500000920E-02 0.  1.
        2   -1    0    0  501    0  0.00000000000E+00  0.00000000000E+00 -0.20498236059E+03  0.20498236060E+03  0.25500000920E-02 0. -1.
    10030    2    1    2    0    0  0.00000000000E+00  0.00000000000E+00  0.74825390403E+03  0.11582186252E+04  0.88407379721E+03 0.  0.
        3    1    3    3  502    0 -0.65933482189E+02 -0.22692467406E+03 -0.11528443437E+03  0.26293068056E+03  0.10100000352E+00 0. -1.
       -3    1    3    3    0  502  0.65933482189E+02  0.22692467406E+03  0.86353833840E+03  0.89528794466E+03  0.10100000352E+00 0.  1.
</event>
<event>
 5   0  0.1175993E-02  0.9084394E+03  0.7818609E-02  0.9415093E-01
       -1   -1    0    0    0  501  0.00000000000E+00  0.00000000000E+00  0.95909001556E+03  0.95909001557E+03  0.50400001928E-02 0. -1.
        1   -1    0    0  501    0  0.00000000000E+00  0.00000000000E+00 -0.21511592002E+03  0.21511592008E+03  0.50400001928E-02 0.  1.
    10030    2    1    2    0    0  0.00000000000E+00  0.00000000000E+00  0.74397409553E+03  0.11742059357E+04  0.90843938956E+03 0.  0.
        4    1    3    3  502    0  0.83078043973E+02  0.18822632644E+03  0.89540362432E+03  0.91873846915E+03  0.12699999809E+01 0. -1.
       -4    1    3    3    0  502 -0.83078043973E+02 -0.18822632644E+03 -0.15142952878E+03  0.25546746650E+03  0.12699999809E+01 0.  1.
</event>
<event>
 5   0  0.1162839E-02  0.9026344E+03  0.7818609E-02  0.9422294E-01
        1   -1    0    0  501    0  0.00000000000E+00  0.00000000000E+00  0.31327538969E+03  0.31327538973E+03  0.50400001928E-02 0.  1.
       -1   -1    0    0    0  501  0.00000000000E+00  0.00000000000E+00 -0.65018585740E+03  0.65018585742E+03  0.50400001928E-02 0. -1.
    10030    2    1    2    0    0  0.00000000000E+00  0.00000000000E+00 -0.33691046771E+03  0.96346124715E+03  0.90263442850E+03 0.  0.
        2    1    3    3  502    0  0.22129820485E+03  0.26383429275E+02  0.25044291826E+03  0.33524712694E+03  0.25500000920E-02 0.  1.
       -2    1    3    3    0  502 -0.22129820485E+03 -0.26383429275E+02 -0.58735338597E+03  0.62821412021E+03  0.25500000920E-02 0. -1.
</event>
<event>
 5   0  0.2008643E-02  0.7615364E+03  0.7818609E-02  0.9617423E-01
       -2   -1    0    0    0  501  0.00000000000E+00  0.00000000000E+00  0.73081068531E+02  0.73081068575E+02  0.25500000920E-02 0.  1.
        2   -1    0    0  501    0  0.00000000000E+00  0.00000000000E+00 -0.19838846797E+04  0.19838846797E+04  0.25500000920E-02 0. -1.
    10030    2    1    2    0    0  0.00000000000E+00  0.00000000000E+00 -0.19108036112E+04  0.20569657483E+04  0.76153637414E+03 0.  0.
        3    1    3    3  502    0  0.30507386282E+02 -0.97598205594E+02 -0.19461042212E+04  0.19487887932E+04  0.10100000352E+00 0. -1.
       -3    1    3    3    0  502 -0.30507386282E+02  0.97598205594E+02  0.35300610020E+02  0.10817695513E+03  0.10100000352E+00 0.  1.
</event>
<event>
 5   0  0.1924218E-02  0.8801199E+03  0.7818609E-02  0.9450779E-01
        2   -1    0    0  501    0  0.00000000000E+00  0.00000000000E+00  0.57473376349E+03  0.57473376350E+03  0.25500000920E-02 0.  1.
       -2   -1    0    0    0  501  0.00000000000E+00  0.00000000000E+00 -0.33694345574E+03  0.33694345575E+03  0.25500000920E-02 0. -1.
    10030    2    1    2    0    0  0.00000000000E+00  0.00000000000E+00  0.23779030775E+03  0.91167721925E+03  0.88011994731E+03 0.  0.
        4    1    3    3  502    0 -0.30614171333E+03 -0.20045068878E+03  0.37209340859E+03  0.52187962682E+03  0.12699999809E+01 0.  1.
       -4    1    3    3    0  502  0.30614171333E+03  0.20045068878E+03 -0.13430310084E+03  0.38979759243E+03  0.12699999809E+01 0. -1.
</event>
<event>
 5   0  0.1924218E-02  0.9079275E+03  0.7818609E-02  0.9415726E-01
       -2   -1    0    0    0  501  0.00000000000E+00  0.00000000000E+00  0.31859146983E+03  0.31859146984E+03  0.25500000920E-02 0. -1.
        2   -1    0    0  501    0  0.00000000000E+00  0.00000000000E+00 -0.64685683702E+03  0.64685683703E+03  0.25500000920E-02 0.  1.
    10030    2    1    2    0    0  0.00000000000E+00  0.00000000000E+00 -0.32826536719E+03  0.96544830687E+03  0.90792746513E+03 0.  0.
        4    1    3    3  502    0  0.36154712606E+02 -0.54439100874E+01  0.31702138365E+03  0.31912532020E+03  0.12699999809E+01 0. -1.
       -4    1    3    3    0  502 -0.36154712606E+02  0.54439100874E+01 -0.64528675084E+03  0.64632298668E+03  0.12699999809E+01 0.  1.
</event>
<event>
 5   0  0.1206541E-02  0.9069750E+03  0.7818609E-02  0.9416904E-01
        1   -1    0    0  501    0  0.00000000000E+00  0.00000000000E+00  0.35428629841E+03  0.35428629844E+03  0.50400001928E-02 0. -1.
       -1   -1    0    0    0  501  0.00000000000E+00  0.00000000000E+00 -0.58046534926E+03  0.58046534928E+03  0.50400001928E-02 0.  1.
    10030    2    1    2    0    0  0.00000000000E+00  0.00000000000E+00 -0.22617905085E+03  0.93475164772E+03  0.90697501612E+03 0.  0.
        3    1    3    3  502    0 -0.44977396494E+03  0.45043303012E+02 -0.75568652179E+02  0.45829701077E+03  0.10100000352E+00 0.  1.
       -3    1    3    3    0  502  0.44977396494E+03 -0.45043303012E+02 -0.15061039867E+03  0.47645463695E+03  0.10100000352E+00 0. -1.
</event>
<event>
 5   0  0.1226424E-02  0.8617295E+03  0.7818609E-02  0.9474728E-01
        1   -1    0    0  501    0  0.00000000000E+00  0.00000000000E+00  0.56118233903E+03  0.56118233906E+03  0.50400001928E-02 0.  1.
       -1   -1    0    0    0  501  0.00000000000E+00  0.00000000000E+00 -0.33080944810E+03  0.33080944814E+03  0.50400001928E-02 0. -1.
    10030    2    1    2    0    0  0.00000000000E+00  0.00000000000E+00  0.23037289093E+03  0.89199178720E+03  0.86172947005E+03 0.  0.
        1    1    3    3  502    0  0.68218588611E+02 -0.37351603934E+03 -0.95623211794E+02  0.39155051543E+03  0.50400001928E-02 0. -1.
       -1    1    3    3    0  502 -0.68218588611E+02  0.37351603934E+03  0.32599610272E+03  0.50044127177E+03  0.50400001928E-02 0.  1.
</event>
<event>
 5   0  0.1162839E-02  0.9163444E+03  0.7818609E-02  0.9405378E-01
        1   -1    0    0  501    0  0.00000000000E+00  0.00000000000E+00  0.54014888391E+03  0.54014888393E+03  0.50400001928E-02 0.  1.
       -1   -1    0    0    0  501  0.00000000000E+00  0.00000000000E+00 -0.38863686323E+03  0.38863686326E+03  0.50400001928E-02 0. -1.
    10030    2    1    2    0    0  0.00000000000E+00  0.00000000000E+00  0.15151202068E+03  0.92878574720E+03  0.91634440675E+03 0.  0.
        2    1    3    3  502    0 -0.45296079805E+03  0.68837748898E+02  0.72607764939E+02  0.46387930303E+03  0.25500000920E-02 0.  1.
       -2    1    3    3    0  502  0.45296079805E+03 -0.68837748898E+02  0.78904255742E+02  0.46490644416E+03  0.25500000920E-02 0. -1.
</event>
<event>
 5   0  0.2008770E-02  0.8986039E+03  0.7818609E-02  0.9427328E-01
       -2   -1    0    0    0  501  0.00000000000E+00  0.00000000000E+00  0.32471317565E+03  0.32471317566E+03  0.25500000920E-02 0. -1.
        2   -1    0    0  501    0  0.00000000000E+00  0.00000000000E+00 -0.62169405855E+03  0.62169405856E+03  0.25500000920E-02 0.  1.
    10030    2    1    2    0    0  0.00000000000E+00  0.00000000000E+00 -0.29698088290E+03  0.94640723421E+03  0.89860392174E+03 0.  0.
        1    1    3    3  502    0 -0.15524247547E+03 -0.42090913900E+03 -0.12253126338E+03  0.46505767386E+03  0.50400001928E-02 0.  1.
       -1    1    3    3    0  502  0.15524247547E+03  0.42090913900E+03 -0.17444961952E+03  0.48134956036E+03  0.50400001928E-02 0. -1.
</event>
<event>
 5   0  0.1924218E-02  0.8886554E+03  0.7818609E-02  0.9439875E-01
       -2   -1    0    0    0  501  0.00000000000E+00  0.00000000000E+00  0.23074981475E+03  0.23074981476E+03  0.25500000920E-02 0. -1.
        2   -1    0    0  501    0  0.00000000000E+00  0.00000000000E+00 -0.85558943754E+03  0.85558943754E+03  0.25500000920E-02 0.  1.
    10030    2    1    2    0    0  0.00000000000E+00  0.00000000000E+00 -0.62483962279E+03  0.10863392523E+04  0.88865539827E+03 0.  0.
        4    1    3    3  502    0 -0.16133608968E+03  0.41223930992E+03 -0.35904815413E+03  0.56998927390E+03  0.12699999809E+01 0.  1.
       -4    1    3    3    0  502  0.16133608968E+03 -0.41223930992E+03 -0.26579146866E+03  0.51634997840E+03  0.12699999809E+01 0. -1.
</event>
<event>
 5   0  0.1177712E-02  0.9110243E+03  0.7818609E-02  0.9411904E-01
        1   -1    0    0  501    0  0.00000000000E+00  0.00000000000E+00  0.20259779534E+03  0.20259779540E+03  0.50400001928E-02 0. -1.
       -1   -1    0    0    0  501  0.00000000000E+00  0.00000000000E+00 -0.10241538599E+04  0.10241538599E+04  0.50400001928E-02 0.  1.
    10030    2    1    2    0    0  0.00000000000E+00  0.00000000000E+00 -0.82155606457E+03  0.12267516553E+04  0.91102428980E+03 0.  0.
        5    1    3    3  502    0 -0.78264596977E+02  0.40976407651E+03 -0.16454735574E+03  0.44847504704E+03  0.46999998093E+01 0. -1.
       -5    1    3    3    0  502  0.78264596977E+02 -0.40976407651E+03 -0.65700870883E+03  0.77827660829E+03  0.46999998093E+01 0.  1.
</event>
<event>
 5   0  0.1924218E-02  0.9071955E+03  0.7818609E-02  0.9416631E-01
        2   -1    0    0  501    0  0.00000000000E+00  0.00000000000E+00  0.16477320307E+04  0.16477320307E+04  0.25500000920E-02 0. -1.
       -2   -1    0    0    0  501  0.00000000000E+00  0.00000000000E+00 -0.12486915452E+03  0.12486915455E+03  0.25500000920E-02 0.  1.
    10030    2    1    2    0    0  0.00000000000E+00  0.00000000000E+00  0.15228628762E+04  0.17726011853E+04  0.90719547084E+03 0.  0.
        4    1    3    3  502    0  0.21901675287E+03  0.19330033086E+03  0.83396385604E+02  0.30379257065E+03  0.12699999809E+01 0.  1.
       -4    1    3    3    0  502 -0.21901675287E+03 -0.19330033086E+03  0.14394664906E+04  0.14688086146E+04  0.12699999809E+01 0. -1.
</event>
<event>
 5   0  0.1226424E-02  0.8936148E+03  0.7818609E-02  0.9433599E-01
        1   -1    0    0  501    0  0.00000000000E+00  0.00000000000E+00  0.12858188452E+04  0.12858188452E+04  0.50400001928E-02 0. -1.
       -1   -1    0    0    0  501  0.00000000000E+00  0.00000000000E+00 -0.15526049730E+03  0.15526049739E+03  0.50400001928E-02 0.  1.
    10030    2    1    2    0    0  0.00000000000E+00  0.00000000000E+00  0.11305583479E+04  0.14410793426E+04  0.89361484636E+03 0.  0.
        1    1    3    3  502    0  0.31731349057E+03 -0.47126984985E+02  0.10668286454E+04  0.11140162309E+04  0.50400001928E-02 0. -1.
       -1    1    3    3    0  502 -0.31731349057E+03  0.47126984985E+02  0.63729702445E+02  0.32706311166E+03  0.50400001928E-02 0.  1.
</event>
<event>
 5   0  0.1177712E-02  0.9078954E+03  0.7818609E-02  0.9415765E-01
        1   -1    0    0  501    0  0.00000000000E+00  0.00000000000E+00  0.53254995579E+03  0.53254995581E+03  0.50400001928E-02 0. -1.
       -1   -1    0    0    0  501  0.00000000000E+00  0.00000000000E+00 -0.38694685175E+03  0.38694685178E+03  0.50400001928E-02 0.  1.
    10030    2    1    2    0    0  0.00000000000E+00  0.00000000000E+00  0.14560310404E+03  0.91949680760E+03  0.90789543190E+03 0.  0.
        5    1    3    3  502    0 -0.25846111887E+03 -0.33005874408E+03 -0.10350774919E+03  0.43182967551E+03  0.46999998093E+01 0.  1.
       -5    1    3    3    0  502  0.25846111887E+03  0.33005874408E+03  0.24911085323E+03  0.48766713208E+03  0.46999998093E+01 0. -1.
</event>
<event>
 5   0  0.1177712E-02  0.9157948E+03  0.7818609E-02  0.9406050E-01
       -1   -1    0    0    0  501  0.00000000000E+00  0.00000000000E+00  0.24447366837E+03  0.24447366842E+03  0.50400001928E-02 0. -1.
        1   -1    0    0  501    0  0.00000000000E+00  0.00000000000E+00 -0.85763847106E+03  0.85763847108E+03  0.50400001928E-02 0.  1.
    10030    2    1    2    0    0  0.00000000000E+00  0.00000000000E+00 -0.61316480269E+03  0.11021121395E+04  0.91579478747E+03 0.  0.
        5    1    3    3  502    0  0.77963932623E+02 -0.18555859928E+02 -0.84910325907E+03  0.85288986938E+03  0.46999998093E+01 0.  1.
       -5    1    3    3    0  502 -0.77963932623E+02  0.18555859928E+02  0.23593845637E+03  0.24922227012E+03  0.46999998093E+01 0. -1.
</event>
<event>
 5   0  0.2041861E-02  0.9169666E+03  0.7818609E-02  0.9404617E-01
        2   -1    0    0  501    0  0.00000000000E+00  0.00000000000E+00  0.10143676498E+04  0.10143676498E+04  0.25500000920E-02 0. -1.
       -2   -1    0    0    0  501  0.00000000000E+00  0.00000000000E+00 -0.20722954556E+03  0.20722954558E+03  0.25500000920E-02 0.  1.
    10030    2    1    2    0    0  0.00000000000E+00  0.00000000000E+00  0.80713810419E+03  0.12215971953E+04  0.91696662339E+03 0.  0.
        5    1    3    3  502    0  0.21018658260E+03 -0.36359087459E+03  0.15861473593E+03  0.44895149854E+03  0.46999998093E+01 0.  1.
       -5    1    3    3    0  502 -0.21018658260E+03  0.36359087459E+03  0.64852336826E+03  0.77264569679E+03  0.46999998093E+01 0. -1.
</event>
<event>
 5   0  0.2041861E-02  0.9768091E+03  0.7818609E-02  0.9334352E-01
       -2   -1    0    0    0  501  0.00000000000E+00  0.00000000000E+00  0.31988124356E+03  0.31988124357E+03  0.25500000920E-02 0.  1.
        2   -1    0    0  501    0  0.00000000000E+00  0.00000000000E+00 -0.74571116398E+03  0.74571116398E+03  0.25500000920E-02 0. -1.
    10030    2    1    2    0    0  0.00000000000E+00  0.00000000000E+00 -0.42582992042E+03  0.10655924076E+04  0.97680912051E+03 0.  0.
        5    1    3    3  502    0 -0.23782951475E+03  0.12323864977E+03 -0.65840247204E+03  0.71082103801E+03  0.46999998093E+01 0. -1.
       -5    1    3    3    0  502  0.23782951475E+03 -0.12323864977E+03  0.23257255162E+03  0.35477136955E+03  0.46999998093E+01 0.  1.
</event>
<event>
 5   0  0.1968763E-02  0.5703904E+03  0.7818609E-02  0.9968815E-01
        2   -1    0    0  501    0  0.00000000000E+00  0.00000000000E+00  0.75421286235E+03  0.75421286236E+03  0.25500000920E-02 0. -1.
       -2   -1    0    0    0  501  0.00000000000E+00  0.00000000000E+00 -0.10784263516E+03  0.10784263519E+03  0.25500000920E-02 0.  1.
    10030    2    1    2    0    0  0.00000000000E+00  0.00000000000E+00  0.64637022719E+03  0.86205549755E+03  0.57039040161E+03 0.  0.
        2    1    3    3  502    0 -0.76540915959E+01 -0.27298492962E+03  0.19895175408E+03  0.33787742951E+03  0.25500000920E-02 0.  1.
       -2    1    3    3    0  502  0.76540915959E+01  0.27298492962E+03  0.44741847312E+03  0.52417806804E+03  0.25500000920E-02 0. -1.
</event>
<event>
 5   0  0.1226424E-02  0.8829753E+03  0.7818609E-02  0.9447117E-01
       -1   -1    0    0    0  501  0.00000000000E+00  0.00000000000E+00  0.91973749804E+03  0.91973749806E+03  0.50400001928E-02 0. -1.
        1   -1    0    0  501    0  0.00000000000E+00  0.00000000000E+00 -0.21192061048E+03  0.21192061054E+03  0.50400001928E-02 0.  1.
    10030    2    1    2    0    0  0.00000000000E+00  0.00000000000E+00  0.70781688757E+03  0.11316581086E+04  0.88297527056E+03 0.  0.
        1    1    3    3  502    0 -0.36448985914E+03  0.15986760699E+03  0.10904834131E+03  0.41267668937E+03  0.50400001928E-02 0.  1.
       -1    1    3    3    0  502  0.36448985914E+03 -0.15986760699E+03  0.59876854626E+03  0.71898141922E+03  0.50400001928E-02 0. -1.
</event>
<event>
 5   0  0.2041861E-02  0.8910708E+03  0.7818609E-02  0.9436813E-01
       -2   -1    0    0    0  501  0.00000000000E+00  0.00000000000E+00  0.46077298912E+03  0.46077298912E+03  0.25500000920E-02 0.  1.
        2   -1    0    0  501    0  0.00000000000E+00  0.00000000000E+00 -0.43080171394E+03  0.43080171395E+03  0.25500000920E-02 0. -1.
    10030    2    1    2    0    0  0.00000000000E+00  0.00000000000E+00  0.29971275176E+02  0.89157470307E+03  0.89107080180E+03 0.  0.
        5    1    3    3  502    0  0.13099590100E+03 -0.42184830347E+03 -0.43045317588E+02  0.44383657644E+03  0.46999998093E+01 0. -1.
       -5    1    3    3    0  502 -0.13099590100E+03  0.42184830347E+03  0.73016592764E+02  0.44773812663E+03  0.46999998093E+01 0.  1.
</event>
<event>
 5   0  0.1206541E-02  0.9080236E+03  0.7818609E-02  0.9415607E-01
       -1   -1    0    0    0  501  0.00000000000E+00  0.00000000000E+00  0.58774621312E+03  0.58774621314E+03  0.50400001928E-02 0. -1.
        1   -1    0    0  501    0  0.00000000000E+00  0.00000000000E+00 -0.35070697936E+03  0.35070697940E+03  0.50400001928E-02 0.  1.
    10030    2    1    2    0    0  0.00000000000E+00  0.00000000000E+00  0.23703923376E+03  0.93845319254E+03  0.90802356591E+03 0.  0.
        3    1    3    3  502    0  0.33985479609E+03  0.27346874952E+03  0.24859541661E+03  0.50208179688E+03  0.10100000352E+00 0. -1.
       -3    1    3    3    0  502 -0.33985479609E+03 -0.27346874952E+03 -0.11556182854E+02  0.43637139567E+03  0.10100000352E+00 0.  1.
</event>
<event>
 5   0  0.2008643E-02  0.8413822E+03  0.7818609E-02  0.9501977E-01
        2   -1    0    0  501    0  0.00000000000E+00  0.00000000000E+00  0.45313080214E+03  0.45313080215E+03  0.25500000920E-02 0. -1.
       -2   -1    0    0    0  501  0.00000000000E+00  0.00000000000E+00 -0.39057379297E+03  0.39057379298E+03  0.25500000920E-02 0.  1.
    10030    2    1    2    0    0  0.00000000000E+00  0.00000000000E+00  0.62557009170E+02  0.84370459513E+03  0.84138223445E+03 0.  0.
        3    1    3    3  502    0  0.26148887626E+03 -0.67880145725E+02  0.35465406073E+03  0.44582918207E+03  0.10100000352E+00 0. -1.
       -3    1    3    3    0  502 -0.26148887626E+03  0.67880145725E+02 -0.29209705156E+03  0.39787541306E+03  0.10100000352E+00 0.  1.
</event>
<event>
 5   0  0.2041861E-02  0.9206044E+03  0.7818609E-02  0.9400185E-01
        2   -1    0    0  501    0  0.00000000000E+00  0.00000000000E+00  0.50900376772E+03  0.50900376773E+03  0.25500000920E-02 0. -1.
       -2   -1    0    0    0  501  0.00000000000E+00  0.00000000000E+00 -0.41626038549E+03  0.41626038550E+03  0.25500000920E-02 0.  1.
    10030    2    1    2    0    0  0.00000000000E+00  0.00000000000E+00  0.92743382236E+02  0.92526415323E+03  0.92060437665E+03 0.  0.
        5    1    3    3  502    0 -0.60699266523E+02  0.23921661081E+03  0.43685725538E+03  0.50177219873E+03  0.46999998093E+01 0. -1.
       -5    1    3    3    0  502  0.60699266523E+02 -0.23921661081E+03 -0.34411387314E+03  0.42349195450E+03  0.46999998093E+01 0.  1.
</event>
<event>
 5   0  0.1175993E-02  0.7959596E+03  0.7818609E-02  0.9565884E-01
        1   -1    0    0  501    0  0.00000000000E+00  0.00000000000E+00  0.31563337451E+03  0.31563337455E+03  0.50400001928E-02 0. -1.
       -1   -1    0    0    0  501  0.00000000000E+00  0.00000000000E+00 -0.50180980251E+03  0.50180980253E+03  0.50400001928E-02 0.  1.
    10030    2    1    2    0    0  0.00000000000E+00  0.00000000000E+00 -0.18617642800E+03  0.81744317708E+03  0.79595960037E+03 0.  0.
        4    1    3    3  502    0  0.22359626079E+03  0.39230918845E+02 -0.42879319532E+03  0.48517993578E+03  0.12699999809E+01 0.  1.
       -4    1    3    3    0  502 -0.22359626079E+03 -0.39230918845E+02  0.24261676732E+03  0.33226324130E+03  0.12699999809E+01 0. -1.
</event>
<event>
 5   0  0.2008643E-02  0.8933782E+03  0.7818609E-02  0.9433897E-01
        2   -1    0    0  501    0  0.00000000000E+00  0.00000000000E+00  0.65763608698E+03  0.65763608699E+03  0.25500000920E-02 0. -1.
       -2   -1    0    0    0  501  0.00000000000E+00  0.00000000000E+00 -0.30340665769E+03  0.30340665770E+03  0.25500000920E-02 0.  1.
    10030    2    1    2    0    0  0.00000000000E+00  0.00000000000E+00  0.35422942929E+03  0.96104274469E+03  0.89337823375E+03 0.  0.
        3    1    3    3  502    0 -0.12861704503E+03 -0.76131255557E+00 -0.28305593902E+03  0.31090770123E+03  0.10100000352E+00 0.  1.
       -3    1    3    3    0  502  0.12861704503E+03  0.76131255557E+00  0.63728536831E+03  0.65013504346E+03  0.10100000352E+00 0. -1.
</event>
<event>
 5   0  0.1968763E-02  0.8951290E+03  0.7818609E-02  0.9431691E-01
        2   -1    0    0  501    0  0.00000000000E+00  0.00000000000E+00  0.18524824374E+04  0.18524824374E+04  0.25500000920E-02 0. -1.
       -2   -1    0    0    0  501  0.00000000000E+00  0.00000000000E+00 -0.10813273613E+03  0.10813273616E+03  0.25500000920E-02 0.  1.
    10030    2    1    2    0    0  0.00000000000E+00  0.00000000000E+00  0.17443497013E+04  0.19606151736E+04  0.89512902895E+03 0.  0.
        2    1    3    3  502    0 -0.37979956770E+02 -0.39882021268E+03  0.13092180644E+04  0.13691427899E+04  0.25500000920E-02 0.  1.
       -2    1    3    3    0  502  0.37979956770E+02  0.39882021268E+03  0.43513163693E+03  0.59147238365E+03  0.25500000920E-02 0. -1.
</event>
<event>
 5   0  0.1924218E-02  0.8784446E+03  0.7818609E-02  0.9452935E-01
        2   -1    0    0  501    0  0.00000000000E+00  0.00000000000E+00  0.93671395330E+03  0.93671395330E+03  0.25500000920E-02 0.  1.
       -2   -1    0    0    0  501  0.00000000000E+00  0.00000000000E+00 -0.20594999651E+03  0.20594999652E+03  0.25500000920E-02 0. -1.
    10030    2    1    2    0    0  0.00000000000E+00  0.00000000000E+00  0.73076395679E+03  0.11426639498E+04  0.87844461503E+03 0.  0.
        4    1    3    3  502    0  0.43461354326E+03 -0.55136578520E+02  0.40622003979E+03  0.59744900025E+03  0.12699999809E+01 0.  1.
       -4    1    3    3    0  502 -0.43461354326E+03  0.55136578520E+02  0.32454391700E+03  0.54521494957E+03  0.12699999809E+01 0. -1.
</event>
<event>
 5   0  0.2008643E-02  0.9083331E+03  0.7818609E-02  0.9415224E-01
       -2   -1    0    0    0  501  0.00000000000E+00  0.00000000000E+00  0.86276656826E+03  0.86276656826E+03  0.25500000920E-02 0. -1.
        2   -1    0    0  501    0  0.00000000000E+00  0.00000000000E+00 -0.23907654989E+03  0.23907654990E+03  0.25500000920E-02 0.  1.
    10030    2    1    2    0    0  0.00000000000E+00  0.00000000000E+00  0.62369001837E+03  0.11018431182E+04  0.90833309861E+03 0.  0.
        3    1    3    3  502    0 -0.29613192658E+03  0.81889755072E+02  0.71756461692E+03  0.78057609468E+03  0.10100000352E+00 0. -1.
       -3    1    3    3    0  502  0.29613192658E+03 -0.81889755072E+02 -0.93874598545E+02  0.32126702349E+03  0.10100000352E+00 0.  1.
</event>
<event>
 5   0  0.2008770E-02  0.9022368E+03  0.7818609E-02  0.9422790E-01
        2   -1    0    0  501    0  0.00000000000E+00  0.00000000000E+00  0.90905986010E+03  0.90905986011E+03  0.25500000920E-02 0.  1.
       -2   -1    0    0    0  501  0.00000000000E+00  0.00000000000E+00 -0.22386621332E+03  0.22386621333E+03  0.25500000920E-02 0. -1.
    10030    2    1    2    0    0  0.00000000000E+00  0.00000000000E+00  0.68519364678E+03  0.11329260734E+04  0.90223675069E+03 0.  0.
        1    1    3    3  502    0 -0.88238590615E+02  0.19398336386E+03  0.84186774450E+03  0.86842207111E+03  0.50400001928E-02 0.  1.
       -1    1    3    3    0  502  0.88238590615E+02 -0.19398336386E+03 -0.15667409772E+03  0.26450400233E+03  0.50400001928E-02 0. -1.
</event>
<event>
 5   0  0.2008770E-02  0.9124100E+03  0.7818609E-02  0.9410200E-01
       -2   -1    0    0    0  501  0.00000000000E+00  0.00000000000E+00  0.18998317078E+03  0.18998317080E+03  0.25500000920E-02 0. -1.
        2   -1    0    0  501    0  0.00000000000E+00  0.00000000000E+00 -0.10954812354E+04  0.10954812354E+04  0.25500000920E-02 0.  1.
    10030    2    1    2    0    0  0.00000000000E+00  0.00000000000E+00 -0.90549806458E+03  0.12854644062E+04  0.91240999258E+03 0.  0.
        1    1    3    3  502    0  0.45333312123E+03  0.51099548379E+02 -0.45140066352E+03  0.64178239436E+03  0.50400001928E-02 0. -1.
       -1    1    3    3    0  502 -0.45333312123E+03 -0.51099548379E+02 -0.45409740105E+03  0.64368201181E+03  0.50400001928E-02 0.  1.
</event>
<event>
 5   0  0.1226424E-02  0.9031421E+03  0.7818609E-02  0.9421662E-01
        1   -1    0    0  501    0  0.00000000000E+00  0.00000000000E+00  0.96297430558E+03  0.96297430559E+03  0.50400001928E-02 0.  1.
       -1   -1    0    0    0  501  0.00000000000E+00  0.00000000000E+00 -0.21175685036E+03  0.21175685042E+03  0.50400001928E-02 0. -1.
    10030    2    1    2    0    0  0.00000000000E+00  0.00000000000E+00  0.75121745521E+03  0.11747311560E+04  0.90314208400E+03 0.  0.
        1    1    3    3  502    0  0.33475076246E+03 -0.21806375310E+03  0.10181954248E+03  0.41228278237E+03  0.50400001928E-02 0.  1.
       -1    1    3    3    0  502 -0.33475076246E+03  0.21806375310E+03  0.64939791273E+03  0.76244837364E+03  0.50400001928E-02 0. -1.
</event>
<event>
 5   0  0.1162839E-02  0.8806574E+03  0.7818609E-02  0.9450089E-01
       -1   -1    0    0    0  501  0.00000000000E+00  0.00000000000E+00  0.17332682615E+03  0.17332682622E+03  0.50400001928E-02 0.  1.
        1   -1    0    0  501    0  0.00000000000E+00  0.00000000000E+00 -0.11186344612E+04  0.11186344612E+04  0.50400001928E-02 0. -1.
    10030    2    1    2    0    0  0.00000000000E+00  0.00000000000E+00 -0.94530763502E+03  0.12919612874E+04  0.88065739271E+03 0.  0.
        2    1    3    3  502    0  0.38486715244E+03  0.19020288222E+03 -0.61631534622E+03  0.75109551152E+03  0.25500000920E-02 0. -1.
       -2    1    3    3    0  502 -0.38486715244E+03 -0.19020288222E+03 -0.32899228881E+03  0.54086577589E+03  0.25500000920E-02 0.  1.
</event>
<event>
 5   0  0.2008770E-02  0.8955226E+03  0.7818609E-02  0.9431196E-01
        2   -1    0    0  501    0  0.00000000000E+00  0.00000000000E+00  0.82132414056E+03  0.82132414056E+03  0.25500000920E-02 0. -1.
       -2   -1    0    0    0  501  0.00000000000E+00  0.00000000000E+00 -0.24410603671E+03  0.24410603673E+03  0.25500000920E-02 0.  1.
    10030    2    1    2    0    0  0.00000000000E+00  0.00000000000E+00  0.57721810384E+03  0.10654301773E+04  0.89552259786E+03 0.  0.
        1    1    3    3  502    0 -0.34827369385E+03 -0.27732469761E+03  0.34550038546E+03  0.56353710624E+03  0.50400001928E-02 0.  1.
       -1    1    3    3    0  502  0.34827369385E+03  0.27732469761E+03  0.23171771838E+03  0.50189307105E+03  0.50400001928E-02 0. -1.
</event>
<event>
 5   0  0.1206541E-02  0.9034805E+03  0.7818609E-02  0.9421241E-01
       -1   -1    0    0    0  501  0.00000000000E+00  0.00000000000E+00  0.12304614878E+04  0.12304614879E+04  0.50400001928E-02 0.  1.
        1   -1    0    0  501    0  0.00000000000E+00  0.00000000000E+00 -0.16584772356E+03  0.16584772363E+03  0.50400001928E-02 0. -1.
    10030    2    1    2    0    0  0.00000000000E+00  0.00000000000E+00  0.10646137643E+04  0.13963092115E+04  0.90348046297E+03 0.  0.
        3    1    3    3  502    0 -0.66458891042E+02  0.16938437059E+03  0.11713230425E+04  0.11853714731E+04  0.10100000352E+00 0.  1.
       -3    1    3    3    0  502  0.66458891042E+02 -0.16938437059E+03 -0.10670927823E+03  0.21093773835E+03  0.10100000352E+00 0. -1.
</event>
<event>
 5   0  0.2041861E-02  0.8681536E+03  0.7818609E-02  0.9466291E-01
       -2   -1    0    0    0  501  0.00000000000E+00  0.00000000000E+00  0.56832375985E+03  0.56832375985E+03  0.25500000920E-02 0. -1.
        2   -1    0    0  501    0  0.00000000000E+00  0.00000000000E+00 -0.33154103963E+03  0.33154103964E+03  0.25500000920E-02 0.  1.
    10030    2    1    2    0    0  0.00000000000E+00  0.00000000000E+00  0.23678272022E+03  0.89986479949E+03  0.86815355829E+03 0.  0.
        5    1    3    3  502    0 -0.17549412465E+03  0.13803644715E+03  0.50420833627E+03  0.55145297614E+03  0.46999998093E+01 0. -1.
       -5    1    3    3    0  502  0.17549412465E+03 -0.13803644715E+03 -0.26742561605E+03  0.34841182335E+03  0.46999998093E+01 0.  1.
</event>
<event>
 5   0  0.1206541E-02  0.9363331E+03  0.7818609E-02  0.9381269E-01
       -1   -1    0    0    0  501  0.00000000000E+00  0.00000000000E+00  0.28400128005E+03  0.28400128010E+03  0.50400001928E-02 0. -1.
        1   -1    0    0  501    0  0.00000000000E+00  0.00000000000E+00 -0.77175677150E+03  0.77175677152E+03  0.50400001928E-02 0.  1.
    10030    2    1    2    0    0  0.00000000000E+00  0.00000000000E+00 -0.48775549145E+03  0.10557580516E+04  0.93633308395E+03 0.  0.
        3    1    3    3  502    0 -0.10984283470E+03  0.78389259656E+02 -0.74935217667E+03  0.76140594905E+03  0.10100000352E+00 0.  1.
       -3    1    3    3    0  502  0.10984283470E+03 -0.78389259656E+02  0.26159668522E+03  0.29435210257E+03  0.10100000352E+00 0. -1.
</event>
<event>
 5   0  0.1968763E-02  0.7048598E+03  0.7818609E-02  0.9708957E-01
        2   -1    0    0  501    0  0.00000000000E+00  0.00000000000E+00  0.73640742202E+03  0.73640742203E+03  0.25500000920E-02 0.  1.
       -2   -1    0    0    0  501  0.00000000000E+00  0.00000000000E+00 -0.16866591700E+03  0.16866591702E+03  0.25500000920E-02 0. -1.
    10030    2    1    2    0    0  0.00000000000E+00  0.00000000000E+00  0.56774150502E+03  0.90507333905E+03  0.70485979637E+03 0.  0.
        2    1    3    3  502    0 -0.52139642437E+02  0.34615894545E+03  0.33622265969E+03  0.48537638460E+03  0.25500000920E-02 0. -1.
       -2    1    3    3    0  502  0.52139642437E+02 -0.34615894545E+03  0.23151884533E+03  0.41969695445E+03  0.25500000920E-02 0.  1.
</event>
<event>
 5   0  0.1175993E-02  0.9183481E+03  0.7818609E-02  0.9402932E-01
        1   -1    0    0  501    0  0.00000000000E+00  0.00000000000E+00  0.85062953774E+03  0.85062953775E+03  0.50400001928E-02 0. -1.
       -1   -1    0    0    0  501  0.00000000000E+00  0.00000000000E+00 -0.24786443513E+03  0.24786443518E+03  0.50400001928E-02 0.  1.
    10030    2    1    2    0    0  0.00000000000E+00  0.00000000000E+00  0.60276510261E+03  0.10984939729E+04  0.91834810374E+03 0.  0.
        4    1    3    3  502    0  0.12820677610E+03  0.60093449272E+02 -0.22109698283E+03  0.26255225918E+03  0.12699999809E+01 0.  1.
       -4    1    3    3    0  502 -0.12820677610E+03 -0.60093449272E+02  0.82386208543E+03  0.83594171376E+03  0.12699999809E+01 0. -1.
</event>
<event>
 5   0  0.1177712E-02  0.8723542E+03  0.7818609E-02  0.9460816E-01
       -1   -1    0    0    0  501  0.00000000000E+00  0.00000000000E+00  0.26130915119E+03  0.26130915124E+03  0.50400001928E-02 0. -1.
        1   -1    0    0  501    0  0.00000000000E+00  0.00000000000E+00 -0.72806655975E+03  0.72806655977E+03  0.50400001928E-02 0.  1.
    10030    2    1    2    0    0  0.00000000000E+00  0.00000000000E+00 -0.46675740856E+03  0.98937571101E+03  0.87235418214E+03 0.  0.
        5    1    3    3  502    0  0.33190953997E+03 -0.22797345563E+03 -0.43286726470E+02  0.40500823434E+03  0.46999998093E+01 0.  1.
       -5    1    3    3    0  502 -0.33190953997E+03  0.22797345563E+03 -0.42347068209E+03  0.58436747667E+03  0.46999998093E+01 0. -1.
</event>
<event>
 5   0  0.1226424E-02  0.9284881E+03  0.7818609E-02  0.9390654E-01
        1   -1    0    0  501    0  0.00000000000E+00  0.00000000000E+00  0.47988767342E+03  0.47988767344E+03  0.50400001928E-02 0.  1.
       -1   -1    0    0    0  501  0.00000000000E+00  0.00000000000E+00 -0.44911035210E+03  0.44911035213E+03  0.50400001928E-02 0. -1.
    10030    2    1    2    0    0  0.00000000000E+00  0.00000000000E+00  0.30777321316E+02  0.92899802557E+03  0.92848806563E+03 0.  0.
        1    1    3    3  502    0  0.51077660012E+02 -0.46136654523E+03  0.80018172454E+01  0.46425428971E+03  0.50400001928E-02 0. -1.
       -1    1    3    3    0  502 -0.51077660012E+02  0.46136654523E+03  0.22775504070E+02  0.46474373586E+03  0.50400001928E-02 0.  1.
</event>
<event>
 5   0  0.1162839E-02  0.9108550E+03  0.7818609E-02  0.9412113E-01
        1   -1    0    0  501    0  0.00000000000E+00  0.00000000000E+00  0.60094385817E+03  0.60094385819E+03  0.50400001928E-02 0.  1.
       -1   -1    0    0    0  501  0.00000000000E+00  0.00000000000E+00 -0.34514741227E+03  0.34514741230E+03  0.50400001928E-02 0. -1.
    10030    2    1    2    0    0  0.00000000000E+00  0.00000000000E+00  0.25579644590E+03  0.94609127049E+03  0.91085502159E+03 0.  0.
        2    1    3    3  502    0  0.45269047205E+02  0.89487975627E+02 -0.33353606454E+03  0.34828679385E+03  0.25500000920E-02 0. -1.
       -2    1    3    3    0  502 -0.45269047205E+02 -0.89487975627E+02  0.58933251044E+03  0.59780447664E+03  0.25500000920E-02 0.  1.
</event>
<event>
 5   0  0.2008643E-02  0.8942473E+03  0.7818609E-02  0.9432801E-01
       -2   -1    0    0    0  501  0.00000000000E+00  0.00000000000E+00  0.25156256852E+03  0.25156256853E+03  0.25500000920E-02 0. -1.
        2   -1    0    0  501    0  0.00000000000E+00  0.00000000000E+00 -0.79471109589E+03  0.79471109589E+03  0.25500000920E-02 0.  1.
    10030    2    1    2    0    0  0.00000000000E+00  0.00000000000E+00 -0.54314852736E+03  0.10462736644E+04  0.89424731372E+03 0.  0.
        3    1    3    3  502    0 -0.26129730680E+03  0.65005432237E+02  0.14606594230E+03  0.30632867718E+03  0.10100000352E+00 0. -1.
       -3    1    3    3    0  502  0.26129730680E+03 -0.65005432237E+02 -0.68921446966E+03  0.73994498725E+03  0.10100000352E+00 0.  1.
</event>
<event>
 5   0  0.2008770E-02  0.8496894E+03  0.7818609E-02  0.9490754E-01
        2   -1    0    0  501    0  0.00000000000E+00  0.00000000000E+00  0.18324903756E+04  0.18324903756E+04  0.25500000920E-02 0.  1.
       -2   -1    0    0    0  501  0.00000000000E+00  0.00000000000E+00 -0.98496036144E+02  0.98496036177E+02  0.25500000920E-02 0. -1.
    10030    2    1    2    0    0  0.00000000000E+00  0.00000000000E+00  0.17339943395E+04  0.19309864118E+04  0.84968944516E+03 0.  0.
        1    1    3    3  502    0 -0.12626743649E+03 -0.19081728851E+03  0.53495342463E+02  0.23498181803E+03  0.50400001928E-02 0. -1.
       -1    1    3    3    0  502  0.12626743649E+03  0.19081728851E+03  0.16804989970E+04  0.16960045938E+04  0.50400001928E-02 0.  1.
</event>
<event>
 5   0  0.1162839E-02  0.8685579E+03  0.7818609E-02  0.9465762E-01
       -1   -1    0    0    0  501  0.00000000000E+00  0.00000000000E+00  0.46115145625E+03  0.46115145628E+03  0.50400001928E-02 0. -1.
        1   -1    0    0  501    0  0.00000000000E+00  0.00000000000E+00 -0.40897237508E+03  0.40897237511E+03  0.50400001928E-02 0.  1.
    10030    2    1    2    0    0  0.00000000000E+00  0.00000000000E+00  0.52179081170E+02  0.87012383139E+03  0.86855789987E+03 0.  0.
        2    1    3    3  502    0 -0.11982185854E+03  0.27555488476E+03  0.34019978125E+03  0.45389829639E+03  0.25500000920E-02 0. -1.
       -2    1    3    3    0  502  0.11982185854E+03 -0.27555488476E+03 -0.28802070008E+03  0.41622553499E+03  0.25500000920E-02 0.  1.
</event>
<event>
 5   0  0.1162839E-02  0.9515663E+03  0.7818609E-02  0.9363322E-01
       -1   -1    0    0    0  501  0.00000000000E+00  0.00000000000E+00  0.35416594260E+03  0.35416594263E+03  0.50400001928E-02 0. -1.
        1   -1    0    0  501    0  0.00000000000E+00  0.00000000000E+00 -0.63916259191E+03  0.63916259193E+03  0.50400001928E-02 0.  1.
    10030    2    1    2    0    0  0.00000000000E+00  0.00000000000E+00 -0.28499664931E+03  0.99332853456E+03  0.95156633371E+03 0.  0.
        2    1    3    3  502    0  0.33267078531E+03  0.10535755786E+03 -0.48011101470E+03  0.59352898230E+03  0.25500000920E-02 0.  1.
       -2    1    3    3    0  502 -0.33267078531E+03 -0.10535755786E+03  0.19511436539E+03  0.39979955225E+03  0.25500000920E-02 0. -1.
</event>
<event>
 5   0  0.1206541E-02  0.8571604E+03  0.7818609E-02  0.9480777E-01
       -1   -1    0    0    0  501  0.00000000000E+00  0.00000000000E+00  0.92113585294E+02  0.92113585432E+02  0.50400001928E-02 0.  1.
        1   -1    0    0  501    0  0.00000000000E+00  0.00000000000E+00 -0.19940706462E+04  0.19940706462E+04  0.50400001928E-02 0. -1.
    10030    2    1    2    0    0  0.00000000000E+00  0.00000000000E+00 -0.19019570609E+04  0.20861842316E+04  0.85716042069E+03 0.  0.
        3    1    3    3  502    0  0.36163613829E+03 -0.17034282878E+02 -0.15092240016E+04  0.15520399352E+04  0.10100000352E+00 0. -1.
       -3    1    3    3    0  502 -0.36163613829E+03  0.17034282878E+02 -0.39273305927E+03  0.53414429638E+03  0.10100000352E+00 0.  1.
</event>
<event>
 5   0  0.1175993E-02  0.8947925E+03  0.7818609E-02  0.9432115E-01
       -1   -1    0    0    0  501  0.00000000000E+00  0.00000000000E+00  0.33022420022E+03  0.33022420026E+03  0.50400001928E-02 0. -1.
        1   -1    0    0  501    0  0.00000000000E+00  0.00000000000E+00 -0.60614390801E+03  0.60614390803E+03  0.50400001928E-02 0.  1.
    10030    2    1    2    0    0  0.00000000000E+00  0.00000000000E+00 -0.27591970779E+03  0.93636810829E+03  0.89479246145E+03 0.  0.
        4    1    3    3  502    0  0.39471232643E+03  0.13236485479E+03 -0.30941236849E+03  0.51870598810E+03  0.12699999809E+01 0. -1.
       -4    1    3    3    0  502 -0.39471232643E+03 -0.13236485479E+03  0.33492660700E+02  0.41766212019E+03  0.12699999809E+01 0.  1.
</event>
<event>
 5   0  0.1968763E-02  0.8896765E+03  0.7818609E-02  0.9438579E-01
       -2   -1    0    0    0  501  0.00000000000E+00  0.00000000000E+00  0.12192847950E+03  0.12192847953E+03  0.25500000920E-02 0.  1.
        2   -1    0    0  501    0  0.00000000000E+00  0.00000000000E+00 -0.16229273607E+04  0.16229273607E+04  0.25500000920E-02 0. -1.
    10030    2    1    2    0    0  0.00000000000E+00  0.00000000000E+00 -0.15009988812E+04  0.17448558402E+04  0.88967649277E+03 0.  0.
        2    1    3    3  502    0 -0.10364895206E+03 -0.35979281463E+02 -0.15959750180E+04  0.15997418142E+04  0.25500000920E-02 0. -1.
       -2    1    3    3    0  502  0.10364895206E+03  0.35979281463E+02  0.94976136861E+02  0.14511402598E+03  0.25500000920E-02 0.  1.
</event>
<event>
 5   0  0.2008770E-02  0.9532103E+03  0.7818609E-02  0.9361406E-01
        2   -1    0    0  501    0  0.00000000000E+00  0.00000000000E+00  0.76962824226E+03  0.76962824227E+03  0.25500000920E-02 0.  1.
       -2   -1    0    0    0  501  0.00000000000E+00  0.00000000000E+00 -0.29514568082E+03  0.29514568083E+03  0.25500000920E-02 0. -1.
    10030    2    1    2    0    0  0.00000000000E+00  0.00000000000E+00  0.47448256145E+03  0.10647739231E+04  0.95321026337E+03 0.  0.
        1    1    3    3  502    0  0.40227000431E+03  0.20867959138E+03  0.72372380893E+02  0.45891839118E+03  0.50400001928E-02 0. -1.
       -1    1    3    3    0  502 -0.40227000431E+03 -0.20867959138E+03  0.40211018055E+03  0.60585553192E+03  0.50400001928E-02 0.  1.
</event>
<event>
 5   0  0.7893875E-03  0.8871579E+03  0.7818609E-02  0.9441779E-01
        3   -1    0    0  501    0  0.00000000000E+00  0.00000000000E+00  0.43132842053E+03  0.43132843235E+03  0.10100000352E+00 0.  1.
       -3   -1    0    0    0  501  0.00000000000E+00  0.00000000000E+00 -0.45617737415E+03  0.45617738533E+03  0.10100000352E+00 0. -1.
    10030    2    1    2    0    0  0.00000000000E+00  0.00000000000E+00 -0.24848953617E+02  0.88750581768E+03  0.88715788106E+03 0.  0.
        4    1    3    3  502    0 -0.12999946754E+03  0.75359533235E+02 -0.42993902158E+03  0.45544274721E+03  0.12699999809E+01 0. -1.
       -4    1    3    3    0  502  0.12999946754E+03 -0.75359533235E+02  0.40509006796E+03  0.43206307048E+03  0.12699999809E+01 0.  1.
</event>
<event>
 5   0  0.1226424E-02  0.8911960E+03  0.7818609E-02  0.9436654E-01
       -1   -1    0    0    0  501  0.00000000000E+00  0.00000000000E+00  0.38810351370E+03  0.38810351373E+03  0.50400001928E-02 0.  1.
        1   -1    0    0  501    0  0.00000000000E+00  0.00000000000E+00 -0.51160982083E+03  0.51160982085E+03  0.50400001928E-02 0. -1.
    10030    2    1    2    0    0  0.00000000000E+00  0.00000000000E+00 -0.12350630713E+03  0.89971333458E+03  0.89119598099E+03 0.  0.
        1    1    3    3  502    0  0.36420950160E+03  0.23599200179E+03 -0.16379728313E+03  0.46386456639E+03  0.50400001928E-02 0. -1.
       -1    1    3    3    0  502 -0.36420950160E+03 -0.23599200179E+03  0.40290975999E+02  0.43584876819E+03  0.50400001928E-02 0.  1.
</event>
<event>
 5   0  0.1968763E-02  0.8944093E+03  0.7818609E-02  0.9432597E-01
       -2   -1    0    0    0  501  0.00000000000E+00  0.00000000000E+00  0.22774638898E+03  0.22774638899E+03  0.25500000920E-02 0.  1.
        2   -1    0    0  501    0  0.00000000000E+00  0.00000000000E+00 -0.87813460815E+03  0.87813460815E+03  0.25500000920E-02 0. -1.
    10030    2    1    2    0    0  0.00000000000E+00  0.00000000000E+00 -0.65038821917E+03  0.11058809971E+04  0.89440927109E+03 0.  0.
        2    1    3    3  502    0  0.15869634791E+03 -0.33327432164E+03 -0.13044050899E+02  0.36935951535E+03  0.25500000920E-02 0.  1.
       -2    1    3    3    0  502 -0.15869634791E+03  0.33327432164E+03 -0.63734416828E+03  0.73652148180E+03  0.25500000920E-02 0. -1.
</event>
<event>
 5   0  0.1226424E-02  0.9096583E+03  0.7818609E-02  0.9413588E-01
        1   -1    0    0  501    0  0.00000000000E+00  0.00000000000E+00  0.44049610203E+03  0.44049610206E+03  0.50400001928E-02 0.  1.
       -1   -1    0    0    0  501  0.00000000000E+00  0.00000000000E+00 -0.46962858314E+03  0.46962858317E+03  0.50400001928E-02 0. -1.
    10030    2    1    2    0    0  0.00000000000E+00  0.00000000000E+00 -0.29132481111E+02  0.91012468523E+03  0.90965831014E+03 0.  0.
        1    1    3    3  502    0  0.34925924644E+03 -0.26586552150E+03 -0.13380394798E+03  0.45887906170E+03  0.50400001928E-02 0. -1.
       -1    1    3    3    0  502 -0.34925924644E+03  0.26586552150E+03  0.10467146687E+03  0.45124562353E+03  0.50400001928E-02 0.  1.
</event>
<event>
 5   0  0.2008770E-02  0.9803208E+03  0.7818609E-02  0.9330396E-01
       -2   -1    0    0    0  501  0.00000000000E+00  0.00000000000E+00  0.55245271599E+03  0.55245271600E+03  0.25500000920E-02 0.  1.
        2   -1    0    0  501    0  0.00000000000E+00  0.00000000000E+00 -0.43489190599E+03  0.43489190600E+03  0.25500000920E-02 0. -1.
    10030    2    1    2    0    0  0.00000000000E+00  0.00000000000E+00  0.11756081000E+03  0.98734462200E+03  0.98032079369E+03 0.  0.
        1    1    3    3  502    0 -0.20919150906E+03  0.48787442953E+02 -0.38496219052E+03  0.44083692020E+03  0.50400001928E-02 0. -1.
       -1    1    3    3    0  502  0.20919150906E+03 -0.48787442953E+02  0.50252300052E+03  0.54650770180E+03  0.50400001928E-02 0.  1.
</event>
<event>
 5   0  0.1206541E-02  0.9006311E+03  0.7818609E-02  0.9424793E-01
       -1   -1    0    0    0  501  0.00000000000E+00  0.00000000000E+00  0.34739886492E+03  0.34739886496E+03  0.50400001928E-02 0.  1.
        1   -1    0    0  501    0  0.00000000000E+00  0.00000000000E+00 -0.58372128684E+03  0.58372128686E+03  0.50400001928E-02 0. -1.
    10030    2    1    2    0    0  0.00000000000E+00  0.00000000000E+00 -0.23632242192E+03  0.93112015182E+03  0.90063113983E+03 0.  0.
        3    1    3    3  502    0 -0.39240670903E+03 -0.10124890983E+03  0.84826369580E+02  0.41404092819E+03  0.10100000352E+00 0.  1.
       -3    1    3    3    0  502  0.39240670903E+03  0.10124890983E+03 -0.32114879150E+03  0.51707922364E+03  0.10100000352E+00 0. -1.
</event>
<event>
 5   0  0.2041861E-02  0.8986138E+03  0.7818609E-02  0.9427316E-01
       -2   -1    0    0    0  501  0.00000000000E+00  0.00000000000E+00  0.70223118662E+02  0.70223118708E+02  0.25500000920E-02 0.  1.
        2   -1    0    0  501    0  0.00000000000E+00  0.00000000000E+00 -0.28747897424E+04  0.28747897424E+04  0.25500000920E-02 0. -1.
    10030    2    1    2    0    0  0.00000000000E+00  0.00000000000E+00 -0.28045666238E+04  0.29450128612E+04  0.89861382425E+03 0.  0.
        5    1    3    3  502    0 -0.31106901448E+02 -0.19556990324E+03 -0.27239652707E+04  0.27311580167E+04  0.46999998093E+01 0. -1.
       -5    1    3    3    0  502  0.31106901448E+02  0.19556990324E+03 -0.80601353099E+02  0.21385484444E+03  0.46999998093E+01 0.  1.
</event>
<event>
 5   0  0.2008770E-02  0.9049688E+03  0.7818609E-02  0.9419391E-01
        2   -1    0    0  501    0  0.00000000000E+00  0.00000000000E+00  0.37072711935E+03  0.37072711936E+03  0.25500000920E-02 0.  1.
       -2   -1    0    0    0  501  0.00000000000E+00  0.00000000000E+00 -0.55227184172E+03  0.55227184172E+03  0.25500000920E-02 0. -1.
    10030    2    1    2    0    0  0.00000000000E+00  0.00000000000E+00 -0.18154472237E+03  0.92299896108E+03  0.90496883700E+03 0.  0.
        1    1    3    3  502    0  0.13749051408E+03 -0.39288978455E+03 -0.27172220660E+03  0.49709051675E+03  0.50400001928E-02 0. -1.
       -1    1    3    3    0  502 -0.13749051408E+03  0.39288978455E+03  0.90177484229E+02  0.42590844433E+03  0.50400001928E-02 0.  1.
</event>
<event>
 5   0  0.1162839E-02  0.9390401E+03  0.7818609E-02  0.9378054E-01
        1   -1    0    0  501    0  0.00000000000E+00  0.00000000000E+00  0.23892565896E+03  0.23892565901E+03  0.50400001928E-02 0. -1.
       -1   -1    0    0    0  501  0.00000000000E+00  0.00000000000E+00 -0.92266812679E+03  0.92266812680E+03  0.50400001928E-02 0.  1.
    10030    2    1    2    0    0  0.00000000000E+00  0.00000000000E+00 -0.68374246783E+03  0.11615937858E+04  0.93904012743E+03 0.  0.
        2    1    3    3  502    0 -0.26716091657E+03 -0.22018241736E+03  0.50462650358E+02  0.34985958804E+03  0.25500000920E-02 0. -1.
       -2    1    3    3    0  502  0.26716091657E+03  0.22018241736E+03 -0.73420511819E+03  0.81173419777E+03  0.25500000920E-02 0.  1.
</event>
<event>
 5   0  0.1968763E-02  0.9019984E+03  0.7818609E-02  0.9423087E-01
       -2   -1    0    0    0  501  0.00000000000E+00  0.00000000000E+00  0.31126437537E+03  0.31126437538E+03  0.25500000920E-02 0. -1.
        2   -1    0    0  501    0  0.00000000000E+00  0.00000000000E+00 -0.65346465051E+03  0.65346465052E+03  0.25500000920E-02 0.  1.
    10030    2    1    2    0    0  0.00000000000E+00  0.00000000000E+00 -0.34220027514E+03  0.96472902590E+03  0.90199837312E+03 0.  0.
        2    1    3    3  502    0 -0.10823635392E+03 -0.23061960351E+03  0.22693745970E+03  0.34117608424E+03  0.25500000920E-02 0. -1.
       -2    1    3    3    0  502  0.10823635392E+03  0.23061960351E+03 -0.56913773484E+03  0.62355294167E+03  0.25500000920E-02 0.  1.
</event>
<event>
 5   0  0.2008770E-02  0.7962315E+03  0.7818609E-02  0.9565488E-01
       -2   -1    0    0    0  501  0.00000000000E+00  0.00000000000E+00  0.28287491939E+03  0.28287491940E+03  0.25500000920E-02 0.  1.
        2   -1    0    0  501    0  0.00000000000E+00  0.00000000000E+00 -0.56030465051E+03  0.56030465052E+03  0.25500000920E-02 0. -1.
    10030    2    1    2    0    0  0.00000000000E+00  0.00000000000E+00 -0.27742973113E+03  0.84317956992E+03  0.79623145593E+03 0.  0.
        1    1    3    3  502    0  0.10919863936E+03  0.60397809006E+01 -0.54408513120E+03  0.55496797368E+03  0.50400001928E-02 0. -1.
       -1    1    3    3    0  502 -0.10919863936E+03 -0.60397809006E+01  0.26665540008E+03  0.28821159624E+03  0.50400001928E-02 0.  1.
</event>
<event>
 5   0  0.1162839E-02  0.8750697E+03  0.7818609E-02  0.9457294E-01
        1   -1    0    0  501    0  0.00000000000E+00  0.00000000000E+00  0.17744195477E+04  0.17744195477E+04  0.50400001928E-02 0. -1.
       -1   -1    0    0    0  501  0.00000000000E+00  0.00000000000E+00 -0.10788696828E+03  0.10788696840E+03  0.50400001928E-02 0.  1.
    10030    2    1    2    0    0  0.00000000000E+00  0.00000000000E+00  0.16665325794E+04  0.18823065161E+04  0.87506970138E+03 0.  0.
        2    1    3    3  502    0 -0.98321141622E+02 -0.15443197772E+03 -0.21538413235E+02  0.18433715275E+03  0.25500000920E-02 0.  1.
       -2    1    3    3    0  502  0.98321141622E+02  0.15443197772E+03  0.16880709926E+04  0.16979693633E+04  0.25500000920E-02 0. -1.
</event>
<event>
 5   0  0.1175993E-02  0.8998582E+03  0.7818609E-02  0.9425759E-01
       -1   -1    0    0    0  501  0.00000000000E+00  0.00000000000E+00  0.61725405880E+03  0.61725405883E+03  0.50400001928E-02 0.  1.
        1   -1    0    0  501    0  0.00000000000E+00  0.00000000000E+00 -0.32796252162E+03  0.32796252166E+03  0.50400001928E-02 0. -1.
    10030    2    1    2    0    0  0.00000000000E+00  0.00000000000E+00  0.28929153718E+03  0.94521658049E+03  0.89985820580E+03 0.  0.
        4    1    3    3  502    0  0.98457650553E+02 -0.38956614909E+03 -0.67990504531E+02  0.40752915856E+03  0.12699999809E+01 0. -1.
       -4    1    3    3    0  502 -0.98457650553E+02  0.38956614909E+03  0.35728204171E+03  0.53768742193E+03  0.12699999809E+01 0.  1.
</event>
<event>
 5   0  0.2041861E-02  0.8954759E+03  0.7818609E-02  0.9431255E-01
        2   -1    0    0  501    0  0.00000000000E+00  0.00000000000E+00  0.93435612842E+03  0.93435612842E+03  0.25500000920E-02 0.  1.
       -2   -1    0    0    0  501  0.00000000000E+00  0.00000000000E+00 -0.21455338338E+03  0.21455338340E+03  0.25500000920E-02 0. -1.
    10030    2    1    2    0    0  0.00000000000E+00  0.00000000000E+00  0.71980274504E+03  0.11489095118E+04  0.89547589279E+03 0.  0.
        5    1    3    3  502    0 -0.50530739693E+01 -0.39151271928E+03  0.81337933028E+02  0.39993210956E+03  0.46999998093E+01 0. -1.
       -5    1    3    3    0  502  0.50530739693E+01  0.39151271928E+03  0.63846481201E+03  0.74897740225E+03  0.46999998093E+01 0.  1.
</event>
<event>
 5   0  0.1206541E-02  0.9534327E+03  0.7818609E-02  0.9361147E-01
       -1   -1    0    0    0  501  0.00000000000E+00  0.00000000000E+00  0.35378638008E+03  0.35378638011E+03  0.50400001928E-02 0. -1.
        1   -1    0    0  501    0  0.00000000000E+00  0.00000000000E+00 -0.64236066568E+03  0.64236066570E+03  0.50400001928E-02 0.  1.
    10030    2    1    2    0    0  0.00000000000E+00  0.00000000000E+00 -0.28857428560E+03  0.99614704581E+03  0.95343265025E+03 0.  0.
        3    1    3    3  502    0  0.34083204029E+03  0.32540309994E+03 -0.68910823915E+02  0.47623772319E+03  0.10100000352E+00 0. -1.
       -3    1    3    3    0  502 -0.34083204029E+03 -0.32540309994E+03 -0.21966346168E+03  0.51990932261E+03  0.10100000352E+00 0.  1.
</event>
<event>
 5   0  0.1226424E-02  0.8840949E+03  0.7818609E-02  0.9445685E-01
        1   -1    0    0  501    0  0.00000000000E+00  0.00000000000E+00  0.12298609099E+03  0.12298609109E+03  0.50400001928E-02 0. -1.
       -1   -1    0    0    0  501  0.00000000000E+00  0.00000000000E+00 -0.15888460884E+04  0.15888460884E+04  0.50400001928E-02 0.  1.
    10030    2    1    2    0    0  0.00000000000E+00  0.00000000000E+00 -0.14658599974E+04  0.17118321795E+04  0.88409494893E+03 0.  0.
        1    1    3    3  502    0  0.18617583717E+03 -0.23962173506E+03 -0.13553262714E+04  0.13888805997E+04  0.50400001928E-02 0.  1.
       -1    1    3    3    0  502 -0.18617583717E+03  0.23962173506E+03 -0.11053372597E+03  0.32295157975E+03  0.50400001928E-02 0. -1.
</event>
<event>
 5   0  0.2008643E-02  0.8810956E+03  0.7818609E-02  0.9449526E-01
       -2   -1    0    0    0  501  0.00000000000E+00  0.00000000000E+00  0.10084614444E+03  0.10084614447E+03  0.25500000920E-02 0.  1.
        2   -1    0    0  501    0  0.00000000000E+00  0.00000000000E+00 -0.19245390460E+04  0.19245390460E+04  0.25500000920E-02 0. -1.
    10030    2    1    2    0    0  0.00000000000E+00  0.00000000000E+00 -0.18236929015E+04  0.20253851904E+04  0.88109555131E+03 0.  0.
        3    1    3    3  502    0  0.11849568927E+03  0.38118587948E+03 -0.13402861550E+04  0.13984673363E+04  0.10100000352E+00 0. -1.
       -3    1    3    3    0  502 -0.11849568927E+03 -0.38118587948E+03 -0.48340674650E+03  0.62691785415E+03  0.10100000352E+00 0.  1.
</event>
<event>
 5   0  0.2041861E-02  0.9028699E+03  0.7818609E-02  0.9422001E-01
        2   -1    0    0  501    0  0.00000000000E+00  0.00000000000E+00  0.86333098562E+03  0.86333098562E+03  0.25500000920E-02 0. -1.
       -2   -1    0    0    0  501  0.00000000000E+00  0.00000000000E+00 -0.23605490422E+03  0.23605490424E+03  0.25500000920E-02 0.  1.
    10030    2    1    2    0    0  0.00000000000E+00  0.00000000000E+00  0.62727608140E+03  0.10993858899E+04  0.90286989790E+03 0.  0.
        5    1    3    3  502    0  0.43014760833E+03 -0.89735544240E+02  0.18772976897E+03  0.47785352255E+03  0.46999998093E+01 0. -1.
       -5    1    3    3    0  502 -0.43014760833E+03  0.89735544240E+02  0.43954631243E+03  0.62153236732E+03  0.46999998093E+01 0.  1.
</event>
<event>
 5   0  0.1177712E-02  0.8973437E+03  0.7818609E-02  0.9428908E-01
       -1   -1    0    0    0  501  0.00000000000E+00  0.00000000000E+00  0.31615718310E+03  0.31615718314E+03  0.50400001928E-02 0.  1.
        1   -1    0    0  501    0  0.00000000000E+00  0.00000000000E+00 -0.63672891278E+03  0.63672891280E+03  0.50400001928E-02 0. -1.
    10030    2    1    2    0    0  0.00000000000E+00  0.00000000000E+00 -0.32057172968E+03  0.95288609594E+03  0.89734367884E+03 0.  0.
        5    1    3    3  502    0 -0.23215792293E+03 -0.16162693578E+02 -0.56759729194E+03  0.61347152310E+03  0.46999998093E+01 0. -1.
       -5    1    3    3    0  502  0.23215792293E+03  0.16162693578E+02  0.24702556226E+03  0.33941457283E+03  0.46999998093E+01 0.  1.
</event>
<event>
 5   0  0.1162839E-02  0.8800383E+03  0.7818609E-02  0.9450884E-01
        1   -1    0    0  501    0  0.00000000000E+00  0.00000000000E+00  0.24940216259E+03  0.24940216264E+03  0.50400001928E-02 0. -1.
       -1   -1    0    0    0  501  0.00000000000E+00  0.00000000000E+00 -0.77632392092E+03  0.77632392093E+03  0.50400001928E-02 0.  1.
    10030    2    1    2    0    0  0.00000000000E+00  0.00000000000E+00 -0.52692175832E+03  0.10257260836E+04  0.88003832822E+03 0.  0.
        2    1    3    3  502    0 -0.27218324854E+02 -0.42423136196E+03 -0.13106079171E+03  0.44484830764E+03  0.25500000920E-02 0. -1.
       -2    1    3    3    0  502  0.27218324854E+02  0.42423136196E+03 -0.39586096662E+03  0.58087777594E+03  0.25500000920E-02 0.  1.
</event>
<event>
 5   0  0.1924218E-02  0.8948537E+03  0.7818609E-02  0.9432038E-01
       -2   -1    0    0    0  501  0.00000000000E+00  0.00000000000E+00  0.17773608261E+03  0.17773608263E+03  0.25500000920E-02 0.  1.
        2   -1    0    0  501    0  0.00000000000E+00  0.00000000000E+00 -0.11263372746E+04  0.11263372746E+04  0.25500000920E-02 0. -1.
    10030    2    1    2    0    0  0.00000000000E+00  0.00000000000E+00 -0.94860119196E+03  0.13040733572E+04  0.89485367494E+03 0.  0.
        4    1    3    3  502    0  0.14410240712E+03 -0.18189473524E+03  0.83178387822E+02  0.24651867180E+03  0.12699999809E+01 0.  1.
       -4    1    3    3    0  502 -0.14410240712E+03  0.18189473524E+03 -0.10317795798E+04  0.10575546854E+04  0.12699999809E+01 0. -1.
</event>
<event>
 5   0  0.2041861E-02  0.8935602E+03  0.7818609E-02  0.9433667E-01
       -2   -1    0    0    0  501  0.00000000000E+00  0.00000000000E+00  0.21999115454E+03  0.21999115456E+03  0.25500000920E-02 0.  1.
        2   -1    0    0  501    0  0.00000000000E+00  0.00000000000E+00 -0.90736592015E+03  0.90736592016E+03  0.25500000920E-02 0. -1.
    10030    2    1    2    0    0  0.00000000000E+00  0.00000000000E+00 -0.68737476561E+03  0.11273570747E+04  0.89356024168E+03 0.  0.
        5    1    3    3  502    0 -0.13744623193E+03 -0.19593562723E+03  0.13225298692E+03  0.27348707325E+03  0.46999998093E+01 0.  1.
       -5    1    3    3    0  502  0.13744623193E+03  0.19593562723E+03 -0.81962775253E+03  0.85387000147E+03  0.46999998093E+01 0. -1.
</event>
<event>
 5   0  0.1175993E-02  0.9078411E+03  0.7818609E-02  0.9415832E-01
       -1   -1    0    0    0  501  0.00000000000E+00  0.00000000000E+00  0.43635235250E+03  0.43635235252E+03  0.50400001928E-02 0.  1.
        1   -1    0    0  501    0  0.00000000000E+00  0.00000000000E+00 -0.47219606587E+03  0.47219606590E+03  0.50400001928E-02 0. -1.
    10030    2    1    2    0    0  0.00000000000E+00  0.00000000000E+00 -0.35843713374E+02  0.90854841842E+03  0.90784109668E+03 0.  0.
        4    1    3    3  502    0  0.12785959634E+03 -0.34786262237E+03 -0.28020575285E+03  0.46462173567E+03  0.12699999809E+01 0. -1.
       -4    1    3    3    0  502 -0.12785959634E+03  0.34786262237E+03  0.24436203948E+03  0.44392668275E+03  0.12699999809E+01 0.  1.
</event>
<event>
 5   0  0.1968763E-02  0.8866411E+03  0.7818609E-02  0.9442437E-01
       -2   -1    0    0    0  501  0.00000000000E+00  0.00000000000E+00  0.15564406953E+03  0.15564406955E+03  0.25500000920E-02 0. -1.
        2   -1    0    0  501    0  0.00000000000E+00  0.00000000000E+00 -0.12627085740E+04  0.12627085740E+04  0.25500000920E-02 0.  1.
    10030    2    1    2    0    0  0.00000000000E+00  0.00000000000E+00 -0.11070645045E+04  0.14183526436E+04  0.88664107983E+03 0.  0.
        2    1    3    3  502    0 -0.21637803472E+03  0.24207143872E+03 -0.10364036372E+04  0.10860711462E+04  0.25500000920E-02 0.  1.
       -2    1    3    3    0  502  0.21637803472E+03 -0.24207143872E+03 -0.70660867308E+02  0.33228149742E+03  0.25500000920E-02 0. -1.
</event>
<event>
 5   0  0.7893875E-03  0.9021731E+03  0.7818609E-02  0.9422869E-01
       -3   -1    0    0    0  501  0.00000000000E+00  0.00000000000E+00  0.59073250296E+03  0.59073251159E+03  0.10100000352E+00 0.  1.
        3   -1    0    0  501    0  0.00000000000E+00  0.00000000000E+00 -0.34445214769E+03  0.34445216249E+03  0.10100000352E+00 0. -1.
    10030    2    1    2    0    0  0.00000000000E+00  0.00000000000E+00  0.24628035527E+03  0.93518467409E+03  0.90217313264E+03 0.  0.
        5    1    3    3  502    0  0.33867057845E+03 -0.27243251413E+03 -0.18529637266E+01  0.43467546392E+03  0.46999998093E+01 0.  1.
       -5    1    3    3    0  502 -0.33867057845E+03  0.27243251413E+03  0.24813331900E+03  0.50050921016E+03  0.46999998093E+01 0. -1.
</event>
<event>
 5   0  0.1162839E-02  0.1005532E+04  0.7818609E-02  0.9302498E-01
       -1   -1    0    0    0  501  0.00000000000E+00  0.00000000000E+00  0.53238829867E+03  0.53238829869E+03  0.50400001928E-02 0.  1.
        1   -1    0    0  501    0  0.00000000000E+00  0.00000000000E+00 -0.47479217881E+03  0.47479217884E+03  0.50400001928E-02 0. -1.
    10030    2    1    2    0    0  0.00000000000E+00  0.00000000000E+00  0.57596119859E+02  0.10071804775E+04  0.10055322975E+04 0.  0.
        2    1    3    3  502    0 -0.44911405231E+03  0.18532800984E+03 -0.10073481896E+03  0.49618283624E+03  0.25500000920E-02 0. -1.
       -2    1    3    3    0  502  0.44911405231E+03 -0.18532800984E+03  0.15833093882E+03  0.51099764130E+03  0.25500000920E-02 0.  1.
</event>
<event>
 5   0  0.2008770E-02  0.8986549E+03  0.7818609E-02  0.9427264E-01
        2   -1    0    0  501    0  0.00000000000E+00  0.00000000000E+00  0.87984058557E+03  0.87984058557E+03  0.25500000920E-02 0.  1.
       -2   -1    0    0    0  501  0.00000000000E+00  0.00000000000E+00 -0.22946789695E+03  0.22946789697E+03  0.25500000920E-02 0. -1.
    10030    2    1    2    0    0  0.00000000000E+00  0.00000000000E+00  0.65037268862E+03  0.11093084825E+04  0.89865492562E+03 0.  0.
        1    1    3    3  502    0 -0.63616734052E+02 -0.44272169067E+03  0.27215576768E+03  0.52356312528E+03  0.50400001928E-02 0.  1.
       -1    1    3    3    0  502  0.63616734052E+02  0.44272169067E+03  0.37821692093E+03  0.58574535726E+03  0.50400001928E-02 0. -1.
</event>
<event>
 5   0  0.1226424E-02  0.8983703E+03  0.7818609E-02  0.9427621E-01
        1   -1    0    0  501    0  0.00000000000E+00  0.00000000000E+00  0.64613168563E+03  0.64613168565E+03  0.50400001928E-02 0. -1.
       -1   -1    0    0    0  501  0.00000000000E+00  0.00000000000E+00 -0.31226962299E+03  0.31226962303E+03  0.50400001928E-02 0.  1.
    10030    2    1    2    0    0  0.00000000000E+00  0.00000000000E+00  0.33386206265E+03  0.95840130868E+03  0.89837029759E+03 0.  0.
        1    1    3    3  502    0  0.41720634110E+03  0.15299756352E+03  0.96991810126E+02  0.45483711014E+03  0.50400001928E-02 0. -1.
       -1    1    3    3    0  502 -0.41720634110E+03 -0.15299756352E+03  0.23687025252E+03  0.50356419854E+03  0.50400001928E-02 0.  1.
</event>
<event>
 5   0  0.1206541E-02  0.8886908E+03  0.7818609E-02  0.9439830E-01
       -1   -1    0    0    0  501  0.00000000000E+00  0.00000000000E+00  0.40103805894E+03  0.40103805898E+03  0.50400001928E-02 0.  1.
        1   -1    0    0  501    0  0.00000000000E+00  0.00000000000E+00 -0.49232943940E+03  0.49232943943E+03  0.50400001928E-02 0. -1.
    10030    2    1    2    0    0  0.00000000000E+00  0.00000000000E+00 -0.91291380460E+02  0.89336749841E+03  0.88869081860E+03 0.  0.
        3    1    3    3  502    0 -0.66515681726E+02  0.43908521121E+03 -0.60646481092E+02  0.44821664906E+03  0.10100000352E+00 0.  1.
       -3    1    3    3    0  502  0.66515681726E+02 -0.43908521121E+03 -0.30644899368E+02  0.44515084935E+03  0.10100000352E+00 0. -1.
</event>
<event>
 5   0  0.1924218E-02  0.9006444E+03  0.7818609E-02  0.9424776E-01
        2   -1    0    0  501    0  0.00000000000E+00  0.00000000000E+00  0.19531824776E+03  0.19531824778E+03  0.25500000920E-02 0. -1.
       -2   -1    0    0    0  501  0.00000000000E+00  0.00000000000E+00 -0.10382545768E+04  0.10382545768E+04  0.25500000920E-02 0.  1.
    10030    2    1    2    0    0  0.00000000000E+00  0.00000000000E+00 -0.84293632904E+03  0.12335728246E+04  0.90064435753E+03 0.  0.
        4    1    3    3  502    0 -0.41007249728E+03 -0.18276668249E+03 -0.46941274315E+03  0.64954834276E+03  0.12699999809E+01 0.  1.
       -4    1    3    3    0  502  0.41007249728E+03  0.18276668249E+03 -0.37352358589E+03  0.58402448182E+03  0.12699999809E+01 0. -1.
</event>
<event>
 5   0  0.2008770E-02  0.9279527E+03  0.7818609E-02  0.9391298E-01
       -2   -1    0    0    0  501  0.00000000000E+00  0.00000000000E+00  0.11795878491E+03  0.11795878494E+03  0.25500000920E-02 0. -1.
        2   -1    0    0  501    0  0.00000000000E+00  0.00000000000E+00 -0.18249938497E+04  0.18249938497E+04  0.25500000920E-02 0.  1.
    10030    2    1    2    0    0  0.00000000000E+00  0.00000000000E+00 -0.17070350648E+04  0.19429526347E+04  0.92795270788E+03 0.  0.
        1    1    3    3  502    0 -0.26691142620E+03  0.57905148654E+02 -0.68188716602E+02  0.28150384859E+03  0.50400001928E-02 0. -1.
       -1    1    3    3    0  502  0.26691142620E+03 -0.57905148654E+02 -0.16388463482E+04  0.16614487861E+04  0.50400001928E-02 0.  1.
</event>
<event>
 5   0  0.2041861E-02  0.9109037E+03  0.7818609E-02  0.9412053E-01
        2   -1    0    0  501    0  0.00000000000E+00  0.00000000000E+00  0.35357829560E+03  0.35357829561E+03  0.25500000920E-02 0. -1.
       -2   -1    0    0    0  501  0.00000000000E+00  0.00000000000E+00 -0.58667736749E+03  0.58667736749E+03  0.25500000920E-02 0.  1.
    10030    2    1    2    0    0  0.00000000000E+00  0.00000000000E+00 -0.23309907189E+03  0.94025566310E+03  0.91090369122E+03 0.  0.
        5    1    3    3  502    0 -0.20296160888E+02 -0.42003634930E+03  0.63932581222E+02  0.42538445413E+03  0.46999998093E+01 0.  1.
       -5    1    3    3    0  502  0.20296160888E+02  0.42003634930E+03 -0.29703165311E+03  0.51487120897E+03  0.46999998093E+01 0. -1.
</event>
<event>
 5   0  0.1175993E-02  0.9033824E+03  0.7818609E-02  0.9421363E-01
        1   -1    0    0  501    0  0.00000000000E+00  0.00000000000E+00  0.36695268264E+03  0.36695268267E+03  0.50400001928E-02 0. -1.
       -1   -1    0    0    0  501  0.00000000000E+00  0.00000000000E+00 -0.55599801210E+03  0.55599801212E+03  0.50400001928E-02 0.  1.
    10030    2    1    2    0    0  0.00000000000E+00  0.00000000000E+00 -0.18904532946E+03  0.92295069480E+03  0.90338244860E+03 0.  0.
        4    1    3    3  502    0  0.30370061423E+03 -0.33152481312E+03 -0.50217610970E+02  0.45240047099E+03  0.12699999809E+01 0. -1.
       -4    1    3    3    0  502 -0.30370061423E+03  0.33152481312E+03 -0.13882771849E+03  0.47055022381E+03  0.12699999809E+01 0.  1.
</event>
<event>
 5   0  0.1177712E-02  0.8700035E+03  0.7818609E-02  0.9463875E-01
        1   -1    0    0  501    0  0.00000000000E+00  0.00000000000E+00  0.17454959781E+04  0.17454959781E+04  0.50400001928E-02 0.  1.
       -1   -1    0    0    0  501  0.00000000000E+00  0.00000000000E+00 -0.10840845588E+03  0.10840845600E+03  0.50400001928E-02 0. -1.
    10030    2    1    2    0    0  0.00000000000E+00  0.00000000000E+00  0.16370875222E+04  0.18539044341E+04  0.87000350311E+03 0.  0.
        5    1    3    3  502    0 -0.20023591464E+03 -0.30804631699E+03  0.13147200444E+04  0.13650999377E+04  0.46999998093E+01 0.  1.
       -5    1    3    3    0  502  0.20023591464E+03  0.30804631699E+03  0.32236747789E+03  0.48880449642E+03  0.46999998093E+01 0. -1.
</event>
<event>
 5   0  0.1968763E-02  0.8921891E+03  0.7818609E-02  0.9435398E-01
        2   -1    0    0  501    0  0.00000000000E+00  0.00000000000E+00  0.39938178020E+03  0.39938178021E+03  0.25500000920E-02 0. -1.
       -2   -1    0    0    0  501  0.00000000000E+00  0.00000000000E+00 -0.49827095427E+03  0.49827095428E+03  0.25500000920E-02 0.  1.
    10030    2    1    2    0    0  0.00000000000E+00  0.00000000000E+00 -0.98889174065E+02  0.89765273449E+03  0.89218908477E+03 0.  0.
        2    1    3    3  502    0 -0.40643387662E+03 -0.13687724495E+03  0.74093595307E+02  0.43521688515E+03  0.25500000920E-02 0. -1.
       -2    1    3    3    0  502  0.40643387662E+03  0.13687724495E+03 -0.17298276937E+03  0.46243584934E+03  0.25500000920E-02 0.  1.
</event>
<event>
 5   0  0.1175993E-02  0.8619946E+03  0.7818609E-02  0.9474378E-01
       -1   -1    0    0    0  501  0.00000000000E+00  0.00000000000E+00  0.34608939473E+03  0.34608939476E+03  0.50400001928E-02 0.  1.
        1   -1    0    0  501    0  0.00000000000E+00  0.00000000000E+00 -0.53673609769E+03  0.53673609772E+03  0.50400001928E-02 0. -1.
    10030    2    1    2    0    0  0.00000000000E+00  0.00000000000E+00 -0.19064670297E+03  0.88282549248E+03  0.86199459675E+03 0.  0.
        4    1    3    3  502    0 -0.14990100938E+03 -0.23312898310E+03 -0.43335648330E+03  0.51441120700E+03  0.12699999809E+01 0. -1.
       -4    1    3    3    0  502  0.14990100938E+03  0.23312898310E+03  0.24270978033E+03  0.36841428548E+03  0.12699999809E+01 0.  1.
</event>
<event>
 5   0  0.2041861E-02  0.8922262E+03  0.7818609E-02  0.9435352E-01
       -2   -1    0    0    0  501  0.00000000000E+00  0.00000000000E+00  0.11883931431E+03  0.11883931433E+03  0.25500000920E-02 0.  1.
        2   -1    0    0  501    0  0.00000000000E+00  0.00000000000E+00 -0.16746721386E+04  0.16746721386E+04  0.25500000920E-02 0. -1.
    10030    2    1    2    0    0  0.00000000000E+00  0.00000000000E+00 -0.15558328243E+04  0.17935114529E+04  0.89222617909E+03 0.  0.
        5    1    3    3  502    0 -0.44283266384E+03 -0.14960232201E+02 -0.67404336466E+03  0.80664807950E+03  0.46999998093E+01 0.  1.
       -5    1    3    3    0  502  0.44283266384E+03  0.14960232201E+02 -0.88178945961E+03  0.98686337342E+03  0.46999998093E+01 0. -1.
</event>
<event>
 5   0  0.1177712E-02  0.8946258E+03  0.7818609E-02  0.9432325E-01
        1   -1    0    0  501    0  0.00000000000E+00  0.00000000000E+00  0.66596997531E+03  0.66596997533E+03  0.50400001928E-02 0. -1.
       -1   -1    0    0    0  501  0.00000000000E+00  0.00000000000E+00 -0.30044719525E+03  0.30044719529E+03  0.50400001928E-02 0.  1.
    10030    2    1    2    0    0  0.00000000000E+00  0.00000000000E+00  0.36552278006E+03  0.96641717062E+03  0.89462575691E+03 0.  0.
        5    1    3    3  502    0 -0.11375793500E+03 -0.49163399221E+02  0.64702757134E+03  0.65880549153E+03  0.46999998093E+01 0. -1.
       -5    1    3    3    0  502  0.11375793500E+03  0.49163399221E+02 -0.28150479128E+03  0.30761167909E+03  0.46999998093E+01 0.  1.
</event>
<event>
 5   0  0.1175993E-02  0.9004507E+03  0.7818609E-02  0.9425018E-01
        1   -1    0    0  501    0  0.00000000000E+00  0.00000000000E+00  0.71133046598E+03  0.71133046600E+03  0.50400001928E-02 0.  1.
       -1   -1    0    0    0  501  0.00000000000E+00  0.00000000000E+00 -0.28496302274E+03  0.28496302278E+03  0.50400001928E-02 0. -1.
    10030    2    1    2    0    0  0.00000000000E+00  0.00000000000E+00  0.42636744324E+03  0.99629348878E+03  0.90045073110E+03 0.  0.
        4    1    3    3  502    0 -0.29814799778E+03  0.36581295968E+02  0.58424643845E+03  0.65694439151E+03  0.12699999809E+01 0.  1.
       -4    1    3    3    0  502  0.29814799778E+03 -0.36581295968E+02 -0.15787899520E+03  0.33934909728E+03  0.12699999809E+01 0. -1.
</event>
<event>
 5   0  0.1968763E-02  0.9056080E+03  0.7818609E-02  0.9418598E-01
       -2   -1    0    0    0  501  0.00000000000E+00  0.00000000000E+00  0.16575950901E+03  0.16575950903E+03  0.25500000920E-02 0. -1.
        2   -1    0    0  501    0  0.00000000000E+00  0.00000000000E+00 -0.12369213702E+04  0.12369213702E+04  0.25500000920E-02 0.  1.
    10030    2    1    2    0    0  0.00000000000E+00  0.00000000000E+00 -0.10711618612E+04  0.14026808792E+04  0.90560803668E+03 0.  0.
        2    1    3    3  502    0  0.41612456527E+02  0.27302599269E+03 -0.10913616933E+04  0.11257642448E+04  0.25500000920E-02 0.  1.
       -2    1    3    3    0  502 -0.41612456527E+02 -0.27302599269E+03  0.20199832086E+02  0.27691663447E+03  0.25500000920E-02 0. -1.
</event>
<event>
 5   0  0.1177712E-02  0.9008464E+03  0.7818609E-02  0.9424524E-01
       -1   -1    0    0    0  501  0.00000000000E+00  0.00000000000E+00  0.11989704254E+03  0.11989704265E+03  0.50400001928E-02 0.  1.
        1   -1    0    0  501    0  0.00000000000E+00  0.00000000000E+00 -0.16921271820E+04  0.16921271821E+04  0.50400001928E-02 0. -1.
    10030    2    1    2    0    0  0.00000000000E+00  0.00000000000E+00 -0.15722301395E+04  0.18120242247E+04  0.90084636833E+03 0.  0.
        5    1    3    3  502    0 -0.85182382087E+02  0.25324890254E+03 -0.56786633785E+02  0.27319929837E+03  0.46999998093E+01 0.  1.
       -5    1    3    3    0  502  0.85182382087E+02 -0.25324890254E+03 -0.15154435057E+04  0.15388249263E+04  0.46999998093E+01 0. -1.
</event>
<event>
 5   0  0.2008770E-02  0.9048181E+03  0.7818609E-02  0.9419579E-01
       -2   -1    0    0    0  501  0.00000000000E+00  0.00000000000E+00  0.17940757974E+03  0.17940757975E+03  0.25500000920E-02 0. -1.
        2   -1    0    0  501    0  0.00000000000E+00  0.00000000000E+00 -0.11408321326E+04  0.11408321327E+04  0.25500000920E-02 0.  1.
    10030    2    1    2    0    0  0.00000000000E+00  0.00000000000E+00 -0.96142455291E+03  0.13202397124E+04  0.90481806308E+03 0.  0.
        1    1    3    3  502    0 -0.26802073575E+03 -0.36087319469E+03 -0.55524689972E+03  0.71439743638E+03  0.50400001928E-02 0.  1.
       -1    1    3    3    0  502  0.26802073575E+03  0.36087319469E+03 -0.40617765319E+03  0.60584227602E+03  0.50400001928E-02 0. -1.
</event>
<event>
 5   0  0.1226424E-02  0.8964528E+03  0.7818609E-02  0.9430027E-01
       -1   -1    0    0    0  501  0.00000000000E+00  0.00000000000E+00  0.81364803155E+03  0.81364803156E+03  0.50400001928E-02 0.  1.
        1   -1    0    0  501    0  0.00000000000E+00  0.00000000000E+00 -0.24692113294E+03  0.24692113300E+03  0.50400001928E-02 0. -1.
    10030    2    1    2    0    0  0.00000000000E+00  0.00000000000E+00  0.56672689860E+03  0.10605691646E+04  0.89645277355E+03 0.  0.
        1    1    3    3  502    0 -0.36453271812E+03  0.11244063797E+03  0.56177525142E+03  0.67905701733E+03  0.50400001928E-02 0.  1.
       -1    1    3    3    0  502  0.36453271812E+03 -0.11244063797E+03  0.49516471829E+01  0.38151214723E+03  0.50400001928E-02 0. -1.
</event>
<event>
 5   0  0.1162839E-02  0.9767784E+03  0.7818609E-02  0.9334387E-01
        1   -1    0    0  501    0  0.00000000000E+00  0.00000000000E+00  0.73566861034E+03  0.73566861036E+03  0.50400001928E-02 0.  1.
       -1   -1    0    0    0  501  0.00000000000E+00  0.00000000000E+00 -0.32422754096E+03  0.32422754100E+03  0.50400001928E-02 0. -1.
    10030    2    1    2    0    0  0.00000000000E+00  0.00000000000E+00  0.41144106938E+03  0.10598961514E+04  0.97677842835E+03 0.  0.
        2    1    3    3  502    0  0.45028562754E+03 -0.15152380061E+03  0.82920634632E+02  0.48227838451E+03  0.25500000920E-02 0.  1.
       -2    1    3    3    0  502 -0.45028562754E+03  0.15152380061E+03  0.32852043475E+03  0.57761776684E+03  0.25500000920E-02 0. -1.
</event>
<event>
 5   0  0.1924218E-02  0.7122287E+03  0.7818609E-02  0.9696545E-01
        2   -1    0    0  501    0  0.00000000000E+00  0.00000000000E+00  0.32354812017E+03  0.32354812018E+03  0.25500000920E-02 0. -1.
       -2   -1    0    0    0  501  0.00000000000E+00  0.00000000000E+00 -0.39195845886E+03  0.39195845887E+03  0.25500000920E-02 0.  1.
    10030    2    1    2    0    0  0.00000000000E+00  0.00000000000E+00 -0.68410338688E+02  0.71550657905E+03  0.71222867832E+03 0.  0.
        4    1    3    3  502    0 -0.66301541959E+02  0.19457699108E+03 -0.32633500633E+03  0.38568413136E+03  0.12699999809E+01 0.  1.
       -4    1    3    3    0  502  0.66301541959E+02 -0.19457699108E+03  0.25792466764E+03  0.32982244769E+03  0.12699999809E+01 0. -1.
</event>
<event>
 5   0  0.1968763E-02  0.9033550E+03  0.7818609E-02  0.9421397E-01
       -2   -1    0    0    0  501  0.00000000000E+00  0.00000000000E+00  0.34393080838E+03  0.34393080839E+03  0.25500000920E-02 0. -1.
        2   -1    0    0  501    0  0.00000000000E+00  0.00000000000E+00 -0.59317907866E+03  0.59317907866E+03  0.25500000920E-02 0.  1.
    10030    2    1    2    0    0  0.00000000000E+00  0.00000000000E+00 -0.24924827028E+03  0.93710988705E+03  0.90335499123E+03 0.  0.
        2    1    3    3  502    0  0.13262152815E+03 -0.16223491240E+03 -0.53970533067E+03  0.57895637183E+03  0.25500000920E-02 0.  1.
       -2    1    3    3    0  502 -0.13262152815E+03  0.16223491240E+03  0.29045706039E+03  0.35815351522E+03  0.25500000920E-02 0. -1.
</event>
<event>
 5   0  0.1924218E-02  0.7496315E+03  0.7818609E-02  0.9635929E-01
        2   -1    0    0  501    0  0.00000000000E+00  0.00000000000E+00  0.48559178962E+03  0.48559178963E+03  0.25500000920E-02 0. -1.
       -2   -1    0    0    0  501  0.00000000000E+00  0.00000000000E+00 -0.28931059599E+03  0.28931059600E+03  0.25500000920E-02 0.  1.
    10030    2    1    2    0    0  0.00000000000E+00  0.00000000000E+00  0.19628119363E+03  0.77490238563E+03  0.74963150966E+03 0.  0.
        4    1    3    3  502    0  0.37204752629E+03 -0.40049924482E+02  0.12035646171E+03  0.39307842608E+03  0.12699999809E+01 0.  1.
       -4    1    3    3    0  502 -0.37204752629E+03  0.40049924482E+02  0.75924731922E+02  0.38182395955E+03  0.12699999809E+01 0. -1.
</event>
<event>
 5   0  0.1162839E-02  0.9110348E+03  0.7818609E-02  0.9411892E-01
        1   -1    0    0  501    0  0.00000000000E+00  0.00000000000E+00  0.55949232680E+03  0.55949232683E+03  0.50400001928E-02 0. -1.
       -1   -1    0    0    0  501  0.00000000000E+00  0.00000000000E+00 -0.37086498716E+03  0.37086498719E+03  0.50400001928E-02 0.  1.
    10030    2    1    2    0    0  0.00000000000E+00  0.00000000000E+00  0.18862733965E+03  0.93035731402E+03  0.91103482836E+03 0.  0.
        2    1    3    3  502    0  0.19267537754E+02 -0.63591419931E+02  0.55451667587E+03  0.55848352754E+03  0.25500000920E-02 0. -1.
       -2    1    3    3    0  502 -0.19267537754E+02  0.63591419931E+02 -0.36588933623E+03  0.37187378648E+03  0.25500000920E-02 0.  1.
</event>
<event>
 5   0  0.2008770E-02  0.9288109E+03  0.7818609E-02  0.9390266E-01
        2   -1    0    0  501    0  0.00000000000E+00  0.00000000000E+00  0.10024370721E+04  0.10024370721E+04  0.25500000920E-02 0.  1.
       -2   -1    0    0    0  501  0.00000000000E+00  0.00000000000E+00 -0.21514809488E+03  0.21514809490E+03  0.25500000920E-02 0. -1.
    10030    2    1    2    0    0  0.00000000000E+00  0.00000000000E+00  0.78728897717E+03  0.12175851670E+04  0.92881090929E+03 0.  0.
        1    1    3    3  502    0 -0.39710450308E+03  0.24057652622E+03  0.38031603747E+03  0.60017442441E+03  0.50400001928E-02 0.  1.
       -1    1    3    3    0  502  0.39710450308E+03 -0.24057652622E+03  0.40697293970E+03  0.61741074254E+03  0.50400001928E-02 0. -1.
</event>
<event>
 5   0  0.1175993E-02  0.8898227E+03  0.7818609E-02  0.9438394E-01
       -1   -1    0    0    0  501  0.00000000000E+00  0.00000000000E+00  0.25305179704E+03  0.25305179709E+03  0.50400001928E-02 0.  1.
        1   -1    0    0  501    0  0.00000000000E+00  0.00000000000E+00 -0.78223547845E+03  0.78223547847E+03  0.50400001928E-02 0. -1.
    10030    2    1    2    0    0  0.00000000000E+00  0.00000000000E+00 -0.52918368141E+03  0.10352872756E+04  0.88982266450E+03 0.  0.
        4    1    3    3  502    0  0.12147266999E+03  0.27630338886E+03 -0.64489956069E+03  0.71203667639E+03  0.12699999809E+01 0. -1.
       -4    1    3    3    0  502 -0.12147266999E+03 -0.27630338886E+03  0.11571587927E+03  0.32325059917E+03  0.12699999809E+01 0.  1.
</event>
<event>
 5   0  0.1162839E-02  0.8932439E+03  0.7818609E-02  0.9434067E-01
        1   -1    0    0  501    0  0.00000000000E+00  0.00000000000E+00  0.22169278854E+03  0.22169278860E+03  0.50400001928E-02 0. -1.
       -1   -1    0    0    0  501  0.00000000000E+00  0.00000000000E+00 -0.89976383007E+03  0.89976383009E+03  0.50400001928E-02 0.  1.
    10030    2    1    2    0    0  0.00000000000E+00  0.00000000000E+00 -0.67807104153E+03  0.11214566187E+04  0.89324386941E+03 0.  0.
        2    1    3    3  502    0  0.89563794623E+02  0.39766015996E+03 -0.10987592076E+03  0.42217057464E+03  0.25500000920E-02 0. -1.
       -2    1    3    3    0  502 -0.89563794623E+02 -0.39766015996E+03 -0.56819512077E+03  0.69928604404E+03  0.25500000920E-02 0.  1.
</event>
<event>
 5   0  0.1175993E-02  0.9000315E+03  0.7818609E-02  0.9425542E-01
       -1   -1    0    0    0  501  0.00000000000E+00  0.00000000000E+00  0.34103626372E+03  0.34103626375E+03  0.50400001928E-02 0.  1.
        1   -1    0    0  501    0  0.00000000000E+00  0.00000000000E+00 -0.59382003252E+03  0.59382003254E+03  0.50400001928E-02 0. -1.
    10030    2    1    2    0    0  0.00000000000E+00  0.00000000000E+00 -0.25278376880E+03  0.93485629630E+03  0.90003147776E+03 0.  0.
        4    1    3    3  502    0  0.19534369504E+03 -0.34105699409E+03  0.10125377046E+03  0.40587309759E+03  0.12699999809E+01 0.  1.
       -4    1    3    3    0  502 -0.19534369504E+03  0.34105699409E+03 -0.35403753926E+03  0.52898319871E+03  0.12699999809E+01 0. -1.
</event>
<event>
 5   0  0.1924218E-02  0.9183751E+03  0.7818609E-02  0.9402899E-01
       -2   -1    0    0    0  501  0.00000000000E+00  0.00000000000E+00  0.96814571619E+02  0.96814571652E+02  0.25500000920E-02 0.  1.
        2   -1    0    0  501    0  0.00000000000E+00  0.00000000000E+00 -0.21779079537E+04  0.21779079537E+04  0.25500000920E-02 0. -1.
    10030    2    1    2    0    0  0.00000000000E+00  0.00000000000E+00 -0.20810933821E+04  0.22747225254E+04  0.91837514253E+03 0.  0.
        4    1    3    3  502    0 -0.45796740803E+03 -0.31925318916E+02 -0.10650967341E+04  0.11598215547E+04  0.12699999809E+01 0.  1.
       -4    1    3    3    0  502  0.45796740803E+03  0.31925318916E+02 -0.10159966480E+04  0.11149009707E+04  0.12699999809E+01 0. -1.
</event>
<event>
 5   0  0.1226424E-02  0.8956263E+03  0.7818609E-02  0.9431065E-01
        1   -1    0    0  501    0  0.00000000000E+00  0.00000000000E+00  0.26617578242E+03  0.26617578247E+03  0.50400001928E-02 0. -1.
       -1   -1    0    0    0  501  0.00000000000E+00  0.00000000000E+00 -0.75339914117E+03  0.75339914118E+03  0.50400001928E-02 0.  1.
    10030    2    1    2    0    0  0.00000000000E+00  0.00000000000E+00 -0.48722335875E+03  0.10195749237E+04  0.89562627453E+03 0.  0.
        1    1    3    3  502    0 -0.39474446776E+03  0.14147024012E+03 -0.42252271245E+03  0.59528351752E+03  0.50400001928E-02 0.  1.
       -1    1    3    3    0  502  0.39474446776E+03 -0.14147024012E+03 -0.64700646296E+02  0.42429140614E+03  0.50400001928E-02 0. -1.
</event>
<event>
 5   0  0.1177712E-02  0.9272400E+03  0.7818609E-02  0.9392156E-01
        1   -1    0    0  501    0  0.00000000000E+00  0.00000000000E+00  0.10580215901E+04  0.10580215901E+04  0.50400001928E-02 0.  1.
       -1   -1    0    0    0  501  0.00000000000E+00  0.00000000000E+00 -0.20315606680E+03  0.20315606687E+03  0.50400001928E-02 0. -1.
    10030    2    1    2    0    0  0.00000000000E+00  0.00000000000E+00  0.85486552330E+03  0.12611776570E+04  0.92724000105E+03 0.  0.
        5    1    3    3  502    0  0.17735274639E+02 -0.43928919295E+03  0.22738613114E+03  0.49499098743E+03  0.46999998093E+01 0. -1.
       -5    1    3    3    0  502 -0.17735274639E+02  0.43928919295E+03  0.62747939216E+03  0.76618666955E+03  0.46999998093E+01 0.  1.
</event>
<event>
 5   0  0.1206541E-02  0.9004711E+03  0.7818609E-02  0.9424993E-01
       -1   -1    0    0    0  501  0.00000000000E+00  0.00000000000E+00  0.46715393186E+03  0.46715393189E+03  0.50400001928E-02 0. -1.
        1   -1    0    0  501    0  0.00000000000E+00  0.00000000000E+00 -0.43392988389E+03  0.43392988392E+03  0.50400001928E-02 0.  1.
    10030    2    1    2    0    0  0.00000000000E+00  0.00000000000E+00  0.33224047977E+02  0.90108381581E+03  0.90047110212E+03 0.  0.
        3    1    3    3  502    0  0.12179167121E+03 -0.41332584119E+03  0.14724041688E+03  0.45535833443E+03  0.10100000352E+00 0. -1.
       -3    1    3    3    0  502 -0.12179167121E+03  0.41332584119E+03 -0.11401636890E+03  0.44572548138E+03  0.10100000352E+00 0.  1.
</event>
<event>
 5   0  0.1968763E-02  0.9015572E+03  0.7818609E-02  0.9423637E-01
       -2   -1    0    0    0  501  0.00000000000E+00  0.00000000000E+00  0.86506953876E+02  0.86506953914E+02  0.25500000920E-02 0. -1.
        2   -1    0    0  501    0  0.00000000000E+00  0.00000000000E+00 -0.23489596140E+04  0.23489596140E+04  0.25500000920E-02 0.  1.
    10030    2    1    2    0    0  0.00000000000E+00  0.00000000000E+00 -0.22624526601E+04  0.24354665679E+04  0.90155718849E+03 0.  0.
        2    1    3    3  502    0  0.37664259015E+03  0.80244254832E+02 -0.17641993354E+04  0.18057403125E+04  0.25500000920E-02 0.  1.
       -2    1    3    3    0  502 -0.37664259015E+03 -0.80244254832E+02 -0.49825332467E+03  0.62972625537E+03  0.25500000920E-02 0. -1.
</event>
<event>
 5   0  0.1968763E-02  0.8976768E+03  0.7818609E-02  0.9428490E-01
       -2   -1    0    0    0  501  0.00000000000E+00  0.00000000000E+00  0.33992359388E+03  0.33992359389E+03  0.25500000920E-02 0.  1.
        2   -1    0    0  501    0  0.00000000000E+00  0.00000000000E+00 -0.59265055212E+03  0.59265055212E+03  0.25500000920E-02 0. -1.
    10030    2    1    2    0    0  0.00000000000E+00  0.00000000000E+00 -0.25272695824E+03  0.93257414601E+03  0.89767679171E+03 0.  0.
        2    1    3    3  502    0 -0.28098257522E+03  0.31816603025E+03  0.25166626512E+02  0.42522251761E+03  0.25500000920E-02 0.  1.
       -2    1    3    3    0  502  0.28098257522E+03 -0.31816603025E+03 -0.27789358475E+03  0.50735162840E+03  0.25500000920E-02 0. -1.
</event>
<event>
 5   0  0.7893875E-03  0.8376573E+03  0.7818609E-02  0.9507054E-01
        3   -1    0    0  501    0  0.00000000000E+00  0.00000000000E+00  0.33034817683E+03  0.33034819227E+03  0.10100000352E+00 0.  1.
       -3   -1    0    0    0  501  0.00000000000E+00  0.00000000000E+00 -0.53100776777E+03  0.53100777738E+03  0.10100000352E+00 0. -1.
    10030    2    1    2    0    0  0.00000000000E+00  0.00000000000E+00 -0.20065959094E+03  0.86135596965E+03  0.83765734940E+03 0.  0.
        5    1    3    3  502    0  0.20461415900E+03  0.29316537828E+03  0.12397563178E+03  0.37842428616E+03  0.46999998093E+01 0.  1.
       -5    1    3    3    0  502 -0.20461415900E+03 -0.29316537828E+03 -0.32463522272E+03  0.48293168348E+03  0.46999998093E+01 0. -1.
</event>
<event>
 5   0  0.1924218E-02  0.9284877E+03  0.7818609E-02  0.9390655E-01
       -2   -1    0    0    0  501  0.00000000000E+00  0.00000000000E+00  0.27745401508E+03  0.27745401509E+03  0.25500000920E-02 0. -1.
        2   -1    0    0  501    0  0.00000000000E+00  0.00000000000E+00 -0.77678592312E+03  0.77678592312E+03  0.25500000920E-02 0.  1.
    10030    2    1    2    0    0  0.00000000000E+00  0.00000000000E+00 -0.49933190804E+03  0.10542399382E+04  0.92848774517E+03 0.  0.
        4    1    3    3  502    0  0.17517510880E+03 -0.37352913660E+03 -0.79739070008E+01  0.41264455737E+03  0.12699999809E+01 0.  1.
       -4    1    3    3    0  502 -0.17517510880E+03  0.37352913660E+03 -0.49135800104E+03  0.64159538084E+03  0.12699999809E+01 0. -1.
</event>
<event>
 5   0  0.7893875E-03  0.8878735E+03  0.7818609E-02  0.9440868E-01
        3   -1    0    0  501    0  0.00000000000E+00  0.00000000000E+00  0.34610715900E+03  0.34610717374E+03  0.10100000352E+00 0.  1.
       -3   -1    0    0    0  501  0.00000000000E+00  0.00000000000E+00 -0.56941849180E+03  0.56941850076E+03  0.10100000352E+00 0. -1.
    10030    2    1    2    0    0  0.00000000000E+00  0.00000000000E+00 -0.22331133280E+03  0.91552567449E+03  0.88787347595E+03 0.  0.
        5    1    3    3  502    0  0.23188703228E+02 -0.36642015010E+03 -0.36893866059E+03  0.52051826830E+03  0.46999998093E+01 0. -1.
       -5    1    3    3    0  502 -0.23188703228E+02  0.36642015010E+03  0.14562732779E+03  0.39500740620E+03  0.46999998093E+01 0.  1.
</event>
<event>
 5   0  0.1177712E-02  0.9064381E+03  0.7818609E-02  0.9417569E-01
        1   -1    0    0  501    0  0.00000000000E+00  0.00000000000E+00  0.76434490660E+03  0.76434490662E+03  0.50400001928E-02 0.  1.
       -1   -1    0    0    0  501  0.00000000000E+00  0.00000000000E+00 -0.26873666795E+03  0.26873666800E+03  0.50400001928E-02 0. -1.
    10030    2    1    2    0    0  0.00000000000E+00  0.00000000000E+00  0.49560823865E+03  0.10330815746E+04  0.90643809143E+03 0.  0.
        5    1    3    3  502    0 -0.13963501933E+03  0.38100356943E+03  0.17808070401E+02  0.40620299840E+03  0.46999998093E+01 0. -1.
       -5    1    3    3    0  502  0.13963501933E+03 -0.38100356943E+03  0.47780016825E+03  0.62687857621E+03  0.46999998093E+01 0.  1.
</event>
<event>
 5   0  0.1226424E-02  0.9174887E+03  0.7818609E-02  0.9403980E-01
        1   -1    0    0  501    0  0.00000000000E+00  0.00000000000E+00  0.31376101795E+03  0.31376101799E+03  0.50400001928E-02 0.  1.
       -1   -1    0    0    0  501  0.00000000000E+00  0.00000000000E+00 -0.67072189348E+03  0.67072189350E+03  0.50400001928E-02 0. -1.
    10030    2    1    2    0    0  0.00000000000E+00  0.00000000000E+00 -0.35696087553E+03  0.98448291150E+03  0.91748871185E+03 0.  0.
        1    1    3    3  502    0 -0.16121301065E+03 -0.38087969629E+03  0.34473729684E+02  0.41502700624E+03  0.50400001928E-02 0.  1.
       -1    1    3    3    0  502  0.16121301065E+03  0.38087969629E+03 -0.39143460521E+03  0.56945590526E+03  0.50400001928E-02 0. -1.
</event>
<event>
 5   0  0.1162839E-02  0.9076887E+03  0.7818609E-02  0.9416021E-01
       -1   -1    0    0    0  501  0.00000000000E+00  0.00000000000E+00  0.22848767776E+03  0.22848767781E+03  0.50400001928E-02 0. -1.
        1   -1    0    0  501    0  0.00000000000E+00  0.00000000000E+00 -0.90146950857E+03  0.90146950858E+03  0.50400001928E-02 0.  1.
    10030    2    1    2    0    0  0.00000000000E+00  0.00000000000E+00 -0.67298183081E+03  0.11299571864E+04  0.90768865724E+03 0.  0.
        2    1    3    3  502    0 -0.30373839071E+03  0.30740192680E+03 -0.50908313093E+03  0.66777135967E+03  0.25500000920E-02 0.  1.
       -2    1    3    3    0  502  0.30373839071E+03 -0.30740192680E+03 -0.16389869988E+03  0.46218582672E+03  0.25500000920E-02 0. -1.
</event>
<event>
 5   0  0.2041861E-02  0.9051724E+03  0.7818609E-02  0.9419139E-01
       -2   -1    0    0    0  501  0.00000000000E+00  0.00000000000E+00  0.11264645861E+04  0.11264645861E+04  0.25500000920E-02 0.  1.
        2   -1    0    0  501    0  0.00000000000E+00  0.00000000000E+00 -0.18183817200E+03  0.18183817202E+03  0.25500000920E-02 0. -1.
    10030    2    1    2    0    0  0.00000000000E+00  0.00000000000E+00  0.94462641406E+03  0.13083027581E+04  0.90517238395E+03 0.  0.
        5    1    3    3  502    0 -0.30353077189E+03  0.32955371032E+03  0.56458573149E+03  0.72077438611E+03  0.46999998093E+01 0. -1.
       -5    1    3    3    0  502  0.30353077189E+03 -0.32955371032E+03  0.38004068257E+03  0.58752837197E+03  0.46999998093E+01 0.  1.
</event>
<event>
 5   0  0.1206541E-02  0.8949920E+03  0.7818609E-02  0.9431863E-01
       -1   -1    0    0    0  501  0.00000000000E+00  0.00000000000E+00  0.37841070512E+03  0.37841070515E+03  0.50400001928E-02 0. -1.
        1   -1    0    0  501    0  0.00000000000E+00  0.00000000000E+00 -0.52919398446E+03  0.52919398448E+03  0.50400001928E-02 0.  1.
    10030    2    1    2    0    0  0.00000000000E+00  0.00000000000E+00 -0.15078327934E+03  0.90760468963E+03  0.89499199735E+03 0.  0.
        3    1    3    3  502    0  0.71992542473E+02  0.47539917380E+02 -0.52068067972E+03  0.52777964185E+03  0.10100000352E+00 0.  1.
       -3    1    3    3    0  502 -0.71992542473E+02 -0.47539917380E+02  0.36989740038E+03  0.37982504778E+03  0.10100000352E+00 0. -1.
</event>
<event>
 5   0  0.1162839E-02  0.8902333E+03  0.7818609E-02  0.9437873E-01
       -1   -1    0    0    0  501  0.00000000000E+00  0.00000000000E+00  0.47877488986E+03  0.47877488989E+03  0.50400001928E-02 0. -1.
        1   -1    0    0  501    0  0.00000000000E+00  0.00000000000E+00 -0.41382462934E+03  0.41382462937E+03  0.50400001928E-02 0.  1.
    10030    2    1    2    0    0  0.00000000000E+00  0.00000000000E+00  0.64950260520E+02  0.89259951926E+03  0.89023332078E+03 0.  0.
        2    1    3    3  502    0 -0.12978692129E+03  0.40234468238E+03 -0.10718959088E+03  0.43613701606E+03  0.25500000920E-02 0.  1.
       -2    1    3    3    0  502  0.12978692129E+03 -0.40234468238E+03  0.17213985140E+03  0.45646250320E+03  0.25500000920E-02 0. -1.
</event>
<event>
 5   0  0.2008643E-02  0.9018298E+03  0.7818609E-02  0.9423297E-01
        2   -1    0    0  501    0  0.00000000000E+00  0.00000000000E+00  0.51540558021E+03  0.51540558022E+03  0.25500000920E-02 0. -1.
       -2   -1    0    0    0  501  0.00000000000E+00  0.00000000000E+00 -0.39449366940E+03  0.39449366940E+03  0.25500000920E-02 0.  1.
    10030    2    1    2    0    0  0.00000000000E+00  0.00000000000E+00  0.12091191082E+03  0.90989924962E+03  0.90182978121E+03 0.  0.
        3    1    3    3  502    0  0.31308073381E+03  0.23869595929E+03 -0.16134953174E+03  0.42547501508E+03  0.10100000352E+00 0.  1.
       -3    1    3    3    0  502 -0.31308073381E+03 -0.23869595929E+03  0.28226144255E+03  0.48442423455E+03  0.10100000352E+00 0. -1.
</event>
<event>
 5   0  0.1206541E-02  0.9106446E+03  0.7818609E-02  0.9412372E-01
        1   -1    0    0  501    0  0.00000000000E+00  0.00000000000E+00  0.59135244872E+03  0.59135244874E+03  0.50400001928E-02 0.  1.
       -1   -1    0    0    0  501  0.00000000000E+00  0.00000000000E+00 -0.35058348022E+03  0.35058348025E+03  0.50400001928E-02 0. -1.
    10030    2    1    2    0    0  0.00000000000E+00  0.00000000000E+00  0.24076896850E+03  0.94193592899E+03  0.91064460583E+03 0.  0.
        3    1    3    3  502    0 -0.60507962995E+02 -0.34867030304E+03 -0.17596727336E+03  0.39521726342E+03  0.10100000352E+00 0. -1.
       -3    1    3    3    0  502  0.60507962995E+02  0.34867030304E+03  0.41673624186E+03  0.54671866558E+03  0.10100000352E+00 0.  1.
</event>
<event>
 5   0  0.1206541E-02  0.8859815E+03  0.7818609E-02  0.9443277E-01
        1   -1    0    0  501    0  0.00000000000E+00  0.00000000000E+00  0.97003446895E+03  0.97003446896E+03  0.50400001928E-02 0.  1.
       -1   -1    0    0    0  501  0.00000000000E+00  0.00000000000E+00 -0.20230292071E+03  0.20230292078E+03  0.50400001928E-02 0. -1.
    10030    2    1    2    0    0  0.00000000000E+00  0.00000000000E+00  0.76773154824E+03  0.11723373897E+04  0.88598150388E+03 0.  0.
        3    1    3    3  502    0 -0.27381367687E+03 -0.61804498314E+02  0.83733629003E+03  0.88313407728E+03  0.10100000352E+00 0.  1.
       -3    1    3    3    0  502  0.27381367687E+03  0.61804498314E+02 -0.69604741796E+02  0.28920331246E+03  0.10100000352E+00 0. -1.
</event>
<event>
 5   0  0.1226424E-02  0.9054707E+03  0.7818609E-02  0.9418768E-01
        1   -1    0    0  501    0  0.00000000000E+00  0.00000000000E+00  0.13399107019E+04  0.13399107019E+04  0.50400001928E-02 0.  1.
       -1   -1    0    0    0  501  0.00000000000E+00  0.00000000000E+00 -0.15297236829E+03  0.15297236837E+03  0.50400001928E-02 0. -1.
    10030    2    1    2    0    0  0.00000000000E+00  0.00000000000E+00  0.11869383336E+04  0.14928830703E+04  0.90547073599E+03 0.  0.
        1    1    3    3  502    0  0.21951912711E+03 -0.38590664585E+03  0.44732812341E+03  0.63024997937E+03  0.50400001928E-02 0. -1.
       -1    1    3    3    0  502 -0.21951912711E+03  0.38590664585E+03  0.73961021021E+03  0.86263309092E+03  0.50400001928E-02 0.  1.
</event>
<event>
 5   0  0.7893875E-03  0.9115337E+03  0.7818609E-02  0.9411278E-01
       -4   -1    0    0    0  501  0.00000000000E+00  0.00000000000E+00  0.87247996396E+03  0.87248088828E+03  0.12699999809E+01 0.  1.
        4   -1    0    0  501    0  0.00000000000E+00  0.00000000000E+00 -0.23808113776E+03  0.23808452503E+03  0.12699999809E+01 0. -1.
    10030    2    1    2    0    0  0.00000000000E+00  0.00000000000E+00  0.63439882620E+03  0.11105654133E+04  0.91153368921E+03 0.  0.
        2    1    3    3  502    0  0.23520932335E+03  0.19454269470E+03  0.72955786570E+03  0.79083814100E+03  0.25500000920E-02 0.  1.
       -2    1    3    3    0  502 -0.23520932335E+03 -0.19454269470E+03 -0.95159039502E+02  0.31972727231E+03  0.25500000920E-02 0. -1.
</event>
<event>
 5   0  0.1175993E-02  0.8789453E+03  0.7818609E-02  0.9452290E-01
       -1   -1    0    0    0  501  0.00000000000E+00  0.00000000000E+00  0.48911894691E+03  0.48911894694E+03  0.50400001928E-02 0.  1.
        1   -1    0    0  501    0  0.00000000000E+00  0.00000000000E+00 -0.39486550536E+03  0.39486550539E+03  0.50400001928E-02 0. -1.
    10030    2    1    2    0    0  0.00000000000E+00  0.00000000000E+00  0.94253441552E+02  0.88398445233E+03  0.87894527743E+03 0.  0.
        4    1    3    3  502    0 -0.39654224443E+03 -0.42343201066E+02 -0.13858264155E+03  0.42219125966E+03  0.12699999809E+01 0.  1.
       -4    1    3    3    0  502  0.39654224443E+03  0.42343201066E+02  0.23283608310E+03  0.46179319267E+03  0.12699999809E+01 0. -1.
</event>
<event>
 5   0  0.1162839E-02  0.8947018E+03  0.7818609E-02  0.9432229E-01
        1   -1    0    0  501    0  0.00000000000E+00  0.00000000000E+00  0.10262378659E+04  0.10262378659E+04  0.50400001928E-02 0.  1.
       -1   -1    0    0    0  501  0.00000000000E+00  0.00000000000E+00 -0.19500628908E+03  0.19500628914E+03  0.50400001928E-02 0. -1.
    10030    2    1    2    0    0  0.00000000000E+00  0.00000000000E+00  0.83123157679E+03  0.12212441550E+04  0.89470182291E+03 0.  0.
        2    1    3    3  502    0 -0.14133653209E+03  0.40206597284E+03  0.23001064686E+03  0.48429119287E+03  0.25500000920E-02 0. -1.
       -2    1    3    3    0  502  0.14133653209E+03 -0.40206597284E+03  0.60122092993E+03  0.73695296214E+03  0.25500000920E-02 0.  1.
</event>
<event>
 5   0  0.2008643E-02  0.8993608E+03  0.7818609E-02  0.9426381E-01
        2   -1    0    0  501    0  0.00000000000E+00  0.00000000000E+00  0.92059892626E+03  0.92059892626E+03  0.25500000920E-02 0. -1.
       -2   -1    0    0    0  501  0.00000000000E+00  0.00000000000E+00 -0.21965314844E+03  0.21965314846E+03  0.25500000920E-02 0.  1.
    10030    2    1    2    0    0  0.00000000000E+00  0.00000000000E+00  0.70094577781E+03  0.11402520747E+04  0.89936077881E+03 0.  0.
        3    1    3    3  502    0 -0.27771641799E+03  0.11366506579E+02 -0.97701399205E+02  0.29462039967E+03  0.10100000352E+00 0.  1.
       -3    1    3    3    0  502  0.27771641799E+03 -0.11366506579E+02  0.79864717702E+03  0.84563167505E+03  0.10100000352E+00 0. -1.
</event>
<event>
 5   0  0.1924218E-02  0.9125773E+03  0.7818609E-02  0.9409994E-01
       -2   -1    0    0    0  501  0.00000000000E+00  0.00000000000E+00  0.19659658743E+03  0.19659658744E+03  0.25500000920E-02 0.  1.
        2   -1    0    0  501    0  0.00000000000E+00  0.00000000000E+00 -0.10590179839E+04  0.10590179839E+04  0.25500000920E-02 0. -1.
    10030    2    1    2    0    0  0.00000000000E+00  0.00000000000E+00 -0.86242139649E+03  0.12556145714E+04  0.91257727710E+03 0.  0.
        4    1    3    3  502    0 -0.90857238762E+02  0.52305676585E+02 -0.10422197232E+04  0.10474800647E+04  0.12699999809E+01 0. -1.
       -4    1    3    3    0  502  0.90857238762E+02 -0.52305676585E+02  0.17979832675E+03  0.20813450661E+03  0.12699999809E+01 0.  1.
</event>
<event>
 5   0  0.1924218E-02  0.8980895E+03  0.7818609E-02  0.9427973E-01
       -2   -1    0    0    0  501  0.00000000000E+00  0.00000000000E+00  0.13993345354E+03  0.13993345356E+03  0.25500000920E-02 0.  1.
        2   -1    0    0  501    0  0.00000000000E+00  0.00000000000E+00 -0.14409789799E+04  0.14409789799E+04  0.25500000920E-02 0. -1.
    10030    2    1    2    0    0  0.00000000000E+00  0.00000000000E+00 -0.13010455264E+04  0.15809124335E+04  0.89808945025E+03 0.  0.
        4    1    3    3  502    0 -0.34627577044E+03  0.22708894400E+03 -0.34480032109E+03  0.53885542774E+03  0.12699999809E+01 0. -1.
       -4    1    3    3    0  502  0.34627577044E+03 -0.22708894400E+03 -0.95624520530E+03  0.10420570058E+04  0.12699999809E+01 0.  1.
</event>
<event>
 5   0  0.1177712E-02  0.8986974E+03  0.7818609E-02  0.9427211E-01
        1   -1    0    0  501    0  0.00000000000E+00  0.00000000000E+00  0.34425886064E+03  0.34425886068E+03  0.50400001928E-02 0. -1.
       -1   -1    0    0    0  501  0.00000000000E+00  0.00000000000E+00 -0.58651865527E+03  0.58651865529E+03  0.50400001928E-02 0.  1.
    10030    2    1    2    0    0  0.00000000000E+00  0.00000000000E+00 -0.24225979463E+03  0.93077751597E+03  0.89869737740E+03 0.  0.
        5    1    3    3  502    0  0.20349875385E+03  0.32036425368E+03 -0.37022971878E+03  0.53022366274E+03  0.46999998093E+01 0. -1.
       -5    1    3    3    0  502 -0.20349875385E+03 -0.32036425368E+03  0.12796992415E+03  0.40055385324E+03  0.46999998093E+01 0.  1.
</event>
<event>
 5   0  0.1206541E-02  0.8979632E+03  0.7818609E-02  0.9428131E-01
        1   -1    0    0  501    0  0.00000000000E+00  0.00000000000E+00  0.12478966878E+04  0.12478966879E+04  0.50400001928E-02 0. -1.
       -1   -1    0    0    0  501  0.00000000000E+00  0.00000000000E+00 -0.16153937967E+03  0.16153937975E+03  0.50400001928E-02 0.  1.
    10030    2    1    2    0    0  0.00000000000E+00  0.00000000000E+00  0.10863573082E+04  0.14094360676E+04  0.89796315495E+03 0.  0.
        3    1    3    3  502    0  0.27370565542E+03  0.34018619904E+03  0.37898541157E+03  0.57816207780E+03  0.10100000352E+00 0.  1.
       -3    1    3    3    0  502 -0.27370565542E+03 -0.34018619904E+03  0.70737189660E+03  0.83127398980E+03  0.10100000352E+00 0. -1.
</event>
<event>
 5   0  0.1924218E-02  0.1162623E+04  0.7818609E-02  0.9146217E-01
        2   -1    0    0  501    0  0.00000000000E+00  0.00000000000E+00  0.97621571020E+03  0.97621571020E+03  0.25500000920E-02 0.  1.
       -2   -1    0    0    0  501  0.00000000000E+00  0.00000000000E+00 -0.34615586068E+03  0.34615586069E+03  0.25500000920E-02 0. -1.
    10030    2    1    2    0    0  0.00000000000E+00  0.00000000000E+00  0.63005984951E+03  0.13223715709E+04  0.11626225344E+04 0.  0.
        4    1    3    3  502    0 -0.14464210134E+02  0.42464432392E+03 -0.13620445163E+03  0.44618973628E+03  0.12699999809E+01 0. -1.
       -4    1    3    3    0  502  0.14464210134E+02 -0.42464432392E+03  0.76626430114E+03  0.87618183462E+03  0.12699999809E+01 0.  1.
</event>
<event>
 5   0  0.7893875E-03  0.8229203E+03  0.7818609E-02  0.9527421E-01
       -3   -1    0    0    0  501  0.00000000000E+00  0.00000000000E+00  0.22739793970E+03  0.22739796213E+03  0.10100000352E+00 0. -1.
        3   -1    0    0  501    0  0.00000000000E+00  0.00000000000E+00 -0.74450730239E+03  0.74450730924E+03  0.10100000352E+00 0.  1.
    10030    2    1    2    0    0  0.00000000000E+00  0.00000000000E+00 -0.51710936270E+03  0.97190527137E+03  0.82292026560E+03 0.  0.
        5    1    3    3  502    0 -0.11250442117E+03  0.36391481121E+03 -0.44222934294E+03  0.58367809309E+03  0.46999998093E+01 0.  1.
       -5    1    3    3    0  502  0.11250442117E+03 -0.36391481121E+03 -0.74880019754E+02  0.38822717828E+03  0.46999998093E+01 0. -1.
</event>
<event>
 5   0  0.2041861E-02  0.8848033E+03  0.7818609E-02  0.9444780E-01
       -2   -1    0    0    0  501  0.00000000000E+00  0.00000000000E+00  0.50223407139E+03  0.50223407140E+03  0.25500000920E-02 0.  1.
        2   -1    0    0  501    0  0.00000000000E+00  0.00000000000E+00 -0.38969721358E+03  0.38969721358E+03  0.25500000920E-02 0. -1.
    10030    2    1    2    0    0  0.00000000000E+00  0.00000000000E+00  0.11253685782E+03  0.89193128498E+03  0.88480329609E+03 0.  0.
        5    1    3    3  502    0 -0.26086760257E+03 -0.21467253498E+00  0.41642128967E+03  0.49140689112E+03  0.46999998093E+01 0.  1.
       -5    1    3    3    0  502  0.26086760257E+03  0.21467253498E+00 -0.30388443185E+03  0.40052439386E+03  0.46999998093E+01 0. -1.
</event>
<event>
 5   0  0.1177712E-02  0.9140969E+03  0.7818609E-02  0.9408129E-01
        1   -1    0    0  501    0  0.00000000000E+00  0.00000000000E+00  0.94441870672E+03  0.94441870673E+03  0.50400001928E-02 0.  1.
       -1   -1    0    0    0  501  0.00000000000E+00  0.00000000000E+00 -0.22118713515E+03  0.22118713521E+03  0.50400001928E-02 0. -1.
    10030    2    1    2    0    0  0.00000000000E+00  0.00000000000E+00  0.72323157157E+03  0.11656058419E+04  0.91409686174E+03 0.  0.
        5    1    3    3  502    0  0.52595691804E+02  0.31327770638E+03  0.78059729583E+03  0.84277129541E+03  0.46999998093E+01 0.  1.
       -5    1    3    3    0  502 -0.52595691804E+02 -0.31327770638E+03 -0.57365724262E+02  0.32283454653E+03  0.46999998093E+01 0. -1.
</event>
<event>
 5   0  0.1206541E-02  0.8800437E+03  0.7818609E-02  0.9450877E-01
       -1   -1    0    0    0  501  0.00000000000E+00  0.00000000000E+00  0.38915462313E+03  0.38915462316E+03  0.50400001928E-02 0. -1.
        1   -1    0    0  501    0  0.00000000000E+00  0.00000000000E+00 -0.49753806003E+03  0.49753806006E+03  0.50400001928E-02 0.  1.
    10030    2    1    2    0    0  0.00000000000E+00  0.00000000000E+00 -0.10838343691E+03  0.88669268322E+03  0.88004371771E+03 0.  0.
        3    1    3    3  502    0 -0.47745968026E+01  0.17492394870E+03 -0.46097216694E+03  0.49306848763E+03  0.10100000352E+00 0.  1.
       -3    1    3    3    0  502  0.47745968026E+01 -0.17492394870E+03  0.35258873003E+03  0.39362419558E+03  0.10100000352E+00 0. -1.
</event>
<event>
 5   0  0.1968763E-02  0.8890426E+03  0.7818609E-02  0.9439383E-01
        2   -1    0    0  501    0  0.00000000000E+00  0.00000000000E+00  0.14637618703E+04  0.14637618703E+04  0.25500000920E-02 0.  1.
       -2   -1    0    0    0  501  0.00000000000E+00  0.00000000000E+00 -0.13499406904E+03  0.13499406906E+03  0.25500000920E-02 0. -1.
    10030    2    1    2    0    0  0.00000000000E+00  0.00000000000E+00  0.13287678012E+04  0.15987559393E+04  0.88904256589E+03 0.  0.
        2    1    3    3  502    0 -0.23854364394E+03 -0.35769049617E+03  0.86746812097E+03  0.96816656729E+03  0.25500000920E-02 0. -1.
       -2    1    3    3    0  502  0.23854364394E+03  0.35769049617E+03  0.46129968026E+03  0.63058937204E+03  0.25500000920E-02 0.  1.
</event>
<event>
 5   0  0.2041861E-02  0.9280035E+03  0.7818609E-02  0.9391237E-01
       -2   -1    0    0    0  501  0.00000000000E+00  0.00000000000E+00  0.73377239846E+03  0.73377239847E+03  0.25500000920E-02 0. -1.
        2   -1    0    0  501    0  0.00000000000E+00  0.00000000000E+00 -0.29341202278E+03  0.29341202279E+03  0.25500000920E-02 0.  1.
    10030    2    1    2    0    0  0.00000000000E+00  0.00000000000E+00  0.44036037568E+03  0.10271844213E+04  0.92800354245E+03 0.  0.
        5    1    3    3  502    0 -0.21700939675E+02  0.52839308590E+02 -0.28947876449E+03  0.29509823518E+03  0.46999998093E+01 0.  1.
       -5    1    3    3    0  502  0.21700939675E+02 -0.52839308590E+02  0.72983914018E+03  0.73208618608E+03  0.46999998093E+01 0. -1.
</event>
<event>
 5   0  0.2008770E-02  0.9377299E+03  0.7818609E-02  0.9379609E-01
        2   -1    0    0  501    0  0.00000000000E+00  0.00000000000E+00  0.43369427448E+03  0.43369427449E+03  0.25500000920E-02 0. -1.
       -2   -1    0    0    0  501  0.00000000000E+00  0.00000000000E+00 -0.50688778602E+03  0.50688778602E+03  0.25500000920E-02 0.  1.
    10030    2    1    2    0    0  0.00000000000E+00  0.00000000000E+00 -0.73193511533E+02  0.94058206051E+03  0.93772987711E+03 0.  0.
        1    1    3    3  502    0 -0.23632779018E+03  0.27861881987E+03 -0.33135287608E+03  0.49322814164E+03  0.50400001928E-02 0.  1.
       -1    1    3    3    0  502  0.23632779018E+03 -0.27861881987E+03  0.25815936455E+03  0.44735391887E+03  0.50400001928E-02 0. -1.
</event>
<event>
 5   0  0.1924218E-02  0.9151895E+03  0.7818609E-02  0.9406791E-01
       -2   -1    0    0    0  501  0.00000000000E+00  0.00000000000E+00  0.30085369620E+03  0.30085369621E+03  0.25500000920E-02 0.  1.
        2   -1    0    0  501    0  0.00000000000E+00  0.00000000000E+00 -0.69599588587E+03  0.69599588587E+03  0.25500000920E-02 0. -1.
    10030    2    1    2    0    0  0.00000000000E+00  0.00000000000E+00 -0.39514218967E+03  0.99684958208E+03  0.91518945538E+03 0.  0.
        4    1    3    3  502    0  0.25525012785E+03  0.32234191226E+03  0.21183078539E+02  0.41171260836E+03  0.12699999809E+01 0.  1.
       -4    1    3    3    0  502 -0.25525012785E+03 -0.32234191226E+03 -0.41632526821E+03  0.58513697372E+03  0.12699999809E+01 0. -1.
</event>
<event>
 5   0  0.2041861E-02  0.8669493E+03  0.7818609E-02  0.9467866E-01
        2   -1    0    0  501    0  0.00000000000E+00  0.00000000000E+00  0.69115628706E+03  0.69115628706E+03  0.25500000920E-02 0.  1.
       -2   -1    0    0    0  501  0.00000000000E+00  0.00000000000E+00 -0.27186362226E+03  0.27186362227E+03  0.25500000920E-02 0. -1.
    10030    2    1    2    0    0  0.00000000000E+00  0.00000000000E+00  0.41929266480E+03  0.96301990933E+03  0.86694925285E+03 0.  0.
        5    1    3    3  502    0 -0.65225572286E+02  0.41635488591E+03  0.32223053448E+03  0.53052839099E+03  0.46999998093E+01 0.  1.
       -5    1    3    3    0  502  0.65225572286E+02 -0.41635488591E+03  0.97062130327E+02  0.43249151834E+03  0.46999998093E+01 0. -1.
</event>
<event>
 5   0  0.2008643E-02  0.8641045E+03  0.7818609E-02  0.9471599E-01
       -2   -1    0    0    0  501  0.00000000000E+00  0.00000000000E+00  0.11189477846E+03  0.11189477849E+03  0.25500000920E-02 0. -1.
        2   -1    0    0  501    0  0.00000000000E+00  0.00000000000E+00 -0.16682562627E+04  0.16682562627E+04  0.25500000920E-02 0.  1.
    10030    2    1    2    0    0  0.00000000000E+00  0.00000000000E+00 -0.15563614842E+04  0.17801510412E+04  0.86410454218E+03 0.  0.
        3    1    3    3  502    0  0.18330674254E+03 -0.28224170774E+03 -0.13363430673E+04  0.13780691373E+04  0.10100000352E+00 0.  1.
       -3    1    3    3    0  502 -0.18330674254E+03  0.28224170774E+03 -0.22001841696E+03  0.40208190391E+03  0.10100000352E+00 0. -1.
</event>
<event>
 5   0  0.1162839E-02  0.8890014E+03  0.7818609E-02  0.9439436E-01
       -1   -1    0    0    0  501  0.00000000000E+00  0.00000000000E+00  0.35289807119E+03  0.35289807122E+03  0.50400001928E-02 0.  1.
        1   -1    0    0  501    0  0.00000000000E+00  0.00000000000E+00 -0.55988090627E+03  0.55988090629E+03  0.50400001928E-02 0. -1.
    10030    2    1    2    0    0  0.00000000000E+00  0.00000000000E+00 -0.20698283508E+03  0.91277897751E+03  0.88900144419E+03 0.  0.
        2    1    3    3  502    0 -0.33071362875E+03 -0.12420072756E+02 -0.40816899423E+03  0.52547853458E+03  0.25500000920E-02 0. -1.
       -2    1    3    3    0  502  0.33071362875E+03  0.12420072756E+02  0.20118615915E+03  0.38730044293E+03  0.25500000920E-02 0.  1.
</event>
<event>
 5   0  0.2041861E-02  0.9028516E+03  0.7818609E-02  0.9422024E-01
       -2   -1    0    0    0  501  0.00000000000E+00  0.00000000000E+00  0.19628043453E+03  0.19628043455E+03  0.25500000920E-02 0. -1.
        2   -1    0    0  501    0  0.00000000000E+00  0.00000000000E+00 -0.10382351772E+04  0.10382351772E+04  0.25500000920E-02 0.  1.
    10030    2    1    2    0    0  0.00000000000E+00  0.00000000000E+00 -0.84195474270E+03  0.12345156118E+04  0.90285159744E+03 0.  0.
        5    1    3    3  502    0 -0.39197258742E+03  0.15439897744E+03 -0.19930774758E+03  0.46607641195E+03  0.46999998093E+01 0.  1.
       -5    1    3    3    0  502  0.39197258742E+03 -0.15439897744E+03 -0.64264699512E+03  0.76843919984E+03  0.46999998093E+01 0. -1.
</event>
<event>
 5   0  0.1177712E-02  0.9045615E+03  0.7818609E-02  0.9419897E-01
       -1   -1    0    0    0  501  0.00000000000E+00  0.00000000000E+00  0.58389065398E+03  0.58389065400E+03  0.50400001928E-02 0. -1.
        1   -1    0    0  501    0  0.00000000000E+00  0.00000000000E+00 -0.35033593901E+03  0.35033593905E+03  0.50400001928E-02 0.  1.
    10030    2    1    2    0    0  0.00000000000E+00  0.00000000000E+00  0.23355471497E+03  0.93422659305E+03  0.90456150829E+03 0.  0.
        5    1    3    3  502    0 -0.47492297183E+02  0.42496940491E+03 -0.35297197008E+02  0.42909497261E+03  0.46999998093E+01 0.  1.
       -5    1    3    3    0  502  0.47492297183E+02 -0.42496940491E+03  0.26885191198E+03  0.50513162045E+03  0.46999998093E+01 0. -1.
</event>
<event>
 5   0  0.1177712E-02  0.8785867E+03  0.7818609E-02  0.9452752E-01
       -1   -1    0    0    0  501  0.00000000000E+00  0.00000000000E+00  0.22819558708E+03  0.22819558714E+03  0.50400001928E-02 0.  1.
        1   -1    0    0  501    0  0.00000000000E+00  0.00000000000E+00 -0.84567217375E+03  0.84567217377E+03  0.50400001928E-02 0. -1.
    10030    2    1    2    0    0  0.00000000000E+00  0.00000000000E+00 -0.61747658667E+03  0.10738677609E+04  0.87858672471E+03 0.  0.
        5    1    3    3  502    0 -0.95041800310E+02  0.40017374656E+03 -0.12023711650E+03  0.42854524315E+03  0.46999998093E+01 0.  1.
       -5    1    3    3    0  502  0.95041800310E+02 -0.40017374656E+03 -0.49723947017E+03  0.64532251776E+03  0.46999998093E+01 0. -1.
</event>
<event>
 5   0  0.1177712E-02  0.8993852E+03  0.7818609E-02  0.9426350E-01
       -1   -1    0    0    0  501  0.00000000000E+00  0.00000000000E+00  0.57877146587E+03  0.57877146589E+03  0.50400001928E-02 0.  1.
        1   -1    0    0  501    0  0.00000000000E+00  0.00000000000E+00 -0.34940119660E+03  0.34940119664E+03  0.50400001928E-02 0. -1.
    10030    2    1    2    0    0  0.00000000000E+00  0.00000000000E+00  0.22937026927E+03  0.92817266253E+03  0.89938521838E+03 0.  0.
        5    1    3    3  502    0  0.18783912474E+03  0.40742635443E+03  0.14601438097E+03  0.47182842275E+03  0.46999998093E+01 0.  1.
       -5    1    3    3    0  502 -0.18783912474E+03 -0.40742635443E+03  0.83355888298E+02  0.45634423978E+03  0.46999998093E+01 0. -1.
</event>
<event>
 5   0  0.1175993E-02  0.9081057E+03  0.7818609E-02  0.9415505E-01
       -1   -1    0    0    0  501  0.00000000000E+00  0.00000000000E+00  0.45394102074E+03  0.45394102076E+03  0.50400001928E-02 0. -1.
        1   -1    0    0  501    0  0.00000000000E+00  0.00000000000E+00 -0.45416473967E+03  0.45416473969E+03  0.50400001928E-02 0.  1.
    10030    2    1    2    0    0  0.00000000000E+00  0.00000000000E+00 -0.22371893074E+00  0.90810576046E+03  0.90810573290E+03 0.  0.
        4    1    3    3  502    0 -0.73431734151E+02  0.37324848295E+03  0.24779083668E+03  0.45399180747E+03  0.12699999809E+01 0. -1.
       -4    1    3    3    0  502  0.73431734151E+02 -0.37324848295E+03 -0.24801455561E+03  0.45411395299E+03  0.12699999809E+01 0.  1.
</event>
<event>
 5   0  0.2008643E-02  0.8854798E+03  0.7818609E-02  0.9443917E-01
        2   -1    0    0  501    0  0.00000000000E+00  0.00000000000E+00  0.99017848264E+03  0.99017848264E+03  0.25500000920E-02 0.  1.
       -2   -1    0    0    0  501  0.00000000000E+00  0.00000000000E+00 -0.19796293106E+03  0.19796293107E+03  0.25500000920E-02 0. -1.
    10030    2    1    2    0    0  0.00000000000E+00  0.00000000000E+00  0.79221555158E+03  0.11881414137E+04  0.88547983535E+03 0.  0.
        3    1    3    3  502    0 -0.19448930654E+03 -0.22397008198E+03 -0.44915508061E+02  0.30001016824E+03  0.10100000352E+00 0. -1.
       -3    1    3    3    0  502  0.19448930654E+03  0.22397008198E+03  0.83713105964E+03  0.88813124548E+03  0.10100000352E+00 0.  1.
</event>
<event>
 5   0  0.2041861E-02  0.9363027E+03  0.7818609E-02  0.9381305E-01
       -2   -1    0    0    0  501  0.00000000000E+00  0.00000000000E+00  0.12235626755E+04  0.12235626755E+04  0.25500000920E-02 0.  1.
        2   -1    0    0  501    0  0.00000000000E+00  0.00000000000E+00 -0.17912093690E+03  0.17912093692E+03  0.25500000920E-02 0. -1.
    10030    2    1    2    0    0  0.00000000000E+00  0.00000000000E+00  0.10444417385E+04  0.14026836124E+04  0.93630271345E+03 0.  0.
        5    1    3    3  502    0  0.36269621498E+03 -0.29448551772E+03  0.56649343509E+03  0.73430726982E+03  0.46999998093E+01 0.  1.
       -5    1    3    3    0  502 -0.36269621498E+03  0.29448551772E+03  0.47794830346E+03  0.66837634256E+03  0.46999998093E+01 0. -1.
</event>
<event>
 5   0  0.1175993E-02  0.8615919E+03  0.7818609E-02  0.9474909E-01
        1   -1    0    0  501    0  0.00000000000E+00  0.00000000000E+00  0.87441566626E+03  0.87441566627E+03  0.50400001928E-02 0.  1.
       -1   -1    0    0    0  501  0.00000000000E+00  0.00000000000E+00 -0.21223905193E+03  0.21223905199E+03  0.50400001928E-02 0. -1.
    10030    2    1    2    0    0  0.00000000000E+00  0.00000000000E+00  0.66217661433E+03  0.10866547183E+04  0.86159190350E+03 0.  0.
        4    1    3    3  502    0  0.18770586861E+03 -0.29935667290E+03  0.64191028926E+03  0.73273347342E+03  0.12699999809E+01 0.  1.
       -4    1    3    3    0  502 -0.18770586861E+03  0.29935667290E+03  0.20266325068E+02  0.35392124484E+03  0.12699999809E+01 0. -1.
</event>
<event>
 5   0  0.1968763E-02  0.9033946E+03  0.7818609E-02  0.9421348E-01
        2   -1    0    0  501    0  0.00000000000E+00  0.00000000000E+00  0.50133767679E+03  0.50133767679E+03  0.25500000920E-02 0. -1.
       -2   -1    0    0    0  501  0.00000000000E+00  0.00000000000E+00 -0.40697211102E+03  0.40697211103E+03  0.25500000920E-02 0.  1.
    10030    2    1    2    0    0  0.00000000000E+00  0.00000000000E+00  0.94365565761E+02  0.90830978782E+03  0.90339460407E+03 0.  0.
        2    1    3    3  502    0 -0.19428982827E+03 -0.11585155887E+03 -0.34591799261E+03  0.41331510822E+03  0.25500000920E-02 0.  1.
       -2    1    3    3    0  502  0.19428982827E+03  0.11585155887E+03  0.44028355837E+03  0.49499467961E+03  0.25500000920E-02 0. -1.
</event>
<event>
 5   0  0.1968763E-02  0.9011685E+03  0.7818609E-02  0.9424122E-01
        2   -1    0    0  501    0  0.00000000000E+00  0.00000000000E+00  0.43955344043E+03  0.43955344043E+03  0.25500000920E-02 0. -1.
       -2   -1    0    0    0  501  0.00000000000E+00  0.00000000000E+00 -0.46189189828E+03  0.46189189828E+03  0.25500000920E-02 0.  1.
    10030    2    1    2    0    0  0.00000000000E+00  0.00000000000E+00 -0.22338457851E+02  0.90144533872E+03  0.90116851476E+03 0.  0.
        2    1    3    3  502    0 -0.37488434963E+03  0.68391882001E+02 -0.25168112081E+03  0.45668272543E+03  0.25500000920E-02 0.  1.
       -2    1    3    3    0  502  0.37488434963E+03 -0.68391882001E+02  0.22934266296E+03  0.44476261329E+03  0.25500000920E-02 0. -1.
</event>
<event>
 5   0  0.1175993E-02  0.8858409E+03  0.7818609E-02  0.9443456E-01
       -1   -1    0    0    0  501  0.00000000000E+00  0.00000000000E+00  0.22614074737E+03  0.22614074743E+03  0.50400001928E-02 0. -1.
        1   -1    0    0  501    0  0.00000000000E+00  0.00000000000E+00 -0.86750622897E+03  0.86750622898E+03  0.50400001928E-02 0.  1.
    10030    2    1    2    0    0  0.00000000000E+00  0.00000000000E+00 -0.64136548159E+03  0.10936469764E+04  0.88584085932E+03 0.  0.
        4    1    3    3  502    0  0.28305857176E+03  0.30393037340E+03 -0.13069652894E+03  0.43540673226E+03  0.12699999809E+01 0. -1.
       -4    1    3    3    0  502 -0.28305857176E+03 -0.30393037340E+03 -0.51066895265E+03  0.65824024415E+03  0.12699999809E+01 0.  1.
</event>
<event>
 5   0  0.2041861E-02  0.8676559E+03  0.7818609E-02  0.9466941E-01
       -2   -1    0    0    0  501  0.00000000000E+00  0.00000000000E+00  0.22283241268E+03  0.22283241269E+03  0.25500000920E-02 0.  1.
        2   -1    0    0  501    0  0.00000000000E+00  0.00000000000E+00 -0.84461096967E+03  0.84461096968E+03  0.25500000920E-02 0. -1.
    10030    2    1    2    0    0  0.00000000000E+00  0.00000000000E+00 -0.62177855699E+03  0.10674433824E+04  0.86765592295E+03 0.  0.
        5    1    3    3  502    0 -0.39975413726E+03 -0.12734223962E+03 -0.44658208700E+03  0.61276183520E+03  0.46999998093E+01 0. -1.
       -5    1    3    3    0  502  0.39975413726E+03  0.12734223962E+03 -0.17519646999E+03  0.45468154717E+03  0.46999998093E+01 0.  1.
</event>
<event>
 5   0  0.1206541E-02  0.8891520E+03  0.7818609E-02  0.9439245E-01
        1   -1    0    0  501    0  0.00000000000E+00  0.00000000000E+00  0.27461873578E+03  0.27461873583E+03  0.50400001928E-02 0.  1.
       -1   -1    0    0    0  501  0.00000000000E+00  0.00000000000E+00 -0.71971710377E+03  0.71971710378E+03  0.50400001928E-02 0. -1.
    10030    2    1    2    0    0  0.00000000000E+00  0.00000000000E+00 -0.44509836799E+03  0.99433583961E+03  0.88915195819E+03 0.  0.
        3    1    3    3  502    0  0.41494205884E+02 -0.41053810788E+03 -0.37490536503E+02  0.41432940720E+03  0.10100000352E+00 0.  1.
       -3    1    3    3    0  502 -0.41494205884E+02  0.41053810788E+03 -0.40760783148E+03  0.58000643241E+03  0.10100000352E+00 0. -1.
</event>
<event>
 5   0  0.1924218E-02  0.6184166E+03  0.7818609E-02  0.9867917E-01
        2   -1    0    0  501    0  0.00000000000E+00  0.00000000000E+00  0.71639431602E+03  0.71639431602E+03  0.25500000920E-02 0. -1.
       -2   -1    0    0    0  501  0.00000000000E+00  0.00000000000E+00 -0.13345969029E+03  0.13345969032E+03  0.25500000920E-02 0.  1.
    10030    2    1    2    0    0  0.00000000000E+00  0.00000000000E+00  0.58293462573E+03  0.84985400634E+03  0.61841657014E+03 0.  0.
        4    1    3    3  502    0 -0.90277410821E+02  0.14766714818E+03  0.64358595476E+03  0.66645336793E+03  0.12699999809E+01 0. -1.
       -4    1    3    3    0  502  0.90277410821E+02 -0.14766714818E+03 -0.60651329033E+02  0.18340063841E+03  0.12699999809E+01 0.  1.
</event>
<event>
 5   0  0.7893875E-03  0.9017264E+03  0.7818609E-02  0.9423426E-01
        3   -1    0    0  501    0  0.00000000000E+00  0.00000000000E+00  0.10117220155E+04  0.10117220206E+04  0.10100000352E+00 0.  1.
       -3   -1    0    0    0  501  0.00000000000E+00  0.00000000000E+00 -0.20092237409E+03  0.20092239948E+03  0.10100000352E+00 0. -1.
    10030    2    1    2    0    0  0.00000000000E+00  0.00000000000E+00  0.81079964142E+03  0.12126444200E+04  0.90172636144E+03 0.  0.
        2    1    3    3  502    0 -0.12285506680E+03 -0.34231273982E+03  0.76374942494E+03  0.84592231522E+03  0.25500000920E-02 0.  1.
       -2    1    3    3    0  502  0.12285506680E+03  0.34231273982E+03  0.47050216478E+02  0.36672210481E+03  0.25500000920E-02 0. -1.
</event>
<event>
 5   0  0.2041861E-02  0.8983697E+03  0.7818609E-02  0.9427622E-01
        2   -1    0    0  501    0  0.00000000000E+00  0.00000000000E+00  0.56908238041E+03  0.56908238041E+03  0.25500000920E-02 0.  1.
       -2   -1    0    0    0  501  0.00000000000E+00  0.00000000000E+00 -0.35454799719E+03  0.35454799720E+03  0.25500000920E-02 0. -1.
    10030    2    1    2    0    0  0.00000000000E+00  0.00000000000E+00  0.21453438322E+03  0.92363037761E+03  0.89836967495E+03 0.  0.
        5    1    3    3  502    0  0.17164507040E+03  0.26376366272E+03  0.43676530443E+03  0.53834869844E+03  0.46999998093E+01 0.  1.
       -5    1    3    3    0  502 -0.17164507040E+03 -0.26376366272E+03 -0.22223092121E+03  0.38528167917E+03  0.46999998093E+01 0. -1.
</event>
<event>
 5   0  0.1226424E-02  0.8992157E+03  0.7818609E-02  0.9426562E-01
        1   -1    0    0  501    0  0.00000000000E+00  0.00000000000E+00  0.43023356839E+03  0.43023356842E+03  0.50400001928E-02 0. -1.
       -1   -1    0    0    0  501  0.00000000000E+00  0.00000000000E+00 -0.46985464311E+03  0.46985464313E+03  0.50400001928E-02 0.  1.
    10030    2    1    2    0    0  0.00000000000E+00  0.00000000000E+00 -0.39621074713E+02  0.90008821156E+03  0.89921574665E+03 0.  0.
        1    1    3    3  502    0 -0.99789211175E+02  0.40405832710E+03  0.15043158429E+03  0.44255020048E+03  0.50400001928E-02 0. -1.
       -1    1    3    3    0  502  0.99789211175E+02 -0.40405832710E+03 -0.19005265900E+03  0.45753801108E+03  0.50400001928E-02 0.  1.
</event>
<event>
 5   0  0.1226424E-02  0.9025865E+03  0.7818609E-02  0.9422354E-01
        1   -1    0    0  501    0  0.00000000000E+00  0.00000000000E+00  0.18529565318E+03  0.18529565324E+03  0.50400001928E-02 0. -1.
       -1   -1    0    0    0  501  0.00000000000E+00  0.00000000000E+00 -0.10991385343E+04  0.10991385343E+04  0.50400001928E-02 0.  1.
    10030    2    1    2    0    0  0.00000000000E+00  0.00000000000E+00 -0.91384288110E+03  0.12844341875E+04  0.90258648935E+03 0.  0.
        1    1    3    3  502    0  0.38454159966E+03  0.30719190772E+02 -0.12364080124E+03  0.40509623339E+03  0.50400001928E-02 0.  1.
       -1    1    3    3    0  502 -0.38454159966E+03 -0.30719190772E+02 -0.79020207987E+03  0.87933795415E+03  0.50400001928E-02 0. -1.
</event>
<event>
 5   0  0.1206541E-02  0.9026917E+03  0.7818609E-02  0.9422223E-01
       -1   -1    0    0    0  501  0.00000000000E+00  0.00000000000E+00  0.12409452775E+03  0.12409452786E+03  0.50400001928E-02 0.  1.
        1   -1    0    0  501    0  0.00000000000E+00  0.00000000000E+00 -0.16415959880E+04  0.16415959880E+04  0.50400001928E-02 0. -1.
    10030    2    1    2    0    0  0.00000000000E+00  0.00000000000E+00 -0.15175014603E+04  0.17656905159E+04  0.90269170594E+03 0.  0.
        3    1    3    3  502    0  0.10909438005E+03  0.19221953472E+03  0.10998310392E+02  0.22129371053E+03  0.10100000352E+00 0.  1.
       -3    1    3    3    0  502 -0.10909438005E+03 -0.19221953472E+03 -0.15284997707E+04  0.15443968054E+04  0.10100000352E+00 0. -1.
</event>
<event>
 5   0  0.1924218E-02  0.8998834E+03  0.7818609E-02  0.9425727E-01
        2   -1    0    0  501    0  0.00000000000E+00  0.00000000000E+00  0.89735867767E+03  0.89735867768E+03  0.25500000920E-02 0.  1.
       -2   -1    0    0    0  501  0.00000000000E+00  0.00000000000E+00 -0.22560380817E+03  0.22560380818E+03  0.25500000920E-02 0. -1.
    10030    2    1    2    0    0  0.00000000000E+00  0.00000000000E+00  0.67175486950E+03  0.11229624859E+04  0.89988340353E+03 0.  0.
        4    1    3    3  502    0 -0.26742821250E+03 -0.30194722084E+03  0.87060423662E+02  0.41263919262E+03  0.12699999809E+01 0. -1.
       -4    1    3    3    0  502  0.26742821250E+03  0.30194722084E+03  0.58469444584E+03  0.71032329324E+03  0.12699999809E+01 0.  1.
</event>
<event>
 5   0  0.2008770E-02  0.9071305E+03  0.7818609E-02  0.9416712E-01
       -2   -1    0    0    0  501  0.00000000000E+00  0.00000000000E+00  0.15437291527E+03  0.15437291530E+03  0.25500000920E-02 0.  1.
        2   -1    0    0  501    0  0.00000000000E+00  0.00000000000E+00 -0.13326263669E+04  0.13326263669E+04  0.25500000920E-02 0. -1.
    10030    2    1    2    0    0  0.00000000000E+00  0.00000000000E+00 -0.11782534516E+04  0.14869992822E+04  0.90713045863E+03 0.  0.
        1    1    3    3  502    0  0.35353629405E+03 -0.10733961621E+03 -0.15787503789E+03  0.40178879033E+03  0.50400001928E-02 0.  1.
       -1    1    3    3    0  502 -0.35353629405E+03  0.10733961621E+03 -0.10203784137E+04  0.10852104918E+04  0.50400001928E-02 0. -1.
</event>
<event>
 5   0  0.2041861E-02  0.9045717E+03  0.7818609E-02  0.9419885E-01
        2   -1    0    0  501    0  0.00000000000E+00  0.00000000000E+00  0.47523463696E+03  0.47523463697E+03  0.25500000920E-02 0.  1.
       -2   -1    0    0    0  501  0.00000000000E+00  0.00000000000E+00 -0.43044526469E+03  0.43044526470E+03  0.25500000920E-02 0. -1.
    10030    2    1    2    0    0  0.00000000000E+00  0.00000000000E+00  0.44789372270E+02  0.90567990167E+03  0.90457171989E+03 0.  0.
        5    1    3    3  502    0 -0.37175065037E+03 -0.23206910137E+03  0.13427143274E+03  0.45837268844E+03  0.46999998093E+01 0.  1.
       -5    1    3    3    0  502  0.37175065037E+03  0.23206910137E+03 -0.89482060474E+02  0.44730721323E+03  0.46999998093E+01 0. -1.
</event>
<event>
 5   0  0.1162839E-02  0.9077526E+03  0.7818609E-02  0.9415942E-01
        1   -1    0    0  501    0  0.00000000000E+00  0.00000000000E+00  0.23945652870E+03  0.23945652875E+03  0.50400001928E-02 0.  1.
       -1   -1    0    0    0  501  0.00000000000E+00  0.00000000000E+00 -0.86029691835E+03  0.86029691836E+03  0.50400001928E-02 0. -1.
    10030    2    1    2    0    0  0.00000000000E+00  0.00000000000E+00 -0.62084038965E+03  0.10997534471E+04  0.90775263978E+03 0.  0.
        2    1    3    3  502    0  0.10276800626E+03 -0.37709456558E+03 -0.58996766080E+03  0.70768878421E+03  0.25500000920E-02 0. -1.
       -2    1    3    3    0  502 -0.10276800626E+03  0.37709456558E+03 -0.30872728849E+02  0.39206466290E+03  0.25500000920E-02 0.  1.
</event>
<event>
 5   0  0.7893875E-03  0.8064670E+03  0.7818609E-02  0.9550703E-01
       -3   -1    0    0    0  501  0.00000000000E+00  0.00000000000E+00  0.14339846768E+03  0.14339850325E+03  0.10100000352E+00 0.  1.
        3   -1    0    0  501    0  0.00000000000E+00  0.00000000000E+00 -0.11338841419E+04  0.11338841464E+04  0.10100000352E+00 0. -1.
    10030    2    1    2    0    0  0.00000000000E+00  0.00000000000E+00 -0.99048567418E+03  0.12772826496E+04  0.80646704597E+03 0.  0.
        5    1    3    3  502    0  0.31546492432E+03  0.25012254587E+03 -0.53050783413E+03  0.66598803180E+03  0.46999998093E+01 0. -1.
       -5    1    3    3    0  502 -0.31546492432E+03 -0.25012254587E+03 -0.45997784006E+03  0.61129461782E+03  0.46999998093E+01 0.  1.
</event>
<event>
 5   0  0.1177712E-02  0.8847756E+03  0.7818609E-02  0.9444815E-01
        1   -1    0    0  501    0  0.00000000000E+00  0.00000000000E+00  0.13674838795E+04  0.13674838795E+04  0.50400001928E-02 0. -1.
       -1   -1    0    0    0  501  0.00000000000E+00  0.00000000000E+00 -0.14311465171E+03  0.14311465180E+03  0.50400001928E-02 0.  1.
    10030    2    1    2    0    0  0.00000000000E+00  0.00000000000E+00  0.12243692278E+04  0.15105985313E+04  0.88477563078E+03 0.  0.
        5    1    3    3  502    0 -0.25876508555E+03  0.31342093513E+03  0.31404833770E+03  0.51365406694E+03  0.46999998093E+01 0.  1.
       -5    1    3    3    0  502  0.25876508555E+03 -0.31342093513E+03  0.91032089009E+03  0.99694446436E+03  0.46999998093E+01 0. -1.
</event>
<event>
 5   0  0.1924218E-02  0.9164701E+03  0.7818609E-02  0.9405224E-01
       -2   -1    0    0    0  501  0.00000000000E+00  0.00000000000E+00  0.32566358495E+03  0.32566358496E+03  0.25500000920E-02 0. -1.
        2   -1    0    0  501    0  0.00000000000E+00  0.00000000000E+00 -0.64477380928E+03  0.64477380928E+03  0.25500000920E-02 0.  1.
    10030    2    1    2    0    0  0.00000000000E+00  0.00000000000E+00 -0.31911022433E+03  0.97043739424E+03  0.91647007636E+03 0.  0.
        4    1    3    3  502    0  0.42566683912E+03 -0.14573339201E+03 -0.25154579175E+03  0.51546811514E+03  0.12699999809E+01 0. -1.
       -4    1    3    3    0  502 -0.42566683912E+03  0.14573339201E+03 -0.67564432582E+02  0.45496927910E+03  0.12699999809E+01 0.  1.
</event>
<event>
 5   0  0.1206541E-02  0.9017761E+03  0.7818609E-02  0.9423364E-01
       -1   -1    0    0    0  501  0.00000000000E+00  0.00000000000E+00  0.13403983449E+03  0.13403983459E+03  0.50400001928E-02 0.  1.
        1   -1    0    0  501    0  0.00000000000E+00  0.00000000000E+00 -0.15167136514E+04  0.15167136514E+04  0.50400001928E-02 0. -1.
    10030    2    1    2    0    0  0.00000000000E+00  0.00000000000E+00 -0.13826738169E+04  0.16507534860E+04  0.90177612941E+03 0.  0.
        3    1    3    3  502    0 -0.15899553795E+03  0.31954026631E+03 -0.11957028836E+04  0.12478345078E+04  0.10100000352E+00 0. -1.
       -3    1    3    3    0  502  0.15899553795E+03 -0.31954026631E+03 -0.18697093335E+03  0.40291897821E+03  0.10100000352E+00 0.  1.
</event>
<event>
 5   0  0.1924218E-02  0.8945143E+03  0.7818609E-02  0.9432465E-01
        2   -1    0    0  501    0  0.00000000000E+00  0.00000000000E+00  0.97298218837E+03  0.97298218837E+03  0.25500000920E-02 0. -1.
       -2   -1    0    0    0  501  0.00000000000E+00  0.00000000000E+00 -0.20559364992E+03  0.20559364994E+03  0.25500000920E-02 0.  1.
    10030    2    1    2    0    0  0.00000000000E+00  0.00000000000E+00  0.76738853845E+03  0.11785758383E+04  0.89451430269E+03 0.  0.
        4    1    3    3  502    0  0.36105865980E+03 -0.18919293723E+02  0.36807966986E+02  0.36342500578E+03  0.12699999809E+01 0.  1.
       -4    1    3    3    0  502 -0.36105865980E+03  0.18919293723E+02  0.73058057146E+03  0.81515083254E+03  0.12699999809E+01 0. -1.
</event>
<event>
 5   0  0.1226424E-02  0.8741612E+03  0.7818609E-02  0.9458470E-01
        1   -1    0    0  501    0  0.00000000000E+00  0.00000000000E+00  0.96404617164E+03  0.96404617166E+03  0.50400001928E-02 0. -1.
       -1   -1    0    0    0  501  0.00000000000E+00  0.00000000000E+00 -0.19816421230E+03  0.19816421236E+03  0.50400001928E-02 0.  1.
    10030    2    1    2    0    0  0.00000000000E+00  0.00000000000E+00  0.76588195934E+03  0.11622103840E+04  0.87416119856E+03 0.  0.
        1    1    3    3  502    0  0.34394750687E+03  0.45025977289E+02  0.29399419103E+02  0.34812577035E+03  0.50400001928E-02 0.  1.
       -1    1    3    3    0  502 -0.34394750687E+03 -0.45025977289E+02  0.73648254024E+03  0.81408461367E+03  0.50400001928E-02 0. -1.
</event>
<event>
 5   0  0.1226424E-02  0.8996808E+03  0.7818609E-02  0.9425981E-01
        1   -1    0    0  501    0  0.00000000000E+00  0.00000000000E+00  0.46298248091E+03  0.46298248093E+03  0.50400001928E-02 0.  1.
       -1   -1    0    0    0  501  0.00000000000E+00  0.00000000000E+00 -0.43707134570E+03  0.43707134573E+03  0.50400001928E-02 0. -1.
    10030    2    1    2    0    0  0.00000000000E+00  0.00000000000E+00  0.25911135208E+02  0.90005382666E+03  0.89968077892E+03 0.  0.
        1    1    3    3  502    0 -0.40716089602E+03  0.10398957845E+03 -0.14761814544E+03  0.44540424848E+03  0.50400001928E-02 0. -1.
       -1    1    3    3    0  502  0.40716089602E+03 -0.10398957845E+03  0.17352928064E+03  0.45464957818E+03  0.50400001928E-02 0.  1.
</event>
<event>
 5   0  0.1924218E-02  0.8855523E+03  0.7818609E-02  0.9443824E-01
        2   -1    0    0  501    0  0.00000000000E+00  0.00000000000E+00  0.25075863595E+04  0.25075863595E+04  0.25500000920E-02 0. -1.
       -2   -1    0    0    0  501  0.00000000000E+00  0.00000000000E+00 -0.78183040052E+02  0.78183040093E+02  0.25500000920E-02 0.  1.
    10030    2    1    2    0    0  0.00000000000E+00  0.00000000000E+00  0.24294033194E+04  0.25857693996E+04  0.88555231315E+03 0.  0.
        4    1    3    3  502    0  0.10377700642E+03 -0.31470746601E+03  0.35721660600E+03  0.48725329422E+03  0.12699999809E+01 0.  1.
       -4    1    3    3    0  502 -0.10377700642E+03  0.31470746601E+03  0.20721867134E+04  0.20985161053E+04  0.12699999809E+01 0. -1.
</event>
<event>
 5   0  0.2008770E-02  0.8950050E+03  0.7818609E-02  0.9431847E-01
       -2   -1    0    0    0  501  0.00000000000E+00  0.00000000000E+00  0.41673482586E+03  0.41673482586E+03  0.25500000920E-02 0. -1.
        2   -1    0    0  501    0  0.00000000000E+00  0.00000000000E+00 -0.48054175107E+03  0.48054175108E+03  0.25500000920E-02 0.  1.
    10030    2    1    2    0    0  0.00000000000E+00  0.00000000000E+00 -0.63806925219E+02  0.89727657694E+03  0.89500498983E+03 0.  0.
        1    1    3    3  502    0 -0.23377572598E+03  0.28562783211E+03  0.22176865362E+03  0.43059921539E+03  0.50400001928E-02 0. -1.
       -1    1    3    3    0  502  0.23377572598E+03 -0.28562783211E+03 -0.28557557884E+03  0.46667736156E+03  0.50400001928E-02 0.  1.
</event>
<event>
 5   0  0.1968763E-02  0.8652406E+03  0.7818609E-02  0.9470107E-01
        2   -1    0    0  501    0  0.00000000000E+00  0.00000000000E+00  0.76579462143E+03  0.76579462143E+03  0.25500000920E-02 0.  1.
       -2   -1    0    0    0  501  0.00000000000E+00  0.00000000000E+00 -0.24440013565E+03  0.24440013566E+03  0.25500000920E-02 0. -1.
    10030    2    1    2    0    0  0.00000000000E+00  0.00000000000E+00  0.52139448578E+03  0.10101947571E+04  0.86524056623E+03 0.  0.
        2    1    3    3  502    0  0.33132365550E+03  0.61308051073E+01  0.58540374028E+03  0.67268899991E+03  0.25500000920E-02 0.  1.
       -2    1    3    3    0  502 -0.33132365550E+03 -0.61308051073E+01 -0.64009254492E+02  0.33750575718E+03  0.25500000920E-02 0. -1.
</event>
<event>
 5   0  0.1924218E-02  0.8977181E+03  0.7818609E-02  0.9428438E-01
       -2   -1    0    0    0  501  0.00000000000E+00  0.00000000000E+00  0.13916032626E+03  0.13916032628E+03  0.25500000920E-02 0.  1.
        2   -1    0    0  501    0  0.00000000000E+00  0.00000000000E+00 -0.14477864561E+04  0.14477864561E+04  0.25500000920E-02 0. -1.
    10030    2    1    2    0    0  0.00000000000E+00  0.00000000000E+00 -0.13086261299E+04  0.15869467824E+04  0.89771807515E+03 0.  0.
        4    1    3    3  502    0 -0.39206625559E+03 -0.17607074187E+03 -0.88314000445E+03  0.98216838438E+03  0.12699999809E+01 0. -1.
       -4    1    3    3    0  502  0.39206625559E+03  0.17607074187E+03 -0.42548612543E+03  0.60477839805E+03  0.12699999809E+01 0.  1.
</event>
<event>
 5   0  0.1226424E-02  0.8850606E+03  0.7818609E-02  0.9444451E-01
        1   -1    0    0  501    0  0.00000000000E+00  0.00000000000E+00  0.57491819327E+03  0.57491819329E+03  0.50400001928E-02 0. -1.
       -1   -1    0    0    0  501  0.00000000000E+00  0.00000000000E+00 -0.34062771834E+03  0.34062771838E+03  0.50400001928E-02 0.  1.
    10030    2    1    2    0    0  0.00000000000E+00  0.00000000000E+00  0.23429047493E+03  0.91554591167E+03  0.88506061359E+03 0.  0.
        1    1    3    3  502    0  0.45995722009E+02 -0.40364072559E+03 -0.64374333838E+02  0.41132164626E+03  0.50400001928E-02 0.  1.
       -1    1    3    3    0  502 -0.45995722009E+02  0.40364072559E+03  0.29866480877E+03  0.50422426541E+03  0.50400001928E-02 0. -1.
</event>
<event>
 5   0  0.1206541E-02  0.8926729E+03  0.7818609E-02  0.9434787E-01
       -1   -1    0    0    0  501  0.00000000000E+00  0.00000000000E+00  0.91965370771E+03  0.91965370772E+03  0.50400001928E-02 0. -1.
        1   -1    0    0  501    0  0.00000000000E+00  0.00000000000E+00 -0.21662093326E+03  0.21662093332E+03  0.50400001928E-02 0.  1.
    10030    2    1    2    0    0  0.00000000000E+00  0.00000000000E+00  0.70303277445E+03  0.11362746410E+04  0.89267294007E+03 0.  0.
        3    1    3    3  502    0  0.12010500936E+03 -0.16397001215E+03 -0.15429509919E+03  0.25518300491E+03  0.10100000352E+00 0.  1.
       -3    1    3    3    0  502 -0.12010500936E+03  0.16397001215E+03  0.85732787363E+03  0.88109163614E+03  0.10100000352E+00 0. -1.
</event>
<event>
 5   0  0.1968763E-02  0.8877952E+03  0.7818609E-02  0.9440968E-01
       -2   -1    0    0    0  501  0.00000000000E+00  0.00000000000E+00  0.33063395161E+03  0.33063395162E+03  0.25500000920E-02 0. -1.
        2   -1    0    0  501    0  0.00000000000E+00  0.00000000000E+00 -0.59596135839E+03  0.59596135840E+03  0.25500000920E-02 0.  1.
    10030    2    1    2    0    0  0.00000000000E+00  0.00000000000E+00 -0.26532740678E+03  0.92659531002E+03  0.88779515417E+03 0.  0.
        2    1    3    3  502    0  0.44573474836E+02  0.41215752885E+03 -0.29829539580E+03  0.51072572523E+03  0.25500000920E-02 0.  1.
       -2    1    3    3    0  502 -0.44573474836E+02 -0.41215752885E+03  0.32967989020E+02  0.41586958479E+03  0.25500000920E-02 0. -1.
</event>
<event>
 5   0  0.7893875E-03  0.9505770E+03  0.7818609E-02  0.9364476E-01
        3   -1    0    0  501    0  0.00000000000E+00  0.00000000000E+00  0.36265748541E+03  0.36265749947E+03  0.10100000352E+00 0. -1.
       -3   -1    0    0    0  501  0.00000000000E+00  0.00000000000E+00 -0.62289942965E+03  0.62289943784E+03  0.10100000352E+00 0.  1.
    10030    2    1    2    0    0  0.00000000000E+00  0.00000000000E+00 -0.26024194424E+03  0.98555693731E+03  0.95057698643E+03 0.  0.
        3    1    3    3  502    0  0.30155296653E+03  0.25653824107E+03 -0.40276763727E+03  0.56477237945E+03  0.10100000352E+00 0. -1.
       -3    1    3    3    0  502 -0.30155296653E+03 -0.25653824107E+03  0.14252569303E+03  0.42078455786E+03  0.10100000352E+00 0.  1.
</event>
<event>
 5   0  0.1162839E-02  0.8736854E+03  0.7818609E-02  0.9459087E-01
       -1   -1    0    0    0  501  0.00000000000E+00  0.00000000000E+00  0.25036654229E+03  0.25036654234E+03  0.50400001928E-02 0.  1.
        1   -1    0    0  501    0  0.00000000000E+00  0.00000000000E+00 -0.76220870542E+03  0.76220870543E+03  0.50400001928E-02 0. -1.
    10030    2    1    2    0    0  0.00000000000E+00  0.00000000000E+00 -0.51184216313E+03  0.10125752478E+04  0.87368543106E+03 0.  0.
        2    1    3    3  502    0 -0.13656351799E+02 -0.15960045891E+03 -0.72694332904E+03  0.74438256701E+03  0.25500000920E-02 0. -1.
       -2    1    3    3    0  502  0.13656351799E+02  0.15960045891E+03  0.21510116591E+03  0.26819268076E+03  0.25500000920E-02 0.  1.
</event>
<event>
 5   0  0.1162839E-02  0.6982039E+03  0.7818609E-02  0.9720309E-01
       -1   -1    0    0    0  501  0.00000000000E+00  0.00000000000E+00  0.97497509152E+02  0.97497509282E+02  0.50400001928E-02 0. -1.
        1   -1    0    0  501    0  0.00000000000E+00  0.00000000000E+00 -0.12500028129E+04  0.12500028129E+04  0.50400001928E-02 0.  1.
    10030    2    1    2    0    0  0.00000000000E+00  0.00000000000E+00 -0.11525053038E+04  0.13475003222E+04  0.69820386934E+03 0.  0.
        2    1    3    3  502    0  0.16751470311E+02  0.28703023798E+03 -0.19411624456E+03  0.34691221611E+03  0.25500000920E-02 0. -1.
       -2    1    3    3    0  502 -0.16751470311E+02 -0.28703023798E+03 -0.95838905922E+03  0.10005881061E+04  0.25500000920E-02 0.  1.
</event>
<event>
 5   0  0.1175993E-02  0.9252142E+03  0.7818609E-02  0.9394600E-01
        1   -1    0    0  501    0  0.00000000000E+00  0.00000000000E+00  0.43040785142E+03  0.43040785145E+03  0.50400001928E-02 0. -1.
       -1   -1    0    0    0  501  0.00000000000E+00  0.00000000000E+00 -0.49721519148E+03  0.49721519151E+03  0.50400001928E-02 0.  1.
    10030    2    1    2    0    0  0.00000000000E+00  0.00000000000E+00 -0.66807340057E+02  0.92762304296E+03  0.92521418555E+03 0.  0.
        4    1    3    3  502    0  0.45868242148E+03  0.42768191451E+02 -0.75763254393E+02  0.46686225548E+03  0.12699999809E+01 0.  1.
       -4    1    3    3    0  502 -0.45868242148E+03 -0.42768191451E+02  0.89559143359E+01  0.46076078748E+03  0.12699999809E+01 0. -1.
</event>
<event>
 5   0  0.1968763E-02  0.8924332E+03  0.7818609E-02  0.9435090E-01
       -2   -1    0    0    0  501  0.00000000000E+00  0.00000000000E+00  0.56419017484E+03  0.56419017484E+03  0.25500000920E-02 0. -1.
        2   -1    0    0  501    0  0.00000000000E+00  0.00000000000E+00 -0.35291158562E+03  0.35291158563E+03  0.25500000920E-02 0.  1.
    10030    2    1    2    0    0  0.00000000000E+00  0.00000000000E+00  0.21127858922E+03  0.91710176047E+03  0.89243318898E+03 0.  0.
        2    1    3    3  502    0  0.13381026418E+03  0.28879671456E+02  0.54207874400E+03  0.55909622332E+03  0.25500000920E-02 0. -1.
       -2    1    3    3    0  502 -0.13381026418E+03 -0.28879671456E+02 -0.33080015478E+03  0.35800553715E+03  0.25500000920E-02 0.  1.
</event>
<event>
 5   0  0.1226424E-02  0.9363157E+03  0.7818609E-02  0.9381290E-01
       -1   -1    0    0    0  501  0.00000000000E+00  0.00000000000E+00  0.24627131745E+03  0.24627131751E+03  0.50400001928E-02 0.  1.
        1   -1    0    0  501    0  0.00000000000E+00  0.00000000000E+00 -0.88996055010E+03  0.88996055012E+03  0.50400001928E-02 0. -1.
    10030    2    1    2    0    0  0.00000000000E+00  0.00000000000E+00 -0.64368923265E+03  0.11362318676E+04  0.93631566727E+03 0.  0.
        1    1    3    3  502    0 -0.34726380148E+03 -0.17876115185E+03 -0.86168724740E+01  0.39066859069E+03  0.50400001928E-02 0.  1.
       -1    1    3    3    0  502  0.34726380148E+03  0.17876115185E+03 -0.63507236018E+03  0.74556327694E+03  0.50400001928E-02 0. -1.
</event>
<event>
 5   0  0.1968763E-02  0.8987040E+03  0.7818609E-02  0.9427203E-01
       -2   -1    0    0    0  501  0.00000000000E+00  0.00000000000E+00  0.12558373261E+03  0.12558373264E+03  0.25500000920E-02 0.  1.
        2   -1    0    0  501    0  0.00000000000E+00  0.00000000000E+00 -0.16078295718E+04  0.16078295718E+04  0.25500000920E-02 0. -1.
    10030    2    1    2    0    0  0.00000000000E+00  0.00000000000E+00 -0.14822458392E+04  0.17334133045E+04  0.89870404264E+03 0.  0.
        2    1    3    3  502    0  0.25218344755E+03  0.20866206167E+03 -0.13349306209E+04  0.13744730298E+04  0.25500000920E-02 0. -1.
       -2    1    3    3    0  502 -0.25218344755E+03 -0.20866206167E+03 -0.14731521835E+03  0.35894027464E+03  0.25500000920E-02 0.  1.
</event>
<event>
 5   0  0.1968763E-02  0.9165061E+03  0.7818609E-02  0.9405180E-01
        2   -1    0    0  501    0  0.00000000000E+00  0.00000000000E+00  0.67792400364E+03  0.67792400364E+03  0.25500000920E-02 0.  1.
       -2   -1    0    0    0  501  0.00000000000E+00  0.00000000000E+00 -0.30976311236E+03  0.30976311237E+03  0.25500000920E-02 0. -1.
    10030    2    1    2    0    0  0.00000000000E+00  0.00000000000E+00  0.36816089127E+03  0.98768711602E+03  0.91650608142E+03 0.  0.
        2    1    3    3  502    0  0.43628619743E+03  0.88633738705E+02  0.67044450376E+02  0.45021832930E+03  0.25500000920E-02 0.  1.
       -2    1    3    3    0  502 -0.43628619743E+03 -0.88633738705E+02  0.30111644090E+03  0.53746878671E+03  0.25500000920E-02 0. -1.
</event>
<event>
 5   0  0.1968763E-02  0.8448189E+03  0.7818609E-02  0.9497317E-01
       -2   -1    0    0    0  501  0.00000000000E+00  0.00000000000E+00  0.34225135831E+03  0.34225135832E+03  0.25500000920E-02 0.  1.
        2   -1    0    0  501    0  0.00000000000E+00  0.00000000000E+00 -0.52134123386E+03  0.52134123387E+03  0.25500000920E-02 0. -1.
    10030    2    1    2    0    0  0.00000000000E+00  0.00000000000E+00 -0.17908987556E+03  0.86359259219E+03  0.84481890471E+03 0.  0.
        2    1    3    3  502    0  0.26727352432E+03  0.21761007094E+03 -0.33918587109E+03  0.48356626736E+03  0.25500000920E-02 0. -1.
       -2    1    3    3    0  502 -0.26727352432E+03 -0.21761007094E+03  0.16009599553E+03  0.38002632483E+03  0.25500000920E-02 0.  1.
</event>
<event>
 5   0  0.2008770E-02  0.9085500E+03  0.7818609E-02  0.9414956E-01
        2   -1    0    0  501    0  0.00000000000E+00  0.00000000000E+00  0.12462564636E+04  0.12462564636E+04  0.25500000920E-02 0.  1.
       -2   -1    0    0    0  501  0.00000000000E+00  0.00000000000E+00 -0.16558853320E+03  0.16558853322E+03  0.25500000920E-02 0. -1.
    10030    2    1    2    0    0  0.00000000000E+00  0.00000000000E+00  0.10806679304E+04  0.14118449969E+04  0.90855000923E+03 0.  0.
        1    1    3    3  502    0  0.20286360156E+03  0.25427775541E+03  0.10330990583E+04  0.10830994792E+04  0.50400001928E-02 0.  1.
       -1    1    3    3    0  502 -0.20286360156E+03 -0.25427775541E+03  0.47568872196E+02  0.32874551763E+03  0.50400001928E-02 0. -1.
</event>
<event>
 5   0  0.1162839E-02  0.9173187E+03  0.7818609E-02  0.9404187E-01
       -1   -1    0    0    0  501  0.00000000000E+00  0.00000000000E+00  0.25814057242E+03  0.25814057247E+03  0.50400001928E-02 0.  1.
        1   -1    0    0  501    0  0.00000000000E+00  0.00000000000E+00 -0.81493731175E+03  0.81493731177E+03  0.50400001928E-02 0. -1.
    10030    2    1    2    0    0  0.00000000000E+00  0.00000000000E+00 -0.55679673933E+03  0.10730778842E+04  0.91731866694E+03 0.  0.
        2    1    3    3  502    0 -0.32661449833E+03  0.68106397157E+02 -0.64656510787E+03  0.72757264282E+03  0.25500000920E-02 0. -1.
       -2    1    3    3    0  502  0.32661449833E+03 -0.68106397157E+02  0.89768368539E+02  0.34550524143E+03  0.25500000920E-02 0.  1.
</event>
<event>
 5   0  0.1924218E-02  0.8983982E+03  0.7818609E-02  0.9427586E-01
       -2   -1    0    0    0  501  0.00000000000E+00  0.00000000000E+00  0.27022786559E+03  0.27022786561E+03  0.25500000920E-02 0.  1.
        2   -1    0    0  501    0  0.00000000000E+00  0.00000000000E+00 -0.74670256343E+03  0.74670256344E+03  0.25500000920E-02 0. -1.
    10030    2    1    2    0    0  0.00000000000E+00  0.00000000000E+00 -0.47647469784E+03  0.10169304290E+04  0.89839821896E+03 0.  0.
        4    1    3    3  502    0 -0.28351425445E+03  0.29168309645E+03 -0.45395639905E+03  0.60953866684E+03  0.12699999809E+01 0. -1.
       -4    1    3    3    0  502  0.28351425445E+03 -0.29168309645E+03 -0.22518298786E+02  0.40739176220E+03  0.12699999809E+01 0.  1.
</event>
<event>
 5   0  0.2041861E-02  0.9156620E+03  0.7818609E-02  0.9406212E-01
        2   -1    0    0  501    0  0.00000000000E+00  0.00000000000E+00  0.21267123181E+04  0.21267123181E+04  0.25500000920E-02 0. -1.
       -2   -1    0    0    0  501  0.00000000000E+00  0.00000000000E+00 -0.98560223424E+02  0.98560223457E+02  0.25500000920E-02 0.  1.
    10030    2    1    2    0    0  0.00000000000E+00  0.00000000000E+00  0.20281520947E+04  0.22252725416E+04  0.91566203650E+03 0.  0.
        5    1    3    3  502    0  0.19791292059E+03 -0.47056940438E+02  0.20107777947E+04  0.20210475772E+04  0.46999998093E+01 0. -1.
       -5    1    3    3    0  502 -0.19791292059E+03  0.47056940438E+02  0.17374300037E+02  0.20422496439E+03  0.46999998093E+01 0.  1.
</event>
<event>
 5   0  0.1206541E-02  0.9920370E+03  0.7818609E-02  0.9317322E-01
       -1   -1    0    0    0  501  0.00000000000E+00  0.00000000000E+00  0.32666856465E+03  0.32666856469E+03  0.50400001928E-02 0. -1.
        1   -1    0    0  501    0  0.00000000000E+00  0.00000000000E+00 -0.75316195592E+03  0.75316195594E+03  0.50400001928E-02 0.  1.
    10030    2    1    2    0    0  0.00000000000E+00  0.00000000000E+00 -0.42649339127E+03  0.10798305206E+04  0.99203696528E+03 0.  0.
        3    1    3    3  502    0  0.13884575069E+03 -0.47010459453E+02 -0.72904581616E+03  0.74363696657E+03  0.10100000352E+00 0.  1.
       -3    1    3    3    0  502 -0.13884575069E+03  0.47010459453E+02  0.30255242489E+03  0.33619355406E+03  0.10100000352E+00 0. -1.
</event>
<event>
 5   0  0.2041861E-02  0.1044709E+04  0.7818609E-02  0.9260823E-01
        2   -1    0    0  501    0  0.00000000000E+00  0.00000000000E+00  0.14862533877E+04  0.14862533877E+04  0.25500000920E-02 0.  1.
       -2   -1    0    0    0  501  0.00000000000E+00  0.00000000000E+00 -0.18358542523E+03  0.18358542525E+03  0.25500000920E-02 0. -1.
    10030    2    1    2    0    0  0.00000000000E+00  0.00000000000E+00  0.13026679625E+04  0.16698388130E+04  0.10447094528E+04 0.  0.
        5    1    3    3  502    0  0.30613511285E+03 -0.38109114680E+03  0.35711462478E+03  0.60539418127E+03  0.46999998093E+01 0. -1.
       -5    1    3    3    0  502 -0.30613511285E+03  0.38109114680E+03  0.94555333772E+03  0.10644446317E+04  0.46999998093E+01 0.  1.
</event>
<event>
 5   0  0.1206541E-02  0.8887979E+03  0.7818609E-02  0.9439694E-01
       -1   -1    0    0    0  501  0.00000000000E+00  0.00000000000E+00  0.58778040442E+03  0.58778040444E+03  0.50400001928E-02 0.  1.
        1   -1    0    0  501    0  0.00000000000E+00  0.00000000000E+00 -0.33599358227E+03  0.33599358230E+03  0.50400001928E-02 0. -1.
    10030    2    1    2    0    0  0.00000000000E+00  0.00000000000E+00  0.25178682215E+03  0.92377398674E+03  0.88879793810E+03 0.  0.
        3    1    3    3  502    0  0.15314593655E+03  0.25919686709E+03 -0.21385509300E+03  0.36928404351E+03  0.10100000352E+00 0. -1.
       -3    1    3    3    0  502 -0.15314593655E+03 -0.25919686709E+03  0.46564191515E+03  0.55448994323E+03  0.10100000352E+00 0.  1.
</event>
<event>
 5   0  0.2041861E-02  0.9470698E+03  0.7818609E-02  0.9368582E-01
        2   -1    0    0  501    0  0.00000000000E+00  0.00000000000E+00  0.94821547733E+03  0.94821547733E+03  0.25500000920E-02 0.  1.
       -2   -1    0    0    0  501  0.00000000000E+00  0.00000000000E+00 -0.23648138001E+03  0.23648138002E+03  0.25500000920E-02 0. -1.
    10030    2    1    2    0    0  0.00000000000E+00  0.00000000000E+00  0.71173409733E+03  0.11846968574E+04  0.94706980658E+03 0.  0.
        5    1    3    3  502    0 -0.12633903802E+03 -0.42084652915E+03  0.13512575666E+03  0.45973298091E+03  0.46999998093E+01 0. -1.
       -5    1    3    3    0  502  0.12633903802E+03  0.42084652915E+03  0.57660834067E+03  0.72496387645E+03  0.46999998093E+01 0.  1.
</event>
<event>
 5   0  0.1968763E-02  0.8407181E+03  0.7818609E-02  0.9502880E-01
        2   -1    0    0  501    0  0.00000000000E+00  0.00000000000E+00  0.39718440469E+03  0.39718440470E+03  0.25500000920E-02 0. -1.
       -2   -1    0    0    0  501  0.00000000000E+00  0.00000000000E+00 -0.44488592166E+03  0.44488592167E+03  0.25500000920E-02 0.  1.
    10030    2    1    2    0    0  0.00000000000E+00  0.00000000000E+00 -0.47701516975E+02  0.84207032637E+03  0.84071814529E+03 0.  0.
        2    1    3    3  502    0 -0.37437487249E+02 -0.31895882448E+03  0.24781499789E+03  0.40564586815E+03  0.25500000920E-02 0. -1.
       -2    1    3    3    0  502  0.37437487249E+02  0.31895882448E+03 -0.29551651487E+03  0.43642445821E+03  0.25500000920E-02 0.  1.
</event>
<event>
 5   0  0.1226424E-02  0.8842509E+03  0.7818609E-02  0.9445486E-01
        1   -1    0    0  501    0  0.00000000000E+00  0.00000000000E+00  0.66877196743E+03  0.66877196745E+03  0.50400001928E-02 0. -1.
       -1   -1    0    0    0  501  0.00000000000E+00  0.00000000000E+00 -0.29228930890E+03  0.29228930895E+03  0.50400001928E-02 0.  1.
    10030    2    1    2    0    0  0.00000000000E+00  0.00000000000E+00  0.37648265852E+03  0.96106127639E+03  0.88425086079E+03 0.  0.
        1    1    3    3  502    0 -0.43166716154E+03 -0.89049336027E+02  0.22602569495E+03  0.49533214856E+03  0.50400001928E-02 0. -1.
       -1    1    3    3    0  502  0.43166716154E+03  0.89049336027E+02  0.15045696357E+03  0.46572912783E+03  0.50400001928E-02 0.  1.
</event>
<event>
 5   0  0.1226424E-02  0.9246705E+03  0.7818609E-02  0.9395257E-01
        1   -1    0    0  501    0  0.00000000000E+00  0.00000000000E+00  0.88373483498E+03  0.88373483499E+03  0.50400001928E-02 0.  1.
       -1   -1    0    0    0  501  0.00000000000E+00  0.00000000000E+00 -0.24187560109E+03  0.24187560115E+03  0.50400001928E-02 0. -1.
    10030    2    1    2    0    0  0.00000000000E+00  0.00000000000E+00  0.64185923388E+03  0.11256104361E+04  0.92467052393E+03 0.  0.
        1    1    3    3  502    0 -0.30110238780E+03  0.22163104168E+03  0.65200861369E+03  0.75159709880E+03  0.50400001928E-02 0.  1.
       -1    1    3    3    0  502  0.30110238780E+03 -0.22163104168E+03 -0.10149379801E+02  0.37401333734E+03  0.50400001928E-02 0. -1.
</event>
<event>
 5   0  0.1924218E-02  0.7871163E+03  0.7818609E-02  0.9578855E-01
       -2   -1    0    0    0  501  0.00000000000E+00  0.00000000000E+00  0.30961155770E+03  0.30961155771E+03  0.25500000920E-02 0. -1.
        2   -1    0    0  501    0  0.00000000000E+00  0.00000000000E+00 -0.50026563768E+03  0.50026563769E+03  0.25500000920E-02 0.  1.
    10030    2    1    2    0    0  0.00000000000E+00  0.00000000000E+00 -0.19065407998E+03  0.80987719539E+03  0.78711631504E+03 0.  0.
        4    1    3    3  502    0 -0.99970923682E+02 -0.33970210962E+03  0.81379351865E+02  0.36333995193E+03  0.12699999809E+01 0. -1.
       -4    1    3    3    0  502  0.99970923682E+02  0.33970210962E+03 -0.27203343184E+03  0.44653724346E+03  0.12699999809E+01 0.  1.
</event>
<event>
 5   0  0.1924218E-02  0.8820474E+03  0.7818609E-02  0.9448305E-01
       -2   -1    0    0    0  501  0.00000000000E+00  0.00000000000E+00  0.18050813423E+03  0.18050813425E+03  0.25500000920E-02 0. -1.
        2   -1    0    0  501    0  0.00000000000E+00  0.00000000000E+00 -0.10775243605E+04  0.10775243605E+04  0.25500000920E-02 0.  1.
    10030    2    1    2    0    0  0.00000000000E+00  0.00000000000E+00 -0.89701622624E+03  0.12580324947E+04  0.88204741803E+03 0.  0.
        4    1    3    3  502    0  0.17480886987E+03  0.18219506044E+02 -0.10254142036E+04  0.10403682008E+04  0.12699999809E+01 0.  1.
       -4    1    3    3    0  502 -0.17480886987E+03 -0.18219506044E+02  0.12839797732E+03  0.21766429397E+03  0.12699999809E+01 0. -1.
</event>
<event>
 5   0  0.2008770E-02  0.9153730E+03  0.7818609E-02  0.9406566E-01
        2   -1    0    0  501    0  0.00000000000E+00  0.00000000000E+00  0.27175893273E+04  0.27175893273E+04  0.25500000920E-02 0.  1.
       -2   -1    0    0    0  501  0.00000000000E+00  0.00000000000E+00 -0.77081888971E+02  0.77081889014E+02  0.25500000920E-02 0. -1.
    10030    2    1    2    0    0  0.00000000000E+00  0.00000000000E+00  0.26405074383E+04  0.27946712163E+04  0.91537297067E+03 0.  0.
        1    1    3    3  502    0 -0.18203008197E+03 -0.11050817433E+03  0.83376743483E+02  0.22868906558E+03  0.50400001928E-02 0. -1.
       -1    1    3    3    0  502  0.18203008197E+03  0.11050817433E+03  0.25571306948E+04  0.25659821507E+04  0.50400001928E-02 0.  1.
</event>
<event>
 5   0  0.2041861E-02  0.9029857E+03  0.7818609E-02  0.9421857E-01
       -2   -1    0    0    0  501  0.00000000000E+00  0.00000000000E+00  0.18783882932E+03  0.18783882934E+03  0.25500000920E-02 0. -1.
        2   -1    0    0  501    0  0.00000000000E+00  0.00000000000E+00 -0.10852165271E+04  0.10852165271E+04  0.25500000920E-02 0.  1.
    10030    2    1    2    0    0  0.00000000000E+00  0.00000000000E+00 -0.89737769778E+03  0.12730553564E+04  0.90298571866E+03 0.  0.
        5    1    3    3  502    0  0.54251020130E+02  0.57049241031E+02  0.17805252087E+03  0.19473720568E+03  0.46999998093E+01 0. -1.
       -5    1    3    3    0  502 -0.54251020130E+02 -0.57049241031E+02 -0.10754302187E+04  0.10783181508E+04  0.46999998093E+01 0.  1.
</event>
<event>
 5   0  0.1206541E-02  0.8920449E+03  0.7818609E-02  0.9435581E-01
        1   -1    0    0  501    0  0.00000000000E+00  0.00000000000E+00  0.15243341081E+04  0.15243341081E+04  0.50400001928E-02 0. -1.
       -1   -1    0    0    0  501  0.00000000000E+00  0.00000000000E+00 -0.13050682632E+03  0.13050682642E+03  0.50400001928E-02 0.  1.
    10030    2    1    2    0    0  0.00000000000E+00  0.00000000000E+00  0.13938272817E+04  0.16548409345E+04  0.89204485712E+03 0.  0.
        3    1    3    3  502    0 -0.19627683100E+03  0.93503773353E+02  0.14193792535E+04  0.14359335032E+04  0.10100000352E+00 0. -1.
       -3    1    3    3    0  502  0.19627683100E+03 -0.93503773353E+02 -0.25551971783E+02  0.21890743130E+03  0.10100000352E+00 0.  1.
</event>
<event>
 5   0  0.1226424E-02  0.8810219E+03  0.7818609E-02  0.9449621E-01
       -1   -1    0    0    0  501  0.00000000000E+00  0.00000000000E+00  0.67751573954E+03  0.67751573956E+03  0.50400001928E-02 0. -1.
        1   -1    0    0  501    0  0.00000000000E+00  0.00000000000E+00 -0.28641389071E+03  0.28641389075E+03  0.50400001928E-02 0.  1.
    10030    2    1    2    0    0  0.00000000000E+00  0.00000000000E+00  0.39110184883E+03  0.96392963031E+03  0.88102194980E+03 0.  0.
        1    1    3    3  502    0  0.32230425300E+03 -0.25851692264E+03  0.36269796185E+03  0.54978254097E+03  0.50400001928E-02 0. -1.
       -1    1    3    3    0  502 -0.32230425300E+03  0.25851692264E+03  0.28403886975E+02  0.41414708934E+03  0.50400001928E-02 0.  1.
</event>
<event>
 5   0  0.1968763E-02  0.9046287E+03  0.7818609E-02  0.9419814E-01
        2   -1    0    0  501    0  0.00000000000E+00  0.00000000000E+00  0.46526522034E+03  0.46526522035E+03  0.25500000920E-02 0. -1.
       -2   -1    0    0    0  501  0.00000000000E+00  0.00000000000E+00 -0.43972400342E+03  0.43972400342E+03  0.25500000920E-02 0.  1.
    10030    2    1    2    0    0  0.00000000000E+00  0.00000000000E+00  0.25541216927E+02  0.90498922378E+03  0.90462873124E+03 0.  0.
        2    1    3    3  502    0  0.17228356143E+03 -0.13166757229E+03 -0.38433884505E+03  0.44128712076E+03  0.25500000920E-02 0.  1.
       -2    1    3    3    0  502 -0.17228356143E+03  0.13166757229E+03  0.40988006197E+03  0.46370210302E+03  0.25500000920E-02 0. -1.
</event>
<event>
 5   0  0.1177712E-02  0.9049850E+03  0.7818609E-02  0.9419371E-01
        1   -1    0    0  501    0  0.00000000000E+00  0.00000000000E+00  0.45313794331E+03  0.45313794334E+03  0.50400001928E-02 0.  1.
       -1   -1    0    0    0  501  0.00000000000E+00  0.00000000000E+00 -0.45184794832E+03  0.45184794835E+03  0.50400001928E-02 0. -1.
    10030    2    1    2    0    0  0.00000000000E+00  0.00000000000E+00  0.12899949904E+01  0.90498589169E+03  0.90498497229E+03 0.  0.
        5    1    3    3  502    0 -0.95212344313E+02 -0.37592503149E+03 -0.23246967520E+03  0.45216065695E+03  0.46999998093E+01 0. -1.
       -5    1    3    3    0  502  0.95212344313E+02  0.37592503149E+03  0.23375967019E+03  0.45282523474E+03  0.46999998093E+01 0.  1.
</event>
<event>
 5   0  0.1226424E-02  0.8918265E+03  0.7818609E-02  0.9435857E-01
        1   -1    0    0  501    0  0.00000000000E+00  0.00000000000E+00  0.49825429532E+03  0.49825429534E+03  0.50400001928E-02 0. -1.
       -1   -1    0    0    0  501  0.00000000000E+00  0.00000000000E+00 -0.39907056352E+03  0.39907056356E+03  0.50400001928E-02 0.  1.
    10030    2    1    2    0    0  0.00000000000E+00  0.00000000000E+00  0.99183731796E+02  0.89732485890E+03  0.89182649083E+03 0.  0.
        1    1    3    3  502    0 -0.39962143433E+03 -0.12046369551E+03  0.20749837602E+03  0.46611626102E+03  0.50400001928E-02 0. -1.
       -1    1    3    3    0  502  0.39962143433E+03  0.12046369551E+03 -0.10831464422E+03  0.43120859788E+03  0.50400001928E-02 0.  1.
</event>
<event>
 5   0  0.1162839E-02  0.9053874E+03  0.7818609E-02  0.9418872E-01
       -1   -1    0    0    0  501  0.00000000000E+00  0.00000000000E+00  0.17262766283E+03  0.17262766290E+03  0.50400001928E-02 0.  1.
        1   -1    0    0  501    0  0.00000000000E+00  0.00000000000E+00 -0.11871307462E+04  0.11871307462E+04  0.50400001928E-02 0. -1.
    10030    2    1    2    0    0  0.00000000000E+00  0.00000000000E+00 -0.10145030834E+04  0.13597584091E+04  0.90538744470E+03 0.  0.
        2    1    3    3  502    0 -0.26624700981E+03  0.55974706680E+02  0.36143039262E+02  0.27445756924E+03  0.25500000920E-02 0.  1.
       -2    1    3    3    0  502  0.26624700981E+03 -0.55974706680E+02 -0.10506461227E+04  0.10853008399E+04  0.25500000920E-02 0. -1.
</event>
<event>
 5   0  0.1968763E-02  0.9399497E+03  0.7818609E-02  0.9376976E-01
       -2   -1    0    0    0  501  0.00000000000E+00  0.00000000000E+00  0.22665890952E+03  0.22665890954E+03  0.25500000920E-02 0. -1.
        2   -1    0    0  501    0  0.00000000000E+00  0.00000000000E+00 -0.97448792796E+03  0.97448792796E+03  0.25500000920E-02 0.  1.
    10030    2    1    2    0    0  0.00000000000E+00  0.00000000000E+00 -0.74782901844E+03  0.12011468375E+04  0.93994972442E+03 0.  0.
        2    1    3    3  502    0  0.26933163605E+03 -0.34596376999E+03 -0.59019771330E+03  0.73523044083E+03  0.25500000920E-02 0.  1.
       -2    1    3    3    0  502 -0.26933163605E+03  0.34596376999E+03 -0.15763130513E+03  0.46591639668E+03  0.25500000920E-02 0. -1.
</event>
<event>
 5   0  0.2008643E-02  0.9149102E+03  0.7818609E-02  0.9407133E-01
        2   -1    0    0  501    0  0.00000000000E+00  0.00000000000E+00  0.11448674212E+04  0.11448674212E+04  0.25500000920E-02 0. -1.
       -2   -1    0    0    0  501  0.00000000000E+00  0.00000000000E+00 -0.18278549005E+03  0.18278549007E+03  0.25500000920E-02 0.  1.
    10030    2    1    2    0    0  0.00000000000E+00  0.00000000000E+00  0.96208193111E+03  0.13276529112E+04  0.91491016529E+03 0.  0.
        3    1    3    3  502    0  0.15101929972E+03 -0.14045581291E+03  0.10735754042E+04  0.10932057551E+04  0.10100000352E+00 0. -1.
       -3    1    3    3    0  502 -0.15101929972E+03  0.14045581291E+03 -0.11149347311E+03  0.23444715612E+03  0.10100000352E+00 0.  1.
</event>
<event>
 5   0  0.1177712E-02  0.8923315E+03  0.7818609E-02  0.9435219E-01
       -1   -1    0    0    0  501  0.00000000000E+00  0.00000000000E+00  0.34349549455E+03  0.34349549459E+03  0.50400001928E-02 0. -1.
        1   -1    0    0  501    0  0.00000000000E+00  0.00000000000E+00 -0.57952392779E+03  0.57952392781E+03  0.50400001928E-02 0.  1.
    10030    2    1    2    0    0  0.00000000000E+00  0.00000000000E+00 -0.23602843324E+03  0.92301942240E+03  0.89233145906E+03 0.  0.
        5    1    3    3  502    0 -0.23431810451E+03 -0.27216377769E+03  0.15578429529E+03  0.39149576326E+03  0.46999998093E+01 0. -1.
       -5    1    3    3    0  502  0.23431810451E+03  0.27216377769E+03 -0.39181272853E+03  0.53152365914E+03  0.46999998093E+01 0.  1.
</event>
<event>
 5   0  0.1226424E-02  0.9062478E+03  0.7818609E-02  0.9417805E-01
       -1   -1    0    0    0  501  0.00000000000E+00  0.00000000000E+00  0.73856262068E+03  0.73856262070E+03  0.50400001928E-02 0. -1.
        1   -1    0    0  501    0  0.00000000000E+00  0.00000000000E+00 -0.27800117756E+03  0.27800117761E+03  0.50400001928E-02 0.  1.
    10030    2    1    2    0    0  0.00000000000E+00  0.00000000000E+00  0.46056144312E+03  0.10165637983E+04  0.90624782104E+03 0.  0.
        1    1    3    3  502    0  0.36073039540E+03  0.23457010102E+03  0.70964787639E+02  0.43610268466E+03  0.50400001928E-02 0.  1.
       -1    1    3    3    0  502 -0.36073039540E+03 -0.23457010102E+03  0.38959665548E+03  0.58046111364E+03  0.50400001928E-02 0. -1.
</event>
<event>
 5   0  0.1206541E-02  0.8752243E+03  0.7818609E-02  0.9457093E-01
        1   -1    0    0  501    0  0.00000000000E+00  0.00000000000E+00  0.96408550561E+03  0.96408550562E+03  0.50400001928E-02 0.  1.
       -1   -1    0    0    0  501  0.00000000000E+00  0.00000000000E+00 -0.19863838681E+03  0.19863838687E+03  0.50400001928E-02 0. -1.
    10030    2    1    2    0    0  0.00000000000E+00  0.00000000000E+00  0.76544711880E+03  0.11627238925E+04  0.87522429040E+03 0.  0.
        3    1    3    3  502    0 -0.14798073085E+03  0.40045982071E+03  0.25503659583E+03  0.49730276504E+03  0.10100000352E+00 0.  1.
       -3    1    3    3    0  502  0.14798073085E+03 -0.40045982071E+03  0.51041052297E+03  0.66542112745E+03  0.10100000352E+00 0. -1.
</event>
<event>
 5   0  0.2041861E-02  0.8930006E+03  0.7818609E-02  0.9434374E-01
       -2   -1    0    0    0  501  0.00000000000E+00  0.00000000000E+00  0.17911384652E+03  0.17911384653E+03  0.25500000920E-02 0. -1.
        2   -1    0    0  501    0  0.00000000000E+00  0.00000000000E+00 -0.11130490934E+04  0.11130490934E+04  0.25500000920E-02 0.  1.
    10030    2    1    2    0    0  0.00000000000E+00  0.00000000000E+00 -0.93393524692E+03  0.12921629400E+04  0.89300056999E+03 0.  0.
        5    1    3    3  502    0  0.75420409022E+02  0.29487265524E+03  0.56962638042E+01  0.30445469011E+03  0.46999998093E+01 0. -1.
       -5    1    3    3    0  502 -0.75420409022E+02 -0.29487265524E+03 -0.93963151072E+03  0.98770824986E+03  0.46999998093E+01 0.  1.
</event>
<event>
 5   0  0.1177712E-02  0.8811726E+03  0.7818609E-02  0.9449427E-01
        1   -1    0    0  501    0  0.00000000000E+00  0.00000000000E+00  0.34276387222E+03  0.34276387226E+03  0.50400001928E-02 0. -1.
       -1   -1    0    0    0  501  0.00000000000E+00  0.00000000000E+00 -0.56632662578E+03  0.56632662580E+03  0.50400001928E-02 0.  1.
    10030    2    1    2    0    0  0.00000000000E+00  0.00000000000E+00 -0.22356275355E+03  0.90909049806E+03  0.88117264420E+03 0.  0.
        5    1    3    3  502    0  0.24457273008E+03 -0.24973113722E+03  0.16488034729E+03  0.38650883575E+03  0.46999998093E+01 0. -1.
       -5    1    3    3    0  502 -0.24457273008E+03  0.24973113722E+03 -0.38844310084E+03  0.52258166231E+03  0.46999998093E+01 0.  1.
</event>
<event>
 5   0  0.1968763E-02  0.8967195E+03  0.7818609E-02  0.9429691E-01
       -2   -1    0    0    0  501  0.00000000000E+00  0.00000000000E+00  0.13508901488E+03  0.13508901490E+03  0.25500000920E-02 0. -1.
        2   -1    0    0  501    0  0.00000000000E+00  0.00000000000E+00 -0.14881037876E+04  0.14881037876E+04  0.25500000920E-02 0.  1.
    10030    2    1    2    0    0  0.00000000000E+00  0.00000000000E+00 -0.13530147727E+04  0.16231928025E+04  0.89671952076E+03 0.  0.
        2    1    3    3  502    0 -0.25378907726E+03  0.23180215288E+02 -0.13442530003E+04  0.13681967500E+04  0.25500000920E-02 0.  1.
       -2    1    3    3    0  502  0.25378907726E+03 -0.23180215288E+02 -0.87617724897E+01  0.25499605249E+03  0.25500000920E-02 0. -1.
</event>
<event>
 5   0  0.1968763E-02  0.8942119E+03  0.7818609E-02  0.9432846E-01
        2   -1    0    0  501    0  0.00000000000E+00  0.00000000000E+00  0.82631712305E+03  0.82631712305E+03  0.25500000920E-02 0. -1.
       -2   -1    0    0    0  501  0.00000000000E+00  0.00000000000E+00 -0.24192130779E+03  0.24192130780E+03  0.25500000920E-02 0.  1.
    10030    2    1    2    0    0  0.00000000000E+00  0.00000000000E+00  0.58439581526E+03  0.10682384309E+04  0.89421187437E+03 0.  0.
        2    1    3    3  502    0  0.35378003840E+03  0.13904423933E+03  0.10993421942E+02  0.38028209450E+03  0.25500000920E-02 0.  1.
       -2    1    3    3    0  502 -0.35378003840E+03 -0.13904423933E+03  0.57340239332E+03  0.68795633636E+03  0.25500000920E-02 0. -1.
</event>
<event>
 5   0  0.2041861E-02  0.8979242E+03  0.7818609E-02  0.9428180E-01
        2   -1    0    0  501    0  0.00000000000E+00  0.00000000000E+00  0.92711412488E+03  0.92711412489E+03  0.25500000920E-02 0. -1.
       -2   -1    0    0    0  501  0.00000000000E+00  0.00000000000E+00 -0.21741332735E+03  0.21741332737E+03  0.25500000920E-02 0.  1.
    10030    2    1    2    0    0  0.00000000000E+00  0.00000000000E+00  0.70970079753E+03  0.11445274523E+04  0.89792419889E+03 0.  0.
        5    1    3    3  502    0  0.29883368104E+03 -0.23195528510E+02 -0.71163118823E+02  0.30810043970E+03  0.46999998093E+01 0.  1.
       -5    1    3    3    0  502 -0.29883368104E+03  0.23195528510E+02  0.78086391636E+03  0.83642701255E+03  0.46999998093E+01 0. -1.
</event>
<event>
 5   0  0.2008770E-02  0.9138672E+03  0.7818609E-02  0.9408411E-01
       -2   -1    0    0    0  501  0.00000000000E+00  0.00000000000E+00  0.32934413003E+03  0.32934413004E+03  0.25500000920E-02 0.  1.
        2   -1    0    0  501    0  0.00000000000E+00  0.00000000000E+00 -0.63395186205E+03  0.63395186205E+03  0.25500000920E-02 0. -1.
    10030    2    1    2    0    0  0.00000000000E+00  0.00000000000E+00 -0.30460773202E+03  0.96329599209E+03  0.91386722119E+03 0.  0.
        1    1    3    3  502    0  0.38813490783E+03 -0.20905021789E+03 -0.25648230157E+02  0.44159770382E+03  0.50400001928E-02 0.  1.
       -1    1    3    3    0  502 -0.38813490783E+03  0.20905021789E+03 -0.27895950186E+03  0.52169828827E+03  0.50400001928E-02 0. -1.
</event>
<event>
 5   0  0.1968763E-02  0.9064832E+03  0.7818609E-02  0.9417513E-01
        2   -1    0    0  501    0  0.00000000000E+00  0.00000000000E+00  0.11562363196E+04  0.11562363197E+04  0.25500000920E-02 0. -1.
       -2   -1    0    0    0  501  0.00000000000E+00  0.00000000000E+00 -0.17766951468E+03  0.17766951470E+03  0.25500000920E-02 0.  1.
    10030    2    1    2    0    0  0.00000000000E+00  0.00000000000E+00  0.97856680497E+03  0.13339058343E+04  0.90648319516E+03 0.  0.
        2    1    3    3  502    0  0.12462222979E+03 -0.41541235408E+03  0.68299805057E+03  0.80906394133E+03  0.25500000920E-02 0. -1.
       -2    1    3    3    0  502 -0.12462222979E+03  0.41541235408E+03  0.29556875440E+03  0.52484189301E+03  0.25500000920E-02 0.  1.
</event>
<event>
 5   0  0.2008770E-02  0.9006469E+03  0.7818609E-02  0.9424773E-01
        2   -1    0    0  501    0  0.00000000000E+00  0.00000000000E+00  0.19899927572E+04  0.19899927572E+04  0.25500000920E-02 0. -1.
       -2   -1    0    0    0  501  0.00000000000E+00  0.00000000000E+00 -0.10190549373E+03  0.10190549377E+03  0.25500000920E-02 0.  1.
    10030    2    1    2    0    0  0.00000000000E+00  0.00000000000E+00  0.18880872634E+04  0.20918982509E+04  0.90064686638E+03 0.  0.
        1    1    3    3  502    0 -0.16510009667E+03 -0.11761564370E+03  0.10057045754E+02  0.20295966535E+03  0.50400001928E-02 0.  1.
       -1    1    3    3    0  502  0.16510009667E+03  0.11761564370E+03  0.18780302177E+04  0.18889385856E+04  0.50400001928E-02 0. -1.
</event>
<event>
 5   0  0.1162839E-02  0.9670202E+03  0.7818609E-02  0.9345475E-01
       -1   -1    0    0    0  501  0.00000000000E+00  0.00000000000E+00  0.57343208224E+03  0.57343208226E+03  0.50400001928E-02 0. -1.
        1   -1    0    0  501    0  0.00000000000E+00  0.00000000000E+00 -0.40768907728E+03  0.40768907731E+03  0.50400001928E-02 0.  1.
    10030    2    1    2    0    0  0.00000000000E+00  0.00000000000E+00  0.16574300496E+03  0.98112115957E+03  0.96702015805E+03 0.  0.
        2    1    3    3  502    0  0.24367381303E+03  0.22920638995E+03  0.43706014410E+03  0.55039446392E+03  0.25500000920E-02 0. -1.
       -2    1    3    3    0  502 -0.24367381303E+03 -0.22920638995E+03 -0.27131713914E+03  0.43072669565E+03  0.25500000920E-02 0.  1.
</event>
<event>
 5   0  0.1175993E-02  0.9653068E+03  0.7818609E-02  0.9347436E-01
        1   -1    0    0  501    0  0.00000000000E+00  0.00000000000E+00  0.43276900800E+03  0.43276900803E+03  0.50400001928E-02 0.  1.
       -1   -1    0    0    0  501  0.00000000000E+00  0.00000000000E+00 -0.53828783451E+03  0.53828783453E+03  0.50400001928E-02 0. -1.
    10030    2    1    2    0    0  0.00000000000E+00  0.00000000000E+00 -0.10551882651E+03  0.97105684256E+03  0.96530677441E+03 0.  0.
        4    1    3    3  502    0  0.13056167396E+03  0.41038641872E+03 -0.27197794043E+03  0.50934956204E+03  0.12699999809E+01 0. -1.
       -4    1    3    3    0  502 -0.13056167396E+03 -0.41038641872E+03  0.16645911392E+03  0.46170728051E+03  0.12699999809E+01 0.  1.
</event>
<event>
 5   0  0.1175993E-02  0.9645486E+03  0.7818609E-02  0.9348305E-01
       -1   -1    0    0    0  501  0.00000000000E+00  0.00000000000E+00  0.46964233660E+03  0.46964233663E+03  0.50400001928E-02 0. -1.
        1   -1    0    0  501    0  0.00000000000E+00  0.00000000000E+00 -0.49524602567E+03  0.49524602569E+03  0.50400001928E-02 0.  1.
    10030    2    1    2    0    0  0.00000000000E+00  0.00000000000E+00 -0.25603689066E+02  0.96488836232E+03  0.96454860056E+03 0.  0.
        4    1    3    3  502    0 -0.32373433455E+03  0.22278449941E+03 -0.29245359508E+03  0.48986484944E+03  0.12699999809E+01 0.  1.
       -4    1    3    3    0  502  0.32373433455E+03 -0.22278449941E+03  0.26684990601E+03  0.47502351288E+03  0.12699999809E+01 0. -1.
</event>
<event>
 5   0  0.1924218E-02  0.9496319E+03  0.7818609E-02  0.9365581E-01
       -2   -1    0    0    0  501  0.00000000000E+00  0.00000000000E+00  0.32461203444E+03  0.32461203445E+03  0.25500000920E-02 0.  1.
        2   -1    0    0  501    0  0.00000000000E+00  0.00000000000E+00 -0.69452202767E+03  0.69452202768E+03  0.25500000920E-02 0. -1.
    10030    2    1    2    0    0  0.00000000000E+00  0.00000000000E+00 -0.36990999323E+03  0.10191340621E+04  0.94963194634E+03 0.  0.
        4    1    3    3  502    0 -0.36686637486E+03  0.10546396871E+03 -0.48799539399E+03  0.61956008842E+03  0.12699999809E+01 0. -1.
       -4    1    3    3    0  502  0.36686637486E+03 -0.10546396871E+03  0.11808540076E+03  0.39957397372E+03  0.12699999809E+01 0.  1.
</event>
<event>
 5   0  0.1177712E-02  0.8625144E+03  0.7818609E-02  0.9473693E-01
        1   -1    0    0  501    0  0.00000000000E+00  0.00000000000E+00  0.12821221212E+04  0.12821221212E+04  0.50400001928E-02 0.  1.
       -1   -1    0    0    0  501  0.00000000000E+00  0.00000000000E+00 -0.14505854599E+03  0.14505854608E+03  0.50400001928E-02 0. -1.
    10030    2    1    2    0    0  0.00000000000E+00  0.00000000000E+00  0.11370635752E+04  0.14271806673E+04  0.86251439584E+03 0.  0.
        5    1    3    3  502    0 -0.55838429737E+02  0.35108502878E+02  0.12736836423E+04  0.12753990151E+04  0.46999998093E+01 0.  1.
       -5    1    3    3    0  502  0.55838429737E+02 -0.35108502878E+02 -0.13662006706E+03  0.15178165216E+03  0.46999998093E+01 0. -1.
</event>
<event>
 5   0  0.1162839E-02  0.8984628E+03  0.7818609E-02  0.9427505E-01
        1   -1    0    0  501    0  0.00000000000E+00  0.00000000000E+00  0.41706157508E+03  0.41706157511E+03  0.50400001928E-02 0.  1.
       -1   -1    0    0    0  501  0.00000000000E+00  0.00000000000E+00 -0.48388259527E+03  0.48388259530E+03  0.50400001928E-02 0. -1.
    10030    2    1    2    0    0  0.00000000000E+00  0.00000000000E+00 -0.66821020188E+02  0.90094417041E+03  0.89846277021E+03 0.  0.
        2    1    3    3  502    0  0.23218129044E+03  0.29204736568E+03 -0.28431951804E+03  0.46908144685E+03  0.25500000920E-02 0.  1.
       -2    1    3    3    0  502 -0.23218129044E+03 -0.29204736568E+03  0.21749849785E+03  0.43186272356E+03  0.25500000920E-02 0. -1.
</event>
<event>
 5   0  0.1175993E-02  0.8969821E+03  0.7818609E-02  0.9429362E-01
       -1   -1    0    0    0  501  0.00000000000E+00  0.00000000000E+00  0.25620509959E+03  0.25620509964E+03  0.50400001928E-02 0. -1.
        1   -1    0    0  501    0  0.00000000000E+00  0.00000000000E+00 -0.78509062795E+03  0.78509062796E+03  0.50400001928E-02 0.  1.
    10030    2    1    2    0    0  0.00000000000E+00  0.00000000000E+00 -0.52888552836E+03  0.10412957276E+04  0.89698210140E+03 0.  0.
        4    1    3    3  502    0  0.14669411088E+02  0.40033012296E+03 -0.30348300529E+02  0.40174871651E+03  0.12699999809E+01 0. -1.
       -4    1    3    3    0  502 -0.14669411088E+02 -0.40033012296E+03 -0.49853722783E+03  0.63954701110E+03  0.12699999809E+01 0.  1.
</event>
<event>
 5   0  0.1175993E-02  0.8803924E+03  0.7818609E-02  0.9450429E-01
       -1   -1    0    0    0  501  0.00000000000E+00  0.00000000000E+00  0.13526655144E+03  0.13526655153E+03  0.50400001928E-02 0.  1.
        1   -1    0    0  501    0  0.00000000000E+00  0.00000000000E+00 -0.14325249282E+04  0.14325249282E+04  0.50400001928E-02 0. -1.
    10030    2    1    2    0    0  0.00000000000E+00  0.00000000000E+00 -0.12972583767E+04  0.15677914797E+04  0.88039242832E+03 0.  0.
        4    1    3    3  502    0 -0.43269089460E+03  0.90966419428E+01 -0.50542317806E+03  0.66540090245E+03  0.12699999809E+01 0.  1.
       -4    1    3    3    0  502  0.43269089460E+03 -0.90966419428E+01 -0.79183519868E+03  0.90239057726E+03  0.12699999809E+01 0. -1.
</event>
<event>
 5   0  0.2008643E-02  0.8932900E+03  0.7818609E-02  0.9434008E-01
        2   -1    0    0  501    0  0.00000000000E+00  0.00000000000E+00  0.15178900920E+04  0.15178900920E+04  0.25500000920E-02 0. -1.
       -2   -1    0    0    0  501  0.00000000000E+00  0.00000000000E+00 -0.13142699935E+03  0.13142699937E+03  0.25500000920E-02 0.  1.
    10030    2    1    2    0    0  0.00000000000E+00  0.00000000000E+00  0.13864630927E+04  0.16493170914E+04  0.89328996447E+03 0.  0.
        3    1    3    3  502    0  0.21179117700E+03  0.39323756125E+03  0.69199612580E+03  0.82362001588E+03  0.10100000352E+00 0.  1.
       -3    1    3    3    0  502 -0.21179117700E+03 -0.39323756125E+03  0.69446696688E+03  0.82569707552E+03  0.10100000352E+00 0. -1.
</event>
<event>
 5   0  0.1162839E-02  0.9028754E+03  0.7818609E-02  0.9421994E-01
       -1   -1    0    0    0  501  0.00000000000E+00  0.00000000000E+00  0.60023106255E+03  0.60023106257E+03  0.50400001928E-02 0. -1.
        1   -1    0    0  501    0  0.00000000000E+00  0.00000000000E+00 -0.33952920703E+03  0.33952920707E+03  0.50400001928E-02 0.  1.
    10030    2    1    2    0    0  0.00000000000E+00  0.00000000000E+00  0.26070185552E+03  0.93976026965E+03  0.90287535515E+03 0.  0.
        2    1    3    3  502    0  0.14470812862E+03 -0.24875457402E+03  0.49237724430E+03  0.57031099524E+03  0.25500000920E-02 0. -1.
       -2    1    3    3    0  502 -0.14470812862E+03  0.24875457402E+03 -0.23167538878E+03  0.36944927440E+03  0.25500000920E-02 0.  1.
</event>
<event>
 5   0  0.2008643E-02  0.8396820E+03  0.7818609E-02  0.9504291E-01
       -2   -1    0    0    0  501  0.00000000000E+00  0.00000000000E+00  0.14176310339E+03  0.14176310341E+03  0.25500000920E-02 0. -1.
        2   -1    0    0  501    0  0.00000000000E+00  0.00000000000E+00 -0.12433875187E+04  0.12433875187E+04  0.25500000920E-02 0.  1.
    10030    2    1    2    0    0  0.00000000000E+00  0.00000000000E+00 -0.11016244153E+04  0.13851506221E+04  0.83968201929E+03 0.  0.
        3    1    3    3  502    0  0.11447751919E+03 -0.40380075648E+03 -0.56782082014E+03  0.70610243401E+03  0.10100000352E+00 0. -1.
       -3    1    3    3    0  502 -0.11447751919E+03  0.40380075648E+03 -0.53380359514E+03  0.67904818807E+03  0.10100000352E+00 0.  1.
</event>
<event>
 5   0  0.1177712E-02  0.9141660E+03  0.7818609E-02  0.9408044E-01
       -1   -1    0    0    0  501  0.00000000000E+00  0.00000000000E+00  0.58986266171E+03  0.58986266173E+03  0.50400001928E-02 0. -1.
        1   -1    0    0  501    0  0.00000000000E+00  0.00000000000E+00 -0.35419240271E+03  0.35419240275E+03  0.50400001928E-02 0.  1.
    10030    2    1    2    0    0  0.00000000000E+00  0.00000000000E+00  0.23567025900E+03  0.94405506447E+03  0.91416600997E+03 0.  0.
        5    1    3    3  502    0  0.41688179667E+02 -0.44357981078E+03  0.22315908116E+03  0.49832019662E+03  0.46999998093E+01 0.  1.
       -5    1    3    3    0  502 -0.41688179667E+02  0.44357981078E+03  0.12511177834E+02  0.44573486786E+03  0.46999998093E+01 0. -1.
</event>
<event>
 5   0  0.2008643E-02  0.8988989E+03  0.7818609E-02  0.9426959E-01
       -2   -1    0    0    0  501  0.00000000000E+00  0.00000000000E+00  0.32751919295E+03  0.32751919296E+03  0.25500000920E-02 0. -1.
        2   -1    0    0  501    0  0.00000000000E+00  0.00000000000E+00 -0.61677242180E+03  0.61677242180E+03  0.25500000920E-02 0.  1.
    10030    2    1    2    0    0  0.00000000000E+00  0.00000000000E+00 -0.28925322885E+03  0.94429161476E+03  0.89889889493E+03 0.  0.
        3    1    3    3  502    0 -0.30586106675E+03  0.15321418114E+03  0.16160614818E+03  0.37834129405E+03  0.10100000352E+00 0. -1.
       -3    1    3    3    0  502  0.30586106675E+03 -0.15321418114E+03 -0.45085937703E+03  0.56595032071E+03  0.10100000352E+00 0.  1.
</event>
<event>
 5   0  0.1226424E-02  0.8882642E+03  0.7818609E-02  0.9440372E-01
       -1   -1    0    0    0  501  0.00000000000E+00  0.00000000000E+00  0.15432977896E+03  0.15432977904E+03  0.50400001928E-02 0.  1.
        1   -1    0    0  501    0  0.00000000000E+00  0.00000000000E+00 -0.12781288389E+04  0.12781288389E+04  0.50400001928E-02 0. -1.
    10030    2    1    2    0    0  0.00000000000E+00  0.00000000000E+00 -0.11237990599E+04  0.14324586179E+04  0.88826424278E+03 0.  0.
        1    1    3    3  502    0  0.30242556301E+01 -0.20942357561E+03 -0.11934858440E+04  0.12117243251E+04  0.50400001928E-02 0. -1.
       -1    1    3    3    0  502 -0.30242556301E+01  0.20942357561E+03  0.69686784068E+02  0.22073429286E+03  0.50400001928E-02 0.  1.
</event>
<event>
 5   0  0.1177712E-02  0.9041655E+03  0.7818609E-02  0.9420389E-01
       -1   -1    0    0    0  501  0.00000000000E+00  0.00000000000E+00  0.13974327150E+03  0.13974327159E+03  0.50400001928E-02 0. -1.
        1   -1    0    0  501    0  0.00000000000E+00  0.00000000000E+00 -0.14625306074E+04  0.14625306075E+04  0.50400001928E-02 0.  1.
    10030    2    1    2    0    0  0.00000000000E+00  0.00000000000E+00 -0.13227873359E+04  0.16022738790E+04  0.90416549776E+03 0.  0.
        5    1    3    3  502    0  0.68130908908E+00 -0.19352187075E+03 -0.13853697227E+04  0.13988289878E+04  0.46999998093E+01 0.  1.
       -5    1    3    3    0  502 -0.68130908908E+00  0.19352187075E+03  0.62582386729E+02  0.20344489123E+03  0.46999998093E+01 0. -1.
</event>
<event>
 5   0  0.2008643E-02  0.8896978E+03  0.7818609E-02  0.9438552E-01
        2   -1    0    0  501    0  0.00000000000E+00  0.00000000000E+00  0.10702491205E+04  0.10702491205E+04  0.25500000920E-02 0.  1.
       -2   -1    0    0    0  501  0.00000000000E+00  0.00000000000E+00 -0.18490138132E+03  0.18490138134E+03  0.25500000920E-02 0. -1.
    10030    2    1    2    0    0  0.00000000000E+00  0.00000000000E+00  0.88534773918E+03  0.12551505018E+04  0.88969779308E+03 0.  0.
        3    1    3    3  502    0  0.42930404416E+03  0.27093661978E+02  0.28272509622E+03  0.51475190052E+03  0.10100000352E+00 0. -1.
       -3    1    3    3    0  502 -0.42930404416E+03 -0.27093661978E+02  0.60262264296E+03  0.74039860133E+03  0.10100000352E+00 0.  1.
</event>
<event>
 5   0  0.1226424E-02  0.8994178E+03  0.7818609E-02  0.9426309E-01
        1   -1    0    0  501    0  0.00000000000E+00  0.00000000000E+00  0.16392802513E+03  0.16392802520E+03  0.50400001928E-02 0. -1.
       -1   -1    0    0    0  501  0.00000000000E+00  0.00000000000E+00 -0.12337005588E+04  0.12337005588E+04  0.50400001928E-02 0.  1.
    10030    2    1    2    0    0  0.00000000000E+00  0.00000000000E+00 -0.10697725337E+04  0.13976285840E+04  0.89941780340E+03 0.  0.
        1    1    3    3  502    0  0.68965453549E+02  0.14878725627E+02  0.15527462088E+03  0.17055151179E+03  0.50400001928E-02 0. -1.
       -1    1    3    3    0  502 -0.68965453549E+02 -0.14878725627E+02 -0.12250471546E+04  0.12270770722E+04  0.50400001928E-02 0.  1.
</event>
<event>
 5   0  0.1162839E-02  0.8514597E+03  0.7818609E-02  0.9488380E-01
       -1   -1    0    0    0  501  0.00000000000E+00  0.00000000000E+00  0.13427999259E+03  0.13427999268E+03  0.50400001928E-02 0.  1.
        1   -1    0    0  501    0  0.00000000000E+00  0.00000000000E+00 -0.13497610345E+04  0.13497610345E+04  0.50400001928E-02 0. -1.
    10030    2    1    2    0    0  0.00000000000E+00  0.00000000000E+00 -0.12154810419E+04  0.14840410272E+04  0.85145969201E+03 0.  0.
        2    1    3    3  502    0  0.29192707930E+03  0.16392227112E+03 -0.14939776013E+03  0.36662190515E+03  0.25500000920E-02 0.  1.
       -2    1    3    3    0  502 -0.29192707930E+03 -0.16392227112E+03 -0.10660832818E+04  0.11174191220E+04  0.25500000920E-02 0. -1.
</event>
<event>
 5   0  0.1968763E-02  0.8933037E+03  0.7818609E-02  0.9433991E-01
       -2   -1    0    0    0  501  0.00000000000E+00  0.00000000000E+00  0.40333289185E+03  0.40333289186E+03  0.25500000920E-02 0.  1.
        2   -1    0    0  501    0  0.00000000000E+00  0.00000000000E+00 -0.49462331877E+03  0.49462331877E+03  0.25500000920E-02 0. -1.
    10030    2    1    2    0    0  0.00000000000E+00  0.00000000000E+00 -0.91290426912E+02  0.89795621064E+03  0.89330365172E+03 0.  0.
        2    1    3    3  502    0 -0.32777221414E+02  0.20998954439E+03  0.34924672734E+03  0.40883154424E+03  0.25500000920E-02 0.  1.
       -2    1    3    3    0  502  0.32777221414E+02 -0.20998954439E+03 -0.44053715425E+03  0.48912466640E+03  0.25500000920E-02 0. -1.
</event>
<event>
 5   0  0.1968763E-02  0.9006297E+03  0.7818609E-02  0.9424795E-01
       -2   -1    0    0    0  501  0.00000000000E+00  0.00000000000E+00  0.40888863833E+03  0.40888863834E+03  0.25500000920E-02 0. -1.
        2   -1    0    0  501    0  0.00000000000E+00  0.00000000000E+00 -0.49593810979E+03  0.49593810979E+03  0.25500000920E-02 0.  1.
    10030    2    1    2    0    0  0.00000000000E+00  0.00000000000E+00 -0.87049471458E+02  0.90482674813E+03  0.90062968730E+03 0.  0.
        2    1    3    3  502    0  0.43314350687E+03 -0.11193912192E+03 -0.95143092854E+02  0.45737935315E+03  0.25500000920E-02 0.  1.
       -2    1    3    3    0  502 -0.43314350687E+03  0.11193912192E+03  0.80936213963E+01  0.44744739498E+03  0.25500000920E-02 0. -1.
</event>
<event>
 5   0  0.1924218E-02  0.8790657E+03  0.7818609E-02  0.9452135E-01
       -2   -1    0    0    0  501  0.00000000000E+00  0.00000000000E+00  0.72866782453E+02  0.72866782498E+02  0.25500000920E-02 0.  1.
        2   -1    0    0  501    0  0.00000000000E+00  0.00000000000E+00 -0.26512649718E+04  0.26512649718E+04  0.25500000920E-02 0. -1.
    10030    2    1    2    0    0  0.00000000000E+00  0.00000000000E+00 -0.25783981893E+04  0.27241317543E+04  0.87906574950E+03 0.  0.
        4    1    3    3  502    0  0.38195483792E+02  0.31227187918E+03 -0.33801062640E+03  0.46176337877E+03  0.12699999809E+01 0.  1.
       -4    1    3    3    0  502 -0.38195483792E+02 -0.31227187918E+03 -0.22403875629E+04  0.22623683755E+04  0.12699999809E+01 0. -1.
</event>
<event>
 5   0  0.2008770E-02  0.9024367E+03  0.7818609E-02  0.9422541E-01
        2   -1    0    0  501    0  0.00000000000E+00  0.00000000000E+00  0.26656686593E+04  0.26656686593E+04  0.25500000920E-02 0. -1.
       -2   -1    0    0    0  501  0.00000000000E+00  0.00000000000E+00 -0.76377827768E+02  0.76377827810E+02  0.25500000920E-02 0.  1.
    10030    2    1    2    0    0  0.00000000000E+00  0.00000000000E+00  0.25892908315E+04  0.27420464871E+04  0.90243666106E+03 0.  0.
        1    1    3    3  502    0 -0.64416170986E+02 -0.37854284650E+03  0.20146708869E+04  0.20509370815E+04  0.50400001928E-02 0. -1.
       -1    1    3    3    0  502  0.64416170986E+02  0.37854284650E+03  0.57461994461E+03  0.69110940559E+03  0.50400001928E-02 0.  1.
</event>
<event>
 5   0  0.2041861E-02  0.8993920E+03  0.7818609E-02  0.9426342E-01
        2   -1    0    0  501    0  0.00000000000E+00  0.00000000000E+00  0.94997986129E+03  0.94997986129E+03  0.25500000920E-02 0. -1.
       -2   -1    0    0    0  501  0.00000000000E+00  0.00000000000E+00 -0.21287449373E+03  0.21287449375E+03  0.25500000920E-02 0.  1.
    10030    2    1    2    0    0  0.00000000000E+00  0.00000000000E+00  0.73710536756E+03  0.11628543550E+04  0.89939197692E+03 0.  0.
        5    1    3    3  502    0 -0.33775503366E+03  0.18848247335E+03  0.72021501263E+02  0.39346320307E+03  0.46999998093E+01 0.  1.
       -5    1    3    3    0  502  0.33775503366E+03 -0.18848247335E+03  0.66508386630E+03  0.76939115197E+03  0.46999998093E+01 0. -1.
</event>
<event>
 5   0  0.1968763E-02  0.8841475E+03  0.7818609E-02  0.9445618E-01
       -2   -1    0    0    0  501  0.00000000000E+00  0.00000000000E+00  0.18256826600E+03  0.18256826602E+03  0.25500000920E-02 0. -1.
        2   -1    0    0  501    0  0.00000000000E+00  0.00000000000E+00 -0.10704444261E+04  0.10704444261E+04  0.25500000920E-02 0.  1.
    10030    2    1    2    0    0  0.00000000000E+00  0.00000000000E+00 -0.88787616009E+03  0.12530126921E+04  0.88414745996E+03 0.  0.
        2    1    3    3  502    0 -0.56480541745E+01  0.41097777587E+03 -0.21325855957E+03  0.46304842728E+03  0.25500000920E-02 0. -1.
       -2    1    3    3    0  502  0.56480541745E+01 -0.41097777587E+03 -0.67461760053E+03  0.78996426484E+03  0.25500000920E-02 0.  1.
</event>
<event>
 5   0  0.2008770E-02  0.8891639E+03  0.7818609E-02  0.9439229E-01
        2   -1    0    0  501    0  0.00000000000E+00  0.00000000000E+00  0.69757554671E+03  0.69757554671E+03  0.25500000920E-02 0.  1.
       -2   -1    0    0    0  501  0.00000000000E+00  0.00000000000E+00 -0.28334294516E+03  0.28334294517E+03  0.25500000920E-02 0. -1.
    10030    2    1    2    0    0  0.00000000000E+00  0.00000000000E+00  0.41423260154E+03  0.98091849188E+03  0.88916389914E+03 0.  0.
        1    1    3    3  502    0 -0.84437192281E+02 -0.60915968276E+02 -0.26970353793E+03  0.28910273785E+03  0.50400001928E-02 0. -1.
       -1    1    3    3    0  502  0.84437192281E+02  0.60915968276E+02  0.68393613948E+03  0.69181575404E+03  0.50400001928E-02 0.  1.
</event>
<event>
 5   0  0.1177712E-02  0.9152262E+03  0.7818609E-02  0.9406746E-01
       -1   -1    0    0    0  501  0.00000000000E+00  0.00000000000E+00  0.49534443992E+03  0.49534443994E+03  0.50400001928E-02 0. -1.
        1   -1    0    0  501    0  0.00000000000E+00  0.00000000000E+00 -0.42275580204E+03  0.42275580207E+03  0.50400001928E-02 0.  1.
    10030    2    1    2    0    0  0.00000000000E+00  0.00000000000E+00  0.72588637876E+02  0.91810024201E+03  0.91522617097E+03 0.  0.
        5    1    3    3  502    0 -0.50280286354E+02 -0.36541067797E+03 -0.23535965464E+03  0.43757208297E+03  0.46999998093E+01 0.  1.
       -5    1    3    3    0  502  0.50280286354E+02  0.36541067797E+03  0.30794829251E+03  0.48052815904E+03  0.46999998093E+01 0. -1.
</event>
<event>
 5   0  0.1177712E-02  0.8886384E+03  0.7818609E-02  0.9439896E-01
       -1   -1    0    0    0  501  0.00000000000E+00  0.00000000000E+00  0.42131356572E+03  0.42131356575E+03  0.50400001928E-02 0. -1.
        1   -1    0    0  501    0  0.00000000000E+00  0.00000000000E+00 -0.46858104581E+03  0.46858104584E+03  0.50400001928E-02 0.  1.
    10030    2    1    2    0    0  0.00000000000E+00  0.00000000000E+00 -0.47267480092E+02  0.88989461158E+03  0.88863839949E+03 0.  0.
        5    1    3    3  502    0  0.38767307109E+03  0.16889598626E+03 -0.16013930150E+03  0.45219791033E+03  0.46999998093E+01 0.  1.
       -5    1    3    3    0  502 -0.38767307109E+03 -0.16889598626E+03  0.11287182141E+03  0.43769670125E+03  0.46999998093E+01 0. -1.
</event>
<event>
 5   0  0.1206541E-02  0.9018807E+03  0.7818609E-02  0.9423234E-01
        1   -1    0    0  501    0  0.00000000000E+00  0.00000000000E+00  0.77296769204E+03  0.77296769206E+03  0.50400001928E-02 0.  1.
       -1   -1    0    0    0  501  0.00000000000E+00  0.00000000000E+00 -0.26307334559E+03  0.26307334564E+03  0.50400001928E-02 0. -1.
    10030    2    1    2    0    0  0.00000000000E+00  0.00000000000E+00  0.50989434645E+03  0.10360410377E+04  0.90188069457E+03 0.  0.
        3    1    3    3  502    0 -0.24426802283E+03 -0.25741946455E+03 -0.64678707879E+02  0.36071455912E+03  0.10100000352E+00 0. -1.
       -3    1    3    3    0  502  0.24426802283E+03  0.25741946455E+03  0.57457305433E+03  0.67532647858E+03  0.10100000352E+00 0.  1.
</event>
<event>
 5   0  0.2041861E-02  0.8993140E+03  0.7818609E-02  0.9426439E-01
       -2   -1    0    0    0  501  0.00000000000E+00  0.00000000000E+00  0.39198750691E+03  0.39198750691E+03  0.25500000920E-02 0. -1.
        2   -1    0    0  501    0  0.00000000000E+00  0.00000000000E+00 -0.51581083617E+03  0.51581083617E+03  0.25500000920E-02 0.  1.
    10030    2    1    2    0    0  0.00000000000E+00  0.00000000000E+00 -0.12382332926E+03  0.90779834309E+03  0.89931396900E+03 0.  0.
        5    1    3    3  502    0  0.99863841556E+02  0.33607265965E+03  0.22226101611E+03  0.41513813207E+03  0.46999998093E+01 0. -1.
       -5    1    3    3    0  502 -0.99863841556E+02 -0.33607265965E+03 -0.34608434537E+03  0.49266021102E+03  0.46999998093E+01 0.  1.
</event>
<event>
 5   0  0.1175993E-02  0.9135799E+03  0.7818609E-02  0.9408763E-01
       -1   -1    0    0    0  501  0.00000000000E+00  0.00000000000E+00  0.24564239014E+03  0.24564239020E+03  0.50400001928E-02 0.  1.
        1   -1    0    0  501    0  0.00000000000E+00  0.00000000000E+00 -0.84943417348E+03  0.84943417350E+03  0.50400001928E-02 0. -1.
    10030    2    1    2    0    0  0.00000000000E+00  0.00000000000E+00 -0.60379178334E+03  0.10950765637E+04  0.91357986116E+03 0.  0.
        4    1    3    3  502    0 -0.94744159538E+02  0.36881024555E+02 -0.83569748826E+03  0.84186018466E+03  0.12699999809E+01 0. -1.
       -4    1    3    3    0  502  0.94744159538E+02 -0.36881024555E+02  0.23190570492E+03  0.25321637903E+03  0.12699999809E+01 0.  1.
</event>
<event>
 5   0  0.2008770E-02  0.9252790E+03  0.7818609E-02  0.9394522E-01
       -2   -1    0    0    0  501  0.00000000000E+00  0.00000000000E+00  0.19806770635E+03  0.19806770637E+03  0.25500000920E-02 0. -1.
        2   -1    0    0  501    0  0.00000000000E+00  0.00000000000E+00 -0.10806168033E+04  0.10806168033E+04  0.25500000920E-02 0.  1.
    10030    2    1    2    0    0  0.00000000000E+00  0.00000000000E+00 -0.88254909697E+03  0.12786845097E+04  0.92527896699E+03 0.  0.
        1    1    3    3  502    0 -0.23386244127E+03  0.37266958689E+03 -0.63895077946E+03  0.77577855154E+03  0.50400001928E-02 0.  1.
       -1    1    3    3    0  502  0.23386244127E+03 -0.37266958689E+03 -0.24359831752E+03  0.50290595816E+03  0.50400001928E-02 0. -1.
</event>
<event>
 5   0  0.7893875E-03  0.8863548E+03  0.7818609E-02  0.9442801E-01
        3   -1    0    0  501    0  0.00000000000E+00  0.00000000000E+00  0.40822339266E+03  0.40822340516E+03  0.10100000352E+00 0. -1.
       -3   -1    0    0    0  501  0.00000000000E+00  0.00000000000E+00 -0.48112431873E+03  0.48112432933E+03  0.10100000352E+00 0.  1.
    10030    2    1    2    0    0  0.00000000000E+00  0.00000000000E+00 -0.72900926066E+02  0.88934773449E+03  0.88635480921E+03 0.  0.
        4    1    3    3  502    0 -0.33869303709E+03  0.63939763719E+02 -0.31596486049E+03  0.46758600569E+03  0.12699999809E+01 0.  1.
       -4    1    3    3    0  502  0.33869303709E+03 -0.63939763719E+02  0.24306393443E+03  0.42176172879E+03  0.12699999809E+01 0. -1.
</event>
<event>
 5   0  0.1968763E-02  0.9035225E+03  0.7818609E-02  0.9421189E-01
        2   -1    0    0  501    0  0.00000000000E+00  0.00000000000E+00  0.13295997378E+04  0.13295997378E+04  0.25500000920E-02 0. -1.
       -2   -1    0    0    0  501  0.00000000000E+00  0.00000000000E+00 -0.15349599447E+03  0.15349599449E+03  0.25500000920E-02 0.  1.
    10030    2    1    2    0    0  0.00000000000E+00  0.00000000000E+00  0.11761037433E+04  0.14830957323E+04  0.90352251552E+03 0.  0.
        2    1    3    3  502    0 -0.32805492874E+03 -0.36882662461E+02  0.10942708540E+04  0.11429825322E+04  0.25500000920E-02 0. -1.
       -2    1    3    3    0  502  0.32805492874E+03  0.36882662461E+02  0.81832889305E+02  0.34011320004E+03  0.25500000920E-02 0.  1.
</event>
<event>
 5   0  0.1177712E-02  0.8818642E+03  0.7818609E-02  0.9448540E-01
        1   -1    0    0  501    0  0.00000000000E+00  0.00000000000E+00  0.22139832308E+04  0.22139832308E+04  0.50400001928E-02 0. -1.
       -1   -1    0    0    0  501  0.00000000000E+00  0.00000000000E+00 -0.87815089107E+02  0.87815089252E+02  0.50400001928E-02 0.  1.
    10030    2    1    2    0    0  0.00000000000E+00  0.00000000000E+00  0.21261681417E+04  0.23017983200E+04  0.88186424095E+03 0.  0.
        5    1    3    3  502    0  0.31103614034E+03  0.28981163575E+03  0.75796675224E+03  0.86906268607E+03  0.46999998093E+01 0. -1.
       -5    1    3    3    0  502 -0.31103614034E+03 -0.28981163575E+03  0.13682013894E+04  0.14327356340E+04  0.46999998093E+01 0.  1.
</event>
<event>
 5   0  0.1924218E-02  0.9157534E+03  0.7818609E-02  0.9406100E-01
       -2   -1    0    0    0  501  0.00000000000E+00  0.00000000000E+00  0.29671120209E+03  0.29671120210E+03  0.25500000920E-02 0. -1.
        2   -1    0    0  501    0  0.00000000000E+00  0.00000000000E+00 -0.70658289916E+03  0.70658289917E+03  0.25500000920E-02 0.  1.
    10030    2    1    2    0    0  0.00000000000E+00  0.00000000000E+00 -0.40987169707E+03  0.10032941013E+04  0.91575337596E+03 0.  0.
        4    1    3    3  502    0 -0.29772895940E+03 -0.32648753982E+03 -0.73406116834E+02  0.44791373925E+03  0.12699999809E+01 0. -1.
       -4    1    3    3    0  502  0.29772895940E+03  0.32648753982E+03 -0.33646558024E+03  0.55538036201E+03  0.12699999809E+01 0.  1.
</event>
<event>
 5   0  0.2041861E-02  0.9023661E+03  0.7818609E-02  0.9422629E-01
        2   -1    0    0  501    0  0.00000000000E+00  0.00000000000E+00  0.43376122970E+03  0.43376122971E+03  0.25500000920E-02 0. -1.
       -2   -1    0    0    0  501  0.00000000000E+00  0.00000000000E+00 -0.46930461605E+03  0.46930461606E+03  0.25500000920E-02 0.  1.
    10030    2    1    2    0    0  0.00000000000E+00  0.00000000000E+00 -0.35543386356E+02  0.90306584577E+03  0.90236610612E+03 0.  0.
        5    1    3    3  502    0 -0.27179728497E+02 -0.44086090555E+03 -0.10975042542E+03  0.45515307487E+03  0.46999998093E+01 0.  1.
       -5    1    3    3    0  502  0.27179728497E+02  0.44086090555E+03  0.74207039062E+02  0.44791277090E+03  0.46999998093E+01 0. -1.
</event>
<event>
 5   0  0.1175993E-02  0.8427284E+03  0.7818609E-02  0.9500149E-01
       -1   -1    0    0    0  501  0.00000000000E+00  0.00000000000E+00  0.33655553860E+03  0.33655553864E+03  0.50400001928E-02 0.  1.
        1   -1    0    0  501    0  0.00000000000E+00  0.00000000000E+00 -0.52754375629E+03  0.52754375632E+03  0.50400001928E-02 0. -1.
    10030    2    1    2    0    0  0.00000000000E+00  0.00000000000E+00 -0.19098821769E+03  0.86409929496E+03  0.84272836208E+03 0.  0.
        4    1    3    3  502    0  0.11747330313E+03 -0.32071932151E+03 -0.34850095072E+03  0.48797068118E+03  0.12699999809E+01 0. -1.
       -4    1    3    3    0  502 -0.11747330313E+03  0.32071932151E+03  0.15751273303E+03  0.37612861378E+03  0.12699999809E+01 0.  1.
</event>
<event>
 5   0  0.2008770E-02  0.8937606E+03  0.7818609E-02  0.9433415E-01
        2   -1    0    0  501    0  0.00000000000E+00  0.00000000000E+00  0.34053483647E+03  0.34053483648E+03  0.25500000920E-02 0. -1.
       -2   -1    0    0    0  501  0.00000000000E+00  0.00000000000E+00 -0.58643637319E+03  0.58643637319E+03  0.25500000920E-02 0.  1.
    10030    2    1    2    0    0  0.00000000000E+00  0.00000000000E+00 -0.24590153672E+03  0.92697120967E+03  0.89376062668E+03 0.  0.
        1    1    3    3  502    0 -0.40279417038E+03  0.13332233047E+03 -0.26846383806E+03  0.50208646652E+03  0.50400001928E-02 0.  1.
       -1    1    3    3    0  502  0.40279417038E+03 -0.13332233047E+03  0.22562301340E+02  0.42488474315E+03  0.50400001928E-02 0. -1.
</event>
<event>
 5   0  0.1177712E-02  0.9135039E+03  0.7818609E-02  0.9408857E-01
        1   -1    0    0  501    0  0.00000000000E+00  0.00000000000E+00  0.11216481649E+04  0.11216481649E+04  0.50400001928E-02 0.  1.
       -1   -1    0    0    0  501  0.00000000000E+00  0.00000000000E+00 -0.18599622543E+03  0.18599622550E+03  0.50400001928E-02 0. -1.
    10030    2    1    2    0    0  0.00000000000E+00  0.00000000000E+00  0.93565193942E+03  0.13076443904E+04  0.91350385872E+03 0.  0.
        5    1    3    3  502    0  0.30052400202E+03  0.28661668489E+02 -0.22778823976E+02  0.30278231760E+03  0.46999998093E+01 0. -1.
       -5    1    3    3    0  502 -0.30052400202E+03 -0.28661668489E+02  0.95843076340E+03  0.10048620728E+04  0.46999998093E+01 0.  1.
</event>
<event>
 5   0  0.1226424E-02  0.5716524E+03  0.7818609E-02  0.9966029E-01
       -1   -1    0    0    0  501  0.00000000000E+00  0.00000000000E+00  0.28294072667E+03  0.28294072672E+03  0.50400001928E-02 0.  1.
        1   -1    0    0  501    0  0.00000000000E+00  0.00000000000E+00 -0.28874112551E+03  0.28874112555E+03  0.50400001928E-02 0. -1.
    10030    2    1    2    0    0  0.00000000000E+00  0.00000000000E+00 -0.58003988373E+01  0.57168185227E+03  0.57165242550E+03 0.  0.
        1    1    3    3  502    0 -0.88835377887E+02  0.12129443302E+03 -0.24600232602E+03  0.28830748911E+03  0.50400001928E-02 0. -1.
       -1    1    3    3    0  502  0.88835377887E+02 -0.12129443302E+03  0.24020192718E+03  0.28337436315E+03  0.50400001928E-02 0.  1.
</event>
<event>
 5   0  0.1206541E-02  0.9000190E+03  0.7818609E-02  0.9425558E-01
        1   -1    0    0  501    0  0.00000000000E+00  0.00000000000E+00  0.73292345892E+03  0.73292345893E+03  0.50400001928E-02 0.  1.
       -1   -1    0    0    0  501  0.00000000000E+00  0.00000000000E+00 -0.27630242398E+03  0.27630242402E+03  0.50400001928E-02 0. -1.
    10030    2    1    2    0    0  0.00000000000E+00  0.00000000000E+00  0.45662103494E+03  0.10092258830E+04  0.90001895162E+03 0.  0.
        3    1    3    3  502    0 -0.14920462373E+03  0.21290318333E+03 -0.18357152012E+03  0.31825822599E+03  0.10100000352E+00 0. -1.
       -3    1    3    3    0  502  0.14920462373E+03 -0.21290318333E+03  0.64019255506E+03  0.69096765696E+03  0.10100000352E+00 0.  1.
</event>
<event>
 5   0  0.1175993E-02  0.8840523E+03  0.7818609E-02  0.9445739E-01
       -1   -1    0    0    0  501  0.00000000000E+00  0.00000000000E+00  0.38717823376E+03  0.38717823379E+03  0.50400001928E-02 0. -1.
        1   -1    0    0  501    0  0.00000000000E+00  0.00000000000E+00 -0.50464386084E+03  0.50464386086E+03  0.50400001928E-02 0.  1.
    10030    2    1    2    0    0  0.00000000000E+00  0.00000000000E+00 -0.11746562708E+03  0.89182209465E+03  0.88405230330E+03 0.  0.
        4    1    3    3  502    0 -0.19270798251E+03 -0.38814895889E+03 -0.14661635845E+03  0.45748655748E+03  0.12699999809E+01 0.  1.
       -4    1    3    3    0  502  0.19270798251E+03  0.38814895889E+03  0.29150731367E+02  0.43433553717E+03  0.12699999809E+01 0. -1.
</event>
<event>
 5   0  0.2008643E-02  0.9316106E+03  0.7818609E-02  0.9386907E-01
        2   -1    0    0  501    0  0.00000000000E+00  0.00000000000E+00  0.11918293257E+04  0.11918293257E+04  0.25500000920E-02 0.  1.
       -2   -1    0    0    0  501  0.00000000000E+00  0.00000000000E+00 -0.18205171947E+03  0.18205171949E+03  0.25500000920E-02 0. -1.
    10030    2    1    2    0    0  0.00000000000E+00  0.00000000000E+00  0.10097776062E+04  0.13738810452E+04  0.93161060121E+03 0.  0.
        3    1    3    3  502    0 -0.22161570915E+03  0.39259978837E+03  0.33210865187E+03  0.55995025066E+03  0.10100000352E+00 0. -1.
       -3    1    3    3    0  502  0.22161570915E+03 -0.39259978837E+03  0.67766895437E+03  0.81393079454E+03  0.10100000352E+00 0.  1.
</event>
<event>
 5   0  0.1177712E-02  0.9102430E+03  0.7818609E-02  0.9412867E-01
       -1   -1    0    0    0  501  0.00000000000E+00  0.00000000000E+00  0.73565421379E+03  0.73565421381E+03  0.50400001928E-02 0. -1.
        1   -1    0    0  501    0  0.00000000000E+00  0.00000000000E+00 -0.28156651858E+03  0.28156651863E+03  0.50400001928E-02 0.  1.
    10030    2    1    2    0    0  0.00000000000E+00  0.00000000000E+00  0.45408769521E+03  0.10172207324E+04  0.91024303544E+03 0.  0.
        5    1    3    3  502    0 -0.29410485704E+03 -0.20452590431E+03  0.54071861890E+03  0.64863489521E+03  0.46999998093E+01 0. -1.
       -5    1    3    3    0  502  0.29410485704E+03  0.20452590431E+03 -0.86630923683E+02  0.36858583723E+03  0.46999998093E+01 0.  1.
</event>
<event>
 5   0  0.2008643E-02  0.8931521E+03  0.7818609E-02  0.9434182E-01
        2   -1    0    0  501    0  0.00000000000E+00  0.00000000000E+00  0.79517948920E+03  0.79517948921E+03  0.25500000920E-02 0. -1.
       -2   -1    0    0    0  501  0.00000000000E+00  0.00000000000E+00 -0.25079893166E+03  0.25079893167E+03  0.25500000920E-02 0.  1.
    10030    2    1    2    0    0  0.00000000000E+00  0.00000000000E+00  0.54438055755E+03  0.10459784209E+04  0.89315209539E+03 0.  0.
        3    1    3    3  502    0 -0.36505253114E+03 -0.82477544597E+02 -0.13147866448E+02  0.37448467585E+03  0.10100000352E+00 0.  1.
       -3    1    3    3    0  502  0.36505253114E+03  0.82477544597E+02  0.55752842400E+03  0.67149374503E+03  0.10100000352E+00 0. -1.
</event>
<event>
 5   0  0.2041861E-02  0.8414612E+03  0.7818609E-02  0.9501870E-01
        2   -1    0    0  501    0  0.00000000000E+00  0.00000000000E+00  0.70878477355E+03  0.70878477356E+03  0.25500000920E-02 0. -1.
       -2   -1    0    0    0  501  0.00000000000E+00  0.00000000000E+00 -0.24974330676E+03  0.24974330678E+03  0.25500000920E-02 0.  1.
    10030    2    1    2    0    0  0.00000000000E+00  0.00000000000E+00  0.45904146679E+03  0.95852808034E+03  0.84146123652E+03 0.  0.
        5    1    3    3  502    0 -0.18983946789E+03 -0.18032799340E+03  0.60462791284E+03  0.65890379553E+03  0.46999998093E+01 0. -1.
       -5    1    3    3    0  502  0.18983946789E+03  0.18032799340E+03 -0.14558644605E+03  0.29962428481E+03  0.46999998093E+01 0.  1.
</event>
<event>
 5   0  0.1162839E-02  0.9240062E+03  0.7818609E-02  0.9396060E-01
        1   -1    0    0  501    0  0.00000000000E+00  0.00000000000E+00  0.34685109206E+03  0.34685109210E+03  0.50400001928E-02 0.  1.
       -1   -1    0    0    0  501  0.00000000000E+00  0.00000000000E+00 -0.61538476645E+03  0.61538476647E+03  0.50400001928E-02 0. -1.
    10030    2    1    2    0    0  0.00000000000E+00  0.00000000000E+00 -0.26853367438E+03  0.96223585857E+03  0.92400623009E+03 0.  0.
        2    1    3    3  502    0 -0.33695175886E+03 -0.28667919127E+03 -0.27291210455E+03  0.51981002618E+03  0.25500000920E-02 0. -1.
       -2    1    3    3    0  502  0.33695175886E+03  0.28667919127E+03  0.43784301636E+01  0.44242583239E+03  0.25500000920E-02 0.  1.
</event>
<event>
 5   0  0.1175993E-02  0.8966377E+03  0.7818609E-02  0.9429794E-01
        1   -1    0    0  501    0  0.00000000000E+00  0.00000000000E+00  0.18269821543E+04  0.18269821543E+04  0.50400001928E-02 0. -1.
       -1   -1    0    0    0  501  0.00000000000E+00  0.00000000000E+00 -0.11001189577E+03  0.11001189588E+03  0.50400001928E-02 0.  1.
    10030    2    1    2    0    0  0.00000000000E+00  0.00000000000E+00  0.17169702585E+04  0.19369940502E+04  0.89663765355E+03 0.  0.
        4    1    3    3  502    0 -0.22104482692E+03 -0.38067342629E+03  0.67498683713E+03  0.80584236436E+03  0.12699999809E+01 0.  1.
       -4    1    3    3    0  502  0.22104482692E+03  0.38067342629E+03  0.10419834214E+04  0.11311516858E+04  0.12699999809E+01 0. -1.
</event>
<event>
 5   0  0.1968763E-02  0.9106530E+03  0.7818609E-02  0.9412362E-01
        2   -1    0    0  501    0  0.00000000000E+00  0.00000000000E+00  0.18963369338E+04  0.18963369338E+04  0.25500000920E-02 0.  1.
       -2   -1    0    0    0  501  0.00000000000E+00  0.00000000000E+00 -0.10932772970E+03  0.10932772973E+03  0.25500000920E-02 0. -1.
    10030    2    1    2    0    0  0.00000000000E+00  0.00000000000E+00  0.17870092041E+04  0.20056646635E+04  0.91065297835E+03 0.  0.
        2    1    3    3  502    0  0.41800824417E+02 -0.74886457736E+02  0.18783872610E+04  0.18803441155E+04  0.25500000920E-02 0.  1.
       -2    1    3    3    0  502 -0.41800824417E+02  0.74886457736E+02 -0.91378056874E+02  0.12532054803E+03  0.25500000920E-02 0. -1.
</event>
<event>
 5   0  0.2008643E-02  0.8951701E+03  0.7818609E-02  0.9431639E-01
        2   -1    0    0  501    0  0.00000000000E+00  0.00000000000E+00  0.66311531938E+03  0.66311531939E+03  0.25500000920E-02 0. -1.
       -2   -1    0    0    0  501  0.00000000000E+00  0.00000000000E+00 -0.30210792489E+03  0.30210792490E+03  0.25500000920E-02 0.  1.
    10030    2    1    2    0    0  0.00000000000E+00  0.00000000000E+00  0.36100739449E+03  0.96522324429E+03  0.89517013603E+03 0.  0.
        3    1    3    3  502    0  0.28008624126E+03 -0.70611080644E+02 -0.18815630074E+03  0.34472747347E+03  0.10100000352E+00 0.  1.
       -3    1    3    3    0  502 -0.28008624126E+03  0.70611080644E+02  0.54916369523E+03  0.62049577083E+03  0.10100000352E+00 0. -1.
</event>
<event>
 5   0  0.1226424E-02  0.8956157E+03  0.7818609E-02  0.9431079E-01
       -1   -1    0    0    0  501  0.00000000000E+00  0.00000000000E+00  0.99848092343E+02  0.99848092470E+02  0.50400001928E-02 0. -1.
        1   -1    0    0  501    0  0.00000000000E+00  0.00000000000E+00 -0.20083697013E+04  0.20083697013E+04  0.50400001928E-02 0.  1.
    10030    2    1    2    0    0  0.00000000000E+00  0.00000000000E+00 -0.19085216090E+04  0.21082177938E+04  0.89561572907E+03 0.  0.
        1    1    3    3  502    0 -0.36416707970E+03  0.15697662343E+03 -0.14439269323E+04  0.14973925030E+04  0.50400001928E-02 0.  1.
       -1    1    3    3    0  502  0.36416707970E+03 -0.15697662343E+03 -0.46459467671E+03  0.61082529081E+03  0.50400001928E-02 0. -1.
</event>
<event>
 5   0  0.2041861E-02  0.9295919E+03  0.7818609E-02  0.9389328E-01
        2   -1    0    0  501    0  0.00000000000E+00  0.00000000000E+00  0.11721574249E+04  0.11721574249E+04  0.25500000920E-02 0.  1.
       -2   -1    0    0    0  501  0.00000000000E+00  0.00000000000E+00 -0.18430569273E+03  0.18430569275E+03  0.25500000920E-02 0. -1.
    10030    2    1    2    0    0  0.00000000000E+00  0.00000000000E+00  0.98785173215E+03  0.13564631176E+04  0.92959192379E+03 0.  0.
        5    1    3    3  502    0 -0.20860806143E+03 -0.16508427213E+03 -0.62187504463E+02  0.27323893556E+03  0.46999998093E+01 0. -1.
       -5    1    3    3    0  502  0.20860806143E+03  0.16508427213E+03  0.10500392366E+04  0.10832241821E+04  0.46999998093E+01 0.  1.
</event>
<event>
 5   0  0.1175993E-02  0.8856095E+03  0.7818609E-02  0.9443751E-01
        1   -1    0    0  501    0  0.00000000000E+00  0.00000000000E+00  0.12010704872E+04  0.12010704872E+04  0.50400001928E-02 0.  1.
       -1   -1    0    0    0  501  0.00000000000E+00  0.00000000000E+00 -0.16325108726E+03  0.16325108734E+03  0.50400001928E-02 0. -1.
    10030    2    1    2    0    0  0.00000000000E+00  0.00000000000E+00  0.10378193999E+04  0.13643215745E+04  0.88560953693E+03 0.  0.
        4    1    3    3  502    0  0.18984586926E+03 -0.27762790466E+03  0.75201259993E+02  0.34463828854E+03  0.12699999809E+01 0. -1.
       -4    1    3    3    0  502 -0.18984586926E+03  0.27762790466E+03  0.96261813993E+03  0.10196832860E+04  0.12699999809E+01 0.  1.
</event>
<event>
 5   0  0.1177712E-02  0.8630233E+03  0.7818609E-02  0.9473022E-01
       -1   -1    0    0    0  501  0.00000000000E+00  0.00000000000E+00  0.38059196387E+03  0.38059196390E+03  0.50400001928E-02 0.  1.
        1   -1    0    0  501    0  0.00000000000E+00  0.00000000000E+00 -0.48924386761E+03  0.48924386764E+03  0.50400001928E-02 0. -1.
    10030    2    1    2    0    0  0.00000000000E+00  0.00000000000E+00 -0.10865190375E+03  0.86983583154E+03  0.86302325440E+03 0.  0.
        5    1    3    3  502    0 -0.11325176273E+03  0.27533423874E+03  0.26046188772E+03  0.39559750977E+03  0.46999998093E+01 0.  1.
       -5    1    3    3    0  502  0.11325176273E+03 -0.27533423874E+03 -0.36911379147E+03  0.47423832177E+03  0.46999998093E+01 0. -1.
</event>
<event>
 5   0  0.1968763E-02  0.9039678E+03  0.7818609E-02  0.9420635E-01
        2   -1    0    0  501    0  0.00000000000E+00  0.00000000000E+00  0.25371222719E+04  0.25371222719E+04  0.25500000920E-02 0. -1.
       -2   -1    0    0    0  501  0.00000000000E+00  0.00000000000E+00 -0.80520139307E+02  0.80520139347E+02  0.25500000920E-02 0.  1.
    10030    2    1    2    0    0  0.00000000000E+00  0.00000000000E+00  0.24566021326E+04  0.26176424112E+04  0.90396778443E+03 0.  0.
        2    1    3    3  502    0  0.31749441574E+03  0.17820168622E+02  0.29819527846E+03  0.43593656252E+03  0.25500000920E-02 0.  1.
       -2    1    3    3    0  502 -0.31749441574E+03 -0.17820168622E+02  0.21584068541E+04  0.21817058487E+04  0.25500000920E-02 0. -1.
</event>
<event>
 5   0  0.1226424E-02  0.8838577E+03  0.7818609E-02  0.9445988E-01
        1   -1    0    0  501    0  0.00000000000E+00  0.00000000000E+00  0.40576415857E+03  0.40576415860E+03  0.50400001928E-02 0.  1.
       -1   -1    0    0    0  501  0.00000000000E+00  0.00000000000E+00 -0.48131679859E+03  0.48131679861E+03  0.50400001928E-02 0. -1.
    10030    2    1    2    0    0  0.00000000000E+00  0.00000000000E+00 -0.75552640017E+02  0.88708095721E+03  0.88385769400E+03 0.  0.
        1    1    3    3  502    0 -0.39573283956E+03 -0.16778233754E+03  0.65290500089E+02  0.43476228278E+03  0.50400001928E-02 0. -1.
       -1    1    3    3    0  502  0.39573283956E+03  0.16778233754E+03 -0.14084314011E+03  0.45231867443E+03  0.50400001928E-02 0.  1.
</event>
<event>
 5   0  0.1162839E-02  0.9200134E+03  0.7818609E-02  0.9400904E-01
        1   -1    0    0  501    0  0.00000000000E+00  0.00000000000E+00  0.18867466825E+04  0.18867466825E+04  0.50400001928E-02 0.  1.
       -1   -1    0    0    0  501  0.00000000000E+00  0.00000000000E+00 -0.11215398945E+03  0.11215398956E+03  0.50400001928E-02 0. -1.
    10030    2    1    2    0    0  0.00000000000E+00  0.00000000000E+00  0.17745926931E+04  0.19989006721E+04  0.92001340782E+03 0.  0.
        2    1    3    3  502    0 -0.19321837604E+03  0.42182911027E+02  0.17896636175E+04  0.18005578588E+04  0.25500000920E-02 0.  1.
       -2    1    3    3    0  502  0.19321837604E+03 -0.42182911027E+02 -0.15070924480E+02  0.19834281331E+03  0.25500000920E-02 0. -1.
</event>
<event>
 5   0  0.2041861E-02  0.8912858E+03  0.7818609E-02  0.9436541E-01
       -2   -1    0    0    0  501  0.00000000000E+00  0.00000000000E+00  0.90434608621E+03  0.90434608621E+03  0.25500000920E-02 0. -1.
        2   -1    0    0  501    0  0.00000000000E+00  0.00000000000E+00 -0.21960352605E+03  0.21960352607E+03  0.25500000920E-02 0.  1.
    10030    2    1    2    0    0  0.00000000000E+00  0.00000000000E+00  0.68474256016E+03  0.11239496123E+04  0.89128578876E+03 0.  0.
        5    1    3    3  502    0  0.19189002625E+03  0.21754975959E+03  0.76894281846E+03  0.82185450545E+03  0.46999998093E+01 0.  1.
       -5    1    3    3    0  502 -0.19189002625E+03 -0.21754975959E+03 -0.84200258308E+02  0.30209510682E+03  0.46999998093E+01 0. -1.
</event>
<event>
 5   0  0.1924218E-02  0.9022741E+03  0.7818609E-02  0.9422743E-01
       -2   -1    0    0    0  501  0.00000000000E+00  0.00000000000E+00  0.30181919966E+03  0.30181919967E+03  0.25500000920E-02 0. -1.
        2   -1    0    0  501    0  0.00000000000E+00  0.00000000000E+00 -0.67432639381E+03  0.67432639381E+03  0.25500000920E-02 0.  1.
    10030    2    1    2    0    0  0.00000000000E+00  0.00000000000E+00 -0.37250719415E+03  0.97614559349E+03  0.90227413240E+03 0.  0.
        4    1    3    3  502    0 -0.12091101686E+03 -0.16569381530E+03  0.24845070633E+03  0.32218516540E+03  0.12699999809E+01 0. -1.
       -4    1    3    3    0  502  0.12091101686E+03  0.16569381530E+03 -0.62095790048E+03  0.65396042808E+03  0.12699999809E+01 0.  1.
</event>
<event>
 5   0  0.1162839E-02  0.9370953E+03  0.7818609E-02  0.9380363E-01
       -1   -1    0    0    0  501  0.00000000000E+00  0.00000000000E+00  0.17422252797E+03  0.17422252804E+03  0.50400001928E-02 0. -1.
        1   -1    0    0  501    0  0.00000000000E+00  0.00000000000E+00 -0.12600949151E+04  0.12600949152E+04  0.50400001928E-02 0.  1.
    10030    2    1    2    0    0  0.00000000000E+00  0.00000000000E+00 -0.10858723872E+04  0.14343174432E+04  0.93709534553E+03 0.  0.
        2    1    3    3  502    0 -0.38171524552E+03  0.12100431838E+03 -0.17056197210E+03  0.43524701040E+03  0.25500000920E-02 0. -1.
       -2    1    3    3    0  502  0.38171524552E+03 -0.12100431838E+03 -0.91531041508E+03  0.99907043280E+03  0.25500000920E-02 0.  1.
</event>
<event>
 5   0  0.1206541E-02  0.9389679E+03  0.7818609E-02  0.9378139E-01
       -1   -1    0    0    0  501  0.00000000000E+00  0.00000000000E+00  0.17020443792E+03  0.17020443799E+03  0.50400001928E-02 0.  1.
        1   -1    0    0  501    0  0.00000000000E+00  0.00000000000E+00 -0.12950024334E+04  0.12950024334E+04  0.50400001928E-02 0. -1.
    10030    2    1    2    0    0  0.00000000000E+00  0.00000000000E+00 -0.11247979955E+04  0.14652068714E+04  0.93896786174E+03 0.  0.
        3    1    3    3  502    0 -0.42835703888E+03  0.18711274555E+03 -0.63067121570E+03  0.78501409212E+03  0.10100000352E+00 0. -1.
       -3    1    3    3    0  502  0.42835703888E+03 -0.18711274555E+03 -0.49412677980E+03  0.68019277931E+03  0.10100000352E+00 0.  1.
</event>
<event>
 5   0  0.1162839E-02  0.8591991E+03  0.7818609E-02  0.9478073E-01
        1   -1    0    0  501    0  0.00000000000E+00  0.00000000000E+00  0.83449724019E+03  0.83449724021E+03  0.50400001928E-02 0. -1.
       -1   -1    0    0    0  501  0.00000000000E+00  0.00000000000E+00 -0.22115802795E+03  0.22115802800E+03  0.50400001928E-02 0.  1.
    10030    2    1    2    0    0  0.00000000000E+00  0.00000000000E+00  0.61333921225E+03  0.10556552682E+04  0.85919907822E+03 0.  0.
        2    1    3    3  502    0 -0.10636208833E+03 -0.30442052301E+03 -0.42083219688E+02  0.32520108556E+03  0.25500000920E-02 0.  1.
       -2    1    3    3    0  502  0.10636208833E+03  0.30442052301E+03  0.65542243193E+03  0.73045418265E+03  0.25500000920E-02 0. -1.
</event>
<event>
 5   0  0.2008643E-02  0.8711378E+03  0.7818609E-02  0.9462398E-01
        2   -1    0    0  501    0  0.00000000000E+00  0.00000000000E+00  0.57285580364E+03  0.57285580364E+03  0.25500000920E-02 0.  1.
       -2   -1    0    0    0  501  0.00000000000E+00  0.00000000000E+00 -0.33118330245E+03  0.33118330246E+03  0.25500000920E-02 0. -1.
    10030    2    1    2    0    0  0.00000000000E+00  0.00000000000E+00  0.24167250119E+03  0.90403910610E+03  0.87113782350E+03 0.  0.
        3    1    3    3  502    0  0.64503441876E+02 -0.21734197976E+03 -0.26512706971E+03  0.34884180293E+03  0.10100000352E+00 0. -1.
       -3    1    3    3    0  502 -0.64503441876E+02  0.21734197976E+03  0.50679957090E+03  0.55519730317E+03  0.10100000352E+00 0.  1.
</event>
<event>
 5   0  0.1177712E-02  0.8542642E+03  0.7818609E-02  0.9484632E-01
        1   -1    0    0  501    0  0.00000000000E+00  0.00000000000E+00  0.84350477710E+03  0.84350477712E+03  0.50400001928E-02 0. -1.
       -1   -1    0    0    0  501  0.00000000000E+00  0.00000000000E+00 -0.21629020790E+03  0.21629020796E+03  0.50400001928E-02 0.  1.
    10030    2    1    2    0    0  0.00000000000E+00  0.00000000000E+00  0.62721456920E+03  0.10597949851E+04  0.85426418312E+03 0.  0.
        5    1    3    3  502    0  0.80432407115E+02 -0.26327719584E+03  0.71872433833E+03  0.76965642885E+03  0.46999998093E+01 0. -1.
       -5    1    3    3    0  502 -0.80432407115E+02  0.26327719584E+03 -0.91509769124E+02  0.29013855622E+03  0.46999998093E+01 0.  1.
</event>
<event>
 5   0  0.1175993E-02  0.9423810E+03  0.7818609E-02  0.9374101E-01
       -1   -1    0    0    0  501  0.00000000000E+00  0.00000000000E+00  0.22567594388E+03  0.22567594394E+03  0.50400001928E-02 0. -1.
        1   -1    0    0  501    0  0.00000000000E+00  0.00000000000E+00 -0.98380215966E+03  0.98380215967E+03  0.50400001928E-02 0.  1.
    10030    2    1    2    0    0  0.00000000000E+00  0.00000000000E+00 -0.75812621578E+03  0.12094781036E+04  0.94238098669E+03 0.  0.
        4    1    3    3  502    0  0.31049452169E+03  0.13980188761E+03 -0.79704990481E+03  0.86674193359E+03  0.12699999809E+01 0.  1.
       -4    1    3    3    0  502 -0.31049452169E+03 -0.13980188761E+03  0.38923689036E+02  0.34273617003E+03  0.12699999809E+01 0. -1.
</event>
<event>
 5   0  0.1226424E-02  0.8828124E+03  0.7818609E-02  0.9447325E-01
       -1   -1    0    0    0  501  0.00000000000E+00  0.00000000000E+00  0.44789980038E+03  0.44789980041E+03  0.50400001928E-02 0.  1.
        1   -1    0    0  501    0  0.00000000000E+00  0.00000000000E+00 -0.43500674828E+03  0.43500674831E+03  0.50400001928E-02 0. -1.
    10030    2    1    2    0    0  0.00000000000E+00  0.00000000000E+00  0.12893052108E+02  0.88290654872E+03  0.88281240532E+03 0.  0.
        1    1    3    3  502    0  0.16791892186E+03  0.29341063169E+03 -0.27740212005E+03  0.43730824294E+03  0.50400001928E-02 0. -1.
       -1    1    3    3    0  502 -0.16791892186E+03 -0.29341063169E+03  0.29029517216E+03  0.44559830578E+03  0.50400001928E-02 0.  1.
</event>
<event>
 5   0  0.2008770E-02  0.1084690E+04  0.7818609E-02  0.9220244E-01
        2   -1    0    0  501    0  0.00000000000E+00  0.00000000000E+00  0.16183431454E+04  0.16183431454E+04  0.25500000920E-02 0.  1.
       -2   -1    0    0    0  501  0.00000000000E+00  0.00000000000E+00 -0.18175271230E+03  0.18175271232E+03  0.25500000920E-02 0. -1.
    10030    2    1    2    0    0  0.00000000000E+00  0.00000000000E+00  0.14365904331E+04  0.18000958578E+04  0.10846902897E+04 0.  0.
        1    1    3    3  502    0  0.17879362325E+03  0.50294470060E+03  0.55896368058E+03  0.77289127814E+03  0.50400001928E-02 0. -1.
       -1    1    3    3    0  502 -0.17879362325E+03 -0.50294470060E+03  0.87762675256E+03  0.10272045796E+04  0.50400001928E-02 0.  1.
</event>
<event>
 5   0  0.1226424E-02  0.8965216E+03  0.7818609E-02  0.9429940E-01
       -1   -1    0    0    0  501  0.00000000000E+00  0.00000000000E+00  0.11540575080E+03  0.11540575091E+03  0.50400001928E-02 0.  1.
        1   -1    0    0  501    0  0.00000000000E+00  0.00000000000E+00 -0.17411414515E+04  0.17411414515E+04  0.50400001928E-02 0. -1.
    10030    2    1    2    0    0  0.00000000000E+00  0.00000000000E+00 -0.16257357007E+04  0.18565472024E+04  0.89652158161E+03 0.  0.
        1    1    3    3  502    0  0.38723862222E+03  0.79499986931E+02 -0.12505136665E+04  0.13115099803E+04  0.50400001928E-02 0. -1.
       -1    1    3    3    0  502 -0.38723862222E+03 -0.79499986931E+02 -0.37522203422E+03  0.54503722208E+03  0.50400001928E-02 0.  1.
</event>
<event>
 5   0  0.2008643E-02  0.9025508E+03  0.7818609E-02  0.9422398E-01
       -2   -1    0    0    0  501  0.00000000000E+00  0.00000000000E+00  0.23714356040E+03  0.23714356042E+03  0.25500000920E-02 0. -1.
        2   -1    0    0  501    0  0.00000000000E+00  0.00000000000E+00 -0.85876037611E+03  0.85876037611E+03  0.25500000920E-02 0.  1.
    10030    2    1    2    0    0  0.00000000000E+00  0.00000000000E+00 -0.62161681570E+03  0.10959039365E+04  0.90255081438E+03 0.  0.
        3    1    3    3  502    0  0.14904346941E+03 -0.12513118926E+03 -0.80519182618E+03  0.82837531195E+03  0.10100000352E+00 0.  1.
       -3    1    3    3    0  502 -0.14904346941E+03  0.12513118926E+03  0.18357501048E+03  0.26752862458E+03  0.10100000352E+00 0. -1.
</event>
<event>
 5   0  0.2008643E-02  0.8972354E+03  0.7818609E-02  0.9429044E-01
        2   -1    0    0  501    0  0.00000000000E+00  0.00000000000E+00  0.12661833313E+04  0.12661833313E+04  0.25500000920E-02 0. -1.
       -2   -1    0    0    0  501  0.00000000000E+00  0.00000000000E+00 -0.15894842660E+03  0.15894842662E+03  0.25500000920E-02 0.  1.
    10030    2    1    2    0    0  0.00000000000E+00  0.00000000000E+00  0.11072349047E+04  0.14251317580E+04  0.89723541687E+03 0.  0.
        3    1    3    3  502    0  0.38011567139E+03 -0.23107156182E+03  0.46133055638E+03  0.64086494893E+03  0.10100000352E+00 0. -1.
       -3    1    3    3    0  502 -0.38011567139E+03  0.23107156182E+03  0.64590434834E+03  0.78426680902E+03  0.10100000352E+00 0.  1.
</event>
<event>
 5   0  0.1924218E-02  0.9209435E+03  0.7818609E-02  0.9399773E-01
        2   -1    0    0  501    0  0.00000000000E+00  0.00000000000E+00  0.74295842465E+03  0.74295842465E+03  0.25500000920E-02 0. -1.
       -2   -1    0    0    0  501  0.00000000000E+00  0.00000000000E+00 -0.28539180841E+03  0.28539180842E+03  0.25500000920E-02 0.  1.
    10030    2    1    2    0    0  0.00000000000E+00  0.00000000000E+00  0.45756661624E+03  0.10283502331E+04  0.92094353441E+03 0.  0.
        4    1    3    3  502    0  0.30134103824E+03 -0.33948147141E+03  0.31512206456E+03  0.55259172925E+03  0.12699999809E+01 0. -1.
       -4    1    3    3    0  502 -0.30134103824E+03  0.33948147141E+03  0.14244455168E+03  0.47575850383E+03  0.12699999809E+01 0.  1.
</event>
<event>
 5   0  0.1206541E-02  0.8759711E+03  0.7818609E-02  0.9456127E-01
       -1   -1    0    0    0  501  0.00000000000E+00  0.00000000000E+00  0.69309773301E+03  0.69309773303E+03  0.50400001928E-02 0.  1.
        1   -1    0    0  501    0  0.00000000000E+00  0.00000000000E+00 -0.27677387581E+03  0.27677387586E+03  0.50400001928E-02 0. -1.
    10030    2    1    2    0    0  0.00000000000E+00  0.00000000000E+00  0.41632385720E+03  0.96987160889E+03  0.87597110891E+03 0.  0.
        3    1    3    3  502    0  0.36270233885E+03  0.43165432358E+02  0.47576248112E+03  0.59980512652E+03  0.10100000352E+00 0.  1.
       -3    1    3    3    0  502 -0.36270233885E+03 -0.43165432358E+02 -0.59438623922E+02  0.37006648237E+03  0.10100000352E+00 0. -1.
</event>
<event>
 5   0  0.1924218E-02  0.9258227E+03  0.7818609E-02  0.9393865E-01
        2   -1    0    0  501    0  0.00000000000E+00  0.00000000000E+00  0.15328525023E+04  0.15328525023E+04  0.25500000920E-02 0. -1.
       -2   -1    0    0    0  501  0.00000000000E+00  0.00000000000E+00 -0.13979618147E+03  0.13979618149E+03  0.25500000920E-02 0.  1.
    10030    2    1    2    0    0  0.00000000000E+00  0.00000000000E+00  0.13930563208E+04  0.16726486837E+04  0.92582271864E+03 0.  0.
        4    1    3    3  502    0  0.26866693635E+03 -0.11934294609E+03  0.50509062231E+02  0.29829086432E+03  0.12699999809E+01 0.  1.
       -4    1    3    3    0  502 -0.26866693635E+03  0.11934294609E+03  0.13425472586E+04  0.13743578194E+04  0.12699999809E+01 0. -1.
</event>
<event>
 5   0  0.1177712E-02  0.9466580E+03  0.7818609E-02  0.9369065E-01
        1   -1    0    0  501    0  0.00000000000E+00  0.00000000000E+00  0.15844219760E+04  0.15844219761E+04  0.50400001928E-02 0. -1.
       -1   -1    0    0    0  501  0.00000000000E+00  0.00000000000E+00 -0.14140193993E+03  0.14140194002E+03  0.50400001928E-02 0.  1.
    10030    2    1    2    0    0  0.00000000000E+00  0.00000000000E+00  0.14430200361E+04  0.17258239161E+04  0.94665799774E+03 0.  0.
        5    1    3    3  502    0  0.22099004880E+03  0.40617989801E+03  0.53739311277E+03  0.70896555549E+03  0.46999998093E+01 0. -1.
       -5    1    3    3    0  502 -0.22099004880E+03 -0.40617989801E+03  0.90562692335E+03  0.10168583606E+04  0.46999998093E+01 0.  1.
</event>
<event>
 5   0  0.2008770E-02  0.8912164E+03  0.7818609E-02  0.9436628E-01
       -2   -1    0    0    0  501  0.00000000000E+00  0.00000000000E+00  0.26203330680E+03  0.26203330681E+03  0.25500000920E-02 0. -1.
        2   -1    0    0  501    0  0.00000000000E+00  0.00000000000E+00 -0.75779177273E+03  0.75779177274E+03  0.25500000920E-02 0.  1.
    10030    2    1    2    0    0  0.00000000000E+00  0.00000000000E+00 -0.49575846593E+03  0.10198250795E+04  0.89121643630E+03 0.  0.
        1    1    3    3  502    0 -0.31357747459E+03  0.29657105940E+03 -0.37469331081E+03  0.57155953586E+03  0.50400001928E-02 0.  1.
       -1    1    3    3    0  502  0.31357747459E+03 -0.29657105940E+03 -0.12106515513E+03  0.44826554369E+03  0.50400001928E-02 0. -1.
</event>
<event>
 5   0  0.1162839E-02  0.9137717E+03  0.7818609E-02  0.9408528E-01
        1   -1    0    0  501    0  0.00000000000E+00  0.00000000000E+00  0.16014181533E+04  0.16014181533E+04  0.50400001928E-02 0. -1.
       -1   -1    0    0    0  501  0.00000000000E+00  0.00000000000E+00 -0.13034989952E+03  0.13034989962E+03  0.50400001928E-02 0.  1.
    10030    2    1    2    0    0  0.00000000000E+00  0.00000000000E+00  0.14710682538E+04  0.17317680529E+04  0.91377173400E+03 0.  0.
        2    1    3    3  502    0 -0.13978155322E+02 -0.42260068493E+02 -0.12623082907E+03  0.13384888654E+03  0.25500000920E-02 0.  1.
       -2    1    3    3    0  502  0.13978155322E+02  0.42260068493E+02  0.15972990828E+04  0.15979191664E+04  0.25500000920E-02 0. -1.
</event>
<event>
 5   0  0.2041861E-02  0.8980488E+03  0.7818609E-02  0.9428024E-01
        2   -1    0    0  501    0  0.00000000000E+00  0.00000000000E+00  0.58872217774E+03  0.58872217775E+03  0.25500000920E-02 0.  1.
       -2   -1    0    0    0  501  0.00000000000E+00  0.00000000000E+00 -0.34247546522E+03  0.34247546523E+03  0.25500000920E-02 0. -1.
    10030    2    1    2    0    0  0.00000000000E+00  0.00000000000E+00  0.24624671252E+03  0.93119764298E+03  0.89804877755E+03 0.  0.
        5    1    3    3  502    0 -0.14607770163E+03  0.38339115832E+03 -0.66019576291E+02  0.41558170032E+03  0.46999998093E+01 0. -1.
       -5    1    3    3    0  502  0.14607770163E+03 -0.38339115832E+03  0.31226628881E+03  0.51561594265E+03  0.46999998093E+01 0.  1.
</event>
<event>
 5   0  0.1206541E-02  0.8749659E+03  0.7818609E-02  0.9457428E-01
       -1   -1    0    0    0  501  0.00000000000E+00  0.00000000000E+00  0.25794604125E+03  0.25794604130E+03  0.50400001928E-02 0.  1.
        1   -1    0    0  501    0  0.00000000000E+00  0.00000000000E+00 -0.74198197277E+03  0.74198197279E+03  0.50400001928E-02 0. -1.
    10030    2    1    2    0    0  0.00000000000E+00  0.00000000000E+00 -0.48403593152E+03  0.99992801409E+03  0.87496585668E+03 0.  0.
        3    1    3    3  502    0 -0.15641024142E+02  0.30000066645E+03  0.12143862285E+03  0.32402529350E+03  0.10100000352E+00 0.  1.
       -3    1    3    3    0  502  0.15641024142E+02 -0.30000066645E+03 -0.60547455437E+03  0.67590272059E+03  0.10100000352E+00 0. -1.
</event>
<event>
 5   0  0.1226424E-02  0.8973724E+03  0.7818609E-02  0.9428872E-01
        1   -1    0    0  501    0  0.00000000000E+00  0.00000000000E+00  0.40109462986E+03  0.40109462990E+03  0.50400001928E-02 0.  1.
       -1   -1    0    0    0  501  0.00000000000E+00  0.00000000000E+00 -0.50192475423E+03  0.50192475425E+03  0.50400001928E-02 0. -1.
    10030    2    1    2    0    0  0.00000000000E+00  0.00000000000E+00 -0.10083012436E+03  0.90301938415E+03  0.89737243894E+03 0.  0.
        1    1    3    3  502    0 -0.33393289995E+03 -0.26720689469E+03  0.86117088185E+02  0.43626466639E+03  0.50400001928E-02 0. -1.
       -1    1    3    3    0  502  0.33393289995E+03  0.26720689469E+03 -0.18694721255E+03  0.46675471775E+03  0.50400001928E-02 0.  1.
</event>
<event>
 5   0  0.1177712E-02  0.9247183E+03  0.7818609E-02  0.9395199E-01
       -1   -1    0    0    0  501  0.00000000000E+00  0.00000000000E+00  0.20757495732E+03  0.20757495738E+03  0.50400001928E-02 0.  1.
        1   -1    0    0  501    0  0.00000000000E+00  0.00000000000E+00 -0.10298736037E+04  0.10298736037E+04  0.50400001928E-02 0. -1.
    10030    2    1    2    0    0  0.00000000000E+00  0.00000000000E+00 -0.82229864639E+03  0.12374485611E+04  0.92471826928E+03 0.  0.
        5    1    3    3  502    0 -0.26494940171E+02 -0.17209178206E+03 -0.98428887151E+03  0.99958203059E+03  0.46999998093E+01 0. -1.
       -5    1    3    3    0  502  0.26494940171E+02  0.17209178206E+03  0.16199022512E+03  0.23786653051E+03  0.46999998093E+01 0.  1.
</event>
<event>
 5   0  0.1226424E-02  0.9009605E+03  0.7818609E-02  0.9424382E-01
        1   -1    0    0  501    0  0.00000000000E+00  0.00000000000E+00  0.74431098165E+03  0.74431098166E+03  0.50400001928E-02 0.  1.
       -1   -1    0    0    0  501  0.00000000000E+00  0.00000000000E+00 -0.27264473689E+03  0.27264473693E+03  0.50400001928E-02 0. -1.
    10030    2    1    2    0    0  0.00000000000E+00  0.00000000000E+00  0.47166624476E+03  0.10169557186E+04  0.90096053584E+03 0.  0.
        1    1    3    3  502    0  0.26065170793E+03  0.31678422979E+03  0.25750115480E+02  0.41104090984E+03  0.50400001928E-02 0. -1.
       -1    1    3    3    0  502 -0.26065170793E+03 -0.31678422979E+03  0.44591612928E+03  0.60591480875E+03  0.50400001928E-02 0.  1.
</event>
<event>
 5   0  0.1162839E-02  0.9148907E+03  0.7818609E-02  0.9407156E-01
       -1   -1    0    0    0  501  0.00000000000E+00  0.00000000000E+00  0.25154392825E+03  0.25154392830E+03  0.50400001928E-02 0. -1.
        1   -1    0    0  501    0  0.00000000000E+00  0.00000000000E+00 -0.83188753195E+03  0.83188753197E+03  0.50400001928E-02 0.  1.
    10030    2    1    2    0    0  0.00000000000E+00  0.00000000000E+00 -0.58034360370E+03  0.10834314603E+04  0.91489072066E+03 0.  0.
        2    1    3    3  502    0 -0.19876259052E+02 -0.16431563423E+03 -0.79518494486E+03  0.81222767120E+03  0.25500000920E-02 0.  1.
       -2    1    3    3    0  502  0.19876259052E+02  0.16431563423E+03  0.21484134116E+03  0.27120378907E+03  0.25500000920E-02 0. -1.
</event>
<event>
 5   0  0.1206541E-02  0.8630793E+03  0.7818609E-02  0.9472949E-01
       -1   -1    0    0    0  501  0.00000000000E+00  0.00000000000E+00  0.16218291293E+03  0.16218291301E+03  0.50400001928E-02 0.  1.
        1   -1    0    0  501    0  0.00000000000E+00  0.00000000000E+00 -0.11482495478E+04  0.11482495478E+04  0.50400001928E-02 0. -1.
    10030    2    1    2    0    0  0.00000000000E+00  0.00000000000E+00 -0.98606663488E+03  0.13104324608E+04  0.86307926981E+03 0.  0.
        3    1    3    3  502    0 -0.21897900266E+03  0.10829123567E+02 -0.10573865150E+04  0.10798774587E+04  0.10100000352E+00 0. -1.
       -3    1    3    3    0  502  0.21897900266E+03 -0.10829123567E+02  0.71319880080E+02  0.23055500216E+03  0.10100000352E+00 0.  1.
</event>
<event>
 5   0  0.2041861E-02  0.9645794E+03  0.7818609E-02  0.9348270E-01
        2   -1    0    0  501    0  0.00000000000E+00  0.00000000000E+00  0.85230256510E+03  0.85230256510E+03  0.25500000920E-02 0.  1.
       -2   -1    0    0    0  501  0.00000000000E+00  0.00000000000E+00 -0.27291173003E+03  0.27291173004E+03  0.25500000920E-02 0. -1.
    10030    2    1    2    0    0  0.00000000000E+00  0.00000000000E+00  0.57939083507E+03  0.11252142951E+04  0.96457942661E+03 0.  0.
        5    1    3    3  502    0 -0.25658093454E+02  0.13975489927E+03 -0.24791270346E+03  0.28578412861E+03  0.46999998093E+01 0. -1.
       -5    1    3    3    0  502  0.25658093454E+02 -0.13975489927E+03  0.82730353853E+03  0.83943016654E+03  0.46999998093E+01 0.  1.
</event>
<event>
 5   0  0.1177712E-02  0.9082927E+03  0.7818609E-02  0.9415274E-01
       -1   -1    0    0    0  501  0.00000000000E+00  0.00000000000E+00  0.15906170665E+03  0.15906170673E+03  0.50400001928E-02 0. -1.
        1   -1    0    0  501    0  0.00000000000E+00  0.00000000000E+00 -0.12966597764E+04  0.12966597764E+04  0.50400001928E-02 0.  1.
    10030    2    1    2    0    0  0.00000000000E+00  0.00000000000E+00 -0.11375980698E+04  0.14557214831E+04  0.90829272163E+03 0.  0.
        5    1    3    3  502    0  0.15264330457E+03  0.46962193966E+02  0.11253055320E+03  0.19542426025E+03  0.46999998093E+01 0. -1.
       -5    1    3    3    0  502 -0.15264330457E+03 -0.46962193966E+02 -0.12501286230E+04  0.12602972229E+04  0.46999998093E+01 0.  1.
</event>
<event>
 5   0  0.2008770E-02  0.8967348E+03  0.7818609E-02  0.9429672E-01
        2   -1    0    0  501    0  0.00000000000E+00  0.00000000000E+00  0.12649147600E+04  0.12649147600E+04  0.25500000920E-02 0.  1.
       -2   -1    0    0    0  501  0.00000000000E+00  0.00000000000E+00 -0.15893035157E+03  0.15893035159E+03  0.25500000920E-02 0. -1.
    10030    2    1    2    0    0  0.00000000000E+00  0.00000000000E+00  0.11059844084E+04  0.14238451116E+04  0.89673484939E+03 0.  0.
        1    1    3    3  502    0  0.22853767770E+03  0.24672105463E+03  0.82151875247E+02  0.34619312465E+03  0.50400001928E-02 0. -1.
       -1    1    3    3    0  502 -0.22853767770E+03 -0.24672105463E+03  0.10238325332E+04  0.10776519869E+04  0.50400001928E-02 0.  1.
</event>
<event>
 5   0  0.1226424E-02  0.9118357E+03  0.7818609E-02  0.9410906E-01
        1   -1    0    0  501    0  0.00000000000E+00  0.00000000000E+00  0.11568952943E+04  0.11568952944E+04  0.50400001928E-02 0.  1.
       -1   -1    0    0    0  501  0.00000000000E+00  0.00000000000E+00 -0.17967148638E+03  0.17967148645E+03  0.50400001928E-02 0. -1.
    10030    2    1    2    0    0  0.00000000000E+00  0.00000000000E+00  0.97722380797E+03  0.13365667808E+04  0.91183572463E+03 0.  0.
        1    1    3    3  502    0 -0.65446846080E+02 -0.44940632402E+03  0.54745895537E+03  0.71130910410E+03  0.50400001928E-02 0.  1.
       -1    1    3    3    0  502  0.65446846080E+02  0.44940632402E+03  0.42976485260E+03  0.62525767672E+03  0.50400001928E-02 0. -1.
</event>
<event>
 5   0  0.1924218E-02  0.8956318E+03  0.7818609E-02  0.9431058E-01
       -2   -1    0    0    0  501  0.00000000000E+00  0.00000000000E+00  0.16565532088E+03  0.16565532090E+03  0.25500000920E-02 0.  1.
        2   -1    0    0  501    0  0.00000000000E+00  0.00000000000E+00 -0.12105804995E+04  0.12105804995E+04  0.25500000920E-02 0. -1.
    10030    2    1    2    0    0  0.00000000000E+00  0.00000000000E+00 -0.10449251787E+04  0.13762358205E+04  0.89563184652E+03 0.  0.
        4    1    3    3  502    0 -0.15054956865E+03  0.38885555150E+03 -0.27154948780E+03  0.49760883210E+03  0.12699999809E+01 0.  1.
       -4    1    3    3    0  502  0.15054956865E+03 -0.38885555150E+03 -0.77337569086E+03  0.87862698835E+03  0.12699999809E+01 0. -1.
</event>
<event>
 5   0  0.2008643E-02  0.6310618E+03  0.7818609E-02  0.9842979E-01
        2   -1    0    0  501    0  0.00000000000E+00  0.00000000000E+00  0.14787408713E+03  0.14787408715E+03  0.25500000920E-02 0. -1.
       -2   -1    0    0    0  501  0.00000000000E+00  0.00000000000E+00 -0.67327370919E+03  0.67327370919E+03  0.25500000920E-02 0.  1.
    10030    2    1    2    0    0  0.00000000000E+00  0.00000000000E+00 -0.52539962206E+03  0.82114779634E+03  0.63106175655E+03 0.  0.
        3    1    3    3  502    0 -0.27724240986E+03  0.12965397441E+03 -0.36253132156E+03  0.47444965615E+03  0.10100000352E+00 0.  1.
       -3    1    3    3    0  502  0.27724240986E+03 -0.12965397441E+03 -0.16286830050E+03  0.34669814019E+03  0.10100000352E+00 0. -1.
</event>
<event>
 5   0  0.1206541E-02  0.9538746E+03  0.7818609E-02  0.9360633E-01
        1   -1    0    0  501    0  0.00000000000E+00  0.00000000000E+00  0.14828055048E+03  0.14828055057E+03  0.50400001928E-02 0.  1.
       -1   -1    0    0    0  501  0.00000000000E+00  0.00000000000E+00 -0.15340461714E+04  0.15340461714E+04  0.50400001928E-02 0. -1.
    10030    2    1    2    0    0  0.00000000000E+00  0.00000000000E+00 -0.13857656209E+04  0.16823267219E+04  0.95387464760E+03 0.  0.
        3    1    3    3  502    0 -0.29583494638E+02 -0.33613361049E+03 -0.12873445420E+04  0.13308331854E+04  0.10100000352E+00 0. -1.
       -3    1    3    3    0  502  0.29583494638E+02  0.33613361049E+03 -0.98421078818E+02  0.35149353651E+03  0.10100000352E+00 0.  1.
</event>
<event>
 5   0  0.1177712E-02  0.9437802E+03  0.7818609E-02  0.9372450E-01
        1   -1    0    0  501    0  0.00000000000E+00  0.00000000000E+00  0.81200527374E+03  0.81200527375E+03  0.50400001928E-02 0.  1.
       -1   -1    0    0    0  501  0.00000000000E+00  0.00000000000E+00 -0.27423497962E+03  0.27423497967E+03  0.50400001928E-02 0. -1.
    10030    2    1    2    0    0  0.00000000000E+00  0.00000000000E+00  0.53777029412E+03  0.10862402534E+04  0.94378016451E+03 0.  0.
        5    1    3    3  502    0 -0.24648003601E+03 -0.38400257928E+03  0.40722759849E+03  0.61161000320E+03  0.46999998093E+01 0.  1.
       -5    1    3    3    0  502  0.24648003601E+03  0.38400257928E+03  0.13054269562E+03  0.47463025022E+03  0.46999998093E+01 0. -1.
</event>
<event>
 5   0  0.7893875E-03  0.9117151E+03  0.7818609E-02  0.9411054E-01
       -3   -1    0    0    0  501  0.00000000000E+00  0.00000000000E+00  0.39758797246E+03  0.39758798529E+03  0.10100000352E+00 0. -1.
        3   -1    0    0  501    0  0.00000000000E+00  0.00000000000E+00 -0.52266694456E+03  0.52266695432E+03  0.10100000352E+00 0.  1.
    10030    2    1    2    0    0  0.00000000000E+00  0.00000000000E+00 -0.12507897210E+03  0.92025493961E+03  0.91171508961E+03 0.  0.
        2    1    3    3  502    0  0.10401773009E+01 -0.36145399982E+03  0.21783206074E+03  0.42202000266E+03  0.25500000920E-02 0. -1.
       -2    1    3    3    0  502 -0.10401773009E+01  0.36145399982E+03 -0.34291103284E+03  0.49823493695E+03  0.25500000920E-02 0.  1.
</event>
<event>
 5   0  0.1162839E-02  0.9034256E+03  0.7818609E-02  0.9421309E-01
       -1   -1    0    0    0  501  0.00000000000E+00  0.00000000000E+00  0.18264936977E+04  0.18264936977E+04  0.50400001928E-02 0. -1.
        1   -1    0    0  501    0  0.00000000000E+00  0.00000000000E+00 -0.11171374964E+03  0.11171374975E+03  0.50400001928E-02 0.  1.
    10030    2    1    2    0    0  0.00000000000E+00  0.00000000000E+00  0.17147799480E+04  0.19382074474E+04  0.90342561347E+03 0.  0.
        2    1    3    3  502    0  0.11974787536E+03  0.73074887897E+02  0.17785754003E+04  0.17840991977E+04  0.25500000920E-02 0. -1.
       -2    1    3    3    0  502 -0.11974787536E+03 -0.73074887897E+02 -0.63795452231E+02  0.15410824970E+03  0.25500000920E-02 0.  1.
</event>
<event>
 5   0  0.2008643E-02  0.8914936E+03  0.7818609E-02  0.9436278E-01
       -2   -1    0    0    0  501  0.00000000000E+00  0.00000000000E+00  0.51540088906E+03  0.51540088907E+03  0.25500000920E-02 0. -1.
        2   -1    0    0  501    0  0.00000000000E+00  0.00000000000E+00 -0.38550617462E+03  0.38550617463E+03  0.25500000920E-02 0.  1.
    10030    2    1    2    0    0  0.00000000000E+00  0.00000000000E+00  0.12989471444E+03  0.90090706370E+03  0.89149363463E+03 0.  0.
        3    1    3    3  502    0 -0.10364806733E+03 -0.15586527526E+03  0.47375983327E+03  0.50939699225E+03  0.10100000352E+00 0. -1.
       -3    1    3    3    0  502  0.10364806733E+03  0.15586527526E+03 -0.34386511884E+03  0.39151007145E+03  0.10100000352E+00 0.  1.
</event>
<event>
 5   0  0.1968763E-02  0.9145878E+03  0.7818609E-02  0.9407528E-01
        2   -1    0    0  501    0  0.00000000000E+00  0.00000000000E+00  0.11925733080E+04  0.11925733080E+04  0.25500000920E-02 0. -1.
       -2   -1    0    0    0  501  0.00000000000E+00  0.00000000000E+00 -0.17534997491E+03  0.17534997493E+03  0.25500000920E-02 0.  1.
    10030    2    1    2    0    0  0.00000000000E+00  0.00000000000E+00  0.10172233331E+04  0.13679232829E+04  0.91458777522E+03 0.  0.
        2    1    3    3  502    0 -0.17826875757E+03  0.11661494903E+03  0.11138302966E+04  0.11340179566E+04  0.25500000920E-02 0. -1.
       -2    1    3    3    0  502  0.17826875757E+03 -0.11661494903E+03 -0.96606963537E+02  0.23390532630E+03  0.25500000920E-02 0.  1.
</event>
<event>
 5   0  0.2008643E-02  0.8817445E+03  0.7818609E-02  0.9448694E-01
       -2   -1    0    0    0  501  0.00000000000E+00  0.00000000000E+00  0.10983305244E+04  0.10983305244E+04  0.25500000920E-02 0. -1.
        2   -1    0    0  501    0  0.00000000000E+00  0.00000000000E+00 -0.17696706090E+03  0.17696706092E+03  0.25500000920E-02 0.  1.
    10030    2    1    2    0    0  0.00000000000E+00  0.00000000000E+00  0.92136346351E+03  0.12752975853E+04  0.88174446371E+03 0.  0.
        3    1    3    3  502    0 -0.27500408254E+03 -0.28208191709E+03  0.74693493562E+03  0.84445796912E+03  0.10100000352E+00 0. -1.
       -3    1    3    3    0  502  0.27500408254E+03  0.28208191709E+03  0.17442852790E+03  0.43083961622E+03  0.10100000352E+00 0.  1.
</event>
<event>
 5   0  0.1968763E-02  0.8937216E+03  0.7818609E-02  0.9433464E-01
       -2   -1    0    0    0  501  0.00000000000E+00  0.00000000000E+00  0.26708039061E+03  0.26708039062E+03  0.25500000920E-02 0. -1.
        2   -1    0    0  501    0  0.00000000000E+00  0.00000000000E+00 -0.74765714074E+03  0.74765714074E+03  0.25500000920E-02 0.  1.
    10030    2    1    2    0    0  0.00000000000E+00  0.00000000000E+00 -0.48057675013E+03  0.10147375314E+04  0.89372157006E+03 0.  0.
        2    1    3    3  502    0  0.37979950789E+03  0.13359375316E+03 -0.20155269901E+02  0.40311436589E+03  0.25500000920E-02 0. -1.
       -2    1    3    3    0  502 -0.37979950789E+03 -0.13359375316E+03 -0.46042148023E+03  0.61162316547E+03  0.25500000920E-02 0.  1.
</event>
<event>
 5   0  0.2008643E-02  0.8610917E+03  0.7818609E-02  0.9475570E-01
       -2   -1    0    0    0  501  0.00000000000E+00  0.00000000000E+00  0.88535163128E+02  0.88535163164E+02  0.25500000920E-02 0. -1.
        2   -1    0    0  501    0  0.00000000000E+00  0.00000000000E+00 -0.20937414044E+04  0.20937414044E+04  0.25500000920E-02 0.  1.
    10030    2    1    2    0    0  0.00000000000E+00  0.00000000000E+00 -0.20052062413E+04  0.21822765676E+04  0.86109171830E+03 0.  0.
        3    1    3    3  502    0  0.41235484564E+03 -0.10729014271E+03 -0.84592527051E+03  0.94717330353E+03  0.10100000352E+00 0.  1.
       -3    1    3    3    0  502 -0.41235484564E+03  0.10729014271E+03 -0.11592809708E+04  0.12351032641E+04  0.10100000352E+00 0. -1.
</event>
<event>
 5   0  0.2041861E-02  0.8948222E+03  0.7818609E-02  0.9432077E-01
       -2   -1    0    0    0  501  0.00000000000E+00  0.00000000000E+00  0.47235803875E+03  0.47235803875E+03  0.25500000920E-02 0.  1.
        2   -1    0    0  501    0  0.00000000000E+00  0.00000000000E+00 -0.42378166774E+03  0.42378166774E+03  0.25500000920E-02 0. -1.
    10030    2    1    2    0    0  0.00000000000E+00  0.00000000000E+00  0.48576371011E+02  0.89613970650E+03  0.89482216655E+03 0.  0.
        5    1    3    3  502    0  0.22877868490E+03  0.22670981400E+03 -0.28668078608E+03  0.43121339211E+03  0.46999998093E+01 0. -1.
       -5    1    3    3    0  502 -0.22877868490E+03 -0.22670981400E+03  0.33525715710E+03  0.46492631439E+03  0.46999998093E+01 0.  1.
</event>
<event>
 5   0  0.1924218E-02  0.8692867E+03  0.7818609E-02  0.9464810E-01
        2   -1    0    0  501    0  0.00000000000E+00  0.00000000000E+00  0.84417243911E+03  0.84417243912E+03  0.25500000920E-02 0. -1.
       -2   -1    0    0    0  501  0.00000000000E+00  0.00000000000E+00 -0.22378704761E+03  0.22378704762E+03  0.25500000920E-02 0.  1.
    10030    2    1    2    0    0  0.00000000000E+00  0.00000000000E+00  0.62038539150E+03  0.10679594867E+04  0.86928673712E+03 0.  0.
        4    1    3    3  502    0  0.25269260804E+03  0.81546916291E+02  0.73294456064E+03  0.77955935988E+03  0.12699999809E+01 0. -1.
       -4    1    3    3    0  502 -0.25269260804E+03 -0.81546916291E+02 -0.11255916913E+03  0.28840012686E+03  0.12699999809E+01 0.  1.
</event>
<event>
 5   0  0.1924218E-02  0.9030684E+03  0.7818609E-02  0.9421754E-01
       -2   -1    0    0    0  501  0.00000000000E+00  0.00000000000E+00  0.24913493198E+03  0.24913493199E+03  0.25500000920E-02 0.  1.
        2   -1    0    0  501    0  0.00000000000E+00  0.00000000000E+00 -0.81836429083E+03  0.81836429083E+03  0.25500000920E-02 0. -1.
    10030    2    1    2    0    0  0.00000000000E+00  0.00000000000E+00 -0.56922935885E+03  0.10674992228E+04  0.90306839594E+03 0.  0.
        4    1    3    3  502    0  0.32899978240E+03 -0.12443845347E+02 -0.64988665087E+03  0.72852589383E+03  0.12699999809E+01 0. -1.
       -4    1    3    3    0  502 -0.32899978240E+03  0.12443845347E+02  0.80657292020E+02  0.33897332899E+03  0.12699999809E+01 0.  1.
</event>
<event>
 5   0  0.1226424E-02  0.9173495E+03  0.7818609E-02  0.9404150E-01
       -1   -1    0    0    0  501  0.00000000000E+00  0.00000000000E+00  0.29584970066E+03  0.29584970071E+03  0.50400001928E-02 0. -1.
        1   -1    0    0  501    0  0.00000000000E+00  0.00000000000E+00 -0.71111291538E+03  0.71111291540E+03  0.50400001928E-02 0.  1.
    10030    2    1    2    0    0  0.00000000000E+00  0.00000000000E+00 -0.41526321472E+03  0.10069626161E+04  0.91734953684E+03 0.  0.
        1    1    3    3  502    0 -0.39547587128E+03 -0.23014129560E+03 -0.17263686437E+03  0.48904975991E+03  0.50400001928E-02 0. -1.
       -1    1    3    3    0  502  0.39547587128E+03  0.23014129560E+03 -0.24262635035E+03  0.51791285620E+03  0.50400001928E-02 0.  1.
</event>
<event>
 5   0  0.1968763E-02  0.9017513E+03  0.7818609E-02  0.9423395E-01
        2   -1    0    0  501    0  0.00000000000E+00  0.00000000000E+00  0.73634032379E+03  0.73634032380E+03  0.25500000920E-02 0.  1.
       -2   -1    0    0    0  501  0.00000000000E+00  0.00000000000E+00 -0.27607999539E+03  0.27607999540E+03  0.25500000920E-02 0. -1.
    10030    2    1    2    0    0  0.00000000000E+00  0.00000000000E+00  0.46026032840E+03  0.10124203192E+04  0.90175125884E+03 0.  0.
        2    1    3    3  502    0 -0.14782852845E+03 -0.28110642942E+03  0.58942859276E+03  0.66955221189E+03  0.25500000920E-02 0.  1.
       -2    1    3    3    0  502  0.14782852845E+03  0.28110642942E+03 -0.12916826435E+03  0.34286810730E+03  0.25500000920E-02 0. -1.
</event>
<event>
 5   0  0.1177712E-02  0.9350772E+03  0.7818609E-02  0.9382765E-01
        1   -1    0    0  501    0  0.00000000000E+00  0.00000000000E+00  0.59190516782E+03  0.59190516784E+03  0.50400001928E-02 0. -1.
       -1   -1    0    0    0  501  0.00000000000E+00  0.00000000000E+00 -0.36930300993E+03  0.36930300997E+03  0.50400001928E-02 0.  1.
    10030    2    1    2    0    0  0.00000000000E+00  0.00000000000E+00  0.22260215789E+03  0.96120817781E+03  0.93507723766E+03 0.  0.
        5    1    3    3  502    0  0.51539317792E+02 -0.10800952436E+03  0.57586853581E+03  0.58819131171E+03  0.46999998093E+01 0. -1.
       -5    1    3    3    0  502 -0.51539317792E+02  0.10800952436E+03 -0.35326637792E+03  0.37301686611E+03  0.46999998093E+01 0.  1.
</event>
<event>
 5   0  0.1175993E-02  0.9087050E+03  0.7818609E-02  0.9414765E-01
        1   -1    0    0  501    0  0.00000000000E+00  0.00000000000E+00  0.13563258860E+03  0.13563258869E+03  0.50400001928E-02 0. -1.
       -1   -1    0    0    0  501  0.00000000000E+00  0.00000000000E+00 -0.15220249121E+04  0.15220249121E+04  0.50400001928E-02 0.  1.
    10030    2    1    2    0    0  0.00000000000E+00  0.00000000000E+00 -0.13863923235E+04  0.16576575008E+04  0.90870496603E+03 0.  0.
        4    1    3    3  502    0 -0.36012422446E+03  0.66662167051E+02 -0.20268957045E+03  0.41859046385E+03  0.12699999809E+01 0. -1.
       -4    1    3    3    0  502  0.36012422446E+03 -0.66662167051E+02 -0.11837027531E+04  0.12390670370E+04  0.12699999809E+01 0.  1.
</event>
<event>
 5   0  0.1177712E-02  0.8687306E+03  0.7818609E-02  0.9465537E-01
        1   -1    0    0  501    0  0.00000000000E+00  0.00000000000E+00  0.10657396941E+03  0.10657396953E+03  0.50400001928E-02 0. -1.
       -1   -1    0    0    0  501  0.00000000000E+00  0.00000000000E+00 -0.17703497419E+04  0.17703497420E+04  0.50400001928E-02 0.  1.
    10030    2    1    2    0    0  0.00000000000E+00  0.00000000000E+00 -0.16637757725E+04  0.18769237115E+04  0.86873056665E+03 0.  0.
        5    1    3    3  502    0  0.37898681180E+03 -0.21191206323E+03 -0.85489361884E+03  0.95885500238E+03  0.46999998093E+01 0. -1.
       -5    1    3    3    0  502 -0.37898681180E+03  0.21191206323E+03 -0.80888215370E+03  0.91806870910E+03  0.46999998093E+01 0.  1.
</event>
<event>
 5   0  0.2008770E-02  0.8970587E+03  0.7818609E-02  0.9429266E-01
       -2   -1    0    0    0  501  0.00000000000E+00  0.00000000000E+00  0.94417297821E+02  0.94417297856E+02  0.25500000920E-02 0.  1.
        2   -1    0    0  501    0  0.00000000000E+00  0.00000000000E+00 -0.21307385906E+04  0.21307385906E+04  0.25500000920E-02 0. -1.
    10030    2    1    2    0    0  0.00000000000E+00  0.00000000000E+00 -0.20363212928E+04  0.22251558885E+04  0.89705870516E+03 0.  0.
        1    1    3    3  502    0  0.22999454375E+03 -0.38111920601E+03 -0.88163744221E+03  0.98764058183E+03  0.50400001928E-02 0.  1.
       -1    1    3    3    0  502 -0.22999454375E+03  0.38111920601E+03 -0.11546838506E+04  0.12375153066E+04  0.50400001928E-02 0. -1.
</event>
<event>
 5   0  0.2008643E-02  0.9160951E+03  0.7818609E-02  0.9405682E-01
        2   -1    0    0  501    0  0.00000000000E+00  0.00000000000E+00  0.21681351366E+04  0.21681351366E+04  0.25500000920E-02 0. -1.
       -2   -1    0    0    0  501  0.00000000000E+00  0.00000000000E+00 -0.96768664425E+02  0.96768664458E+02  0.25500000920E-02 0.  1.
    10030    2    1    2    0    0  0.00000000000E+00  0.00000000000E+00  0.20713664722E+04  0.22649038011E+04  0.91609506385E+03 0.  0.
        3    1    3    3  502    0  0.27721133649E+03 -0.23648153473E+03  0.34946633998E+03  0.50487263179E+03  0.10100000352E+00 0.  1.
       -3    1    3    3    0  502 -0.27721133649E+03  0.23648153473E+03  0.17219001322E+04  0.17600311693E+04  0.10100000352E+00 0. -1.
</event>
<event>
 5   0  0.2041861E-02  0.9060791E+03  0.7818609E-02  0.9418014E-01
       -2   -1    0    0    0  501  0.00000000000E+00  0.00000000000E+00  0.12373569968E+03  0.12373569971E+03  0.25500000920E-02 0.  1.
        2   -1    0    0  501    0  0.00000000000E+00  0.00000000000E+00 -0.16587357389E+04  0.16587357389E+04  0.25500000920E-02 0. -1.
    10030    2    1    2    0    0  0.00000000000E+00  0.00000000000E+00 -0.15350000392E+04  0.17824714386E+04  0.90607908542E+03 0.  0.
        5    1    3    3  502    0 -0.16667415555E+03  0.18002889212E+03 -0.15166840015E+04  0.15364059120E+04  0.46999998093E+01 0. -1.
       -5    1    3    3    0  502  0.16667415555E+03 -0.18002889212E+03 -0.18316037713E+02  0.24606552657E+03  0.46999998093E+01 0.  1.
</event>
<event>
 5   0  0.1177712E-02  0.8939410E+03  0.7818609E-02  0.9433187E-01
       -1   -1    0    0    0  501  0.00000000000E+00  0.00000000000E+00  0.11218816070E+03  0.11218816081E+03  0.50400001928E-02 0.  1.
        1   -1    0    0  501    0  0.00000000000E+00  0.00000000000E+00 -0.17807815969E+04  0.17807815969E+04  0.50400001928E-02 0. -1.
    10030    2    1    2    0    0  0.00000000000E+00  0.00000000000E+00 -0.16685934362E+04  0.18929697577E+04  0.89394096464E+03 0.  0.
        5    1    3    3  502    0  0.28765852511E+03 -0.24415011271E+03 -0.13416438667E+04  0.13936954687E+04  0.46999998093E+01 0. -1.
       -5    1    3    3    0  502 -0.28765852511E+03  0.24415011271E+03 -0.32694956949E+03  0.49927428894E+03  0.46999998093E+01 0.  1.
</event>
<event>
 5   0  0.2008643E-02  0.9000367E+03  0.7818609E-02  0.9425536E-01
        2   -1    0    0  501    0  0.00000000000E+00  0.00000000000E+00  0.77274008288E+03  0.77274008288E+03  0.25500000920E-02 0.  1.
       -2   -1    0    0    0  501  0.00000000000E+00  0.00000000000E+00 -0.26207585662E+03  0.26207585663E+03  0.25500000920E-02 0. -1.
    10030    2    1    2    0    0  0.00000000000E+00  0.00000000000E+00  0.51066422626E+03  0.10348159395E+04  0.90003670852E+03 0.  0.
        3    1    3    3  502    0 -0.18161579931E+03  0.36268775620E+03  0.31234927995E+02  0.40681978563E+03  0.10100000352E+00 0. -1.
       -3    1    3    3    0  502  0.18161579931E+03 -0.36268775620E+03  0.47942929826E+03  0.62799615388E+03  0.10100000352E+00 0.  1.
</event>
<event>
 5   0  0.1924218E-02  0.9241248E+03  0.7818609E-02  0.9395917E-01
       -2   -1    0    0    0  501  0.00000000000E+00  0.00000000000E+00  0.19785511867E+03  0.19785511868E+03  0.25500000920E-02 0. -1.
        2   -1    0    0  501    0  0.00000000000E+00  0.00000000000E+00 -0.10790809100E+04  0.10790809100E+04  0.25500000920E-02 0.  1.
    10030    2    1    2    0    0  0.00000000000E+00  0.00000000000E+00 -0.88122579134E+03  0.12769360287E+04  0.92412484332E+03 0.  0.
        4    1    3    3  502    0 -0.15978433197E+03 -0.30257034480E+03 -0.86967737207E+03  0.93456952159E+03  0.12699999809E+01 0. -1.
       -4    1    3    3    0  502  0.15978433197E+03  0.30257034480E+03 -0.11548419267E+02  0.34236650710E+03  0.12699999809E+01 0.  1.
</event>
<event>
 5   0  0.2041861E-02  0.8860586E+03  0.7818609E-02  0.9443179E-01
        2   -1    0    0  501    0  0.00000000000E+00  0.00000000000E+00  0.69436148000E+03  0.69436148000E+03  0.25500000920E-02 0. -1.
       -2   -1    0    0    0  501  0.00000000000E+00  0.00000000000E+00 -0.28266968308E+03  0.28266968309E+03  0.25500000920E-02 0.  1.
    10030    2    1    2    0    0  0.00000000000E+00  0.00000000000E+00  0.41169179692E+03  0.97703116309E+03  0.88605855224E+03 0.  0.
        5    1    3    3  502    0 -0.27447410341E+03 -0.10027191186E+03  0.57299126660E+03  0.64321969135E+03  0.46999998093E+01 0. -1.
       -5    1    3    3    0  502  0.27447410341E+03  0.10027191186E+03 -0.16129946968E+03  0.33381147174E+03  0.46999998093E+01 0.  1.
</event>
<event>
 5   0  0.1177712E-02  0.9084888E+03  0.7818609E-02  0.9415032E-01
       -1   -1    0    0    0  501  0.00000000000E+00  0.00000000000E+00  0.81976247329E+03  0.81976247330E+03  0.50400001928E-02 0.  1.
        1   -1    0    0  501    0  0.00000000000E+00  0.00000000000E+00 -0.25170461453E+03  0.25170461458E+03  0.50400001928E-02 0. -1.
    10030    2    1    2    0    0  0.00000000000E+00  0.00000000000E+00  0.56805785876E+03  0.10714670879E+04  0.90848884942E+03 0.  0.
        5    1    3    3  502    0 -0.18327925730E+02 -0.39928761953E+03  0.29570854104E+02  0.40082794486E+03  0.46999998093E+01 0. -1.
       -5    1    3    3    0  502  0.18327925730E+02  0.39928761953E+03  0.53848700465E+03  0.67063914302E+03  0.46999998093E+01 0.  1.
</event>
<event>
 5   0  0.2008643E-02  0.7952739E+03  0.7818609E-02  0.9566883E-01
       -2   -1    0    0    0  501  0.00000000000E+00  0.00000000000E+00  0.16981291914E+03  0.16981291916E+03  0.25500000920E-02 0.  1.
        2   -1    0    0  501    0  0.00000000000E+00  0.00000000000E+00 -0.93111380831E+03  0.93111380831E+03  0.25500000920E-02 0. -1.
    10030    2    1    2    0    0  0.00000000000E+00  0.00000000000E+00 -0.76130088917E+03  0.11009267275E+04  0.79527392476E+03 0.  0.
        3    1    3    3  502    0  0.26785201102E+03  0.17404078264E+03 -0.52821993342E+02  0.32376699494E+03  0.10100000352E+00 0.  1.
       -3    1    3    3    0  502 -0.26785201102E+03 -0.17404078264E+03 -0.70847889583E+03  0.77715973253E+03  0.10100000352E+00 0. -1.
</event>
<event>
 5   0  0.2008770E-02  0.9070544E+03  0.7818609E-02  0.9416806E-01
       -2   -1    0    0    0  501  0.00000000000E+00  0.00000000000E+00  0.15273977333E+03  0.15273977335E+03  0.25500000920E-02 0.  1.
        2   -1    0    0  501    0  0.00000000000E+00  0.00000000000E+00 -0.13466495194E+04  0.13466495194E+04  0.25500000920E-02 0. -1.
    10030    2    1    2    0    0  0.00000000000E+00  0.00000000000E+00 -0.11939097461E+04  0.14993892928E+04  0.90705444682E+03 0.  0.
        1    1    3    3  502    0  0.43576352983E+03  0.11720699979E+03 -0.52193552377E+03  0.68995943775E+03  0.50400001928E-02 0. -1.
       -1    1    3    3    0  502 -0.43576352983E+03 -0.11720699979E+03 -0.67197422233E+03  0.80942985505E+03  0.50400001928E-02 0.  1.
</event>
<event>
 5   0  0.1924218E-02  0.8982950E+03  0.7818609E-02  0.9427715E-01
       -2   -1    0    0    0  501  0.00000000000E+00  0.00000000000E+00  0.48571316609E+03  0.48571316610E+03  0.25500000920E-02 0. -1.
        2   -1    0    0  501    0  0.00000000000E+00  0.00000000000E+00 -0.41533456726E+03  0.41533456726E+03  0.25500000920E-02 0.  1.
    10030    2    1    2    0    0  0.00000000000E+00  0.00000000000E+00  0.70378598836E+02  0.90104773336E+03  0.89829497974E+03 0.  0.
        4    1    3    3  502    0  0.42298409388E+03  0.79601601241E+02  0.16395673934E+03  0.46058157135E+03  0.12699999809E+01 0. -1.
       -4    1    3    3    0  502 -0.42298409388E+03 -0.79601601241E+02 -0.93578140503E+02  0.44046616201E+03  0.12699999809E+01 0.  1.
</event>
<event>
 5   0  0.2008770E-02  0.8058234E+03  0.7818609E-02  0.9551626E-01
       -2   -1    0    0    0  501  0.00000000000E+00  0.00000000000E+00  0.13923911955E+03  0.13923911958E+03  0.25500000920E-02 0. -1.
        2   -1    0    0  501    0  0.00000000000E+00  0.00000000000E+00 -0.11658925418E+04  0.11658925418E+04  0.25500000920E-02 0.  1.
    10030    2    1    2    0    0  0.00000000000E+00  0.00000000000E+00 -0.10266534223E+04  0.13051316614E+04  0.80582343236E+03 0.  0.
        1    1    3    3  502    0 -0.22887054065E+03 -0.21955764727E+03 -0.11085542151E+03  0.33597054834E+03  0.50400001928E-02 0. -1.
       -1    1    3    3    0  502  0.22887054065E+03  0.21955764727E+03 -0.91579800075E+03  0.96916111305E+03  0.50400001928E-02 0.  1.
</event>
<event>
 5   0  0.2008643E-02  0.9845738E+03  0.7818609E-02  0.9325628E-01
       -2   -1    0    0    0  501  0.00000000000E+00  0.00000000000E+00  0.21917625072E+03  0.21917625073E+03  0.25500000920E-02 0.  1.
        2   -1    0    0  501    0  0.00000000000E+00  0.00000000000E+00 -0.11057147114E+04  0.11057147114E+04  0.25500000920E-02 0. -1.
    10030    2    1    2    0    0  0.00000000000E+00  0.00000000000E+00 -0.88653846066E+03  0.13248909621E+04  0.98457382622E+03 0.  0.
        3    1    3    3  502    0  0.21876072622E+02  0.44884856941E+03 -0.17278774063E+03  0.48145530876E+03  0.10100000352E+00 0.  1.
       -3    1    3    3    0  502 -0.21876072622E+02 -0.44884856941E+03 -0.71375072003E+03  0.84343565337E+03  0.10100000352E+00 0. -1.
</event>
<event>
 5   0  0.1968763E-02  0.5573964E+03  0.7818609E-02  0.9997963E-01
       -2   -1    0    0    0  501  0.00000000000E+00  0.00000000000E+00  0.27989757470E+03  0.27989757471E+03  0.25500000920E-02 0.  1.
        2   -1    0    0  501    0  0.00000000000E+00  0.00000000000E+00 -0.27750401015E+03  0.27750401017E+03  0.25500000920E-02 0. -1.
    10030    2    1    2    0    0  0.00000000000E+00  0.00000000000E+00  0.23935645452E+01  0.55740158488E+03  0.55739644569E+03 0.  0.
        2    1    3    3  502    0  0.17133816223E+03  0.26465152061E+02  0.21940862277E+03  0.27963782624E+03  0.25500000920E-02 0.  1.
       -2    1    3    3    0  502 -0.17133816223E+03 -0.26465152061E+02 -0.21701505822E+03  0.27776375864E+03  0.25500000920E-02 0. -1.
</event>
<event>
 5   0  0.2008770E-02  0.9047216E+03  0.7818609E-02  0.9419698E-01
       -2   -1    0    0    0  501  0.00000000000E+00  0.00000000000E+00  0.93663882319E+03  0.93663882319E+03  0.25500000920E-02 0.  1.
        2   -1    0    0  501    0  0.00000000000E+00  0.00000000000E+00 -0.21847298536E+03  0.21847298538E+03  0.25500000920E-02 0. -1.
    10030    2    1    2    0    0  0.00000000000E+00  0.00000000000E+00  0.71816583783E+03  0.11551118086E+04  0.90472157025E+03 0.  0.
        1    1    3    3  502    0  0.19917834252E+03  0.19418569393E+03  0.81453038306E+03  0.86072053584E+03  0.50400001928E-02 0.  1.
       -1    1    3    3    0  502 -0.19917834252E+03 -0.19418569393E+03 -0.96364545233E+02  0.29439127273E+03  0.50400001928E-02 0. -1.
</event>
<event>
 5   0  0.1968763E-02  0.8957381E+03  0.7818609E-02  0.9430925E-01
       -2   -1    0    0    0  501  0.00000000000E+00  0.00000000000E+00  0.38002479693E+03  0.38002479694E+03  0.25500000920E-02 0. -1.
        2   -1    0    0  501    0  0.00000000000E+00  0.00000000000E+00 -0.52782525700E+03  0.52782525701E+03  0.25500000920E-02 0.  1.
    10030    2    1    2    0    0  0.00000000000E+00  0.00000000000E+00 -0.14780046007E+03  0.90785005395E+03  0.89573810037E+03 0.  0.
        2    1    3    3  502    0  0.28940846794E+03  0.23965290300E+03 -0.32090841803E+03  0.49413863237E+03  0.25500000920E-02 0.  1.
       -2    1    3    3    0  502 -0.28940846794E+03 -0.23965290300E+03  0.17310795796E+03  0.41371142158E+03  0.25500000920E-02 0. -1.
</event>
<event>
 5   0  0.1226424E-02  0.9215350E+03  0.7818609E-02  0.9399055E-01
        1   -1    0    0  501    0  0.00000000000E+00  0.00000000000E+00  0.78657556671E+03  0.78657556672E+03  0.50400001928E-02 0.  1.
       -1   -1    0    0    0  501  0.00000000000E+00  0.00000000000E+00 -0.26991263453E+03  0.26991263457E+03  0.50400001928E-02 0. -1.
    10030    2    1    2    0    0  0.00000000000E+00  0.00000000000E+00  0.51666293218E+03  0.10564882013E+04  0.92153498794E+03 0.  0.
        1    1    3    3  502    0  0.23422587065E+02 -0.12462894437E+03 -0.24951303855E+03  0.27988881326E+03  0.50400001928E-02 0. -1.
       -1    1    3    3    0  502 -0.23422587065E+02  0.12462894437E+03  0.76617597072E+03  0.77659938804E+03  0.50400001928E-02 0.  1.
</event>
<event>
 5   0  0.1162839E-02  0.8697859E+03  0.7818609E-02  0.9464159E-01
       -1   -1    0    0    0  501  0.00000000000E+00  0.00000000000E+00  0.45948722195E+03  0.45948722198E+03  0.50400001928E-02 0. -1.
        1   -1    0    0  501    0  0.00000000000E+00  0.00000000000E+00 -0.41161508299E+03  0.41161508303E+03  0.50400001928E-02 0.  1.
    10030    2    1    2    0    0  0.00000000000E+00  0.00000000000E+00  0.47872138959E+02  0.87110230501E+03  0.86978588405E+03 0.  0.
        2    1    3    3  502    0 -0.40915683159E+03 -0.13759163792E+03  0.76846885100E+02  0.43845890961E+03  0.25500000920E-02 0.  1.
       -2    1    3    3    0  502  0.40915683159E+03  0.13759163792E+03 -0.28974746141E+02  0.43264339540E+03  0.25500000920E-02 0. -1.
</event>
<event>
 5   0  0.1175993E-02  0.9094613E+03  0.7818609E-02  0.9413831E-01
        1   -1    0    0  501    0  0.00000000000E+00  0.00000000000E+00  0.52964506040E+03  0.52964506043E+03  0.50400001928E-02 0.  1.
       -1   -1    0    0    0  501  0.00000000000E+00  0.00000000000E+00 -0.39041230890E+03  0.39041230894E+03  0.50400001928E-02 0. -1.
    10030    2    1    2    0    0  0.00000000000E+00  0.00000000000E+00  0.13923275150E+03  0.92005736936E+03  0.90946127121E+03 0.  0.
        4    1    3    3  502    0 -0.78266973438E+02 -0.13701541941E+03 -0.36182565113E+03  0.39473834245E+03  0.12699999809E+01 0. -1.
       -4    1    3    3    0  502  0.78266973438E+02  0.13701541941E+03  0.50105840263E+03  0.52531902691E+03  0.12699999809E+01 0.  1.
</event>
<event>
 5   0  0.1177712E-02  0.9039105E+03  0.7818609E-02  0.9420706E-01
        1   -1    0    0  501    0  0.00000000000E+00  0.00000000000E+00  0.49021693234E+03  0.49021693237E+03  0.50400001928E-02 0. -1.
       -1   -1    0    0    0  501  0.00000000000E+00  0.00000000000E+00 -0.41667992975E+03  0.41667992978E+03  0.50400001928E-02 0.  1.
    10030    2    1    2    0    0  0.00000000000E+00  0.00000000000E+00  0.73537002590E+02  0.90689686215E+03  0.90391051982E+03 0.  0.
        5    1    3    3  502    0  0.18796109368E+03  0.39033735925E+03 -0.92298803035E+02  0.44298282789E+03  0.46999998093E+01 0.  1.
       -5    1    3    3    0  502 -0.18796109368E+03 -0.39033735925E+03  0.16583580562E+03  0.46391403427E+03  0.46999998093E+01 0. -1.
</event>
<event>
 5   0  0.2008643E-02  0.9067265E+03  0.7818609E-02  0.9417212E-01
        2   -1    0    0  501    0  0.00000000000E+00  0.00000000000E+00  0.86016378143E+03  0.86016378143E+03  0.25500000920E-02 0. -1.
       -2   -1    0    0    0  501  0.00000000000E+00  0.00000000000E+00 -0.23895242788E+03  0.23895242789E+03  0.25500000920E-02 0.  1.
    10030    2    1    2    0    0  0.00000000000E+00  0.00000000000E+00  0.62121135355E+03  0.10991162093E+04  0.90672647244E+03 0.  0.
        3    1    3    3  502    0 -0.58027072326E+02 -0.59409812632E+02  0.85086511353E+03  0.85490825156E+03  0.10100000352E+00 0. -1.
       -3    1    3    3    0  502  0.58027072326E+02  0.59409812632E+02 -0.22965375998E+03  0.24420795776E+03  0.10100000352E+00 0.  1.
</event>
<event>
 5   0  0.7893875E-03  0.9064783E+03  0.7818609E-02  0.9417519E-01
        3   -1    0    0  501    0  0.00000000000E+00  0.00000000000E+00  0.10602935785E+04  0.10602935833E+04  0.10100000352E+00 0.  1.
       -3   -1    0    0    0  501  0.00000000000E+00  0.00000000000E+00 -0.19374416573E+03  0.19374419205E+03  0.10100000352E+00 0. -1.
    10030    2    1    2    0    0  0.00000000000E+00  0.00000000000E+00  0.86654941278E+03  0.12540377754E+04  0.90647827181E+03 0.  0.
        2    1    3    3  502    0  0.43490665286E+03  0.48348089148E+01  0.25687655803E+03  0.50512645759E+03  0.25500000920E-02 0. -1.
       -2    1    3    3    0  502 -0.43490665286E+03 -0.48348089148E+01  0.60967285475E+03  0.74891131779E+03  0.25500000920E-02 0.  1.
</event>
<event>
 5   0  0.2008643E-02  0.9578252E+03  0.7818609E-02  0.9356051E-01
       -2   -1    0    0    0  501  0.00000000000E+00  0.00000000000E+00  0.64129751059E+03  0.64129751060E+03  0.25500000920E-02 0.  1.
        2   -1    0    0  501    0  0.00000000000E+00  0.00000000000E+00 -0.35764567124E+03  0.35764567125E+03  0.25500000920E-02 0. -1.
    10030    2    1    2    0    0  0.00000000000E+00  0.00000000000E+00  0.28365183935E+03  0.99894318185E+03  0.95782520044E+03 0.  0.
        3    1    3    3  502    0  0.47632464049E+03 -0.25338246705E+02  0.18644179265E+03  0.51214035394E+03  0.10100000352E+00 0.  1.
       -3    1    3    3    0  502 -0.47632464049E+03  0.25338246705E+02  0.97210046696E+02  0.48680282791E+03  0.10100000352E+00 0. -1.
</event>
<event>
 5   0  0.1206541E-02  0.8978642E+03  0.7818609E-02  0.9428255E-01
       -1   -1    0    0    0  501  0.00000000000E+00  0.00000000000E+00  0.24305335031E+03  0.24305335036E+03  0.50400001928E-02 0. -1.
        1   -1    0    0  501    0  0.00000000000E+00  0.00000000000E+00 -0.82920084832E+03  0.82920084833E+03  0.50400001928E-02 0.  1.
    10030    2    1    2    0    0  0.00000000000E+00  0.00000000000E+00 -0.58614749801E+03  0.10722541987E+04  0.89786423094E+03 0.  0.
        3    1    3    3  502    0  0.60597301411E+02  0.32083502808E+02  0.23676323989E+03  0.24649183770E+03  0.10100000352E+00 0. -1.
       -3    1    3    3    0  502 -0.60597301411E+02 -0.32083502808E+02 -0.82291073789E+03  0.82576236099E+03  0.10100000352E+00 0.  1.
</event>
<event>
 5   0  0.1162839E-02  0.9135094E+03  0.7818609E-02  0.9408850E-01
        1   -1    0    0  501    0  0.00000000000E+00  0.00000000000E+00  0.21471242978E+03  0.21471242984E+03  0.50400001928E-02 0.  1.
       -1   -1    0    0    0  501  0.00000000000E+00  0.00000000000E+00 -0.97164772829E+03  0.97164772831E+03  0.50400001928E-02 0. -1.
    10030    2    1    2    0    0  0.00000000000E+00  0.00000000000E+00 -0.75693529851E+03  0.11863601581E+04  0.91350937527E+03 0.  0.
        2    1    3    3  502    0  0.29275884719E+03  0.17124515437E+03 -0.77577204536E+03  0.84667284820E+03  0.25500000920E-02 0.  1.
       -2    1    3    3    0  502 -0.29275884719E+03 -0.17124515437E+03  0.18836746853E+02  0.33968730995E+03  0.25500000920E-02 0. -1.
</event>
<event>
 5   0  0.1177712E-02  0.9601009E+03  0.7818609E-02  0.9353421E-01
        1   -1    0    0  501    0  0.00000000000E+00  0.00000000000E+00  0.12541707157E+04  0.12541707157E+04  0.50400001928E-02 0. -1.
       -1   -1    0    0    0  501  0.00000000000E+00  0.00000000000E+00 -0.18374566806E+03  0.18374566813E+03  0.50400001928E-02 0.  1.
    10030    2    1    2    0    0  0.00000000000E+00  0.00000000000E+00  0.10704250476E+04  0.14379163838E+04  0.96010090316E+03 0.  0.
        5    1    3    3  502    0 -0.47200007126E+03  0.54571579265E+02  0.63749620234E+03  0.79510101404E+03  0.46999998093E+01 0. -1.
       -5    1    3    3    0  502  0.47200007126E+03 -0.54571579265E+02  0.43292884525E+03  0.64281536975E+03  0.46999998093E+01 0.  1.
</event>
<event>
 5   0  0.1924218E-02  0.8823811E+03  0.7818609E-02  0.9447878E-01
       -2   -1    0    0    0  501  0.00000000000E+00  0.00000000000E+00  0.60641818189E+03  0.60641818190E+03  0.25500000920E-02 0.  1.
        2   -1    0    0  501    0  0.00000000000E+00  0.00000000000E+00 -0.32098164443E+03  0.32098164444E+03  0.25500000920E-02 0. -1.
    10030    2    1    2    0    0  0.00000000000E+00  0.00000000000E+00  0.28543653746E+03  0.92739982634E+03  0.88238110869E+03 0.  0.
        4    1    3    3  502    0 -0.20930610168E+03 -0.38105954683E+03  0.22159425952E+03  0.48797648629E+03  0.12699999809E+01 0. -1.
       -4    1    3    3    0  502  0.20930610168E+03  0.38105954683E+03  0.63842277945E+02  0.43942334005E+03  0.12699999809E+01 0.  1.
</event>
<event>
 5   0  0.1924218E-02  0.8951311E+03  0.7818609E-02  0.9431688E-01
        2   -1    0    0  501    0  0.00000000000E+00  0.00000000000E+00  0.13691875146E+04  0.13691875146E+04  0.25500000920E-02 0. -1.
       -2   -1    0    0    0  501  0.00000000000E+00  0.00000000000E+00 -0.14630203645E+03  0.14630203647E+03  0.25500000920E-02 0.  1.
    10030    2    1    2    0    0  0.00000000000E+00  0.00000000000E+00  0.12228854781E+04  0.15154895511E+04  0.89513110031E+03 0.  0.
        4    1    3    3  502    0  0.10727024413E+01  0.14318090070E+03  0.13293608284E+04  0.13370503902E+04  0.12699999809E+01 0. -1.
       -4    1    3    3    0  502 -0.10727024413E+01 -0.14318090070E+03 -0.10647535024E+03  0.17843916085E+03  0.12699999809E+01 0.  1.
</event>
<event>
 5   0  0.2008643E-02  0.7096101E+03  0.7818609E-02  0.9700937E-01
        2   -1    0    0  501    0  0.00000000000E+00  0.00000000000E+00  0.22222168446E+04  0.22222168446E+04  0.25500000920E-02 0. -1.
       -2   -1    0    0    0  501  0.00000000000E+00  0.00000000000E+00 -0.56649122940E+02  0.56649122998E+02  0.25500000920E-02 0.  1.
    10030    2    1    2    0    0  0.00000000000E+00  0.00000000000E+00  0.21655677217E+04  0.22788659676E+04  0.70961013323E+03 0.  0.
        3    1    3    3  502    0  0.12327797251E+03  0.28735830343E+03  0.16212559136E+04  0.16511338531E+04  0.10100000352E+00 0. -1.
       -3    1    3    3    0  502 -0.12327797251E+03 -0.28735830343E+03  0.54431180802E+03  0.62773211453E+03  0.10100000352E+00 0.  1.
</event>
<event>
 5   0  0.1175993E-02  0.9056364E+03  0.7818609E-02  0.9418563E-01
        1   -1    0    0  501    0  0.00000000000E+00  0.00000000000E+00  0.24964631767E+04  0.24964631767E+04  0.50400001928E-02 0.  1.
       -1   -1    0    0    0  501  0.00000000000E+00  0.00000000000E+00 -0.82133925451E+02  0.82133925606E+02  0.50400001928E-02 0. -1.
    10030    2    1    2    0    0  0.00000000000E+00  0.00000000000E+00  0.24143292513E+04  0.25785971023E+04  0.90563639647E+03 0.  0.
        4    1    3    3  502    0 -0.36238178487E+03 -0.24739589265E+03  0.88860768620E+03  0.99103507434E+03  0.12699999809E+01 0. -1.
       -4    1    3    3    0  502  0.36238178487E+03  0.24739589265E+03  0.15257215651E+04  0.15875620280E+04  0.12699999809E+01 0.  1.
</event>
<event>
 5   0  0.1924218E-02  0.9045884E+03  0.7818609E-02  0.9419864E-01
       -2   -1    0    0    0  501  0.00000000000E+00  0.00000000000E+00  0.13533939385E+03  0.13533939387E+03  0.25500000920E-02 0. -1.
        2   -1    0    0  501    0  0.00000000000E+00  0.00000000000E+00 -0.15115336088E+04  0.15115336088E+04  0.25500000920E-02 0.  1.
    10030    2    1    2    0    0  0.00000000000E+00  0.00000000000E+00 -0.13761942150E+04  0.16468730027E+04  0.90458839793E+03 0.  0.
        4    1    3    3  502    0  0.66247222621E+02 -0.12447312798E+03 -0.14704925118E+04  0.14772379951E+04  0.12699999809E+01 0.  1.
       -4    1    3    3    0  502 -0.66247222621E+02  0.12447312798E+03  0.94298296852E+02  0.16963500754E+03  0.12699999809E+01 0. -1.
</event>
<event>
 5   0  0.1175993E-02  0.8599289E+03  0.7818609E-02  0.9477107E-01
        1   -1    0    0  501    0  0.00000000000E+00  0.00000000000E+00  0.45595079102E+03  0.45595079105E+03  0.50400001928E-02 0. -1.
       -1   -1    0    0    0  501  0.00000000000E+00  0.00000000000E+00 -0.40545919198E+03  0.40545919201E+03  0.50400001928E-02 0.  1.
    10030    2    1    2    0    0  0.00000000000E+00  0.00000000000E+00  0.50491599044E+02  0.86140998306E+03  0.85992892575E+03 0.  0.
        4    1    3    3  502    0 -0.16495250241E+03  0.22360623911E+03 -0.30343323741E+03  0.41143944960E+03  0.12699999809E+01 0.  1.
       -4    1    3    3    0  502  0.16495250241E+03 -0.22360623911E+03  0.35392483646E+03  0.44997053346E+03  0.12699999809E+01 0. -1.
</event>
<event>
 5   0  0.2008770E-02  0.8822541E+03  0.7818609E-02  0.9448041E-01
        2   -1    0    0  501    0  0.00000000000E+00  0.00000000000E+00  0.14820576300E+04  0.14820576300E+04  0.25500000920E-02 0. -1.
       -2   -1    0    0    0  501  0.00000000000E+00  0.00000000000E+00 -0.13129925742E+03  0.13129925745E+03  0.25500000920E-02 0.  1.
    10030    2    1    2    0    0  0.00000000000E+00  0.00000000000E+00  0.13507583726E+04  0.16133568874E+04  0.88225408199E+03 0.  0.
        1    1    3    3  502    0 -0.27201740899E+02  0.20867697646E+03 -0.33588511458E+02  0.21310608471E+03  0.50400001928E-02 0.  1.
       -1    1    3    3    0  502  0.27201740899E+02 -0.20867697646E+03  0.13843468840E+04  0.14002508027E+04  0.50400001928E-02 0. -1.
</event>
<event>
 5   0  0.2041861E-02  0.9128251E+03  0.7818609E-02  0.9409690E-01
       -2   -1    0    0    0  501  0.00000000000E+00  0.00000000000E+00  0.22495228310E+03  0.22495228312E+03  0.25500000920E-02 0. -1.
        2   -1    0    0  501    0  0.00000000000E+00  0.00000000000E+00 -0.92602939455E+03  0.92602939455E+03  0.25500000920E-02 0.  1.
    10030    2    1    2    0    0  0.00000000000E+00  0.00000000000E+00 -0.70107711144E+03  0.11509816777E+04  0.91282512353E+03 0.  0.
        5    1    3    3  502    0  0.11592094169E+02  0.31232860630E+03 -0.76988381978E+03  0.83091920240E+03  0.46999998093E+01 0.  1.
       -5    1    3    3    0  502 -0.11592094169E+02 -0.31232860630E+03  0.68806708344E+02  0.32006247526E+03  0.46999998093E+01 0. -1.
</event>
<event>
 5   0  0.1175993E-02  0.9003697E+03  0.7818609E-02  0.9425119E-01
       -1   -1    0    0    0  501  0.00000000000E+00  0.00000000000E+00  0.28948749537E+03  0.28948749542E+03  0.50400001928E-02 0. -1.
        1   -1    0    0  501    0  0.00000000000E+00  0.00000000000E+00 -0.70008680866E+03  0.70008680868E+03  0.50400001928E-02 0.  1.
    10030    2    1    2    0    0  0.00000000000E+00  0.00000000000E+00 -0.41059931328E+03  0.98957430409E+03  0.90036965034E+03 0.  0.
        4    1    3    3  502    0 -0.15818163021E+03  0.36868401969E+01  0.25791832076E+03  0.30258634142E+03  0.12699999809E+01 0. -1.
       -4    1    3    3    0  502  0.15818163021E+03 -0.36868401969E+01 -0.66851763405E+03  0.68698796267E+03  0.12699999809E+01 0.  1.
</event>
<event>
 5   0  0.1175993E-02  0.9008539E+03  0.7818609E-02  0.9424515E-01
        1   -1    0    0  501    0  0.00000000000E+00  0.00000000000E+00  0.59889295674E+03  0.59889295676E+03  0.50400001928E-02 0. -1.
       -1   -1    0    0    0  501  0.00000000000E+00  0.00000000000E+00 -0.33876574576E+03  0.33876574579E+03  0.50400001928E-02 0.  1.
    10030    2    1    2    0    0  0.00000000000E+00  0.00000000000E+00  0.26012721098E+03  0.93765870256E+03  0.90085385973E+03 0.  0.
        4    1    3    3  502    0 -0.11043869934E+03  0.25847464258E+03  0.49640476274E+03  0.57046047062E+03  0.12699999809E+01 0. -1.
       -4    1    3    3    0  502  0.11043869934E+03 -0.25847464258E+03 -0.23627755176E+03  0.36719823193E+03  0.12699999809E+01 0.  1.
</event>
<event>
 5   0  0.1175993E-02  0.8536251E+03  0.7818609E-02  0.9485484E-01
       -1   -1    0    0    0  501  0.00000000000E+00  0.00000000000E+00  0.35040548413E+03  0.35040548417E+03  0.50400001928E-02 0.  1.
        1   -1    0    0  501    0  0.00000000000E+00  0.00000000000E+00 -0.51988038665E+03  0.51988038668E+03  0.50400001928E-02 0. -1.
    10030    2    1    2    0    0  0.00000000000E+00  0.00000000000E+00 -0.16947490252E+03  0.87028587085E+03  0.85362506665E+03 0.  0.
        4    1    3    3  502    0 -0.15907434137E+03  0.24050605997E+03 -0.40555282360E+03  0.49761683713E+03  0.12699999809E+01 0. -1.
       -4    1    3    3    0  502  0.15907434137E+03 -0.24050605997E+03  0.23607792108E+03  0.37266903371E+03  0.12699999809E+01 0.  1.
</event>
<event>
 5   0  0.1924218E-02  0.9018014E+03  0.7818609E-02  0.9423332E-01
        2   -1    0    0  501    0  0.00000000000E+00  0.00000000000E+00  0.80400873764E+03  0.80400873764E+03  0.25500000920E-02 0. -1.
       -2   -1    0    0    0  501  0.00000000000E+00  0.00000000000E+00 -0.25287216455E+03  0.25287216456E+03  0.25500000920E-02 0.  1.
    10030    2    1    2    0    0  0.00000000000E+00  0.00000000000E+00  0.55113657309E+03  0.10568809022E+04  0.90180137461E+03 0.  0.
        4    1    3    3  502    0  0.43889630992E+03  0.62557663529E+02  0.37197194224E+03  0.57871251139E+03  0.12699999809E+01 0. -1.
       -4    1    3    3    0  502 -0.43889630992E+03 -0.62557663529E+02  0.17916463085E+03  0.47816839081E+03  0.12699999809E+01 0.  1.
</event>
<event>
 5   0  0.1226424E-02  0.6898784E+03  0.7818609E-02  0.9734700E-01
       -1   -1    0    0    0  501  0.00000000000E+00  0.00000000000E+00  0.10295422142E+03  0.10295422154E+03  0.50400001928E-02 0. -1.
        1   -1    0    0  501    0  0.00000000000E+00  0.00000000000E+00 -0.11556890537E+04  0.11556890537E+04  0.50400001928E-02 0.  1.
    10030    2    1    2    0    0  0.00000000000E+00  0.00000000000E+00 -0.10527348323E+04  0.12586432753E+04  0.68987844382E+03 0.  0.
        1    1    3    3  502    0  0.54247160081E+02  0.32734215559E+03 -0.35437152449E+03  0.48546350903E+03  0.50400001928E-02 0.  1.
       -1    1    3    3    0  502 -0.54247160081E+02 -0.32734215559E+03 -0.69836330780E+03  0.77317976623E+03  0.50400001928E-02 0. -1.
</event>
<event>
 5   0  0.1924218E-02  0.9385161E+03  0.7818609E-02  0.9378675E-01
       -2   -1    0    0    0  501  0.00000000000E+00  0.00000000000E+00  0.48568224729E+03  0.48568224729E+03  0.25500000920E-02 0. -1.
        2   -1    0    0  501    0  0.00000000000E+00  0.00000000000E+00 -0.45338924784E+03  0.45338924784E+03  0.25500000920E-02 0.  1.
    10030    2    1    2    0    0  0.00000000000E+00  0.00000000000E+00  0.32292999452E+02  0.93907149514E+03  0.93851608146E+03 0.  0.
        4    1    3    3  502    0  0.10115322329E+03 -0.22574921874E+03  0.41513906563E+03  0.48325639267E+03  0.12699999809E+01 0. -1.
       -4    1    3    3    0  502 -0.10115322329E+03  0.22574921874E+03 -0.38284606618E+03  0.45581510246E+03  0.12699999809E+01 0.  1.
</event>
<event>
 5   0  0.1177712E-02  0.8990829E+03  0.7818609E-02  0.9426729E-01
       -1   -1    0    0    0  501  0.00000000000E+00  0.00000000000E+00  0.47483152709E+03  0.47483152712E+03  0.50400001928E-02 0. -1.
        1   -1    0    0  501    0  0.00000000000E+00  0.00000000000E+00 -0.42559831590E+03  0.42559831593E+03  0.50400001928E-02 0.  1.
    10030    2    1    2    0    0  0.00000000000E+00  0.00000000000E+00  0.49233211191E+02  0.90042984304E+03  0.89908286223E+03 0.  0.
        5    1    3    3  502    0 -0.39011658457E+03 -0.70352947457E+02 -0.18765593826E+03  0.43860839930E+03  0.46999998093E+01 0.  1.
       -5    1    3    3    0  502  0.39011658457E+03  0.70352947457E+02  0.23688914945E+03  0.46182144374E+03  0.46999998093E+01 0. -1.
</event>
<event>
 5   0  0.1177712E-02  0.8683174E+03  0.7818609E-02  0.9466077E-01
        1   -1    0    0  501    0  0.00000000000E+00  0.00000000000E+00  0.63085824799E+03  0.63085824801E+03  0.50400001928E-02 0. -1.
       -1   -1    0    0    0  501  0.00000000000E+00  0.00000000000E+00 -0.29878941182E+03  0.29878941186E+03  0.50400001928E-02 0.  1.
    10030    2    1    2    0    0  0.00000000000E+00  0.00000000000E+00  0.33206883618E+03  0.92964765987E+03  0.86831737259E+03 0.  0.
        5    1    3    3  502    0 -0.43165310213E+03 -0.42766233340E+02  0.18513621870E+03  0.47164696624E+03  0.46999998093E+01 0. -1.
       -5    1    3    3    0  502  0.43165310213E+03  0.42766233340E+02  0.14693261748E+03  0.45800069363E+03  0.46999998093E+01 0.  1.
</event>
<event>
 5   0  0.2008643E-02  0.8837554E+03  0.7818609E-02  0.9446119E-01
        2   -1    0    0  501    0  0.00000000000E+00  0.00000000000E+00  0.60788198187E+03  0.60788198188E+03  0.25500000920E-02 0.  1.
       -2   -1    0    0    0  501  0.00000000000E+00  0.00000000000E+00 -0.32120693471E+03  0.32120693472E+03  0.25500000920E-02 0. -1.
    10030    2    1    2    0    0  0.00000000000E+00  0.00000000000E+00  0.28667504716E+03  0.92908891659E+03  0.88375541428E+03 0.  0.
        3    1    3    3  502    0 -0.37456506636E+03  0.54297495514E+01  0.38972567466E+03  0.54056875863E+03  0.10100000352E+00 0.  1.
       -3    1    3    3    0  502  0.37456506636E+03 -0.54297495514E+01 -0.10305062750E+03  0.38852015796E+03  0.10100000352E+00 0. -1.
</event>
<event>
 5   0  0.1226424E-02  0.9004318E+03  0.7818609E-02  0.9425042E-01
       -1   -1    0    0    0  501  0.00000000000E+00  0.00000000000E+00  0.98681338040E+03  0.98681338041E+03  0.50400001928E-02 0. -1.
        1   -1    0    0  501    0  0.00000000000E+00  0.00000000000E+00 -0.20540293284E+03  0.20540293291E+03  0.50400001928E-02 0.  1.
    10030    2    1    2    0    0  0.00000000000E+00  0.00000000000E+00  0.78141044755E+03  0.11922163133E+04  0.90043181319E+03 0.  0.
        1    1    3    3  502    0  0.37771683934E+03 -0.43649801052E+02  0.70990565571E+03  0.80532065408E+03  0.50400001928E-02 0. -1.
       -1    1    3    3    0  502 -0.37771683934E+03  0.43649801052E+02  0.71504791848E+02  0.38689565924E+03  0.50400001928E-02 0.  1.
</event>
<event>
 5   0  0.1177712E-02  0.8772909E+03  0.7818609E-02  0.9454423E-01
       -1   -1    0    0    0  501  0.00000000000E+00  0.00000000000E+00  0.21204631961E+03  0.21204631967E+03  0.50400001928E-02 0.  1.
        1   -1    0    0  501    0  0.00000000000E+00  0.00000000000E+00 -0.90739538293E+03  0.90739538294E+03  0.50400001928E-02 0. -1.
    10030    2    1    2    0    0  0.00000000000E+00  0.00000000000E+00 -0.69534906332E+03  0.11194417026E+04  0.87729094701E+03 0.  0.
        5    1    3    3  502    0 -0.31459842660E+03  0.25848619820E+03 -0.13955993383E+03  0.43044900953E+03  0.46999998093E+01 0. -1.
       -5    1    3    3    0  502  0.31459842660E+03 -0.25848619820E+03 -0.55578912948E+03  0.68899269309E+03  0.46999998093E+01 0.  1.
</event>
<event>
 5   0  0.7893875E-03  0.9160191E+03  0.7818609E-02  0.9405775E-01
       -3   -1    0    0    0  501  0.00000000000E+00  0.00000000000E+00  0.72047435043E+03  0.72047435751E+03  0.10100000352E+00 0.  1.
        3   -1    0    0  501    0  0.00000000000E+00  0.00000000000E+00 -0.29115921170E+03  0.29115922922E+03  0.10100000352E+00 0. -1.
    10030    2    1    2    0    0  0.00000000000E+00  0.00000000000E+00  0.42931513873E+03  0.10116335867E+04  0.91601911850E+03 0.  0.
        4    1    3    3  502    0  0.29737737095E+03 -0.29012927002E+03  0.42755636482E+03  0.59616637953E+03  0.12699999809E+01 0.  1.
       -4    1    3    3    0  502 -0.29737737095E+03  0.29012927002E+03  0.17587739074E+01  0.41546720721E+03  0.12699999809E+01 0. -1.
</event>
<event>
 5   0  0.2041861E-02  0.9288788E+03  0.7818609E-02  0.9390185E-01
        2   -1    0    0  501    0  0.00000000000E+00  0.00000000000E+00  0.84826943506E+03  0.84826943507E+03  0.25500000920E-02 0.  1.
       -2   -1    0    0    0  501  0.00000000000E+00  0.00000000000E+00 -0.25428706736E+03  0.25428706738E+03  0.25500000920E-02 0. -1.
    10030    2    1    2    0    0  0.00000000000E+00  0.00000000000E+00  0.59398236770E+03  0.11025565024E+04  0.92887878001E+03 0.  0.
        5    1    3    3  502    0 -0.30489629264E+03 -0.29510790406E+03  0.52104815241E+03  0.67198488929E+03  0.46999998093E+01 0. -1.
       -5    1    3    3    0  502  0.30489629264E+03  0.29510790406E+03  0.72934215290E+02  0.43057161316E+03  0.46999998093E+01 0.  1.
</event>
<event>
 5   0  0.1226424E-02  0.8597984E+03  0.7818609E-02  0.9477279E-01
        1   -1    0    0  501    0  0.00000000000E+00  0.00000000000E+00  0.26753696128E+03  0.26753696133E+03  0.50400001928E-02 0. -1.
       -1   -1    0    0    0  501  0.00000000000E+00  0.00000000000E+00 -0.69079542129E+03  0.69079542131E+03  0.50400001928E-02 0.  1.
    10030    2    1    2    0    0  0.00000000000E+00  0.00000000000E+00 -0.42325846001E+03  0.95833238264E+03  0.85979836686E+03 0.  0.
        1    1    3    3  502    0  0.34829239933E+03  0.23711955005E+03 -0.11652799103E+03  0.43716364118E+03  0.50400001928E-02 0. -1.
       -1    1    3    3    0  502 -0.34829239933E+03 -0.23711955005E+03 -0.30673046898E+03  0.52116874146E+03  0.50400001928E-02 0.  1.
</event>
<event>
 5   0  0.1177712E-02  0.8953967E+03  0.7818609E-02  0.9431354E-01
       -1   -1    0    0    0  501  0.00000000000E+00  0.00000000000E+00  0.10146086508E+03  0.10146086520E+03  0.50400001928E-02 0.  1.
        1   -1    0    0  501    0  0.00000000000E+00  0.00000000000E+00 -0.19754791202E+04  0.19754791202E+04  0.50400001928E-02 0. -1.
    10030    2    1    2    0    0  0.00000000000E+00  0.00000000000E+00 -0.18740182551E+04  0.20769399854E+04  0.89539671790E+03 0.  0.
        5    1    3    3  502    0  0.15964011935E+02 -0.20166473828E+03 -0.10664158835E+02  0.20263102088E+03  0.46999998093E+01 0.  1.
       -5    1    3    3    0  502 -0.15964011935E+02  0.20166473828E+03 -0.18633540962E+04  0.18743089645E+04  0.46999998093E+01 0. -1.
</event>
<event>
 5   0  0.1206541E-02  0.8729801E+03  0.7818609E-02  0.9460002E-01
       -1   -1    0    0    0  501  0.00000000000E+00  0.00000000000E+00  0.53945431635E+03  0.53945431638E+03  0.50400001928E-02 0. -1.
        1   -1    0    0  501    0  0.00000000000E+00  0.00000000000E+00 -0.35317834529E+03  0.35317834533E+03  0.50400001928E-02 0.  1.
    10030    2    1    2    0    0  0.00000000000E+00  0.00000000000E+00  0.18627597106E+03  0.89263266171E+03  0.87298014373E+03 0.  0.
        3    1    3    3  502    0 -0.21314756061E+03  0.23215500862E+03 -0.21564665439E+03  0.38187867232E+03  0.10100000352E+00 0.  1.
       -3    1    3    3    0  502  0.21314756061E+03 -0.23215500862E+03  0.40192262545E+03  0.51075398938E+03  0.10100000352E+00 0. -1.
</event>
<event>
 5   0  0.1924218E-02  0.9112556E+03  0.7818609E-02  0.9411620E-01
        2   -1    0    0  501    0  0.00000000000E+00  0.00000000000E+00  0.90939892695E+03  0.90939892695E+03  0.25500000920E-02 0. -1.
       -2   -1    0    0    0  501  0.00000000000E+00  0.00000000000E+00 -0.22827899590E+03  0.22827899591E+03  0.25500000920E-02 0.  1.
    10030    2    1    2    0    0  0.00000000000E+00  0.00000000000E+00  0.68111993105E+03  0.11376779229E+04  0.91125556004E+03 0.  0.
        4    1    3    3  502    0 -0.27214468649E+03  0.37329535610E+02 -0.11327126471E+03  0.29713333190E+03  0.12699999809E+01 0.  1.
       -4    1    3    3    0  502  0.27214468649E+03 -0.37329535610E+02  0.79439119575E+03  0.84054459097E+03  0.12699999809E+01 0. -1.
</event>
<event>
 5   0  0.1162839E-02  0.8794783E+03  0.7818609E-02  0.9451605E-01
        1   -1    0    0  501    0  0.00000000000E+00  0.00000000000E+00  0.80679425024E+03  0.80679425025E+03  0.50400001928E-02 0. -1.
       -1   -1    0    0    0  501  0.00000000000E+00  0.00000000000E+00 -0.23967759889E+03  0.23967759894E+03  0.50400001928E-02 0.  1.
    10030    2    1    2    0    0  0.00000000000E+00  0.00000000000E+00  0.56711665134E+03  0.10464718492E+04  0.87947827428E+03 0.  0.
        2    1    3    3  502    0  0.21528650729E+03 -0.37589028939E+03  0.19349848198E+03  0.47442960744E+03  0.25500000920E-02 0.  1.
       -2    1    3    3    0  502 -0.21528650729E+03  0.37589028939E+03  0.37361816936E+03  0.57204224176E+03  0.25500000920E-02 0. -1.
</event>
<event>
 5   0  0.1177712E-02  0.8939636E+03  0.7818609E-02  0.9433159E-01
        1   -1    0    0  501    0  0.00000000000E+00  0.00000000000E+00  0.18466782213E+04  0.18466782213E+04  0.50400001928E-02 0. -1.
       -1   -1    0    0    0  501  0.00000000000E+00  0.00000000000E+00 -0.10819032691E+03  0.10819032703E+03  0.50400001928E-02 0.  1.
    10030    2    1    2    0    0  0.00000000000E+00  0.00000000000E+00  0.17384878944E+04  0.19548685484E+04  0.89396357998E+03 0.  0.
        5    1    3    3  502    0 -0.14473198781E+03  0.29544809086E+03  0.20765496967E+03  0.38907531291E+03  0.46999998093E+01 0.  1.
       -5    1    3    3    0  502  0.14473198781E+03 -0.29544809086E+03  0.15308329247E+04  0.15657932354E+04  0.46999998093E+01 0. -1.
</event>
<event>
 5   0  0.2008770E-02  0.8629391E+03  0.7818609E-02  0.9473133E-01
       -2   -1    0    0    0  501  0.00000000000E+00  0.00000000000E+00  0.50237932966E+03  0.50237932967E+03  0.25500000920E-02 0.  1.
        2   -1    0    0  501    0  0.00000000000E+00  0.00000000000E+00 -0.37056856351E+03  0.37056856351E+03  0.25500000920E-02 0. -1.
    10030    2    1    2    0    0  0.00000000000E+00  0.00000000000E+00  0.13181076615E+03  0.87294789318E+03  0.86293913235E+03 0.  0.
        1    1    3    3  502    0  0.70068543572E+01  0.23232056091E+03 -0.30182707084E+03  0.38094818512E+03  0.50400001928E-02 0. -1.
       -1    1    3    3    0  502 -0.70068543572E+01 -0.23232056091E+03  0.43363783699E+03  0.49199970806E+03  0.50400001928E-02 0.  1.
</event>
<event>
 5   0  0.1924218E-02  0.9317120E+03  0.7818609E-02  0.9386786E-01
        2   -1    0    0  501    0  0.00000000000E+00  0.00000000000E+00  0.76224449632E+03  0.76224449633E+03  0.25500000920E-02 0. -1.
       -2   -1    0    0    0  501  0.00000000000E+00  0.00000000000E+00 -0.28471416621E+03  0.28471416622E+03  0.25500000920E-02 0.  1.
    10030    2    1    2    0    0  0.00000000000E+00  0.00000000000E+00  0.47753033012E+03  0.10469586625E+04  0.93171198603E+03 0.  0.
        4    1    3    3  502    0  0.26493267306E+03 -0.19968534576E+03 -0.12873007398E+03  0.35586037067E+03  0.12699999809E+01 0.  1.
       -4    1    3    3    0  502 -0.26493267306E+03  0.19968534576E+03  0.60626040409E+03  0.69109829188E+03  0.12699999809E+01 0. -1.
</event>
<event>
 5   0  0.1924218E-02  0.1061845E+04  0.7818609E-02  0.9243199E-01
        2   -1    0    0  501    0  0.00000000000E+00  0.00000000000E+00  0.10042623078E+04  0.10042623078E+04  0.25500000920E-02 0.  1.
       -2   -1    0    0    0  501  0.00000000000E+00  0.00000000000E+00 -0.28068258168E+03  0.28068258169E+03  0.25500000920E-02 0. -1.
    10030    2    1    2    0    0  0.00000000000E+00  0.00000000000E+00  0.72357972609E+03  0.12849448895E+04  0.10618454449E+04 0.  0.
        4    1    3    3  502    0 -0.46044197734E+03  0.74997657565E+02  0.55067267515E+02  0.46975044437E+03  0.12699999809E+01 0. -1.
       -4    1    3    3    0  502  0.46044197734E+03 -0.74997657565E+02  0.66851245857E+03  0.81519444509E+03  0.12699999809E+01 0.  1.
</event>
<event>
 5   0  0.1968763E-02  0.9735489E+03  0.7818609E-02  0.9338041E-01
        2   -1    0    0  501    0  0.00000000000E+00  0.00000000000E+00  0.65523407013E+03  0.65523407014E+03  0.25500000920E-02 0.  1.
       -2   -1    0    0    0  501  0.00000000000E+00  0.00000000000E+00 -0.36162553279E+03  0.36162553279E+03  0.25500000920E-02 0. -1.
    10030    2    1    2    0    0  0.00000000000E+00  0.00000000000E+00  0.29360853735E+03  0.10168596029E+04  0.97354890934E+03 0.  0.
        2    1    3    3  502    0 -0.75865940089E+02 -0.19700460962E+03  0.60493188008E+03  0.64070979126E+03  0.25500000920E-02 0.  1.
       -2    1    3    3    0  502  0.75865940089E+02  0.19700460962E+03 -0.31132334274E+03  0.37614981167E+03  0.25500000920E-02 0. -1.
</event>
<event>
 5   0  0.2008643E-02  0.9023241E+03  0.7818609E-02  0.9422681E-01
        2   -1    0    0  501    0  0.00000000000E+00  0.00000000000E+00  0.10478138636E+04  0.10478138636E+04  0.25500000920E-02 0. -1.
       -2   -1    0    0    0  501  0.00000000000E+00  0.00000000000E+00 -0.19425890778E+03  0.19425890779E+03  0.25500000920E-02 0.  1.
    10030    2    1    2    0    0  0.00000000000E+00  0.00000000000E+00  0.85355495578E+03  0.12420727714E+04  0.90232405864E+03 0.  0.
        3    1    3    3  502    0  0.21649301651E+03 -0.97395227814E+02 -0.10133541430E+03  0.25811612308E+03  0.10100000352E+00 0.  1.
       -3    1    3    3    0  502 -0.21649301651E+03  0.97395227814E+02  0.95489037009E+03  0.98395664827E+03  0.10100000352E+00 0. -1.
</event>
<event>
 5   0  0.1206541E-02  0.8964724E+03  0.7818609E-02  0.9430002E-01
       -1   -1    0    0    0  501  0.00000000000E+00  0.00000000000E+00  0.64963392757E+03  0.64963392759E+03  0.50400001928E-02 0. -1.
        1   -1    0    0  501    0  0.00000000000E+00  0.00000000000E+00 -0.30927524005E+03  0.30927524009E+03  0.50400001928E-02 0.  1.
    10030    2    1    2    0    0  0.00000000000E+00  0.00000000000E+00  0.34035868751E+03  0.95890916768E+03  0.89647239539E+03 0.  0.
        3    1    3    3  502    0  0.25321002495E+02 -0.30118139849E+03 -0.18387918919E+03  0.35378376784E+03  0.10100000352E+00 0.  1.
       -3    1    3    3    0  502 -0.25321002495E+02  0.30118139849E+03  0.52423787670E+03  0.60512539984E+03  0.10100000352E+00 0. -1.
</event>
<event>
 5   0  0.1175993E-02  0.9071766E+03  0.7818609E-02  0.9416655E-01
       -1   -1    0    0    0  501  0.00000000000E+00  0.00000000000E+00  0.11652207588E+03  0.11652207599E+03  0.50400001928E-02 0.  1.
        1   -1    0    0  501    0  0.00000000000E+00  0.00000000000E+00 -0.17656939592E+04  0.17656939592E+04  0.50400001928E-02 0. -1.
    10030    2    1    2    0    0  0.00000000000E+00  0.00000000000E+00 -0.16491718833E+04  0.18822160352E+04  0.90717655527E+03 0.  0.
        4    1    3    3  502    0  0.36855877474E+03 -0.21269693745E+03 -0.11504373303E+04  0.12266145367E+04  0.12699999809E+01 0. -1.
       -4    1    3    3    0  502 -0.36855877474E+03  0.21269693745E+03 -0.49873455299E+03  0.65560149854E+03  0.12699999809E+01 0.  1.
</event>
<event>
 5   0  0.2008643E-02  0.9041679E+03  0.7818609E-02  0.9420386E-01
        2   -1    0    0  501    0  0.00000000000E+00  0.00000000000E+00  0.11033728554E+04  0.11033728554E+04  0.25500000920E-02 0. -1.
       -2   -1    0    0    0  501  0.00000000000E+00  0.00000000000E+00 -0.18523192730E+03  0.18523192732E+03  0.25500000920E-02 0.  1.
    10030    2    1    2    0    0  0.00000000000E+00  0.00000000000E+00  0.91814092805E+03  0.12886047827E+04  0.90416786171E+03 0.  0.
        3    1    3    3  502    0 -0.10336913776E+03 -0.36345652359E+02  0.10841618370E+04  0.10896848554E+04  0.10100000352E+00 0. -1.
       -3    1    3    3    0  502  0.10336913776E+03  0.36345652359E+02 -0.16602090890E+03  0.19891992731E+03  0.10100000352E+00 0.  1.
</event>
<event>
 5   0  0.1968763E-02  0.9040468E+03  0.7818609E-02  0.9420537E-01
        2   -1    0    0  501    0  0.00000000000E+00  0.00000000000E+00  0.20575207226E+04  0.20575207226E+04  0.25500000920E-02 0.  1.
       -2   -1    0    0    0  501  0.00000000000E+00  0.00000000000E+00 -0.99306479143E+02  0.99306479176E+02  0.25500000920E-02 0. -1.
    10030    2    1    2    0    0  0.00000000000E+00  0.00000000000E+00  0.19582142435E+04  0.21568272018E+04  0.90404676597E+03 0.  0.
        2    1    3    3  502    0 -0.23608211532E+03  0.22173688661E+03  0.22684678560E+03  0.39542568986E+03  0.25500000920E-02 0. -1.
       -2    1    3    3    0  502  0.23608211532E+03 -0.22173688661E+03  0.17313674579E+04  0.17614015120E+04  0.25500000920E-02 0.  1.
</event>
<event>
 5   0  0.1226424E-02  0.9180329E+03  0.7818609E-02  0.9403316E-01
        1   -1    0    0  501    0  0.00000000000E+00  0.00000000000E+00  0.14994740779E+04  0.14994740779E+04  0.50400001928E-02 0.  1.
       -1   -1    0    0    0  501  0.00000000000E+00  0.00000000000E+00 -0.14051334668E+03  0.14051334678E+03  0.50400001928E-02 0. -1.
    10030    2    1    2    0    0  0.00000000000E+00  0.00000000000E+00  0.13589607312E+04  0.16399874247E+04  0.91803294284E+03 0.  0.
        1    1    3    3  502    0  0.28922998218E+02  0.98020269136E+02 -0.11993088898E+03  0.15756881400E+03  0.50400001928E-02 0. -1.
       -1    1    3    3    0  502 -0.28922998218E+02 -0.98020269136E+02  0.14788916202E+04  0.14824186107E+04  0.50400001928E-02 0.  1.
</event>
<event>
 5   0  0.2008770E-02  0.9064076E+03  0.7818609E-02  0.9417607E-01
       -2   -1    0    0    0  501  0.00000000000E+00  0.00000000000E+00  0.14405921229E+03  0.14405921232E+03  0.25500000920E-02 0.  1.
        2   -1    0    0  501    0  0.00000000000E+00  0.00000000000E+00 -0.14257587541E+04  0.14257587541E+04  0.25500000920E-02 0. -1.
    10030    2    1    2    0    0  0.00000000000E+00  0.00000000000E+00 -0.12816995418E+04  0.15698179664E+04  0.90640759717E+03 0.  0.
        1    1    3    3  502    0 -0.38528944129E+03  0.63276273119E+02 -0.10393469808E+04  0.11102675294E+04  0.50400001928E-02 0. -1.
       -1    1    3    3    0  502  0.38528944129E+03 -0.63276273119E+02 -0.24235256098E+03  0.45955043700E+03  0.50400001928E-02 0.  1.
</event>
<event>
 5   0  0.1162839E-02  0.9101398E+03  0.7818609E-02  0.9412994E-01
        1   -1    0    0  501    0  0.00000000000E+00  0.00000000000E+00  0.33947488736E+03  0.33947488740E+03  0.50400001928E-02 0.  1.
       -1   -1    0    0    0  501  0.00000000000E+00  0.00000000000E+00 -0.61002634198E+03  0.61002634200E+03  0.50400001928E-02 0. -1.
    10030    2    1    2    0    0  0.00000000000E+00  0.00000000000E+00 -0.27055145462E+03  0.94950122940E+03  0.91013982170E+03 0.  0.
        2    1    3    3  502    0 -0.10759716955E+03 -0.11829464866E+03  0.30919901104E+03  0.34810171391E+03  0.25500000920E-02 0.  1.
       -2    1    3    3    0  502  0.10759716955E+03  0.11829464866E+03 -0.57975046566E+03  0.60139951549E+03  0.25500000920E-02 0. -1.
</event>
<event>
 5   0  0.2041861E-02  0.8281056E+03  0.7818609E-02  0.9520203E-01
       -2   -1    0    0    0  501  0.00000000000E+00  0.00000000000E+00  0.21372151226E+03  0.21372151227E+03  0.25500000920E-02 0. -1.
        2   -1    0    0  501    0  0.00000000000E+00  0.00000000000E+00 -0.80216417236E+03  0.80216417237E+03  0.25500000920E-02 0.  1.
    10030    2    1    2    0    0  0.00000000000E+00  0.00000000000E+00 -0.58844266011E+03  0.10158856846E+04  0.82810564545E+03 0.  0.
        5    1    3    3  502    0 -0.17301458421E+03  0.23717537027E+03 -0.65236644100E+03  0.71539518167E+03  0.46999998093E+01 0.  1.
       -5    1    3    3    0  502  0.17301458421E+03 -0.23717537027E+03  0.63923780892E+02  0.30049050297E+03  0.46999998093E+01 0. -1.
</event>
<event>
 5   0  0.7893875E-03  0.9084848E+03  0.7818609E-02  0.9415037E-01
        4   -1    0    0  501    0  0.00000000000E+00  0.00000000000E+00  0.10846605027E+04  0.10846612462E+04  0.12699999809E+01 0. -1.
       -4   -1    0    0    0  501  0.00000000000E+00  0.00000000000E+00 -0.19022816197E+03  0.19023240130E+03  0.12699999809E+01 0.  1.
    10030    2    1    2    0    0  0.00000000000E+00  0.00000000000E+00  0.89443234072E+03  0.12748936475E+04  0.90848478264E+03 0.  0.
        5    1    3    3  502    0 -0.43669036452E+03  0.82139687593E+02  0.31506067182E+03  0.54472995114E+03  0.46999998093E+01 0.  1.
       -5    1    3    3    0  502  0.43669036452E+03 -0.82139687593E+02  0.57937166890E+03  0.73016369635E+03  0.46999998093E+01 0. -1.
</event>
<event>
 5   0  0.1226424E-02  0.8992696E+03  0.7818609E-02  0.9426495E-01
        1   -1    0    0  501    0  0.00000000000E+00  0.00000000000E+00  0.61418202176E+03  0.61418202178E+03  0.50400001928E-02 0. -1.
       -1   -1    0    0    0  501  0.00000000000E+00  0.00000000000E+00 -0.32917185351E+03  0.32917185355E+03  0.50400001928E-02 0.  1.
    10030    2    1    2    0    0  0.00000000000E+00  0.00000000000E+00  0.28501016825E+03  0.94335387533E+03  0.89926955808E+03 0.  0.
        1    1    3    3  502    0  0.85859568193E+02  0.12351890211E+03 -0.30199163650E+03  0.33738365871E+03  0.50400001928E-02 0.  1.
       -1    1    3    3    0  502 -0.85859568193E+02 -0.12351890211E+03  0.58700180474E+03  0.60597021661E+03  0.50400001928E-02 0. -1.
</event>
<event>
 5   0  0.1177712E-02  0.9065024E+03  0.7818609E-02  0.9417489E-01
       -1   -1    0    0    0  501  0.00000000000E+00  0.00000000000E+00  0.60031564710E+03  0.60031564713E+03  0.50400001928E-02 0. -1.
        1   -1    0    0  501    0  0.00000000000E+00  0.00000000000E+00 -0.34221435099E+03  0.34221435103E+03  0.50400001928E-02 0.  1.
    10030    2    1    2    0    0  0.00000000000E+00  0.00000000000E+00  0.25810129611E+03  0.94252999816E+03  0.90650235431E+03 0.  0.
        5    1    3    3  502    0 -0.16524207308E+03  0.14090384765E+03  0.54267483772E+03  0.58453135629E+03  0.46999998093E+01 0. -1.
       -5    1    3    3    0  502  0.16524207308E+03 -0.14090384765E+03 -0.28457354161E+03  0.35799864187E+03  0.46999998093E+01 0.  1.
</event>
<event>
 5   0  0.2008770E-02  0.8208161E+03  0.7818609E-02  0.9530366E-01
        2   -1    0    0  501    0  0.00000000000E+00  0.00000000000E+00  0.17846167000E+03  0.17846167002E+03  0.25500000920E-02 0.  1.
       -2   -1    0    0    0  501  0.00000000000E+00  0.00000000000E+00 -0.94381472907E+03  0.94381472907E+03  0.25500000920E-02 0. -1.
    10030    2    1    2    0    0  0.00000000000E+00  0.00000000000E+00 -0.76535305906E+03  0.11222763991E+04  0.82081606401E+03 0.  0.
        1    1    3    3  502    0 -0.36943310696E+03 -0.42970618832E+02 -0.61991822989E+03  0.72292870075E+03  0.50400001928E-02 0. -1.
       -1    1    3    3    0  502  0.36943310696E+03  0.42970618832E+02 -0.14543482918E+03  0.39934769834E+03  0.50400001928E-02 0.  1.
</event>
<event>
 5   0  0.1206541E-02  0.8960087E+03  0.7818609E-02  0.9430585E-01
        1   -1    0    0  501    0  0.00000000000E+00  0.00000000000E+00  0.12756279444E+04  0.12756279444E+04  0.50400001928E-02 0. -1.
       -1   -1    0    0    0  501  0.00000000000E+00  0.00000000000E+00 -0.15734046446E+03  0.15734046454E+03  0.50400001928E-02 0.  1.
    10030    2    1    2    0    0  0.00000000000E+00  0.00000000000E+00  0.11182874799E+04  0.14329684090E+04  0.89600869039E+03 0.  0.
        3    1    3    3  502    0 -0.18856406841E+03  0.67130421356E+02  0.12001436609E+04  0.12167200658E+04  0.10100000352E+00 0. -1.
       -3    1    3    3    0  502  0.18856406841E+03 -0.67130421356E+02 -0.81856180980E+02  0.21624834319E+03  0.10100000352E+00 0.  1.
</event>
<event>
 5   0  0.1968763E-02  0.9151221E+03  0.7818609E-02  0.9406873E-01
        2   -1    0    0  501    0  0.00000000000E+00  0.00000000000E+00  0.23812957494E+04  0.23812957494E+04  0.25500000920E-02 0.  1.
       -2   -1    0    0    0  501  0.00000000000E+00  0.00000000000E+00 -0.87919410925E+02  0.87919410962E+02  0.25500000920E-02 0. -1.
    10030    2    1    2    0    0  0.00000000000E+00  0.00000000000E+00  0.22933763385E+04  0.24692151604E+04  0.91512211114E+03 0.  0.
        2    1    3    3  502    0  0.16078605981E+03 -0.31551143260E+03  0.19285365886E+04  0.19607786705E+04  0.25500000920E-02 0.  1.
       -2    1    3    3    0  502 -0.16078605981E+03  0.31551143260E+03  0.36483974989E+03  0.50843648987E+03  0.25500000920E-02 0. -1.
</event>
<event>
 5   0  0.1175993E-02  0.9379671E+03  0.7818609E-02  0.9379327E-01
       -1   -1    0    0    0  501  0.00000000000E+00  0.00000000000E+00  0.38681038280E+03  0.38681038284E+03  0.50400001928E-02 0. -1.
        1   -1    0    0  501    0  0.00000000000E+00  0.00000000000E+00 -0.56861344353E+03  0.56861344355E+03  0.50400001928E-02 0.  1.
    10030    2    1    2    0    0  0.00000000000E+00  0.00000000000E+00 -0.18180306072E+03  0.95542382639E+03  0.93796712903E+03 0.  0.
        4    1    3    3  502    0  0.27396672738E+03 -0.23834438628E+03  0.21140153940E+03  0.42018809829E+03  0.12699999809E+01 0. -1.
       -4    1    3    3    0  502 -0.27396672738E+03  0.23834438628E+03 -0.39320460012E+03  0.53523572810E+03  0.12699999809E+01 0.  1.
</event>
<event>
 5   0  0.1177712E-02  0.9034431E+03  0.7818609E-02  0.9421288E-01
       -1   -1    0    0    0  501  0.00000000000E+00  0.00000000000E+00  0.25615870250E+03  0.25615870255E+03  0.50400001928E-02 0.  1.
        1   -1    0    0  501    0  0.00000000000E+00  0.00000000000E+00 -0.79658572046E+03  0.79658572047E+03  0.50400001928E-02 0. -1.
    10030    2    1    2    0    0  0.00000000000E+00  0.00000000000E+00 -0.54042701795E+03  0.10527444230E+04  0.90344311302E+03 0.  0.
        5    1    3    3  502    0 -0.63472834164E+02 -0.29712868319E+02 -0.79018325341E+03  0.79329900995E+03  0.46999998093E+01 0. -1.
       -5    1    3    3    0  502  0.63472834164E+02  0.29712868319E+02  0.24975623545E+03  0.25944541308E+03  0.46999998093E+01 0.  1.
</event>
<event>
 5   0  0.2041861E-02  0.8830146E+03  0.7818609E-02  0.9447067E-01
       -2   -1    0    0    0  501  0.00000000000E+00  0.00000000000E+00  0.42292937715E+03  0.42292937716E+03  0.25500000920E-02 0.  1.
        2   -1    0    0  501    0  0.00000000000E+00  0.00000000000E+00 -0.46090126187E+03  0.46090126188E+03  0.25500000920E-02 0. -1.
    10030    2    1    2    0    0  0.00000000000E+00  0.00000000000E+00 -0.37971884723E+02  0.88383063904E+03  0.88301457206E+03 0.  0.
        5    1    3    3  502    0 -0.43196956016E+03  0.84603377340E+02  0.14974181445E+02  0.44045629575E+03  0.46999998093E+01 0.  1.
       -5    1    3    3    0  502  0.43196956016E+03 -0.84603377340E+02 -0.52946066168E+02  0.44337434328E+03  0.46999998093E+01 0. -1.
</event>
<event>
 5   0  0.1177712E-02  0.8510576E+03  0.7818609E-02  0.9488919E-01
       -1   -1    0    0    0  501  0.00000000000E+00  0.00000000000E+00  0.16421901504E+03  0.16421901512E+03  0.50400001928E-02 0.  1.
        1   -1    0    0  501    0  0.00000000000E+00  0.00000000000E+00 -0.11026418268E+04  0.11026418268E+04  0.50400001928E-02 0. -1.
    10030    2    1    2    0    0  0.00000000000E+00  0.00000000000E+00 -0.93842281173E+03  0.12668608419E+04  0.85105758862E+03 0.  0.
        5    1    3    3  502    0 -0.17094493159E+03  0.27345241539E+02  0.10938719621E+03  0.20483549634E+03  0.46999998093E+01 0.  1.
       -5    1    3    3    0  502  0.17094493159E+03 -0.27345241539E+02 -0.10478100079E+04  0.10620253456E+04  0.46999998093E+01 0. -1.
</event>
<event>
 5   0  0.7893875E-03  0.5833437E+03  0.7818609E-02  0.9940578E-01
       -4   -1    0    0    0  501  0.00000000000E+00  0.00000000000E+00  0.90329812141E+03  0.90329901419E+03  0.12699999809E+01 0.  1.
        4   -1    0    0  501    0  0.00000000000E+00  0.00000000000E+00 -0.94174624544E+02  0.94183187501E+02  0.12699999809E+01 0. -1.
    10030    2    1    2    0    0  0.00000000000E+00  0.00000000000E+00  0.80912349686E+03  0.99748220169E+03  0.58334373187E+03 0.  0.
        3    1    3    3  502    0  0.11518189671E+03 -0.92952603705E+02 -0.25192603992E+02  0.15013904676E+03  0.10100000352E+00 0. -1.
       -3    1    3    3    0  502 -0.11518189671E+03  0.92952603705E+02  0.83431610085E+03  0.84734315493E+03  0.10100000352E+00 0.  1.
</event>
<event>
 5   0  0.2008770E-02  0.9373237E+03  0.7818609E-02  0.9380091E-01
       -2   -1    0    0    0  501  0.00000000000E+00  0.00000000000E+00  0.22925443505E+03  0.22925443506E+03  0.25500000920E-02 0.  1.
        2   -1    0    0  501    0  0.00000000000E+00  0.00000000000E+00 -0.95807924743E+03  0.95807924743E+03  0.25500000920E-02 0. -1.
    10030    2    1    2    0    0  0.00000000000E+00  0.00000000000E+00 -0.72882481238E+03  0.11873336825E+04  0.93732367218E+03 0.  0.
        1    1    3    3  502    0 -0.32557458418E+03  0.14880361884E+02 -0.79102637599E+03  0.85553665180E+03  0.50400001928E-02 0. -1.
       -1    1    3    3    0  502  0.32557458418E+03 -0.14880361884E+02  0.62201563610E+02  0.33179703069E+03  0.50400001928E-02 0.  1.
</event>
<event>
 5   0  0.1175993E-02  0.9058773E+03  0.7818609E-02  0.9418264E-01
        1   -1    0    0  501    0  0.00000000000E+00  0.00000000000E+00  0.64238332785E+03  0.64238332787E+03  0.50400001928E-02 0.  1.
       -1   -1    0    0    0  501  0.00000000000E+00  0.00000000000E+00 -0.31936289479E+03  0.31936289483E+03  0.50400001928E-02 0. -1.
    10030    2    1    2    0    0  0.00000000000E+00  0.00000000000E+00  0.32302043306E+03  0.96174622270E+03  0.90587725256E+03 0.  0.
        4    1    3    3  502    0  0.19605642060E+03  0.16315413604E+03  0.55888610659E+03  0.61433922649E+03  0.12699999809E+01 0.  1.
       -4    1    3    3    0  502 -0.19605642060E+03 -0.16315413604E+03 -0.23586567353E+03  0.34740699621E+03  0.12699999809E+01 0. -1.
</event>
<event>
 5   0  0.2008770E-02  0.9053347E+03  0.7818609E-02  0.9418937E-01
        2   -1    0    0  501    0  0.00000000000E+00  0.00000000000E+00  0.90208113939E+03  0.90208113940E+03  0.25500000920E-02 0. -1.
       -2   -1    0    0    0  501  0.00000000000E+00  0.00000000000E+00 -0.22714998917E+03  0.22714998919E+03  0.25500000920E-02 0.  1.
    10030    2    1    2    0    0  0.00000000000E+00  0.00000000000E+00  0.67493115022E+03  0.11292311286E+04  0.90533468078E+03 0.  0.
        1    1    3    3  502    0 -0.19438678831E+03  0.22894720190E+03  0.75990480872E+03  0.81710364279E+03  0.50400001928E-02 0. -1.
       -1    1    3    3    0  502  0.19438678831E+03 -0.22894720190E+03 -0.84973658497E+02  0.31212748579E+03  0.50400001928E-02 0.  1.
</event>
<event>
 5   0  0.2008770E-02  0.9026938E+03  0.7818609E-02  0.9422220E-01
        2   -1    0    0  501    0  0.00000000000E+00  0.00000000000E+00  0.20680087806E+03  0.20680087807E+03  0.25500000920E-02 0.  1.
       -2   -1    0    0    0  501  0.00000000000E+00  0.00000000000E+00 -0.98507338137E+03  0.98507338137E+03  0.25500000920E-02 0. -1.
    10030    2    1    2    0    0  0.00000000000E+00  0.00000000000E+00 -0.77827250331E+03  0.11918742594E+04  0.90269383565E+03 0.  0.
        1    1    3    3  502    0  0.43566981915E+03  0.11533929699E+03 -0.42155072147E+03  0.61710319683E+03  0.50400001928E-02 0.  1.
       -1    1    3    3    0  502 -0.43566981915E+03 -0.11533929699E+03 -0.35672178185E+03  0.57477106261E+03  0.50400001928E-02 0. -1.
</event>
<event>
 5   0  0.1175993E-02  0.9088963E+03  0.7818609E-02  0.9414528E-01
       -1   -1    0    0    0  501  0.00000000000E+00  0.00000000000E+00  0.27139652374E+03  0.27139652378E+03  0.50400001928E-02 0.  1.
        1   -1    0    0  501    0  0.00000000000E+00  0.00000000000E+00 -0.76096449218E+03  0.76096449220E+03  0.50400001928E-02 0. -1.
    10030    2    1    2    0    0  0.00000000000E+00  0.00000000000E+00 -0.48956796845E+03  0.10323610160E+04  0.90889629309E+03 0.  0.
        4    1    3    3  502    0  0.23941022198E+03  0.24910212113E+03  0.90534040808E+02  0.35716543308E+03  0.12699999809E+01 0.  1.
       -4    1    3    3    0  502 -0.23941022198E+03 -0.24910212113E+03 -0.58010200925E+03  0.67519558291E+03  0.12699999809E+01 0. -1.
</event>
<event>
 5   0  0.1206541E-02  0.8982951E+03  0.7818609E-02  0.9427715E-01
        1   -1    0    0  501    0  0.00000000000E+00  0.00000000000E+00  0.66159705407E+03  0.66159705409E+03  0.50400001928E-02 0.  1.
       -1   -1    0    0    0  501  0.00000000000E+00  0.00000000000E+00 -0.30491898823E+03  0.30491898827E+03  0.50400001928E-02 0. -1.
    10030    2    1    2    0    0  0.00000000000E+00  0.00000000000E+00  0.35667806584E+03  0.96651604236E+03  0.89829506149E+03 0.  0.
        3    1    3    3  502    0  0.30633501276E+03 -0.31917795417E+03  0.26180481862E+03  0.51405980170E+03  0.10100000352E+00 0.  1.
       -3    1    3    3    0  502 -0.30633501276E+03  0.31917795417E+03  0.94873247216E+02  0.45245624066E+03  0.10100000352E+00 0. -1.
</event>
<event>
 5   0  0.7893875E-03  0.9287816E+03  0.7818609E-02  0.9390301E-01
       -3   -1    0    0    0  501  0.00000000000E+00  0.00000000000E+00  0.20420831458E+03  0.20420833956E+03  0.10100000352E+00 0. -1.
        3   -1    0    0  501    0  0.00000000000E+00  0.00000000000E+00 -0.10560725517E+04  0.10560725565E+04  0.10100000352E+00 0.  1.
    10030    2    1    2    0    0  0.00000000000E+00  0.00000000000E+00 -0.85186423712E+03  0.12602808961E+04  0.92878159895E+03 0.  0.
        1    1    3    3  502    0  0.23222959470E+03  0.17310235684E+03  0.66619570522E+02  0.29720898001E+03  0.50400001928E-02 0. -1.
       -1    1    3    3    0  502 -0.23222959470E+03 -0.17310235684E+03 -0.91848380764E+03  0.96307191607E+03  0.50400001928E-02 0.  1.
</event>
<event>
 5   0  0.1924218E-02  0.8827910E+03  0.7818609E-02  0.9447353E-01
        2   -1    0    0  501    0  0.00000000000E+00  0.00000000000E+00  0.77248628028E+03  0.77248628028E+03  0.25500000920E-02 0.  1.
       -2   -1    0    0    0  501  0.00000000000E+00  0.00000000000E+00 -0.25221155501E+03  0.25221155502E+03  0.25500000920E-02 0. -1.
    10030    2    1    2    0    0  0.00000000000E+00  0.00000000000E+00  0.52027472527E+03  0.10246978353E+04  0.88279095143E+03 0.  0.
        4    1    3    3  502    0 -0.19830567917E+03  0.50388386334E+02  0.71411334356E+03  0.74284831037E+03  0.12699999809E+01 0.  1.
       -4    1    3    3    0  502  0.19830567917E+03 -0.50388386334E+02 -0.19383861829E+03  0.28184952494E+03  0.12699999809E+01 0. -1.
</event>
<event>
 5   0  0.1175993E-02  0.8914307E+03  0.7818609E-02  0.9436357E-01
        1   -1    0    0  501    0  0.00000000000E+00  0.00000000000E+00  0.46024811322E+03  0.46024811325E+03  0.50400001928E-02 0.  1.
       -1   -1    0    0    0  501  0.00000000000E+00  0.00000000000E+00 -0.43164150517E+03  0.43164150520E+03  0.50400001928E-02 0. -1.
    10030    2    1    2    0    0  0.00000000000E+00  0.00000000000E+00  0.28606608048E+02  0.89188961845E+03  0.89143073398E+03 0.  0.
        4    1    3    3  502    0  0.30991381199E+03 -0.30426410635E+03  0.11454149424E+03  0.44915986472E+03  0.12699999809E+01 0.  1.
       -4    1    3    3    0  502 -0.30991381199E+03  0.30426410635E+03 -0.85934886195E+02  0.44272975373E+03  0.12699999809E+01 0. -1.
</event>
<event>
 5   0  0.1226424E-02  0.9090728E+03  0.7818609E-02  0.9414310E-01
        1   -1    0    0  501    0  0.00000000000E+00  0.00000000000E+00  0.86031792896E+03  0.86031792898E+03  0.50400001928E-02 0. -1.
       -1   -1    0    0    0  501  0.00000000000E+00  0.00000000000E+00 -0.24014767414E+03  0.24014767419E+03  0.50400001928E-02 0.  1.
    10030    2    1    2    0    0  0.00000000000E+00  0.00000000000E+00  0.62017025482E+03  0.11004656032E+04  0.90907282370E+03 0.  0.
        1    1    3    3  502    0  0.93110074006E+02 -0.44198730421E+03  0.37158569085E+03  0.58489160418E+03  0.50400001928E-02 0. -1.
       -1    1    3    3    0  502 -0.93110074006E+02  0.44198730421E+03  0.24858456397E+03  0.51557399899E+03  0.50400001928E-02 0.  1.
</event>
<event>
 5   0  0.1177712E-02  0.9420636E+03  0.7818609E-02  0.9374475E-01
        1   -1    0    0  501    0  0.00000000000E+00  0.00000000000E+00  0.35893892749E+03  0.35893892753E+03  0.50400001928E-02 0.  1.
       -1   -1    0    0    0  501  0.00000000000E+00  0.00000000000E+00 -0.61813014951E+03  0.61813014953E+03  0.50400001928E-02 0. -1.
    10030    2    1    2    0    0  0.00000000000E+00  0.00000000000E+00 -0.25919122202E+03  0.97706907706E+03  0.94206363468E+03 0.  0.
        5    1    3    3  502    0  0.18296079811E+03 -0.16152493607E+03  0.28821818847E+03  0.37769931530E+03  0.46999998093E+01 0.  1.
       -5    1    3    3    0  502 -0.18296079811E+03  0.16152493607E+03 -0.54740941049E+03  0.59936976176E+03  0.46999998093E+01 0. -1.
</event>
<event>
 5   0  0.1924218E-02  0.7017382E+03  0.7818609E-02  0.9714264E-01
       -2   -1    0    0    0  501  0.00000000000E+00  0.00000000000E+00  0.14060682973E+03  0.14060682975E+03  0.25500000920E-02 0. -1.
        2   -1    0    0  501    0  0.00000000000E+00  0.00000000000E+00 -0.87555577352E+03  0.87555577352E+03  0.25500000920E-02 0.  1.
    10030    2    1    2    0    0  0.00000000000E+00  0.00000000000E+00 -0.73494894379E+03  0.10161626033E+04  0.70173818929E+03 0.  0.
        4    1    3    3  502    0 -0.40166467551E+02  0.10617342468E+02 -0.87197802697E+03  0.87296813545E+03  0.12699999809E+01 0.  1.
       -4    1    3    3    0  502  0.40166467551E+02 -0.10617342468E+02  0.13702908319E+03  0.14319446782E+03  0.12699999809E+01 0. -1.
</event>
<event>
 5   0  0.1968763E-02  0.8795749E+03  0.7818609E-02  0.9451480E-01
       -2   -1    0    0    0  501  0.00000000000E+00  0.00000000000E+00  0.49864435273E+03  0.49864435273E+03  0.25500000920E-02 0.  1.
        2   -1    0    0  501    0  0.00000000000E+00  0.00000000000E+00 -0.38787764834E+03  0.38787764835E+03  0.25500000920E-02 0. -1.
    10030    2    1    2    0    0  0.00000000000E+00  0.00000000000E+00  0.11076670439E+03  0.88652200108E+03  0.87957489482E+03 0.  0.
        2    1    3    3  502    0  0.36384356900E+02  0.35436983111E+03  0.31531794810E+03  0.47573859107E+03  0.25500000920E-02 0.  1.
       -2    1    3    3    0  502 -0.36384356900E+02 -0.35436983111E+03 -0.20455124372E+03  0.41078341001E+03  0.25500000920E-02 0. -1.
</event>
<event>
 5   0  0.1177712E-02  0.8730783E+03  0.7818609E-02  0.9459875E-01
       -1   -1    0    0    0  501  0.00000000000E+00  0.00000000000E+00  0.75856480913E+02  0.75856481081E+02  0.50400001928E-02 0.  1.
        1   -1    0    0  501    0  0.00000000000E+00  0.00000000000E+00 -0.25121973111E+04  0.25121973111E+04  0.50400001928E-02 0. -1.
    10030    2    1    2    0    0  0.00000000000E+00  0.00000000000E+00 -0.24363408302E+04  0.25880537922E+04  0.87307834150E+03 0.  0.
        5    1    3    3  502    0  0.40580715541E+03  0.14168891006E+03 -0.99262813193E+03  0.10817060104E+04  0.46999998093E+01 0. -1.
       -5    1    3    3    0  502 -0.40580715541E+03 -0.14168891006E+03 -0.14437126982E+04  0.15063477818E+04  0.46999998093E+01 0.  1.
</event>
<event>
 5   0  0.1226424E-02  0.8886408E+03  0.7818609E-02  0.9439893E-01
       -1   -1    0    0    0  501  0.00000000000E+00  0.00000000000E+00  0.25471819903E+03  0.25471819908E+03  0.50400001928E-02 0.  1.
        1   -1    0    0  501    0  0.00000000000E+00  0.00000000000E+00 -0.77505501470E+03  0.77505501471E+03  0.50400001928E-02 0. -1.
    10030    2    1    2    0    0  0.00000000000E+00  0.00000000000E+00 -0.52033681567E+03  0.10297732138E+04  0.88864079925E+03 0.  0.
        1    1    3    3  502    0  0.16395904654E+03  0.39872432756E+03 -0.38474519655E+03  0.57783434012E+03  0.50400001928E-02 0. -1.
       -1    1    3    3    0  502 -0.16395904654E+03 -0.39872432756E+03 -0.13559161912E+03  0.45193887367E+03  0.50400001928E-02 0.  1.
</event>
<event>
 5   0  0.2008643E-02  0.8633147E+03  0.7818609E-02  0.9472639E-01
       -2   -1    0    0    0  501  0.00000000000E+00  0.00000000000E+00  0.21723430636E+03  0.21723430637E+03  0.25500000920E-02 0.  1.
        2   -1    0    0  501    0  0.00000000000E+00  0.00000000000E+00 -0.85772853430E+03  0.85772853430E+03  0.25500000920E-02 0. -1.
    10030    2    1    2    0    0  0.00000000000E+00  0.00000000000E+00 -0.64049422795E+03  0.10749628407E+04  0.86331468932E+03 0.  0.
        3    1    3    3  502    0  0.17200170451E+03  0.17421773056E+02 -0.81273794955E+03  0.83092183108E+03  0.10100000352E+00 0. -1.
       -3    1    3    3    0  502 -0.17200170451E+03 -0.17421773056E+02  0.17224372160E+03  0.24404100959E+03  0.10100000352E+00 0.  1.
</event>
<event>
 5   0  0.1924218E-02  0.8969293E+03  0.7818609E-02  0.9429428E-01
        2   -1    0    0  501    0  0.00000000000E+00  0.00000000000E+00  0.26752257939E+03  0.26752257940E+03  0.25500000920E-02 0.  1.
       -2   -1    0    0    0  501  0.00000000000E+00  0.00000000000E+00 -0.75178896271E+03  0.75178896271E+03  0.25500000920E-02 0. -1.
    10030    2    1    2    0    0  0.00000000000E+00  0.00000000000E+00 -0.48426638332E+03  0.10193115421E+04  0.89692925578E+03 0.  0.
        4    1    3    3  502    0  0.30860193715E+03 -0.20527573155E+03  0.44795484118E+02  0.37333835843E+03  0.12699999809E+01 0.  1.
       -4    1    3    3    0  502 -0.30860193715E+03  0.20527573155E+03 -0.52906186743E+03  0.64597318369E+03  0.12699999809E+01 0. -1.
</event>
<event>
 5   0  0.1924218E-02  0.8676399E+03  0.7818609E-02  0.9466962E-01
       -2   -1    0    0    0  501  0.00000000000E+00  0.00000000000E+00  0.89758312774E+02  0.89758312810E+02  0.25500000920E-02 0.  1.
        2   -1    0    0  501    0  0.00000000000E+00  0.00000000000E+00 -0.20967389671E+04  0.20967389671E+04  0.25500000920E-02 0. -1.
    10030    2    1    2    0    0  0.00000000000E+00  0.00000000000E+00 -0.20069806544E+04  0.21864972799E+04  0.86763990701E+03 0.  0.
        4    1    3    3  502    0 -0.38423176643E+03 -0.21596239240E+02 -0.49886492777E+03  0.63005418572E+03  0.12699999809E+01 0. -1.
       -4    1    3    3    0  502  0.38423176643E+03  0.21596239240E+02 -0.15081157266E+04  0.15564430942E+04  0.12699999809E+01 0.  1.
</event>
<event>
 5   0  0.1206541E-02  0.8675616E+03  0.7818609E-02  0.9467065E-01
       -1   -1    0    0    0  501  0.00000000000E+00  0.00000000000E+00  0.27144843972E+03  0.27144843977E+03  0.50400001928E-02 0. -1.
        1   -1    0    0  501    0  0.00000000000E+00  0.00000000000E+00 -0.69319162536E+03  0.69319162537E+03  0.50400001928E-02 0.  1.
    10030    2    1    2    0    0  0.00000000000E+00  0.00000000000E+00 -0.42174318563E+03  0.96464006514E+03  0.86756160626E+03 0.  0.
        3    1    3    3  502    0  0.31887472657E+02 -0.30916558555E+03 -0.54732982269E+03  0.62942045979E+03  0.10100000352E+00 0.  1.
       -3    1    3    3    0  502 -0.31887472657E+02  0.30916558555E+03  0.12558663706E+03  0.33521960535E+03  0.10100000352E+00 0. -1.
</event>
<event>
 5   0  0.1206541E-02  0.8577345E+03  0.7818609E-02  0.9480014E-01
       -1   -1    0    0    0  501  0.00000000000E+00  0.00000000000E+00  0.15419371234E+03  0.15419371243E+03  0.50400001928E-02 0. -1.
        1   -1    0    0  501    0  0.00000000000E+00  0.00000000000E+00 -0.11928315649E+04  0.11928315649E+04  0.50400001928E-02 0.  1.
    10030    2    1    2    0    0  0.00000000000E+00  0.00000000000E+00 -0.10386378526E+04  0.13470252774E+04  0.85773452130E+03 0.  0.
        3    1    3    3  502    0  0.16946303883E+03 -0.38629672578E+03 -0.64080519189E+03  0.76718588753E+03  0.10100000352E+00 0.  1.
       -3    1    3    3    0  502 -0.16946303883E+03  0.38629672578E+03 -0.39783266068E+03  0.57983938982E+03  0.10100000352E+00 0. -1.
</event>
<event>
 5   0  0.1226424E-02  0.8947467E+03  0.7818609E-02  0.9432172E-01
        1   -1    0    0  501    0  0.00000000000E+00  0.00000000000E+00  0.36957717619E+03  0.36957717623E+03  0.50400001928E-02 0.  1.
       -1   -1    0    0    0  501  0.00000000000E+00  0.00000000000E+00 -0.54154561046E+03  0.54154561049E+03  0.50400001928E-02 0. -1.
    10030    2    1    2    0    0  0.00000000000E+00  0.00000000000E+00 -0.17196843427E+03  0.91112278671E+03  0.89474666252E+03 0.  0.
        1    1    3    3  502    0  0.91229571231E+01  0.44411752607E+03 -0.31915400442E+02  0.44535625977E+03  0.50400001928E-02 0.  1.
       -1    1    3    3    0  502 -0.91229571231E+01 -0.44411752607E+03 -0.14005303383E+03  0.46576652694E+03  0.50400001928E-02 0. -1.
</event>
<event>
 5   0  0.7893875E-03  0.9080373E+03  0.7818609E-02  0.9415590E-01
       -4   -1    0    0    0  501  0.00000000000E+00  0.00000000000E+00  0.65428619320E+03  0.65428742576E+03  0.12699999809E+01 0. -1.
        4   -1    0    0  501    0  0.00000000000E+00  0.00000000000E+00 -0.31504729939E+03  0.31504985915E+03  0.12699999809E+01 0.  1.
    10030    2    1    2    0    0  0.00000000000E+00  0.00000000000E+00  0.33923889381E+03  0.96933728492E+03  0.90803730367E+03 0.  0.
        1    1    3    3  502    0  0.27882308429E+03 -0.34540358096E+03  0.67858472886E+02  0.44905536234E+03  0.50400001928E-02 0.  1.
       -1    1    3    3    0  502 -0.27882308429E+03  0.34540358096E+03  0.27138042093E+03  0.52028192258E+03  0.50400001928E-02 0. -1.
</event>
<event>
 5   0  0.2008643E-02  0.9137405E+03  0.7818609E-02  0.9408566E-01
       -2   -1    0    0    0  501  0.00000000000E+00  0.00000000000E+00  0.38050305264E+03  0.38050305265E+03  0.25500000920E-02 0.  1.
        2   -1    0    0  501    0  0.00000000000E+00  0.00000000000E+00 -0.54856433779E+03  0.54856433779E+03  0.25500000920E-02 0. -1.
    10030    2    1    2    0    0  0.00000000000E+00  0.00000000000E+00 -0.16806128514E+03  0.92906739044E+03  0.91374045572E+03 0.  0.
        3    1    3    3  502    0 -0.28818169744E+02 -0.11720362283E+03 -0.53206141582E+03  0.54557908365E+03  0.10100000352E+00 0. -1.
       -3    1    3    3    0  502  0.28818169744E+02  0.11720362283E+03  0.36400013068E+03  0.38348830679E+03  0.10100000352E+00 0.  1.
</event>
<event>
 5   0  0.2008643E-02  0.8908423E+03  0.7818609E-02  0.9437102E-01
       -2   -1    0    0    0  501  0.00000000000E+00  0.00000000000E+00  0.15300141943E+04  0.15300141943E+04  0.25500000920E-02 0.  1.
        2   -1    0    0  501    0  0.00000000000E+00  0.00000000000E+00 -0.12967200931E+03  0.12967200934E+03  0.25500000920E-02 0. -1.
    10030    2    1    2    0    0  0.00000000000E+00  0.00000000000E+00  0.14003421850E+04  0.16596862036E+04  0.89084233144E+03 0.  0.
        3    1    3    3  502    0 -0.11825220335E+03  0.25260725814E+03  0.13471789942E+04  0.13757489825E+04  0.10100000352E+00 0.  1.
       -3    1    3    3    0  502  0.11825220335E+03 -0.25260725814E+03  0.53163190825E+02  0.28393722109E+03  0.10100000352E+00 0. -1.
</event>
<event>
 5   0  0.7893875E-03  0.9166569E+03  0.7818609E-02  0.9404996E-01
        3   -1    0    0  501    0  0.00000000000E+00  0.00000000000E+00  0.37844648410E+03  0.37844649758E+03  0.10100000352E+00 0. -1.
       -3   -1    0    0    0  501  0.00000000000E+00  0.00000000000E+00 -0.55507179371E+03  0.55507180290E+03  0.10100000352E+00 0.  1.
    10030    2    1    2    0    0  0.00000000000E+00  0.00000000000E+00 -0.17662530961E+03  0.93351830048E+03  0.91665692456E+03 0.  0.
        3    1    3    3  502    0  0.27984205996E+03  0.26212288142E+03 -0.34401887215E+03  0.51513976558E+03  0.10100000352E+00 0.  1.
       -3    1    3    3    0  502 -0.27984205996E+03 -0.26212288142E+03  0.16739356254E+03  0.41837853490E+03  0.10100000352E+00 0. -1.
</event>
<event>
 5   0  0.1206541E-02  0.8846505E+03  0.7818609E-02  0.9444975E-01
       -1   -1    0    0    0  501  0.00000000000E+00  0.00000000000E+00  0.22589213395E+03  0.22589213400E+03  0.50400001928E-02 0. -1.
        1   -1    0    0  501    0  0.00000000000E+00  0.00000000000E+00 -0.86612862779E+03  0.86612862780E+03  0.50400001928E-02 0.  1.
    10030    2    1    2    0    0  0.00000000000E+00  0.00000000000E+00 -0.64023649384E+03  0.10920207618E+04  0.88465053901E+03 0.  0.
        3    1    3    3  502    0 -0.15746938761E+03 -0.30141155597E+03 -0.66927520287E+03  0.75071621901E+03  0.10100000352E+00 0.  1.
       -3    1    3    3    0  502  0.15746938761E+03  0.30141155597E+03  0.29038709031E+02  0.34130454279E+03  0.10100000352E+00 0. -1.
</event>
<event>
 5   0  0.1968763E-02  0.7131183E+03  0.7818609E-02  0.9695057E-01
        2   -1    0    0  501    0  0.00000000000E+00  0.00000000000E+00  0.26690338024E+03  0.26690338025E+03  0.25500000920E-02 0. -1.
       -2   -1    0    0    0  501  0.00000000000E+00  0.00000000000E+00 -0.47633126015E+03  0.47633126016E+03  0.25500000920E-02 0.  1.
    10030    2    1    2    0    0  0.00000000000E+00  0.00000000000E+00 -0.20942787991E+03  0.74323464041E+03  0.71311828880E+03 0.  0.
        2    1    3    3  502    0 -0.17010692944E+03 -0.18410608801E+03  0.15957561555E+03  0.29714608557E+03  0.25500000920E-02 0. -1.
       -2    1    3    3    0  502  0.17010692944E+03  0.18410608801E+03 -0.36900349547E+03  0.44608855484E+03  0.25500000920E-02 0.  1.
</event>
<event>
 5   0  0.2008770E-02  0.9040762E+03  0.7818609E-02  0.9420500E-01
        2   -1    0    0  501    0  0.00000000000E+00  0.00000000000E+00  0.25401305015E+03  0.25401305017E+03  0.25500000920E-02 0.  1.
       -2   -1    0    0    0  501  0.00000000000E+00  0.00000000000E+00 -0.80444079076E+03  0.80444079076E+03  0.25500000920E-02 0. -1.
    10030    2    1    2    0    0  0.00000000000E+00  0.00000000000E+00 -0.55042774060E+03  0.10584538409E+04  0.90407623337E+03 0.  0.
        1    1    3    3  502    0 -0.10267936655E+03  0.20871981490E+03  0.17856815973E+03  0.29324665580E+03  0.50400001928E-02 0.  1.
       -1    1    3    3    0  502  0.10267936655E+03 -0.20871981490E+03 -0.72899590033E+03  0.76520718513E+03  0.50400001928E-02 0. -1.
</event>
<event>
 5   0  0.1924218E-02  0.8970243E+03  0.7818609E-02  0.9429309E-01
        2   -1    0    0  501    0  0.00000000000E+00  0.00000000000E+00  0.23196779319E+04  0.23196779319E+04  0.25500000920E-02 0.  1.
       -2   -1    0    0    0  501  0.00000000000E+00  0.00000000000E+00 -0.86720283640E+02  0.86720283678E+02  0.25500000920E-02 0. -1.
    10030    2    1    2    0    0  0.00000000000E+00  0.00000000000E+00  0.22329576483E+04  0.24063982156E+04  0.89702425443E+03 0.  0.
        4    1    3    3  502    0  0.10081775299E+03 -0.31800741152E+03  0.31227292201E+03  0.45695615087E+03  0.12699999809E+01 0. -1.
       -4    1    3    3    0  502 -0.10081775299E+03  0.31800741152E+03  0.19206847263E+04  0.19494420647E+04  0.12699999809E+01 0.  1.
</event>
<event>
 5   0  0.7893875E-03  0.9103145E+03  0.7818609E-02  0.9412779E-01
        3   -1    0    0  501    0  0.00000000000E+00  0.00000000000E+00  0.98470720057E+02  0.98470771854E+02  0.10100000352E+00 0. -1.
       -3   -1    0    0    0  501  0.00000000000E+00  0.00000000000E+00 -0.21038544710E+04  0.21038544734E+04  0.10100000352E+00 0.  1.
    10030    2    1    2    0    0  0.00000000000E+00  0.00000000000E+00 -0.20053837509E+04  0.22023252453E+04  0.91031450469E+03 0.  0.
        3    1    3    3  502    0  0.36022452000E+02  0.42021747260E+03 -0.14167231696E+04  0.14781694392E+04  0.10100000352E+00 0.  1.
       -3    1    3    3    0  502 -0.36022452000E+02 -0.42021747260E+03 -0.58866058131E+03  0.72415580611E+03  0.10100000352E+00 0. -1.
</event>
<event>
 5   0  0.1177712E-02  0.9795847E+03  0.7818609E-02  0.9331224E-01
        1   -1    0    0  501    0  0.00000000000E+00  0.00000000000E+00  0.62042010803E+03  0.62042010805E+03  0.50400001928E-02 0.  1.
       -1   -1    0    0    0  501  0.00000000000E+00  0.00000000000E+00 -0.38666791707E+03  0.38666791711E+03  0.50400001928E-02 0. -1.
    10030    2    1    2    0    0  0.00000000000E+00  0.00000000000E+00  0.23375219096E+03  0.10070880252E+04  0.97958470978E+03 0.  0.
        5    1    3    3  502    0 -0.25696547537E+03  0.25998124177E+03  0.45199270359E+03  0.58132692670E+03  0.46999998093E+01 0.  1.
       -5    1    3    3    0  502  0.25696547537E+03 -0.25998124177E+03 -0.21824051264E+03  0.42576109846E+03  0.46999998093E+01 0. -1.
</event>
<event>
 5   0  0.2008770E-02  0.9216202E+03  0.7818609E-02  0.9398952E-01
        2   -1    0    0  501    0  0.00000000000E+00  0.00000000000E+00  0.87394866491E+03  0.87394866491E+03  0.25500000920E-02 0.  1.
       -2   -1    0    0    0  501  0.00000000000E+00  0.00000000000E+00 -0.24297301727E+03  0.24297301728E+03  0.25500000920E-02 0. -1.
    10030    2    1    2    0    0  0.00000000000E+00  0.00000000000E+00  0.63097564765E+03  0.11169216822E+04  0.92162019088E+03 0.  0.
        1    1    3    3  502    0  0.71158333998E+02  0.47089318974E+02 -0.23331526323E+03  0.24842891245E+03  0.50400001928E-02 0. -1.
       -1    1    3    3    0  502 -0.71158333998E+02 -0.47089318974E+02  0.86429091087E+03  0.86849276975E+03  0.50400001928E-02 0.  1.
</event>
<event>
 5   0  0.2008643E-02  0.9073842E+03  0.7818609E-02  0.9416398E-01
        2   -1    0    0  501    0  0.00000000000E+00  0.00000000000E+00  0.12304991611E+04  0.12304991611E+04  0.25500000920E-02 0. -1.
       -2   -1    0    0    0  501  0.00000000000E+00  0.00000000000E+00 -0.16727888532E+03  0.16727888534E+03  0.25500000920E-02 0.  1.
    10030    2    1    2    0    0  0.00000000000E+00  0.00000000000E+00  0.10632202758E+04  0.13977780464E+04  0.90738421426E+03 0.  0.
        3    1    3    3  502    0 -0.19580223554E+03  0.14969080891E+03  0.11183785551E+04  0.11452145897E+04  0.10100000352E+00 0. -1.
       -3    1    3    3    0  502  0.19580223554E+03 -0.14969080891E+03 -0.55158279321E+02  0.25256345676E+03  0.10100000352E+00 0.  1.
</event>
<event>
 5   0  0.1175993E-02  0.9153321E+03  0.7818609E-02  0.9406616E-01
        1   -1    0    0  501    0  0.00000000000E+00  0.00000000000E+00  0.13914460737E+04  0.13914460737E+04  0.50400001928E-02 0. -1.
       -1   -1    0    0    0  501  0.00000000000E+00  0.00000000000E+00 -0.15053275429E+03  0.15053275438E+03  0.50400001928E-02 0.  1.
    10030    2    1    2    0    0  0.00000000000E+00  0.00000000000E+00  0.12409133194E+04  0.15419788281E+04  0.91533209274E+03 0.  0.
        4    1    3    3  502    0 -0.10698311005E+03  0.24141600962E+03 -0.92580049686E+01  0.26422414555E+03  0.12699999809E+01 0.  1.
       -4    1    3    3    0  502  0.10698311005E+03 -0.24141600962E+03  0.12501713244E+04  0.12777546826E+04  0.12699999809E+01 0. -1.
</event>
<event>
 5   0  0.2041861E-02  0.9467187E+03  0.7818609E-02  0.9368994E-01
       -2   -1    0    0    0  501  0.00000000000E+00  0.00000000000E+00  0.20255583145E+03  0.20255583147E+03  0.25500000920E-02 0. -1.
        2   -1    0    0  501    0  0.00000000000E+00  0.00000000000E+00 -0.11062089197E+04  0.11062089197E+04  0.25500000920E-02 0.  1.
    10030    2    1    2    0    0  0.00000000000E+00  0.00000000000E+00 -0.90365308821E+03  0.13087647511E+04  0.94671868576E+03 0.  0.
        5    1    3    3  502    0 -0.98924976303E+01 -0.47985221763E+02 -0.11026618638E+04  0.11037598103E+04  0.46999998093E+01 0.  1.
       -5    1    3    3    0  502  0.98924976303E+01  0.47985221763E+02  0.19900877556E+03  0.20500494083E+03  0.46999998093E+01 0. -1.
</event>
<event>
 5   0  0.1968763E-02  0.8970531E+03  0.7818609E-02  0.9429273E-01
       -2   -1    0    0    0  501  0.00000000000E+00  0.00000000000E+00  0.58791504176E+03  0.58791504177E+03  0.25500000920E-02 0.  1.
        2   -1    0    0  501    0  0.00000000000E+00  0.00000000000E+00 -0.34218559461E+03  0.34218559462E+03  0.25500000920E-02 0. -1.
    10030    2    1    2    0    0  0.00000000000E+00  0.00000000000E+00  0.24572944715E+03  0.93010063639E+03  0.89705308239E+03 0.  0.
        2    1    3    3  502    0 -0.24468998013E+03 -0.37447324750E+03  0.88906686829E+02  0.45607871956E+03  0.25500000920E-02 0. -1.
       -2    1    3    3    0  502  0.24468998013E+03  0.37447324750E+03  0.15682276032E+03  0.47402191683E+03  0.25500000920E-02 0.  1.
</event>
<event>
 5   0  0.1968763E-02  0.9024721E+03  0.7818609E-02  0.9422497E-01
       -2   -1    0    0    0  501  0.00000000000E+00  0.00000000000E+00  0.87947010196E+02  0.87947010233E+02  0.25500000920E-02 0.  1.
        2   -1    0    0  501    0  0.00000000000E+00  0.00000000000E+00 -0.23151890160E+04  0.23151890160E+04  0.25500000920E-02 0. -1.
    10030    2    1    2    0    0  0.00000000000E+00  0.00000000000E+00 -0.22272420058E+04  0.24031360262E+04  0.90247205395E+03 0.  0.
        2    1    3    3  502    0 -0.28105005956E+03 -0.17319621311E+02 -0.20525301241E+04  0.20717550568E+04  0.25500000920E-02 0. -1.
       -2    1    3    3    0  502  0.28105005956E+03  0.17319621311E+02 -0.17471188173E+03  0.33138096941E+03  0.25500000920E-02 0.  1.
</event>
<event>
 5   0  0.1206541E-02  0.8663635E+03  0.7818609E-02  0.9468634E-01
       -1   -1    0    0    0  501  0.00000000000E+00  0.00000000000E+00  0.12216235158E+03  0.12216235169E+03  0.50400001928E-02 0. -1.
        1   -1    0    0  501    0  0.00000000000E+00  0.00000000000E+00 -0.15360414812E+04  0.15360414812E+04  0.50400001928E-02 0.  1.
    10030    2    1    2    0    0  0.00000000000E+00  0.00000000000E+00 -0.14138791296E+04  0.16582038329E+04  0.86636352546E+03 0.  0.
        3    1    3    3  502    0 -0.16973885013E+03 -0.20357696489E+03 -0.51162515935E+02  0.26994901576E+03  0.10100000352E+00 0. -1.
       -3    1    3    3    0  502  0.16973885013E+03  0.20357696489E+03 -0.13627166137E+04  0.13882548171E+04  0.10100000352E+00 0.  1.
</event>
<event>
 5   0  0.1162839E-02  0.8584878E+03  0.7818609E-02  0.9479015E-01
       -1   -1    0    0    0  501  0.00000000000E+00  0.00000000000E+00  0.50522585908E+03  0.50522585910E+03  0.50400001928E-02 0.  1.
        1   -1    0    0  501    0  0.00000000000E+00  0.00000000000E+00 -0.36468903980E+03  0.36468903983E+03  0.50400001928E-02 0. -1.
    10030    2    1    2    0    0  0.00000000000E+00  0.00000000000E+00  0.14053681928E+03  0.86991489894E+03  0.85848781809E+03 0.  0.
        2    1    3    3  502    0 -0.34873887311E+03 -0.98058634082E+02 -0.16304852330E+03  0.39726454447E+03  0.25500000920E-02 0. -1.
       -2    1    3    3    0  502  0.34873887311E+03  0.98058634082E+02  0.30358534258E+03  0.47265035446E+03  0.25500000920E-02 0.  1.
</event>
<event>
 5   0  0.2008770E-02  0.9003276E+03  0.7818609E-02  0.9425172E-01
       -2   -1    0    0    0  501  0.00000000000E+00  0.00000000000E+00  0.21580037586E+03  0.21580037587E+03  0.25500000920E-02 0. -1.
        2   -1    0    0  501    0  0.00000000000E+00  0.00000000000E+00 -0.93905053868E+03  0.93905053869E+03  0.25500000920E-02 0.  1.
    10030    2    1    2    0    0  0.00000000000E+00  0.00000000000E+00 -0.72325016283E+03  0.11548509146E+04  0.90032762749E+03 0.  0.
        1    1    3    3  502    0 -0.17688558716E+03 -0.24166984938E+03  0.69474268800E+02  0.30744023987E+03  0.50400001928E-02 0. -1.
       -1    1    3    3    0  502  0.17688558716E+03  0.24166984938E+03 -0.79272443163E+03  0.84741067468E+03  0.50400001928E-02 0.  1.
</event>
<event>
 5   0  0.7893875E-03  0.8975518E+03  0.7818609E-02  0.9428647E-01
        4   -1    0    0  501    0  0.00000000000E+00  0.00000000000E+00  0.18915643601E+03  0.18916069936E+03  0.12699999809E+01 0. -1.
       -4   -1    0    0    0  501  0.00000000000E+00  0.00000000000E+00 -0.10647094387E+04  0.10647101961E+04  0.12699999809E+01 0.  1.
    10030    2    1    2    0    0  0.00000000000E+00  0.00000000000E+00 -0.87555300267E+03  0.12538708955E+04  0.89755176009E+03 0.  0.
        4    1    3    3  502    0  0.22824877376E+03  0.33090212785E+03 -0.15906225438E+03  0.43231485587E+03  0.12699999809E+01 0. -1.
       -4    1    3    3    0  502 -0.22824877376E+03 -0.33090212785E+03 -0.71649074828E+03  0.82155603961E+03  0.12699999809E+01 0.  1.
</event>
<event>
 5   0  0.1177712E-02  0.8521546E+03  0.7818609E-02  0.9487450E-01
        1   -1    0    0  501    0  0.00000000000E+00  0.00000000000E+00  0.59017157035E+03  0.59017157037E+03  0.50400001928E-02 0.  1.
       -1   -1    0    0    0  501  0.00000000000E+00  0.00000000000E+00 -0.30760859101E+03  0.30760859105E+03  0.50400001928E-02 0. -1.
    10030    2    1    2    0    0  0.00000000000E+00  0.00000000000E+00  0.28256297934E+03  0.89778016143E+03  0.85215455227E+03 0.  0.
        5    1    3    3  502    0 -0.21073027808E+03 -0.11911875364E+03  0.51065743838E+03  0.56514567763E+03  0.46999998093E+01 0.  1.
       -5    1    3    3    0  502  0.21073027808E+03  0.11911875364E+03 -0.22809445904E+03  0.33263448380E+03  0.46999998093E+01 0. -1.
</event>
<event>
 5   0  0.2041861E-02  0.9300098E+03  0.7818609E-02  0.9388826E-01
        2   -1    0    0  501    0  0.00000000000E+00  0.00000000000E+00  0.15083014466E+04  0.15083014466E+04  0.25500000920E-02 0.  1.
       -2   -1    0    0    0  501  0.00000000000E+00  0.00000000000E+00 -0.14335964980E+03  0.14335964982E+03  0.25500000920E-02 0. -1.
    10030    2    1    2    0    0  0.00000000000E+00  0.00000000000E+00  0.13649417968E+04  0.16516610964E+04  0.93000982187E+03 0.  0.
        5    1    3    3  502    0 -0.10898456947E+02  0.43477258482E+03  0.97462321852E+03  0.10672668293E+04  0.46999998093E+01 0.  1.
       -5    1    3    3    0  502  0.10898456947E+02 -0.43477258482E+03  0.39031857826E+03  0.58439426709E+03  0.46999998093E+01 0. -1.
</event>
<event>
 5   0  0.7893875E-03  0.9248224E+03  0.7818609E-02  0.9395073E-01
        4   -1    0    0  501    0  0.00000000000E+00  0.00000000000E+00  0.32818586346E+03  0.32818832074E+03  0.12699999809E+01 0. -1.
       -4   -1    0    0    0  501  0.00000000000E+00  0.00000000000E+00 -0.65152813969E+03  0.65152937747E+03  0.12699999809E+01 0.  1.
    10030    2    1    2    0    0  0.00000000000E+00  0.00000000000E+00 -0.32334227623E+03  0.97971769821E+03  0.92482243733E+03 0.  0.
        1    1    3    3  502    0 -0.30937445646E+03  0.29748917087E+03 -0.34396615997E+03  0.55002279982E+03  0.50400001928E-02 0.  1.
       -1    1    3    3    0  502  0.30937445646E+03 -0.29748917087E+03  0.20623883739E+02  0.42969489839E+03  0.50400001928E-02 0. -1.
</event>
<event>
 5   0  0.1206541E-02  0.8955607E+03  0.7818609E-02  0.9431148E-01
        1   -1    0    0  501    0  0.00000000000E+00  0.00000000000E+00  0.37351584684E+03  0.37351584687E+03  0.50400001928E-02 0.  1.
       -1   -1    0    0    0  501  0.00000000000E+00  0.00000000000E+00 -0.53681051324E+03  0.53681051326E+03  0.50400001928E-02 0. -1.
    10030    2    1    2    0    0  0.00000000000E+00  0.00000000000E+00 -0.16329466640E+03  0.91032636014E+03  0.89556068130E+03 0.  0.
        3    1    3    3  502    0 -0.41965106270E+03 -0.14190507694E+03 -0.15277945040E+02  0.44325781560E+03  0.10100000352E+00 0. -1.
       -3    1    3    3    0  502  0.41965106270E+03  0.14190507694E+03 -0.14801672136E+03  0.46706854453E+03  0.10100000352E+00 0.  1.
</event>
<event>
 5   0  0.1206541E-02  0.8916611E+03  0.7818609E-02  0.9436066E-01
        1   -1    0    0  501    0  0.00000000000E+00  0.00000000000E+00  0.18426797824E+03  0.18426797831E+03  0.50400001928E-02 0. -1.
       -1   -1    0    0    0  501  0.00000000000E+00  0.00000000000E+00 -0.10786729798E+04  0.10786729798E+04  0.50400001928E-02 0.  1.
    10030    2    1    2    0    0  0.00000000000E+00  0.00000000000E+00 -0.89440500155E+03  0.12629409581E+04  0.89166112222E+03 0.  0.
        3    1    3    3  502    0  0.36617144433E+03  0.20190537327E+03 -0.66625174922E+03  0.78659945966E+03  0.10100000352E+00 0.  1.
       -3    1    3    3    0  502 -0.36617144433E+03 -0.20190537327E+03 -0.22815325233E+03  0.47634149845E+03  0.10100000352E+00 0. -1.
</event>
<event>
 5   0  0.1968763E-02  0.8365643E+03  0.7818609E-02  0.9508550E-01
       -2   -1    0    0    0  501  0.00000000000E+00  0.00000000000E+00  0.23327062625E+03  0.23327062627E+03  0.25500000920E-02 0.  1.
        2   -1    0    0  501    0  0.00000000000E+00  0.00000000000E+00 -0.75002986633E+03  0.75002986634E+03  0.25500000920E-02 0. -1.
    10030    2    1    2    0    0  0.00000000000E+00  0.00000000000E+00 -0.51675924008E+03  0.98330049261E+03  0.83656425130E+03 0.  0.
        2    1    3    3  502    0  0.20983455817E+03  0.29916564671E+03 -0.49762348416E+03  0.61738137157E+03  0.25500000920E-02 0. -1.
       -2    1    3    3    0  502 -0.20983455817E+03 -0.29916564671E+03 -0.19135755923E+02  0.36591912103E+03  0.25500000920E-02 0.  1.
</event>
<event>
 5   0  0.2008770E-02  0.9077432E+03  0.7818609E-02  0.9415953E-01
       -2   -1    0    0    0  501  0.00000000000E+00  0.00000000000E+00  0.11253228993E+03  0.11253228995E+03  0.25500000920E-02 0.  1.
        2   -1    0    0  501    0  0.00000000000E+00  0.00000000000E+00 -0.18305808045E+04  0.18305808045E+04  0.25500000920E-02 0. -1.
    10030    2    1    2    0    0  0.00000000000E+00  0.00000000000E+00 -0.17180485146E+04  0.19431130945E+04  0.90774324533E+03 0.  0.
        1    1    3    3  502    0  0.65523361506E+01  0.64762824157E+02 -0.18205370247E+04  0.18217003636E+04  0.50400001928E-02 0. -1.
       -1    1    3    3    0  502 -0.65523361506E+01 -0.64762824157E+02  0.10248851007E+03  0.12141273089E+03  0.50400001928E-02 0.  1.
</event>
<event>
 5   0  0.1226424E-02  0.9085796E+03  0.7818609E-02  0.9414920E-01
        1   -1    0    0  501    0  0.00000000000E+00  0.00000000000E+00  0.15860777853E+04  0.15860777853E+04  0.50400001928E-02 0. -1.
       -1   -1    0    0    0  501  0.00000000000E+00  0.00000000000E+00 -0.13011922006E+03  0.13011922016E+03  0.50400001928E-02 0.  1.
    10030    2    1    2    0    0  0.00000000000E+00  0.00000000000E+00  0.14559585652E+04  0.17161970054E+04  0.90857956056E+03 0.  0.
        1    1    3    3  502    0 -0.34342448907E+03 -0.29195952390E+03  0.83480472930E+03  0.94872529184E+03  0.50400001928E-02 0. -1.
       -1    1    3    3    0  502  0.34342448907E+03  0.29195952390E+03  0.62115383592E+03  0.76747171361E+03  0.50400001928E-02 0.  1.
</event>
<event>
 5   0  0.2008770E-02  0.8842444E+03  0.7818609E-02  0.9445494E-01
       -2   -1    0    0    0  501  0.00000000000E+00  0.00000000000E+00  0.18977377155E+03  0.18977377157E+03  0.25500000920E-02 0.  1.
        2   -1    0    0  501    0  0.00000000000E+00  0.00000000000E+00 -0.10300267393E+04  0.10300267393E+04  0.25500000920E-02 0. -1.
    10030    2    1    2    0    0  0.00000000000E+00  0.00000000000E+00 -0.84025296771E+03  0.12198005108E+04  0.88424444386E+03 0.  0.
        1    1    3    3  502    0  0.57277863693E+02 -0.34484193820E+03 -0.79354461541E+03  0.86712731054E+03  0.50400001928E-02 0. -1.
       -1    1    3    3    0  502 -0.57277863693E+02  0.34484193820E+03 -0.46708352300E+02  0.35267320030E+03  0.50400001928E-02 0.  1.
</event>
<event>
 5   0  0.2008770E-02  0.8856211E+03  0.7818609E-02  0.9443736E-01
        2   -1    0    0  501    0  0.00000000000E+00  0.00000000000E+00  0.17872951941E+04  0.17872951941E+04  0.25500000920E-02 0.  1.
       -2   -1    0    0    0  501  0.00000000000E+00  0.00000000000E+00 -0.10970833273E+03  0.10970833276E+03  0.25500000920E-02 0. -1.
    10030    2    1    2    0    0  0.00000000000E+00  0.00000000000E+00  0.16775868614E+04  0.18970035269E+04  0.88562108349E+03 0.  0.
        1    1    3    3  502    0  0.20571714056E+03 -0.12176653556E+03  0.16372022260E+04  0.16545627095E+04  0.50400001928E-02 0.  1.
       -1    1    3    3    0  502 -0.20571714056E+03  0.12176653556E+03  0.40384635407E+02  0.24244081732E+03  0.50400001928E-02 0. -1.
</event>
<event>
 5   0  0.2041861E-02  0.8876144E+03  0.7818609E-02  0.9441198E-01
       -2   -1    0    0    0  501  0.00000000000E+00  0.00000000000E+00  0.20171499719E+03  0.20171499720E+03  0.25500000920E-02 0.  1.
        2   -1    0    0  501    0  0.00000000000E+00  0.00000000000E+00 -0.97645109661E+03  0.97645109662E+03  0.25500000920E-02 0. -1.
    10030    2    1    2    0    0  0.00000000000E+00  0.00000000000E+00 -0.77473609943E+03  0.11781660938E+04  0.88761439876E+03 0.  0.
        5    1    3    3  502    0 -0.10293517800E+03  0.23359660345E+02  0.18477771931E+03  0.21285257845E+03  0.46999998093E+01 0.  1.
       -5    1    3    3    0  502  0.10293517800E+03 -0.23359660345E+02 -0.95951381874E+03  0.96531351537E+03  0.46999998093E+01 0. -1.
</event>
<event>
 5   0  0.2008770E-02  0.8777903E+03  0.7818609E-02  0.9453779E-01
        2   -1    0    0  501    0  0.00000000000E+00  0.00000000000E+00  0.10750281152E+04  0.10750281152E+04  0.25500000920E-02 0. -1.
       -2   -1    0    0    0  501  0.00000000000E+00  0.00000000000E+00 -0.17918502425E+03  0.17918502426E+03  0.25500000920E-02 0.  1.
    10030    2    1    2    0    0  0.00000000000E+00  0.00000000000E+00  0.89584309094E+03  0.12542131394E+04  0.87779026857E+03 0.  0.
        1    1    3    3  502    0  0.81316655035E+02  0.41812161697E+03  0.59907295361E+03  0.73506903672E+03  0.50400001928E-02 0. -1.
       -1    1    3    3    0  502 -0.81316655035E+02 -0.41812161697E+03  0.29677013733E+03  0.51914410273E+03  0.50400001928E-02 0.  1.
</event>
<event>
 5   0  0.1175993E-02  0.8826476E+03  0.7818609E-02  0.9447537E-01
       -1   -1    0    0    0  501  0.00000000000E+00  0.00000000000E+00  0.10787364341E+04  0.10787364341E+04  0.50400001928E-02 0.  1.
        1   -1    0    0  501    0  0.00000000000E+00  0.00000000000E+00 -0.18055076848E+03  0.18055076855E+03  0.50400001928E-02 0. -1.
    10030    2    1    2    0    0  0.00000000000E+00  0.00000000000E+00  0.89818566557E+03  0.12592872026E+04  0.88264759039E+03 0.  0.
        4    1    3    3  502    0 -0.64141404222E+02 -0.27077332321E+03 -0.39612531677E+02  0.28107486167E+03  0.12699999809E+01 0. -1.
       -4    1    3    3    0  502  0.64141404222E+02  0.27077332321E+03  0.93779819725E+03  0.97821234094E+03  0.12699999809E+01 0.  1.
</event>
<event>
 5   0  0.1226424E-02  0.9078971E+03  0.7818609E-02  0.9415763E-01
       -1   -1    0    0    0  501  0.00000000000E+00  0.00000000000E+00  0.25704653572E+03  0.25704653577E+03  0.50400001928E-02 0.  1.
        1   -1    0    0  501    0  0.00000000000E+00  0.00000000000E+00 -0.80168090179E+03  0.80168090181E+03  0.50400001928E-02 0. -1.
    10030    2    1    2    0    0  0.00000000000E+00  0.00000000000E+00 -0.54463436608E+03  0.10587274376E+04  0.90789712763E+03 0.  0.
        1    1    3    3  502    0 -0.36151621755E+03  0.23796431652E+03 -0.43198910585E+03  0.61150272206E+03  0.50400001928E-02 0. -1.
       -1    1    3    3    0  502  0.36151621755E+03 -0.23796431652E+03 -0.11264526023E+03  0.44722471551E+03  0.50400001928E-02 0.  1.
</event>
<event>
 5   0  0.1226424E-02  0.9001272E+03  0.7818609E-02  0.9425422E-01
        1   -1    0    0  501    0  0.00000000000E+00  0.00000000000E+00  0.15417659729E+04  0.15417659729E+04  0.50400001928E-02 0.  1.
       -1   -1    0    0    0  501  0.00000000000E+00  0.00000000000E+00 -0.13138002847E+03  0.13138002856E+03  0.50400001928E-02 0. -1.
    10030    2    1    2    0    0  0.00000000000E+00  0.00000000000E+00  0.14103859444E+04  0.16731460015E+04  0.90012722988E+03 0.  0.
        1    1    3    3  502    0 -0.12676907329E+03  0.42610717318E+03  0.57481865914E+03  0.72667338736E+03  0.50400001928E-02 0. -1.
       -1    1    3    3    0  502  0.12676907329E+03 -0.42610717318E+03  0.83556728528E+03  0.94647261409E+03  0.50400001928E-02 0.  1.
</event>
<event>
 5   0  0.2041861E-02  0.8942534E+03  0.7818609E-02  0.9432794E-01
        2   -1    0    0  501    0  0.00000000000E+00  0.00000000000E+00  0.94403654017E+03  0.94403654018E+03  0.25500000920E-02 0.  1.
       -2   -1    0    0    0  501  0.00000000000E+00  0.00000000000E+00 -0.21177389277E+03  0.21177389278E+03  0.25500000920E-02 0. -1.
    10030    2    1    2    0    0  0.00000000000E+00  0.00000000000E+00  0.73226264740E+03  0.11558104330E+04  0.89425341607E+03 0.  0.
        5    1    3    3  502    0  0.17643082602E+03 -0.41131499943E+02  0.89444149482E+03  0.91261564435E+03  0.46999998093E+01 0.  1.
       -5    1    3    3    0  502 -0.17643082602E+03  0.41131499943E+02 -0.16217884742E+03  0.24319478861E+03  0.46999998093E+01 0. -1.
</event>
<event>
 5   0  0.2008770E-02  0.9014755E+03  0.7818609E-02  0.9423739E-01
        2   -1    0    0  501    0  0.00000000000E+00  0.00000000000E+00  0.31382815975E+03  0.31382815976E+03  0.25500000920E-02 0. -1.
       -2   -1    0    0    0  501  0.00000000000E+00  0.00000000000E+00 -0.64737503573E+03  0.64737503573E+03  0.25500000920E-02 0.  1.
    10030    2    1    2    0    0  0.00000000000E+00  0.00000000000E+00 -0.33354687598E+03  0.96120319549E+03  0.90147549303E+03 0.  0.
        1    1    3    3  502    0 -0.33364326986E+03  0.13512459153E+03  0.12247090087E+03  0.38023099341E+03  0.50400001928E-02 0. -1.
       -1    1    3    3    0  502  0.33364326986E+03 -0.13512459153E+03 -0.45601777685E+03  0.58097220208E+03  0.50400001928E-02 0.  1.
</event>
<event>
 5   0  0.1206541E-02  0.9040776E+03  0.7818609E-02  0.9420499E-01
       -1   -1    0    0    0  501  0.00000000000E+00  0.00000000000E+00  0.35463127350E+03  0.35463127354E+03  0.50400001928E-02 0.  1.
        1   -1    0    0  501    0  0.00000000000E+00  0.00000000000E+00 -0.57620145090E+03  0.57620145092E+03  0.50400001928E-02 0. -1.
    10030    2    1    2    0    0  0.00000000000E+00  0.00000000000E+00 -0.22157017739E+03  0.93083272446E+03  0.90407755055E+03 0.  0.
        3    1    3    3  502    0 -0.52454157183E+02  0.78330539677E+02 -0.56596799212E+03  0.57376553605E+03  0.10100000352E+00 0. -1.
       -3    1    3    3    0  502  0.52454157183E+02 -0.78330539677E+02  0.34439781472E+03  0.35706718841E+03  0.10100000352E+00 0.  1.
</event>
<event>
 5   0  0.1206541E-02  0.8952827E+03  0.7818609E-02  0.9431498E-01
        1   -1    0    0  501    0  0.00000000000E+00  0.00000000000E+00  0.17340545457E+04  0.17340545458E+04  0.50400001928E-02 0.  1.
       -1   -1    0    0    0  501  0.00000000000E+00  0.00000000000E+00 -0.11555735476E+03  0.11555735487E+03  0.50400001928E-02 0. -1.
    10030    2    1    2    0    0  0.00000000000E+00  0.00000000000E+00  0.16184971910E+04  0.18496119006E+04  0.89528265128E+03 0.  0.
        3    1    3    3  502    0  0.12535373872E+03  0.42927471758E+03  0.85017341203E+03  0.96061708484E+03  0.10100000352E+00 0. -1.
       -3    1    3    3    0  502 -0.12535373872E+03 -0.42927471758E+03  0.76832377896E+03  0.88899481578E+03  0.10100000352E+00 0.  1.
</event>
<event>
 5   0  0.2008770E-02  0.8955031E+03  0.7818609E-02  0.9431220E-01
       -2   -1    0    0    0  501  0.00000000000E+00  0.00000000000E+00  0.26016520650E+03  0.26016520651E+03  0.25500000920E-02 0.  1.
        2   -1    0    0  501    0  0.00000000000E+00  0.00000000000E+00 -0.77059283193E+03  0.77059283193E+03  0.25500000920E-02 0. -1.
    10030    2    1    2    0    0  0.00000000000E+00  0.00000000000E+00 -0.51042762543E+03  0.10307580384E+04  0.89550308376E+03 0.  0.
        1    1    3    3  502    0 -0.98907469343E+02  0.11152494817E+03 -0.74119308103E+03  0.75603418240E+03  0.50400001928E-02 0. -1.
       -1    1    3    3    0  502  0.98907469343E+02 -0.11152494817E+03  0.23076545560E+03  0.27472385605E+03  0.50400001928E-02 0.  1.
</event>
<event>
 5   0  0.1226424E-02  0.8782681E+03  0.7818609E-02  0.9453163E-01
       -1   -1    0    0    0  501  0.00000000000E+00  0.00000000000E+00  0.16725954726E+04  0.16725954726E+04  0.50400001928E-02 0. -1.
        1   -1    0    0  501    0  0.00000000000E+00  0.00000000000E+00 -0.11529308660E+03  0.11529308671E+03  0.50400001928E-02 0.  1.
    10030    2    1    2    0    0  0.00000000000E+00  0.00000000000E+00  0.15573023860E+04  0.17878885593E+04  0.87826805652E+03 0.  0.
        1    1    3    3  502    0 -0.12026538193E+03 -0.30053799160E+03  0.13827146952E+04  0.14201009735E+04  0.50400001928E-02 0. -1.
       -1    1    3    3    0  502  0.12026538193E+03  0.30053799160E+03  0.17458769073E+03  0.36778758580E+03  0.50400001928E-02 0.  1.
</event>
<event>
 5   0  0.1162839E-02  0.9045109E+03  0.7818609E-02  0.9419960E-01
        1   -1    0    0  501    0  0.00000000000E+00  0.00000000000E+00  0.48505885680E+03  0.48505885683E+03  0.50400001928E-02 0.  1.
       -1   -1    0    0    0  501  0.00000000000E+00  0.00000000000E+00 -0.42167043120E+03  0.42167043123E+03  0.50400001928E-02 0. -1.
    10030    2    1    2    0    0  0.00000000000E+00  0.00000000000E+00  0.63388425603E+02  0.90672928806E+03  0.90451086744E+03 0.  0.
        2    1    3    3  502    0  0.30235818127E+03  0.18648063236E+03  0.31227259107E+03  0.47297956316E+03  0.25500000920E-02 0.  1.
       -2    1    3    3    0  502 -0.30235818127E+03 -0.18648063236E+03 -0.24888416547E+03  0.43374972490E+03  0.25500000920E-02 0. -1.
</event>
<event>
 5   0  0.1175993E-02  0.8984403E+03  0.7818609E-02  0.9427533E-01
       -1   -1    0    0    0  501  0.00000000000E+00  0.00000000000E+00  0.77553985852E+03  0.77553985854E+03  0.50400001928E-02 0.  1.
        1   -1    0    0  501    0  0.00000000000E+00  0.00000000000E+00 -0.26020423371E+03  0.26020423376E+03  0.50400001928E-02 0. -1.
    10030    2    1    2    0    0  0.00000000000E+00  0.00000000000E+00  0.51533562481E+03  0.10357440923E+04  0.89844032553E+03 0.  0.
        4    1    3    3  502    0 -0.37318507526E+03 -0.12664862070E+03  0.91006313531E+01  0.39419716882E+03  0.12699999809E+01 0.  1.
       -4    1    3    3    0  502  0.37318507526E+03  0.12664862070E+03  0.50623499346E+03  0.64154692347E+03  0.12699999809E+01 0. -1.
</event>
<event>
 5   0  0.1162839E-02  0.9002727E+03  0.7818609E-02  0.9425241E-01
        1   -1    0    0  501    0  0.00000000000E+00  0.00000000000E+00  0.12462670628E+04  0.12462670628E+04  0.50400001928E-02 0.  1.
       -1   -1    0    0    0  501  0.00000000000E+00  0.00000000000E+00 -0.16258372747E+03  0.16258372754E+03  0.50400001928E-02 0. -1.
    10030    2    1    2    0    0  0.00000000000E+00  0.00000000000E+00  0.10836833353E+04  0.14088507904E+04  0.90027272435E+03 0.  0.
        2    1    3    3  502    0  0.16765597475E+03 -0.41952967105E+02 -0.10859523587E+03  0.20411149546E+03  0.25500000920E-02 0. -1.
       -2    1    3    3    0  502 -0.16765597475E+03  0.41952967105E+02  0.11922785712E+04  0.12047392949E+04  0.25500000920E-02 0.  1.
</event>
<event>
 5   0  0.1226424E-02  0.9038937E+03  0.7818609E-02  0.9420727E-01
        1   -1    0    0  501    0  0.00000000000E+00  0.00000000000E+00  0.31146877865E+03  0.31146877869E+03  0.50400001928E-02 0. -1.
       -1   -1    0    0    0  501  0.00000000000E+00  0.00000000000E+00 -0.65578304256E+03  0.65578304258E+03  0.50400001928E-02 0.  1.
    10030    2    1    2    0    0  0.00000000000E+00  0.00000000000E+00 -0.34431426391E+03  0.96725182127E+03  0.90389367374E+03 0.  0.
        1    1    3    3  502    0 -0.14917271371E+03 -0.37221125266E+03 -0.39524615583E+03  0.56303928713E+03  0.50400001928E-02 0.  1.
       -1    1    3    3    0  502  0.14917271371E+03  0.37221125266E+03  0.50931891919E+02  0.40421253415E+03  0.50400001928E-02 0. -1.
</event>
<event>
 5   0  0.1206541E-02  0.9047581E+03  0.7818609E-02  0.9419653E-01
       -1   -1    0    0    0  501  0.00000000000E+00  0.00000000000E+00  0.64085703154E+03  0.64085703156E+03  0.50400001928E-02 0. -1.
        1   -1    0    0  501    0  0.00000000000E+00  0.00000000000E+00 -0.31933298495E+03  0.31933298499E+03  0.50400001928E-02 0.  1.
    10030    2    1    2    0    0  0.00000000000E+00  0.00000000000E+00  0.32152404658E+03  0.96019001655E+03  0.90475806454E+03 0.  0.
        3    1    3    3  502    0 -0.93644888303E+02  0.38091572423E+03 -0.78389825350E+02  0.40001391100E+03  0.10100000352E+00 0.  1.
       -3    1    3    3    0  502  0.93644888303E+02 -0.38091572423E+03  0.39991387193E+03  0.56017610556E+03  0.10100000352E+00 0. -1.
</event>
<event>
 5   0  0.1175993E-02  0.9033735E+03  0.7818609E-02  0.9421374E-01
       -1   -1    0    0    0  501  0.00000000000E+00  0.00000000000E+00  0.25487761662E+03  0.25487761667E+03  0.50400001928E-02 0. -1.
        1   -1    0    0  501    0  0.00000000000E+00  0.00000000000E+00 -0.80046622014E+03  0.80046622016E+03  0.50400001928E-02 0.  1.
    10030    2    1    2    0    0  0.00000000000E+00  0.00000000000E+00 -0.54558860353E+03  0.10553438368E+04  0.90337350505E+03 0.  0.
        4    1    3    3  502    0  0.20050307878E+03  0.19920572946E+03  0.13880400784E+03  0.31488501512E+03  0.12699999809E+01 0. -1.
       -4    1    3    3    0  502 -0.20050307878E+03 -0.19920572946E+03 -0.68439261137E+03  0.74045882171E+03  0.12699999809E+01 0.  1.
</event>
<event>
 5   0  0.2008643E-02  0.8895415E+03  0.7818609E-02  0.9438750E-01
        2   -1    0    0  501    0  0.00000000000E+00  0.00000000000E+00  0.15118866869E+04  0.15118866869E+04  0.25500000920E-02 0.  1.
       -2   -1    0    0    0  501  0.00000000000E+00  0.00000000000E+00 -0.13084381816E+03  0.13084381819E+03  0.25500000920E-02 0. -1.
    10030    2    1    2    0    0  0.00000000000E+00  0.00000000000E+00  0.13810428687E+04  0.16427305051E+04  0.88954151508E+03 0.  0.
        3    1    3    3  502    0 -0.36658984032E+03  0.20516293691E+03  0.42074236947E+03  0.59456210221E+03  0.10100000352E+00 0. -1.
       -3    1    3    3    0  502  0.36658984032E+03 -0.20516293691E+03  0.96030049923E+03  0.10481684029E+04  0.10100000352E+00 0.  1.
</event>
<event>
 5   0  0.1162839E-02  0.9566300E+03  0.7818609E-02  0.9357435E-01
        1   -1    0    0  501    0  0.00000000000E+00  0.00000000000E+00  0.23556685585E+04  0.23556685585E+04  0.50400001928E-02 0.  1.
       -1   -1    0    0    0  501  0.00000000000E+00  0.00000000000E+00 -0.97121149298E+02  0.97121149429E+02  0.50400001928E-02 0. -1.
    10030    2    1    2    0    0  0.00000000000E+00  0.00000000000E+00  0.22585474092E+04  0.24527897079E+04  0.95662999730E+03 0.  0.
        2    1    3    3  502    0  0.43337085923E+03 -0.18459177403E+03  0.91628015188E+03  0.10302687714E+04  0.25500000920E-02 0. -1.
       -2    1    3    3    0  502 -0.43337085923E+03  0.18459177403E+03  0.13422672573E+04  0.14225209365E+04  0.25500000920E-02 0.  1.
</event>
<event>
 5   0  0.1206541E-02  0.9186346E+03  0.7818609E-02  0.9402582E-01
       -1   -1    0    0    0  501  0.00000000000E+00  0.00000000000E+00  0.19807260663E+03  0.19807260669E+03  0.50400001928E-02 0.  1.
        1   -1    0    0  501    0  0.00000000000E+00  0.00000000000E+00 -0.10651264408E+04  0.10651264408E+04  0.50400001928E-02 0. -1.
    10030    2    1    2    0    0  0.00000000000E+00  0.00000000000E+00 -0.86705383416E+03  0.12631990475E+04  0.91863457493E+03 0.  0.
        3    1    3    3  502    0 -0.82023609426E+02  0.23401471106E+03 -0.96517331470E+03  0.99651908919E+03  0.10100000352E+00 0. -1.
       -3    1    3    3    0  502  0.82023609426E+02 -0.23401471106E+03  0.98119480547E+02  0.26667995830E+03  0.10100000352E+00 0.  1.
</event>
<event>
 5   0  0.7893875E-03  0.9028812E+03  0.7818609E-02  0.9421987E-01
       -4   -1    0    0    0  501  0.00000000000E+00  0.00000000000E+00  0.41292026519E+03  0.41292221823E+03  0.12699999809E+01 0.  1.
        4   -1    0    0  501    0  0.00000000000E+00  0.00000000000E+00 -0.49355046669E+03  0.49355210066E+03  0.12699999809E+01 0. -1.
    10030    2    1    2    0    0  0.00000000000E+00  0.00000000000E+00 -0.80630201498E+02  0.90647431889E+03  0.90288120006E+03 0.  0.
        1    1    3    3  502    0  0.40577310798E+03  0.12825315182E+03  0.11094278069E+03  0.43978288589E+03  0.50400001928E-02 0.  1.
       -1    1    3    3    0  502 -0.40577310798E+03 -0.12825315182E+03 -0.19157298218E+03  0.46669143300E+03  0.50400001928E-02 0. -1.
</event>
<event>
 5   0  0.2008770E-02  0.8796762E+03  0.7818609E-02  0.9451350E-01
        2   -1    0    0  501    0  0.00000000000E+00  0.00000000000E+00  0.12485136960E+04  0.12485136960E+04  0.25500000920E-02 0.  1.
       -2   -1    0    0    0  501  0.00000000000E+00  0.00000000000E+00 -0.15495030319E+03  0.15495030321E+03  0.25500000920E-02 0. -1.
    10030    2    1    2    0    0  0.00000000000E+00  0.00000000000E+00  0.10935633929E+04  0.14034639993E+04  0.87967624897E+03 0.  0.
        1    1    3    3  502    0  0.10474819976E+03 -0.76518156939E+02  0.12173006987E+04  0.12241928789E+04  0.50400001928E-02 0.  1.
       -1    1    3    3    0  502 -0.10474819976E+03  0.76518156939E+02 -0.12373730586E+03  0.17927112032E+03  0.50400001928E-02 0. -1.
</event>
<event>
 5   0  0.7893875E-03  0.8996836E+03  0.7818609E-02  0.9425977E-01
       -3   -1    0    0    0  501  0.00000000000E+00  0.00000000000E+00  0.15050238341E+04  0.15050238375E+04  0.10100000352E+00 0. -1.
        3   -1    0    0  501    0  0.00000000000E+00  0.00000000000E+00 -0.13445475905E+03  0.13445479698E+03  0.10100000352E+00 0.  1.
    10030    2    1    2    0    0  0.00000000000E+00  0.00000000000E+00  0.13705690751E+04  0.16394786345E+04  0.89968361294E+03 0.  0.
        3    1    3    3  502    0 -0.16564807505E+03  0.33667618663E+03  0.23312498015E+03  0.44174359756E+03  0.10100000352E+00 0.  1.
       -3    1    3    3    0  502  0.16564807505E+03 -0.33667618663E+03  0.11374440949E+04  0.11977350369E+04  0.10100000352E+00 0. -1.
</event>
<event>
 5   0  0.1226424E-02  0.8871480E+03  0.7818609E-02  0.9441791E-01
       -1   -1    0    0    0  501  0.00000000000E+00  0.00000000000E+00  0.19983406860E+03  0.19983406867E+03  0.50400001928E-02 0.  1.
        1   -1    0    0  501    0  0.00000000000E+00  0.00000000000E+00 -0.98460640985E+03  0.98460640986E+03  0.50400001928E-02 0. -1.
    10030    2    1    2    0    0  0.00000000000E+00  0.00000000000E+00 -0.78477234125E+03  0.11844404785E+04  0.88714802575E+03 0.  0.
        1    1    3    3  502    0  0.27118955992E+03 -0.22147111868E+03 -0.75597931682E+03  0.83312541751E+03  0.50400001928E-02 0. -1.
       -1    1    3    3    0  502 -0.27118955992E+03  0.22147111868E+03 -0.28793024427E+02  0.35131506102E+03  0.50400001928E-02 0.  1.
</event>
<event>
 5   0  0.1968763E-02  0.9118070E+03  0.7818609E-02  0.9410941E-01
        2   -1    0    0  501    0  0.00000000000E+00  0.00000000000E+00  0.30900164222E+03  0.30900164223E+03  0.25500000920E-02 0. -1.
       -2   -1    0    0    0  501  0.00000000000E+00  0.00000000000E+00 -0.67264368844E+03  0.67264368845E+03  0.25500000920E-02 0.  1.
    10030    2    1    2    0    0  0.00000000000E+00  0.00000000000E+00 -0.36364204623E+03  0.98164533068E+03  0.91180700669E+03 0.  0.
        2    1    3    3  502    0 -0.22106439256E+03 -0.28519652177E+03  0.11816332112E+03  0.37969605233E+03  0.25500000920E-02 0. -1.
       -2    1    3    3    0  502  0.22106439256E+03  0.28519652177E+03 -0.48180536735E+03  0.60194927835E+03  0.25500000920E-02 0.  1.
</event>
<event>
 5   0  0.1177712E-02  0.9028930E+03  0.7818609E-02  0.9421972E-01
       -1   -1    0    0    0  501  0.00000000000E+00  0.00000000000E+00  0.10766987367E+04  0.10766987367E+04  0.50400001928E-02 0. -1.
        1   -1    0    0  501    0  0.00000000000E+00  0.00000000000E+00 -0.18928594881E+03  0.18928594888E+03  0.50400001928E-02 0.  1.
    10030    2    1    2    0    0  0.00000000000E+00  0.00000000000E+00  0.88741278788E+03  0.12659846856E+04  0.90289299922E+03 0.  0.
        5    1    3    3  502    0  0.41727178519E+03 -0.11562242205E+03  0.62270659753E+03  0.75846547964E+03  0.46999998093E+01 0. -1.
       -5    1    3    3    0  502 -0.41727178519E+03  0.11562242205E+03  0.26470619035E+03  0.50751920595E+03  0.46999998093E+01 0.  1.
</event>
<event>
 5   0  0.1175993E-02  0.9015945E+03  0.7818609E-02  0.9423590E-01
       -1   -1    0    0    0  501  0.00000000000E+00  0.00000000000E+00  0.36122217937E+03  0.36122217941E+03  0.50400001928E-02 0.  1.
        1   -1    0    0  501    0  0.00000000000E+00  0.00000000000E+00 -0.56258498238E+03  0.56258498240E+03  0.50400001928E-02 0. -1.
    10030    2    1    2    0    0  0.00000000000E+00  0.00000000000E+00 -0.20136280301E+03  0.92380716181E+03  0.90159452848E+03 0.  0.
        4    1    3    3  502    0 -0.67298448821E+02  0.18617957835E+03  0.31429615506E+03  0.37145067317E+03  0.12699999809E+01 0.  1.
       -4    1    3    3    0  502  0.67298448821E+02 -0.18617957835E+03 -0.51565895807E+03  0.55235648865E+03  0.12699999809E+01 0. -1.
</event>
<event>
 5   0  0.1206541E-02  0.8952100E+03  0.7818609E-02  0.9431589E-01
       -1   -1    0    0    0  501  0.00000000000E+00  0.00000000000E+00  0.25442081366E+03  0.25442081371E+03  0.50400001928E-02 0.  1.
        1   -1    0    0  501    0  0.00000000000E+00  0.00000000000E+00 -0.78747572357E+03  0.78747572359E+03  0.50400001928E-02 0. -1.
    10030    2    1    2    0    0  0.00000000000E+00  0.00000000000E+00 -0.53305490991E+03  0.10418965373E+04  0.89520995160E+03 0.  0.
        3    1    3    3  502    0 -0.85062549213E+02  0.37316800586E+03  0.35782141747E+01  0.38275685715E+03  0.10100000352E+00 0.  1.
       -3    1    3    3    0  502  0.85062549213E+02 -0.37316800586E+03 -0.53663312409E+03  0.65913968015E+03  0.10100000352E+00 0. -1.
</event>
<event>
 5   0  0.7893875E-03  0.9027164E+03  0.7818609E-02  0.9422192E-01
       -3   -1    0    0    0  501  0.00000000000E+00  0.00000000000E+00  0.44290863009E+03  0.44290864161E+03  0.10100000352E+00 0.  1.
        3   -1    0    0  501    0  0.00000000000E+00  0.00000000000E+00 -0.45996899330E+03  0.45996900438E+03  0.10100000352E+00 0. -1.
    10030    2    1    2    0    0  0.00000000000E+00  0.00000000000E+00 -0.17060363205E+02  0.90287764599E+03  0.90271644919E+03 0.  0.
        4    1    3    3  502    0  0.28198715573E+03  0.30702436658E+03 -0.18159840707E+03  0.45470904106E+03  0.12699999809E+01 0. -1.
       -4    1    3    3    0  502 -0.28198715573E+03 -0.30702436658E+03  0.16453804386E+03  0.44816860493E+03  0.12699999809E+01 0.  1.
</event>
<event>
 5   0  0.2008643E-02  0.8976332E+03  0.7818609E-02  0.9428545E-01
       -2   -1    0    0    0  501  0.00000000000E+00  0.00000000000E+00  0.22102927802E+03  0.22102927803E+03  0.25500000920E-02 0. -1.
        2   -1    0    0  501    0  0.00000000000E+00  0.00000000000E+00 -0.91135588187E+03  0.91135588187E+03  0.25500000920E-02 0.  1.
    10030    2    1    2    0    0  0.00000000000E+00  0.00000000000E+00 -0.69032660385E+03  0.11323851599E+04  0.89763318253E+03 0.  0.
        3    1    3    3  502    0  0.29752671521E+03  0.31764546478E+03 -0.48344567507E+03  0.65049251994E+03  0.10100000352E+00 0. -1.
       -3    1    3    3    0  502 -0.29752671521E+03 -0.31764546478E+03 -0.20688092879E+03  0.48189263996E+03  0.10100000352E+00 0.  1.
</event>
<event>
 5   0  0.1924218E-02  0.8873266E+03  0.7818609E-02  0.9441564E-01
       -2   -1    0    0    0  501  0.00000000000E+00  0.00000000000E+00  0.37343807989E+03  0.37343807990E+03  0.25500000920E-02 0.  1.
        2   -1    0    0  501    0  0.00000000000E+00  0.00000000000E+00 -0.52709441014E+03  0.52709441015E+03  0.25500000920E-02 0. -1.
    10030    2    1    2    0    0  0.00000000000E+00  0.00000000000E+00 -0.15365633026E+03  0.90053249005E+03  0.88732660154E+03 0.  0.
        4    1    3    3  502    0 -0.37072036124E+03 -0.52663472220E+02  0.16468085300E+03  0.40905797119E+03  0.12699999809E+01 0.  1.
       -4    1    3    3    0  502  0.37072036124E+03  0.52663472220E+02 -0.31833718326E+03  0.49147451886E+03  0.12699999809E+01 0. -1.
</event>
<event>
 5   0  0.1175993E-02  0.9094882E+03  0.7818609E-02  0.9413798E-01
       -1   -1    0    0    0  501  0.00000000000E+00  0.00000000000E+00  0.18271617925E+03  0.18271617932E+03  0.50400001928E-02 0. -1.
        1   -1    0    0  501    0  0.00000000000E+00  0.00000000000E+00 -0.11317673950E+04  0.11317673950E+04  0.50400001928E-02 0.  1.
    10030    2    1    2    0    0  0.00000000000E+00  0.00000000000E+00 -0.94905121573E+03  0.13144835743E+04  0.90948823910E+03 0.  0.
        4    1    3    3  502    0 -0.13750986289E+03  0.14376786105E+03 -0.10655322607E+04  0.10839459266E+04  0.12699999809E+01 0.  1.
       -4    1    3    3    0  502  0.13750986289E+03 -0.14376786105E+03  0.11648104501E+03  0.23053764770E+03  0.12699999809E+01 0. -1.
</event>
<event>
 5   0  0.1177712E-02  0.8290182E+03  0.7818609E-02  0.9518939E-01
        1   -1    0    0  501    0  0.00000000000E+00  0.00000000000E+00  0.10550042819E+04  0.10550042819E+04  0.50400001928E-02 0. -1.
       -1   -1    0    0    0  501  0.00000000000E+00  0.00000000000E+00 -0.16285981196E+03  0.16285981204E+03  0.50400001928E-02 0.  1.
    10030    2    1    2    0    0  0.00000000000E+00  0.00000000000E+00  0.89214446996E+03  0.12178640940E+04  0.82901821218E+03 0.  0.
        5    1    3    3  502    0  0.38806776234E+03 -0.72220687554E+02  0.63179617467E+03  0.74498383352E+03  0.46999998093E+01 0.  1.
       -5    1    3    3    0  502 -0.38806776234E+03  0.72220687554E+02  0.26034829529E+03  0.47288026047E+03  0.46999998093E+01 0. -1.
</event>
<event>
 5   0  0.2008643E-02  0.8967350E+03  0.7818609E-02  0.9429672E-01
        2   -1    0    0  501    0  0.00000000000E+00  0.00000000000E+00  0.21104433672E+04  0.21104433672E+04  0.25500000920E-02 0. -1.
       -2   -1    0    0    0  501  0.00000000000E+00  0.00000000000E+00 -0.95256492530E+02  0.95256492564E+02  0.25500000920E-02 0.  1.
    10030    2    1    2    0    0  0.00000000000E+00  0.00000000000E+00  0.20151868746E+04  0.22056998597E+04  0.89673503975E+03 0.  0.
        3    1    3    3  502    0 -0.20172636420E+03 -0.25237750293E+03  0.24292515285E+03  0.40422836378E+03  0.10100000352E+00 0.  1.
       -3    1    3    3    0  502  0.20172636420E+03  0.25237750293E+03  0.17722617218E+04  0.18014714960E+04  0.10100000352E+00 0. -1.
</event>
<event>
 5   0  0.1162839E-02  0.9067006E+03  0.7818609E-02  0.9417244E-01
        1   -1    0    0  501    0  0.00000000000E+00  0.00000000000E+00  0.55254959327E+03  0.55254959329E+03  0.50400001928E-02 0. -1.
       -1   -1    0    0    0  501  0.00000000000E+00  0.00000000000E+00 -0.37196027951E+03  0.37196027954E+03  0.50400001928E-02 0.  1.
    10030    2    1    2    0    0  0.00000000000E+00  0.00000000000E+00  0.18058931376E+03  0.92450987283E+03  0.90670061471E+03 0.  0.
        2    1    3    3  502    0  0.86211335307E+02 -0.17924421434E+03 -0.32509598423E+03  0.38111452567E+03  0.25500000920E-02 0.  1.
       -2    1    3    3    0  502 -0.86211335307E+02  0.17924421434E+03  0.50568529799E+03  0.54339534716E+03  0.25500000920E-02 0. -1.
</event>
<event>
 5   0  0.2008643E-02  0.8899287E+03  0.7818609E-02  0.9438259E-01
        2   -1    0    0  501    0  0.00000000000E+00  0.00000000000E+00  0.21072382999E+04  0.21072382999E+04  0.25500000920E-02 0. -1.
       -2   -1    0    0    0  501  0.00000000000E+00  0.00000000000E+00 -0.93958648564E+02  0.93958648598E+02  0.25500000920E-02 0.  1.
    10030    2    1    2    0    0  0.00000000000E+00  0.00000000000E+00  0.20132796513E+04  0.22011969485E+04  0.88992867781E+03 0.  0.
        3    1    3    3  502    0 -0.15826091929E+02 -0.38087992542E+03  0.43896603954E+03  0.58138728645E+03  0.10100000352E+00 0.  1.
       -3    1    3    3    0  502  0.15826091929E+02  0.38087992542E+03  0.15743136118E+04  0.16198096620E+04  0.10100000352E+00 0. -1.
</event>
<event>
 5   0  0.1177712E-02  0.8558947E+03  0.7818609E-02  0.9482459E-01
       -1   -1    0    0    0  501  0.00000000000E+00  0.00000000000E+00  0.48456324447E+03  0.48456324450E+03  0.50400001928E-02 0. -1.
        1   -1    0    0  501    0  0.00000000000E+00  0.00000000000E+00 -0.37794639357E+03  0.37794639360E+03  0.50400001928E-02 0.  1.
    10030    2    1    2    0    0  0.00000000000E+00  0.00000000000E+00  0.10661685090E+03  0.86250963810E+03  0.85589469149E+03 0.  0.
        5    1    3    3  502    0 -0.52054018461E+02  0.17069425200E+03  0.44524971859E+03  0.47970360683E+03  0.46999998093E+01 0. -1.
       -5    1    3    3    0  502  0.52054018461E+02 -0.17069425200E+03 -0.33863286769E+03  0.38280603127E+03  0.46999998093E+01 0.  1.
</event>
<event>
 5   0  0.1162839E-02  0.9402347E+03  0.7818609E-02  0.9376638E-01
       -1   -1    0    0    0  501  0.00000000000E+00  0.00000000000E+00  0.40829019496E+03  0.40829019499E+03  0.50400001928E-02 0. -1.
        1   -1    0    0  501    0  0.00000000000E+00  0.00000000000E+00 -0.54130698834E+03  0.54130698837E+03  0.50400001928E-02 0.  1.
    10030    2    1    2    0    0  0.00000000000E+00  0.00000000000E+00 -0.13301679339E+03  0.94959718336E+03  0.94023472778E+03 0.  0.
        2    1    3    3  502    0  0.17613280873E+03  0.10414854806E+03 -0.49397304304E+03  0.53467658788E+03  0.25500000920E-02 0.  1.
       -2    1    3    3    0  502 -0.17613280873E+03 -0.10414854806E+03  0.36095624965E+03  0.41492059547E+03  0.25500000920E-02 0. -1.
</event>
<event>
 5   0  0.2041861E-02  0.9028878E+03  0.7818609E-02  0.9421979E-01
       -2   -1    0    0    0  501  0.00000000000E+00  0.00000000000E+00  0.30271427747E+03  0.30271427749E+03  0.25500000920E-02 0. -1.
        2   -1    0    0  501    0  0.00000000000E+00  0.00000000000E+00 -0.67324734772E+03  0.67324734772E+03  0.25500000920E-02 0.  1.
    10030    2    1    2    0    0  0.00000000000E+00  0.00000000000E+00 -0.37053307024E+03  0.97596162521E+03  0.90288777693E+03 0.  0.
        5    1    3    3  502    0 -0.24301607958E+03  0.25798673989E+03 -0.48747497080E+03  0.60271710616E+03  0.46999998093E+01 0.  1.
       -5    1    3    3    0  502  0.24301607958E+03 -0.25798673989E+03  0.11694190056E+03  0.37324451905E+03  0.46999998093E+01 0. -1.
</event>
<event>
 5   0  0.1226424E-02  0.8724034E+03  0.7818609E-02  0.9460752E-01
       -1   -1    0    0    0  501  0.00000000000E+00  0.00000000000E+00  0.16192273544E+03  0.16192273552E+03  0.50400001928E-02 0. -1.
        1   -1    0    0  501    0  0.00000000000E+00  0.00000000000E+00 -0.11750783669E+04  0.11750783669E+04  0.50400001928E-02 0.  1.
    10030    2    1    2    0    0  0.00000000000E+00  0.00000000000E+00 -0.10131556315E+04  0.13370011024E+04  0.87240335530E+03 0.  0.
        1    1    3    3  502    0 -0.40209482820E+02 -0.43169754067E+03 -0.43320191814E+03  0.61289760240E+03  0.50400001928E-02 0. -1.
       -1    1    3    3    0  502  0.40209482820E+02  0.43169754067E+03 -0.57995371333E+03  0.72410350003E+03  0.50400001928E-02 0.  1.
</event>
<event>
 5   0  0.1226424E-02  0.8573664E+03  0.7818609E-02  0.9480503E-01
        1   -1    0    0  501    0  0.00000000000E+00  0.00000000000E+00  0.51582703692E+03  0.51582703694E+03  0.50400001928E-02 0. -1.
       -1   -1    0    0    0  501  0.00000000000E+00  0.00000000000E+00 -0.35626145669E+03  0.35626145673E+03  0.50400001928E-02 0.  1.
    10030    2    1    2    0    0  0.00000000000E+00  0.00000000000E+00  0.15956558023E+03  0.87208849367E+03  0.85736641315E+03 0.  0.
        1    1    3    3  502    0 -0.56433773712E+02  0.33603373961E+03 -0.18481051432E+03  0.38763174690E+03  0.50400001928E-02 0.  1.
       -1    1    3    3    0  502  0.56433773712E+02 -0.33603373961E+03  0.34437609455E+03  0.48445674677E+03  0.50400001928E-02 0. -1.
</event>
<event>
 5   0  0.2008643E-02  0.8807478E+03  0.7818609E-02  0.9449973E-01
        2   -1    0    0  501    0  0.00000000000E+00  0.00000000000E+00  0.84614950315E+03  0.84614950315E+03  0.25500000920E-02 0. -1.
       -2   -1    0    0    0  501  0.00000000000E+00  0.00000000000E+00 -0.22919018114E+03  0.22919018115E+03  0.25500000920E-02 0.  1.
    10030    2    1    2    0    0  0.00000000000E+00  0.00000000000E+00  0.61695932201E+03  0.10753396843E+04  0.88074776845E+03 0.  0.
        3    1    3    3  502    0  0.38553435356E+02 -0.70609137780E+02 -0.22014218091E+03  0.23438132974E+03  0.10100000352E+00 0.  1.
       -3    1    3    3    0  502 -0.38553435356E+02  0.70609137780E+02  0.83710150292E+03  0.84095835456E+03  0.10100000352E+00 0. -1.
</event>
<event>
 5   0  0.1162839E-02  0.8933446E+03  0.7818609E-02  0.9433939E-01
       -1   -1    0    0    0  501  0.00000000000E+00  0.00000000000E+00  0.26914703064E+03  0.26914703068E+03  0.50400001928E-02 0.  1.
        1   -1    0    0  501    0  0.00000000000E+00  0.00000000000E+00 -0.74129045280E+03  0.74129045282E+03  0.50400001928E-02 0. -1.
    10030    2    1    2    0    0  0.00000000000E+00  0.00000000000E+00 -0.47214342216E+03  0.10104374835E+04  0.89334455669E+03 0.  0.
        2    1    3    3  502    0 -0.45287231285E+02  0.22780606437E+03  0.19547298116E+03  0.30357243395E+03  0.25500000920E-02 0.  1.
       -2    1    3    3    0  502  0.45287231285E+02 -0.22780606437E+03 -0.66761640333E+03  0.70686504955E+03  0.25500000920E-02 0. -1.
</event>
<event>
 5   0  0.1226424E-02  0.8999417E+03  0.7818609E-02  0.9425654E-01
       -1   -1    0    0    0  501  0.00000000000E+00  0.00000000000E+00  0.80313020421E+03  0.80313020422E+03  0.50400001928E-02 0.  1.
        1   -1    0    0  501    0  0.00000000000E+00  0.00000000000E+00 -0.25210578173E+03  0.25210578178E+03  0.50400001928E-02 0. -1.
    10030    2    1    2    0    0  0.00000000000E+00  0.00000000000E+00  0.55102442247E+03  0.10552359860E+04  0.89994170478E+03 0.  0.
        1    1    3    3  502    0 -0.27982873714E+03  0.31971200772E+03  0.10177580336E+03  0.43689610228E+03  0.50400001928E-02 0. -1.
       -1    1    3    3    0  502  0.27982873714E+03 -0.31971200772E+03  0.44924861911E+03  0.61833988373E+03  0.50400001928E-02 0.  1.
</event>
<event>
 5   0  0.2041861E-02  0.8954738E+03  0.7818609E-02  0.9431257E-01
       -2   -1    0    0    0  501  0.00000000000E+00  0.00000000000E+00  0.41866694366E+03  0.41866694366E+03  0.25500000920E-02 0.  1.
        2   -1    0    0  501    0  0.00000000000E+00  0.00000000000E+00 -0.47882533676E+03  0.47882533677E+03  0.25500000920E-02 0. -1.
    10030    2    1    2    0    0  0.00000000000E+00  0.00000000000E+00 -0.60158393107E+02  0.89749228043E+03  0.89547381937E+03 0.  0.
        5    1    3    3  502    0 -0.21428562469E+03 -0.37189608276E+03 -0.15772885368E+03  0.45730242356E+03  0.46999998093E+01 0. -1.
       -5    1    3    3    0  502  0.21428562469E+03  0.37189608276E+03  0.97570460571E+02  0.44018985687E+03  0.46999998093E+01 0.  1.
</event>
<event>
 5   0  0.1177712E-02  0.7149111E+03  0.7818609E-02  0.9692067E-01
       -1   -1    0    0    0  501  0.00000000000E+00  0.00000000000E+00  0.16370585071E+03  0.16370585078E+03  0.50400001928E-02 0.  1.
        1   -1    0    0  501    0  0.00000000000E+00  0.00000000000E+00 -0.78051257398E+03  0.78051257400E+03  0.50400001928E-02 0. -1.
    10030    2    1    2    0    0  0.00000000000E+00  0.00000000000E+00 -0.61680672327E+03  0.94421842478E+03  0.71491111323E+03 0.  0.
        5    1    3    3  502    0  0.20920496559E+03  0.44443574641E+02 -0.68663249957E+03  0.71918580939E+03  0.46999998093E+01 0. -1.
       -5    1    3    3    0  502 -0.20920496559E+03 -0.44443574641E+02  0.69825776299E+02  0.22503261539E+03  0.46999998093E+01 0.  1.
</event>
<event>
 5   0  0.2008643E-02  0.9068215E+03  0.7818609E-02  0.9417094E-01
        2   -1    0    0  501    0  0.00000000000E+00  0.00000000000E+00  0.15480984865E+03  0.15480984867E+03  0.25500000920E-02 0. -1.
       -2   -1    0    0    0  501  0.00000000000E+00  0.00000000000E+00 -0.13279599988E+04  0.13279599988E+04  0.25500000920E-02 0.  1.
    10030    2    1    2    0    0  0.00000000000E+00  0.00000000000E+00 -0.11731501501E+04  0.14827698474E+04  0.90682145198E+03 0.  0.
        3    1    3    3  502    0 -0.11916775385E+03  0.48054015034E+01 -0.13018523040E+04  0.13073038962E+04  0.10100000352E+00 0.  1.
       -3    1    3    3    0  502  0.11916775385E+03 -0.48054015034E+01  0.12870215386E+03  0.17546595125E+03  0.10100000352E+00 0. -1.
</event>
<event>
 5   0  0.1162839E-02  0.8936517E+03  0.7818609E-02  0.9433552E-01
       -1   -1    0    0    0  501  0.00000000000E+00  0.00000000000E+00  0.30744714056E+03  0.30744714060E+03  0.50400001928E-02 0. -1.
        1   -1    0    0  501    0  0.00000000000E+00  0.00000000000E+00 -0.64939076612E+03  0.64939076614E+03  0.50400001928E-02 0.  1.
    10030    2    1    2    0    0  0.00000000000E+00  0.00000000000E+00 -0.34194362556E+03  0.95683790674E+03  0.89365168646E+03 0.  0.
        2    1    3    3  502    0  0.31572175199E+03  0.23298443038E+02 -0.50859281173E+03  0.59907402737E+03  0.25500000920E-02 0.  1.
       -2    1    3    3    0  502 -0.31572175199E+03 -0.23298443038E+02  0.16664918617E+03  0.35776387937E+03  0.25500000920E-02 0. -1.
</event>
<event>
 5   0  0.1162839E-02  0.8666057E+03  0.7818609E-02  0.9468316E-01
        1   -1    0    0  501    0  0.00000000000E+00  0.00000000000E+00  0.80807412958E+03  0.80807412960E+03  0.50400001928E-02 0.  1.
       -1   -1    0    0    0  501  0.00000000000E+00  0.00000000000E+00 -0.23234424847E+03  0.23234424852E+03  0.50400001928E-02 0. -1.
    10030    2    1    2    0    0  0.00000000000E+00  0.00000000000E+00  0.57572988112E+03  0.10404183781E+04  0.86660573823E+03 0.  0.
        2    1    3    3  502    0  0.10192364087E+03 -0.17778072757E+03  0.74621902592E+03  0.77384575356E+03  0.25500000920E-02 0.  1.
       -2    1    3    3    0  502 -0.10192364087E+03  0.17778072757E+03 -0.17048914480E+03  0.26657262456E+03  0.25500000920E-02 0. -1.
</event>
<event>
 5   0  0.1175993E-02  0.9203515E+03  0.7818609E-02  0.9400493E-01
       -1   -1    0    0    0  501  0.00000000000E+00  0.00000000000E+00  0.16768596509E+03  0.16768596517E+03  0.50400001928E-02 0. -1.
        1   -1    0    0  501    0  0.00000000000E+00  0.00000000000E+00 -0.12628470462E+04  0.12628470462E+04  0.50400001928E-02 0.  1.
    10030    2    1    2    0    0  0.00000000000E+00  0.00000000000E+00 -0.10951610811E+04  0.14305330114E+04  0.92035151061E+03 0.  0.
        4    1    3    3  502    0 -0.28718001205E+03  0.13765002174E+03 -0.10638911954E+04  0.11105340951E+04  0.12699999809E+01 0.  1.
       -4    1    3    3    0  502  0.28718001205E+03 -0.13765002174E+03 -0.31269885758E+02  0.31999891634E+03  0.12699999809E+01 0. -1.
</event>
<event>
 5   0  0.1175993E-02  0.9105832E+03  0.7818609E-02  0.9412448E-01
       -1   -1    0    0    0  501  0.00000000000E+00  0.00000000000E+00  0.30556068160E+03  0.30556068164E+03  0.50400001928E-02 0.  1.
        1   -1    0    0  501    0  0.00000000000E+00  0.00000000000E+00 -0.67839367602E+03  0.67839367604E+03  0.50400001928E-02 0. -1.
    10030    2    1    2    0    0  0.00000000000E+00  0.00000000000E+00 -0.37283299443E+03  0.98395435768E+03  0.91058318470E+03 0.  0.
        4    1    3    3  502    0 -0.29324881166E+03 -0.19777768521E+03 -0.49618193536E+03  0.60935129785E+03  0.12699999809E+01 0. -1.
       -4    1    3    3    0  502  0.29324881166E+03  0.19777768521E+03  0.12334894094E+03  0.37460305983E+03  0.12699999809E+01 0.  1.
</event>
<event>
 5   0  0.1968763E-02  0.9074445E+03  0.7818609E-02  0.9416323E-01
        2   -1    0    0  501    0  0.00000000000E+00  0.00000000000E+00  0.96228829970E+03  0.96228829971E+03  0.25500000920E-02 0. -1.
       -2   -1    0    0    0  501  0.00000000000E+00  0.00000000000E+00 -0.21393161465E+03  0.21393161466E+03  0.25500000920E-02 0.  1.
    10030    2    1    2    0    0  0.00000000000E+00  0.00000000000E+00  0.74835668505E+03  0.11762199144E+04  0.90744452111E+03 0.  0.
        2    1    3    3  502    0 -0.30031501062E+03 -0.57836417133E+02 -0.60247656470E+02  0.31171130372E+03  0.25500000920E-02 0.  1.
       -2    1    3    3    0  502  0.30031501062E+03  0.57836417133E+02  0.80860434152E+03  0.86450861065E+03  0.25500000920E-02 0. -1.
</event>
<event>
 5   0  0.2008770E-02  0.9378316E+03  0.7818609E-02  0.9379488E-01
       -2   -1    0    0    0  501  0.00000000000E+00  0.00000000000E+00  0.28134921214E+03  0.28134921215E+03  0.25500000920E-02 0.  1.
        2   -1    0    0  501    0  0.00000000000E+00  0.00000000000E+00 -0.78152706399E+03  0.78152706400E+03  0.25500000920E-02 0. -1.
    10030    2    1    2    0    0  0.00000000000E+00  0.00000000000E+00 -0.50017785185E+03  0.10628762761E+04  0.93783159198E+03 0.  0.
        1    1    3    3  502    0  0.26990861711E+03 -0.65656892060E+00  0.18448354239E+03  0.32693312789E+03  0.50400001928E-02 0.  1.
       -1    1    3    3    0  502 -0.26990861711E+03  0.65656892060E+00 -0.68466139425E+03  0.73594314826E+03  0.50400001928E-02 0. -1.
</event>
<event>
 5   0  0.2008643E-02  0.8903247E+03  0.7818609E-02  0.9437757E-01
       -2   -1    0    0    0  501  0.00000000000E+00  0.00000000000E+00  0.32995598094E+03  0.32995598095E+03  0.25500000920E-02 0.  1.
        2   -1    0    0  501    0  0.00000000000E+00  0.00000000000E+00 -0.60059381511E+03  0.60059381512E+03  0.25500000920E-02 0. -1.
    10030    2    1    2    0    0  0.00000000000E+00  0.00000000000E+00 -0.27063783417E+03  0.93054979607E+03  0.89032470801E+03 0.  0.
        3    1    3    3  502    0 -0.14495835094E+03 -0.41920962841E+03 -0.95935238999E+02  0.45382068744E+03  0.10100000352E+00 0. -1.
       -3    1    3    3    0  502  0.14495835094E+03  0.41920962841E+03 -0.17470259517E+03  0.47672910864E+03  0.10100000352E+00 0.  1.
</event>
<event>
 5   0  0.2008770E-02  0.9003200E+03  0.7818609E-02  0.9425181E-01
        2   -1    0    0  501    0  0.00000000000E+00  0.00000000000E+00  0.20993642170E+04  0.20993642170E+04  0.25500000920E-02 0. -1.
       -2   -1    0    0    0  501  0.00000000000E+00  0.00000000000E+00 -0.96526385076E+02  0.96526385109E+02  0.25500000920E-02 0.  1.
    10030    2    1    2    0    0  0.00000000000E+00  0.00000000000E+00  0.20028378319E+04  0.21958906021E+04  0.90032002946E+03 0.  0.
        1    1    3    3  502    0  0.57299169682E+02 -0.27582778940E+03  0.18577858302E+04  0.18790243093E+04  0.50400001928E-02 0. -1.
       -1    1    3    3    0  502 -0.57299169682E+02  0.27582778940E+03  0.14505200172E+03  0.31686629275E+03  0.50400001928E-02 0.  1.
</event>
<event>
 5   0  0.1924218E-02  0.9027575E+03  0.7818609E-02  0.9422141E-01
       -2   -1    0    0    0  501  0.00000000000E+00  0.00000000000E+00  0.16080822786E+03  0.16080822788E+03  0.25500000920E-02 0.  1.
        2   -1    0    0  501    0  0.00000000000E+00  0.00000000000E+00 -0.12669921867E+04  0.12669921867E+04  0.25500000920E-02 0. -1.
    10030    2    1    2    0    0  0.00000000000E+00  0.00000000000E+00 -0.11061839588E+04  0.14278004146E+04  0.90275748299E+03 0.  0.
        4    1    3    3  502    0  0.29588591633E+03  0.30728546067E+03 -0.31974138118E+03  0.53311255244E+03  0.12699999809E+01 0.  1.
       -4    1    3    3    0  502 -0.29588591633E+03 -0.30728546067E+03 -0.78644257765E+03  0.89468786214E+03  0.12699999809E+01 0. -1.
</event>
<event>
 5   0  0.1206541E-02  0.8749303E+03  0.7818609E-02  0.9457474E-01
       -1   -1    0    0    0  501  0.00000000000E+00  0.00000000000E+00  0.15599261367E+03  0.15599261375E+03  0.50400001928E-02 0.  1.
        1   -1    0    0  501    0  0.00000000000E+00  0.00000000000E+00 -0.12268258270E+04  0.12268258270E+04  0.50400001928E-02 0. -1.
    10030    2    1    2    0    0  0.00000000000E+00  0.00000000000E+00 -0.10708332133E+04  0.13828184407E+04  0.87493032255E+03 0.  0.
        3    1    3    3  502    0  0.13307911140E+03 -0.24065087696E+03 -0.10731383085E+04  0.11078125896E+04  0.10100000352E+00 0. -1.
       -3    1    3    3    0  502 -0.13307911140E+03  0.24065087696E+03  0.23050951504E+01  0.27500585110E+03  0.10100000352E+00 0.  1.
</event>
<event>
 5   0  0.1226424E-02  0.6612611E+03  0.7818609E-02  0.9785875E-01
       -1   -1    0    0    0  501  0.00000000000E+00  0.00000000000E+00  0.38645903142E+03  0.38645903145E+03  0.50400001928E-02 0. -1.
        1   -1    0    0  501    0  0.00000000000E+00  0.00000000000E+00 -0.28286713202E+03  0.28286713207E+03  0.50400001928E-02 0.  1.
    10030    2    1    2    0    0  0.00000000000E+00  0.00000000000E+00  0.10359189939E+03  0.66932616352E+03  0.66126109182E+03 0.  0.
        1    1    3    3  502    0  0.78753898293E+02  0.62877406443E+02 -0.26694280494E+03  0.28533174705E+03  0.50400001928E-02 0.  1.
       -1    1    3    3    0  502 -0.78753898293E+02 -0.62877406443E+02  0.37053470434E+03  0.38399441647E+03  0.50400001928E-02 0. -1.
</event>
<event>
 5   0  0.1177712E-02  0.9331306E+03  0.7818609E-02  0.9385089E-01
        1   -1    0    0  501    0  0.00000000000E+00  0.00000000000E+00  0.58096732391E+03  0.58096732393E+03  0.50400001928E-02 0. -1.
       -1   -1    0    0    0  501  0.00000000000E+00  0.00000000000E+00 -0.37469093727E+03  0.37469093730E+03  0.50400001928E-02 0.  1.
    10030    2    1    2    0    0  0.00000000000E+00  0.00000000000E+00  0.20627638664E+03  0.95565826123E+03  0.93313062568E+03 0.  0.
        5    1    3    3  502    0 -0.19922919818E+03 -0.24667394019E+03 -0.24735305712E+03  0.40217649241E+03  0.46999998093E+01 0.  1.
       -5    1    3    3    0  502  0.19922919818E+03  0.24667394019E+03  0.45362944376E+03  0.55348176883E+03  0.46999998093E+01 0. -1.
</event>
<event>
 5   0  0.1175993E-02  0.8727466E+03  0.7818609E-02  0.9460306E-01
        1   -1    0    0  501    0  0.00000000000E+00  0.00000000000E+00  0.42743761745E+03  0.42743761748E+03  0.50400001928E-02 0. -1.
       -1   -1    0    0    0  501  0.00000000000E+00  0.00000000000E+00 -0.44549576563E+03  0.44549576566E+03  0.50400001928E-02 0.  1.
    10030    2    1    2    0    0  0.00000000000E+00  0.00000000000E+00 -0.18058148184E+02  0.87293338313E+03  0.87274658102E+03 0.  0.
        4    1    3    3  502    0 -0.30089299683E+03 -0.28969616276E+03  0.11732917136E+03  0.43385275107E+03  0.12699999809E+01 0. -1.
       -4    1    3    3    0  502  0.30089299683E+03  0.28969616276E+03 -0.13538731954E+03  0.43908063206E+03  0.12699999809E+01 0.  1.
</event>
<event>
 5   0  0.1175993E-02  0.9131194E+03  0.7818609E-02  0.9409329E-01
        1   -1    0    0  501    0  0.00000000000E+00  0.00000000000E+00  0.74635927814E+03  0.74635927816E+03  0.50400001928E-02 0. -1.
       -1   -1    0    0    0  501  0.00000000000E+00  0.00000000000E+00 -0.27928472039E+03  0.27928472044E+03  0.50400001928E-02 0.  1.
    10030    2    1    2    0    0  0.00000000000E+00  0.00000000000E+00  0.46707455775E+03  0.10256439986E+04  0.91311936206E+03 0.  0.
        4    1    3    3  502    0 -0.11053117235E+03 -0.14042954286E+03 -0.23836352124E+03  0.29792008614E+03  0.12699999809E+01 0.  1.
       -4    1    3    3    0  502  0.11053117235E+03  0.14042954286E+03  0.70543807899E+03  0.72772391246E+03  0.12699999809E+01 0. -1.
</event>
<event>
 5   0  0.1206541E-02  0.7822810E+03  0.7818609E-02  0.9586025E-01
        1   -1    0    0  501    0  0.00000000000E+00  0.00000000000E+00  0.13204669502E+04  0.13204669502E+04  0.50400001928E-02 0. -1.
       -1   -1    0    0    0  501  0.00000000000E+00  0.00000000000E+00 -0.11586119680E+03  0.11586119691E+03  0.50400001928E-02 0.  1.
    10030    2    1    2    0    0  0.00000000000E+00  0.00000000000E+00  0.12046057534E+04  0.14363281471E+04  0.78228097578E+03 0.  0.
        3    1    3    3  502    0  0.72573079452E+00  0.28880736790E+03  0.10866259270E+04  0.11243514299E+04  0.10100000352E+00 0. -1.
       -3    1    3    3    0  502 -0.72573079452E+00 -0.28880736790E+03  0.11797982633E+03  0.31197671718E+03  0.10100000352E+00 0.  1.
</event>
<event>
 5   0  0.1924218E-02  0.8945057E+03  0.7818609E-02  0.9432476E-01
        2   -1    0    0  501    0  0.00000000000E+00  0.00000000000E+00  0.14176185157E+04  0.14176185157E+04  0.25500000920E-02 0.  1.
       -2   -1    0    0    0  501  0.00000000000E+00  0.00000000000E+00 -0.14110643851E+03  0.14110643853E+03  0.25500000920E-02 0. -1.
    10030    2    1    2    0    0  0.00000000000E+00  0.00000000000E+00  0.12765120772E+04  0.15587249543E+04  0.89450567341E+03 0.  0.
        4    1    3    3  502    0  0.39080862825E+03  0.67105362382E+02  0.99875420915E+03  0.10745911301E+04  0.12699999809E+01 0.  1.
       -4    1    3    3    0  502 -0.39080862825E+03 -0.67105362382E+02  0.27775786807E+03  0.48413382422E+03  0.12699999809E+01 0. -1.
</event>
<event>
 5   0  0.1162839E-02  0.7981520E+03  0.7818609E-02  0.9562696E-01
        1   -1    0    0  501    0  0.00000000000E+00  0.00000000000E+00  0.52820054614E+03  0.52820054617E+03  0.50400001928E-02 0.  1.
       -1   -1    0    0    0  501  0.00000000000E+00  0.00000000000E+00 -0.30151737931E+03  0.30151737935E+03  0.50400001928E-02 0. -1.
    10030    2    1    2    0    0  0.00000000000E+00  0.00000000000E+00  0.22668316684E+03  0.82971792552E+03  0.79815197663E+03 0.  0.
        2    1    3    3  502    0  0.47895698241E+02 -0.37228138720E+03  0.25425400540E+03  0.45335695476E+03  0.25500000920E-02 0.  1.
       -2    1    3    3    0  502 -0.47895698241E+02  0.37228138720E+03 -0.27570838562E+02  0.37636097076E+03  0.25500000920E-02 0. -1.
</event>
<event>
 5   0  0.1206541E-02  0.8913654E+03  0.7818609E-02  0.9436440E-01
       -1   -1    0    0    0  501  0.00000000000E+00  0.00000000000E+00  0.38204308953E+03  0.38204308956E+03  0.50400001928E-02 0.  1.
        1   -1    0    0  501    0  0.00000000000E+00  0.00000000000E+00 -0.51992320428E+03  0.51992320431E+03  0.50400001928E-02 0. -1.
    10030    2    1    2    0    0  0.00000000000E+00  0.00000000000E+00 -0.13788011475E+03  0.90196629387E+03  0.89136539603E+03 0.  0.
        3    1    3    3  502    0  0.49788984263E+02  0.33787628828E+03 -0.35869099807E+03  0.49527625769E+03  0.10100000352E+00 0. -1.
       -3    1    3    3    0  502 -0.49788984263E+02 -0.33787628828E+03  0.22081088332E+03  0.40669003618E+03  0.10100000352E+00 0.  1.
</event>
<event>
 5   0  0.2041861E-02  0.8971989E+03  0.7818609E-02  0.9429090E-01
        2   -1    0    0  501    0  0.00000000000E+00  0.00000000000E+00  0.44980105323E+03  0.44980105323E+03  0.25500000920E-02 0. -1.
       -2   -1    0    0    0  501  0.00000000000E+00  0.00000000000E+00 -0.44740104180E+03  0.44740104181E+03  0.25500000920E-02 0.  1.
    10030    2    1    2    0    0  0.00000000000E+00  0.00000000000E+00  0.24000114224E+01  0.89720209504E+03  0.89719888503E+03 0.  0.
        5    1    3    3  502    0 -0.40905013636E+03 -0.14770420798E+03  0.11111319493E+03  0.44889506479E+03  0.46999998093E+01 0. -1.
       -5    1    3    3    0  502  0.40905013636E+03  0.14770420798E+03 -0.10871318351E+03  0.44830703025E+03  0.46999998093E+01 0.  1.
</event>
<event>
 5   0  0.1162839E-02  0.8928658E+03  0.7818609E-02  0.9434544E-01
        1   -1    0    0  501    0  0.00000000000E+00  0.00000000000E+00  0.44685179922E+03  0.44685179925E+03  0.50400001928E-02 0. -1.
       -1   -1    0    0    0  501  0.00000000000E+00  0.00000000000E+00 -0.44601440753E+03  0.44601440756E+03  0.50400001928E-02 0.  1.
    10030    2    1    2    0    0  0.00000000000E+00  0.00000000000E+00  0.83739168763E+00  0.89286620681E+03  0.89286581413E+03 0.  0.
        2    1    3    3  502    0  0.65039852394E+02  0.89414457019E+02  0.43294312005E+03  0.44683875473E+03  0.25500000920E-02 0. -1.
       -2    1    3    3    0  502 -0.65039852394E+02 -0.89414457019E+02 -0.43210572836E+03  0.44602745208E+03  0.25500000920E-02 0.  1.
</event>
<event>
 5   0  0.1206541E-02  0.8669259E+03  0.7818609E-02  0.9467897E-01
       -1   -1    0    0    0  501  0.00000000000E+00  0.00000000000E+00  0.29956704625E+03  0.29956704629E+03  0.50400001928E-02 0.  1.
        1   -1    0    0  501    0  0.00000000000E+00  0.00000000000E+00 -0.62720554078E+03  0.62720554080E+03  0.50400001928E-02 0. -1.
    10030    2    1    2    0    0  0.00000000000E+00  0.00000000000E+00 -0.32763849453E+03  0.92677258709E+03  0.86692585905E+03 0.  0.
        3    1    3    3  502    0  0.11450750192E+03 -0.37699727296E+03  0.29351217173E+02  0.39509545172E+03  0.10100000352E+00 0.  1.
       -3    1    3    3    0  502 -0.11450750192E+03  0.37699727296E+03 -0.35698971170E+03  0.53167713537E+03  0.10100000352E+00 0. -1.
</event>
<event>
 5   0  0.1177712E-02  0.5559588E+03  0.7818609E-02  0.1000124E+00
       -1   -1    0    0    0  501  0.00000000000E+00  0.00000000000E+00  0.84726376806E+02  0.84726376956E+02  0.50400001928E-02 0. -1.
        1   -1    0    0  501    0  0.00000000000E+00  0.00000000000E+00 -0.91202463401E+03  0.91202463402E+03  0.50400001928E-02 0.  1.
    10030    2    1    2    0    0  0.00000000000E+00  0.00000000000E+00 -0.82729825720E+03  0.99675101098E+03  0.55595878581E+03 0.  0.
        5    1    3    3  502    0  0.11359705292E+02  0.87756832432E+02 -0.88602407509E+03  0.89044430269E+03  0.46999998093E+01 0.  1.
       -5    1    3    3    0  502 -0.11359705292E+02 -0.87756832432E+02  0.58725817891E+02  0.10630670829E+03  0.46999998093E+01 0. -1.
</event>
<event>
 5   0  0.1968763E-02  0.8824602E+03  0.7818609E-02  0.9447777E-01
        2   -1    0    0  501    0  0.00000000000E+00  0.00000000000E+00  0.47984591270E+03  0.47984591270E+03  0.25500000920E-02 0.  1.
       -2   -1    0    0    0  501  0.00000000000E+00  0.00000000000E+00 -0.40572192118E+03  0.40572192119E+03  0.25500000920E-02 0. -1.
    10030    2    1    2    0    0  0.00000000000E+00  0.00000000000E+00  0.74123991517E+02  0.88556783389E+03  0.88246021004E+03 0.  0.
        2    1    3    3  502    0 -0.21948090729E+03 -0.11979611479E+03  0.40188179911E+03  0.47332014351E+03  0.25500000920E-02 0.  1.
       -2    1    3    3    0  502  0.21948090729E+03  0.11979611479E+03 -0.32775780760E+03  0.41224769039E+03  0.25500000920E-02 0. -1.
</event>
<event>
 5   0  0.1968763E-02  0.8907493E+03  0.7818609E-02  0.9437220E-01
        2   -1    0    0  501    0  0.00000000000E+00  0.00000000000E+00  0.95913631590E+03  0.95913631590E+03  0.25500000920E-02 0. -1.
       -2   -1    0    0    0  501  0.00000000000E+00  0.00000000000E+00 -0.20680956963E+03  0.20680956964E+03  0.25500000920E-02 0.  1.
    10030    2    1    2    0    0  0.00000000000E+00  0.00000000000E+00  0.75232674627E+03  0.11659458855E+04  0.89074927722E+03 0.  0.
        2    1    3    3  502    0 -0.72293788093E+01 -0.43503083717E+03  0.25161026641E+03  0.50260503318E+03  0.25500000920E-02 0.  1.
       -2    1    3    3    0  502  0.72293788093E+01  0.43503083717E+03  0.50071647986E+03  0.66334085237E+03  0.25500000920E-02 0. -1.
</event>
<event>
 5   0  0.2008643E-02  0.8908042E+03  0.7818609E-02  0.9437150E-01
        2   -1    0    0  501    0  0.00000000000E+00  0.00000000000E+00  0.11361625903E+04  0.11361625903E+04  0.25500000920E-02 0. -1.
       -2   -1    0    0    0  501  0.00000000000E+00  0.00000000000E+00 -0.17460796096E+03  0.17460796098E+03  0.25500000920E-02 0.  1.
    10030    2    1    2    0    0  0.00000000000E+00  0.00000000000E+00  0.96155462931E+03  0.13107705513E+04  0.89080420570E+03 0.  0.
        3    1    3    3  502    0  0.54482126223E+01 -0.32562171070E+03  0.92787389720E+03  0.98336623941E+03  0.10100000352E+00 0. -1.
       -3    1    3    3    0  502 -0.54482126223E+01  0.32562171070E+03  0.33680732111E+02  0.32740431185E+03  0.10100000352E+00 0.  1.
</event>
<event>
 5   0  0.1924218E-02  0.8911981E+03  0.7818609E-02  0.9436652E-01
        2   -1    0    0  501    0  0.00000000000E+00  0.00000000000E+00  0.97880964125E+03  0.97880964125E+03  0.25500000920E-02 0.  1.
       -2   -1    0    0    0  501  0.00000000000E+00  0.00000000000E+00 -0.20285713745E+03  0.20285713747E+03  0.25500000920E-02 0. -1.
    10030    2    1    2    0    0  0.00000000000E+00  0.00000000000E+00  0.77595250380E+03  0.11816667787E+04  0.89119811927E+03 0.  0.
        4    1    3    3  502    0  0.20199966342E+03 -0.94590376572E+02  0.89945848962E+03  0.92670296796E+03  0.12699999809E+01 0.  1.
       -4    1    3    3    0  502 -0.20199966342E+03  0.94590376572E+02 -0.12350598583E+03  0.25496381076E+03  0.12699999809E+01 0. -1.
</event>
<event>
 5   0  0.1226424E-02  0.9001557E+03  0.7818609E-02  0.9425387E-01
        1   -1    0    0  501    0  0.00000000000E+00  0.00000000000E+00  0.14680677346E+04  0.14680677346E+04  0.50400001928E-02 0. -1.
       -1   -1    0    0    0  501  0.00000000000E+00  0.00000000000E+00 -0.13798415738E+03  0.13798415747E+03  0.50400001928E-02 0.  1.
    10030    2    1    2    0    0  0.00000000000E+00  0.00000000000E+00  0.13300835772E+04  0.16060518921E+04  0.90015574078E+03 0.  0.
        1    1    3    3  502    0  0.13681552333E+03 -0.15094783522E+03 -0.51009829340E+02  0.21001366407E+03  0.50400001928E-02 0.  1.
       -1    1    3    3    0  502 -0.13681552333E+03  0.15094783522E+03  0.13810934066E+04  0.13960382280E+04  0.50400001928E-02 0. -1.
</event>
<event>
 5   0  0.1924218E-02  0.9024501E+03  0.7818609E-02  0.9422524E-01
       -2   -1    0    0    0  501  0.00000000000E+00  0.00000000000E+00  0.25447914167E+03  0.25447914168E+03  0.25500000920E-02 0.  1.
        2   -1    0    0  501    0  0.00000000000E+00  0.00000000000E+00 -0.80008147144E+03  0.80008147145E+03  0.25500000920E-02 0. -1.
    10030    2    1    2    0    0  0.00000000000E+00  0.00000000000E+00 -0.54560232978E+03  0.10545606131E+04  0.90245010083E+03 0.  0.
        4    1    3    3  502    0 -0.72525739406E+02 -0.91504406891E+02  0.23651817498E+03  0.26377168034E+03  0.12699999809E+01 0.  1.
       -4    1    3    3    0  502  0.72525739406E+02  0.91504406891E+02 -0.78212050475E+03  0.79078893278E+03  0.12699999809E+01 0. -1.
</event>
<event>
 5   0  0.1175993E-02  0.9015435E+03  0.7818609E-02  0.9423654E-01
       -1   -1    0    0    0  501  0.00000000000E+00  0.00000000000E+00  0.55011698334E+03  0.55011698336E+03  0.50400001928E-02 0.  1.
        1   -1    0    0  501    0  0.00000000000E+00  0.00000000000E+00 -0.36936716413E+03  0.36936716416E+03  0.50400001928E-02 0. -1.
    10030    2    1    2    0    0  0.00000000000E+00  0.00000000000E+00  0.18074981921E+03  0.91948414752E+03  0.90154345453E+03 0.  0.
        4    1    3    3  502    0 -0.14399656144E+03  0.16741735631E+03 -0.31042106938E+03  0.38095463524E+03  0.12699999809E+01 0. -1.
       -4    1    3    3    0  502  0.14399656144E+03 -0.16741735631E+03  0.49117088859E+03  0.53852951228E+03  0.12699999809E+01 0.  1.
</event>
<event>
 5   0  0.2008770E-02  0.8861918E+03  0.7818609E-02  0.9443009E-01
       -2   -1    0    0    0  501  0.00000000000E+00  0.00000000000E+00  0.22604031264E+03  0.22604031265E+03  0.25500000920E-02 0. -1.
        2   -1    0    0  501    0  0.00000000000E+00  0.00000000000E+00 -0.86857954262E+03  0.86857954262E+03  0.25500000920E-02 0.  1.
    10030    2    1    2    0    0  0.00000000000E+00  0.00000000000E+00 -0.64253922998E+03  0.10946198553E+04  0.88619183335E+03 0.  0.
        1    1    3    3  502    0  0.43395281282E+03  0.86479475919E+02 -0.29255968732E+03  0.53045726894E+03  0.50400001928E-02 0. -1.
       -1    1    3    3    0  502 -0.43395281282E+03 -0.86479475919E+02 -0.34997954267E+03  0.56416258633E+03  0.50400001928E-02 0.  1.
</event>
<event>
 5   0  0.1206541E-02  0.8948572E+03  0.7818609E-02  0.9432033E-01
       -1   -1    0    0    0  501  0.00000000000E+00  0.00000000000E+00  0.13266978026E+03  0.13266978035E+03  0.50400001928E-02 0.  1.
        1   -1    0    0  501    0  0.00000000000E+00  0.00000000000E+00 -0.15089523059E+04  0.15089523059E+04  0.50400001928E-02 0. -1.
    10030    2    1    2    0    0  0.00000000000E+00  0.00000000000E+00 -0.13762825256E+04  0.16416220863E+04  0.89485724208E+03 0.  0.
        3    1    3    3  502    0  0.40458269905E+03 -0.18662295411E+03 -0.61301436460E+03  0.75782709689E+03  0.10100000352E+00 0. -1.
       -3    1    3    3    0  502 -0.40458269905E+03  0.18662295411E+03 -0.76326816104E+03  0.88379498937E+03  0.10100000352E+00 0.  1.
</event>
<event>
 5   0  0.2008643E-02  0.8795076E+03  0.7818609E-02  0.9451567E-01
        2   -1    0    0  501    0  0.00000000000E+00  0.00000000000E+00  0.19144983578E+04  0.19144983578E+04  0.25500000920E-02 0.  1.
       -2   -1    0    0    0  501  0.00000000000E+00  0.00000000000E+00 -0.10100995252E+03  0.10100995255E+03  0.25500000920E-02 0. -1.
    10030    2    1    2    0    0  0.00000000000E+00  0.00000000000E+00  0.18134884053E+04  0.20155083103E+04  0.87950756281E+03 0.  0.
        3    1    3    3  502    0  0.25934653028E+02  0.32295878939E+03  0.22536046979E+03  0.39466737567E+03  0.10100000352E+00 0. -1.
       -3    1    3    3    0  502 -0.25934653028E+02 -0.32295878939E+03  0.15881279355E+04  0.16208409347E+04  0.10100000352E+00 0.  1.
</event>
<event>
 5   0  0.1177712E-02  0.9012433E+03  0.7818609E-02  0.9424029E-01
        1   -1    0    0  501    0  0.00000000000E+00  0.00000000000E+00  0.10554383792E+04  0.10554383792E+04  0.50400001928E-02 0. -1.
       -1   -1    0    0    0  501  0.00000000000E+00  0.00000000000E+00 -0.19239388751E+03  0.19239388757E+03  0.50400001928E-02 0.  1.
    10030    2    1    2    0    0  0.00000000000E+00  0.00000000000E+00  0.86304449172E+03  0.12478322668E+04  0.90124334750E+03 0.  0.
        5    1    3    3  502    0  0.57830632083E+02 -0.80232083110E+02  0.10401908421E+04  0.10448926486E+04  0.46999998093E+01 0. -1.
       -5    1    3    3    0  502 -0.57830632083E+02  0.80232083110E+02 -0.17714635040E+03  0.20293961817E+03  0.46999998093E+01 0.  1.
</event>
<event>
 5   0  0.2008770E-02  0.9114410E+03  0.7818609E-02  0.9411392E-01
       -2   -1    0    0    0  501  0.00000000000E+00  0.00000000000E+00  0.19213469868E+03  0.19213469870E+03  0.25500000920E-02 0. -1.
        2   -1    0    0  501    0  0.00000000000E+00  0.00000000000E+00 -0.10809143998E+04  0.10809143998E+04  0.25500000920E-02 0.  1.
    10030    2    1    2    0    0  0.00000000000E+00  0.00000000000E+00 -0.88877970116E+03  0.12730490985E+04  0.91144097457E+03 0.  0.
        1    1    3    3  502    0  0.28321393445E+03 -0.12332729982E+03  0.23595054857E+02  0.30980071366E+03  0.50400001928E-02 0. -1.
       -1    1    3    3    0  502 -0.28321393445E+03  0.12332729982E+03 -0.91237475602E+03  0.96324838489E+03  0.50400001928E-02 0.  1.
</event>
<event>
 5   0  0.2008643E-02  0.8913619E+03  0.7818609E-02  0.9436444E-01
       -2   -1    0    0    0  501  0.00000000000E+00  0.00000000000E+00  0.71154681385E+03  0.71154681386E+03  0.25500000920E-02 0. -1.
        2   -1    0    0  501    0  0.00000000000E+00  0.00000000000E+00 -0.27915454676E+03  0.27915454677E+03  0.25500000920E-02 0.  1.
    10030    2    1    2    0    0  0.00000000000E+00  0.00000000000E+00  0.43239226709E+03  0.99070136063E+03  0.89136194294E+03 0.  0.
        3    1    3    3  502    0  0.81824782505E+02 -0.26789345010E+03 -0.16909186212E+03  0.32719147861E+03  0.10100000352E+00 0.  1.
       -3    1    3    3    0  502 -0.81824782505E+02  0.26789345010E+03  0.60148412921E+03  0.66350988202E+03  0.10100000352E+00 0. -1.
</event>
<event>
 5   0  0.1177712E-02  0.8726349E+03  0.7818609E-02  0.9460451E-01
        1   -1    0    0  501    0  0.00000000000E+00  0.00000000000E+00  0.24816304874E+03  0.24816304879E+03  0.50400001928E-02 0. -1.
       -1   -1    0    0    0  501  0.00000000000E+00  0.00000000000E+00 -0.76712834409E+03  0.76712834410E+03  0.50400001928E-02 0.  1.
    10030    2    1    2    0    0  0.00000000000E+00  0.00000000000E+00 -0.51896529535E+03  0.10152913929E+04  0.87263488053E+03 0.  0.
        5    1    3    3  502    0  0.93598453271E+02 -0.12103737817E+02 -0.75508004876E+03  0.76096986863E+03  0.46999998093E+01 0.  1.
       -5    1    3    3    0  502 -0.93598453271E+02  0.12103737817E+02  0.23611475342E+03  0.25432152426E+03  0.46999998093E+01 0. -1.
</event>
<event>
 5   0  0.1175993E-02  0.8911980E+03  0.7818609E-02  0.9436652E-01
        1   -1    0    0  501    0  0.00000000000E+00  0.00000000000E+00  0.54114592982E+03  0.54114592985E+03  0.50400001928E-02 0.  1.
       -1   -1    0    0    0  501  0.00000000000E+00  0.00000000000E+00 -0.36692220627E+03  0.36692220630E+03  0.50400001928E-02 0. -1.
    10030    2    1    2    0    0  0.00000000000E+00  0.00000000000E+00  0.17422372355E+03  0.90806813615E+03  0.89119797690E+03 0.  0.
        4    1    3    3  502    0 -0.34293146893E+03 -0.15158437590E+03  0.33245404604E+03  0.50110589802E+03  0.12699999809E+01 0.  1.
       -4    1    3    3    0  502  0.34293146893E+03  0.15158437590E+03 -0.15823032249E+03  0.40696223812E+03  0.12699999809E+01 0. -1.
</event>
<event>
 5   0  0.1162839E-02  0.9048887E+03  0.7818609E-02  0.9419491E-01
        1   -1    0    0  501    0  0.00000000000E+00  0.00000000000E+00  0.15495100966E+04  0.15495100966E+04  0.50400001928E-02 0.  1.
       -1   -1    0    0    0  501  0.00000000000E+00  0.00000000000E+00 -0.13211007274E+03  0.13211007283E+03  0.50400001928E-02 0. -1.
    10030    2    1    2    0    0  0.00000000000E+00  0.00000000000E+00  0.14174000238E+04  0.16816201694E+04  0.90488870399E+03 0.  0.
        2    1    3    3  502    0  0.31197253728E+03  0.39899636196E+02  0.10426587082E+03  0.33134606805E+03  0.25500000920E-02 0. -1.
       -2    1    3    3    0  502 -0.31197253728E+03 -0.39899636196E+02  0.13131341530E+04  0.13502741014E+04  0.25500000920E-02 0.  1.
</event>
<event>
 5   0  0.1924218E-02  0.8895373E+03  0.7818609E-02  0.9438756E-01
        2   -1    0    0  501    0  0.00000000000E+00  0.00000000000E+00  0.16119094470E+04  0.16119094470E+04  0.25500000920E-02 0. -1.
       -2   -1    0    0    0  501  0.00000000000E+00  0.00000000000E+00 -0.12272348871E+03  0.12272348873E+03  0.25500000920E-02 0.  1.
    10030    2    1    2    0    0  0.00000000000E+00  0.00000000000E+00  0.14891859583E+04  0.17346329357E+04  0.88953729733E+03 0.  0.
        4    1    3    3  502    0  0.22578906489E+03  0.26894863434E+03  0.12768625892E+04  0.13242710275E+04  0.12699999809E+01 0. -1.
       -4    1    3    3    0  502 -0.22578906489E+03 -0.26894863434E+03  0.21232336906E+03  0.41036190818E+03  0.12699999809E+01 0.  1.
</event>
<event>
 5   0  0.2008770E-02  0.9152684E+03  0.7818609E-02  0.9406694E-01
       -2   -1    0    0    0  501  0.00000000000E+00  0.00000000000E+00  0.36195105759E+03  0.36195105760E+03  0.25500000920E-02 0.  1.
        2   -1    0    0  501    0  0.00000000000E+00  0.00000000000E+00 -0.57861156396E+03  0.57861156397E+03  0.25500000920E-02 0. -1.
    10030    2    1    2    0    0  0.00000000000E+00  0.00000000000E+00 -0.21666050637E+03  0.94056262156E+03  0.91526841421E+03 0.  0.
        1    1    3    3  502    0 -0.30800167059E+03  0.61265691414E+01 -0.45610035424E+03  0.55039085848E+03  0.50400001928E-02 0. -1.
       -1    1    3    3    0  502  0.30800167059E+03 -0.61265691414E+01  0.23943984786E+03  0.39017176308E+03  0.50400001928E-02 0.  1.
</event>
<event>
 5   0  0.1226424E-02  0.8976830E+03  0.7818609E-02  0.9428482E-01
        1   -1    0    0  501    0  0.00000000000E+00  0.00000000000E+00  0.50093610991E+03  0.50093610993E+03  0.50400001928E-02 0. -1.
       -1   -1    0    0    0  501  0.00000000000E+00  0.00000000000E+00 -0.40216445337E+03  0.40216445340E+03  0.50400001928E-02 0.  1.
    10030    2    1    2    0    0  0.00000000000E+00  0.00000000000E+00  0.98771656536E+02  0.90310056334E+03  0.89768301051E+03 0.  0.
        1    1    3    3  502    0  0.13519700620E+03  0.42799415836E+03  0.50604226186E+02  0.45168353724E+03  0.50400001928E-02 0.  1.
       -1    1    3    3    0  502 -0.13519700620E+03 -0.42799415836E+03  0.48167430350E+02  0.45141702610E+03  0.50400001928E-02 0. -1.
</event>
<event>
 5   0  0.2041861E-02  0.8923425E+03  0.7818609E-02  0.9435205E-01
       -2   -1    0    0    0  501  0.00000000000E+00  0.00000000000E+00  0.44540123290E+03  0.44540123291E+03  0.25500000920E-02 0.  1.
        2   -1    0    0  501    0  0.00000000000E+00  0.00000000000E+00 -0.44694262095E+03  0.44694262096E+03  0.25500000920E-02 0. -1.
    10030    2    1    2    0    0  0.00000000000E+00  0.00000000000E+00 -0.15413880501E+01  0.89234385386E+03  0.89234252261E+03 0.  0.
        5    1    3    3  502    0  0.24302854782E+03 -0.71914137814E+01 -0.37484626186E+03  0.44681808548E+03  0.46999998093E+01 0. -1.
       -5    1    3    3    0  502 -0.24302854782E+03  0.71914137814E+01  0.37330487381E+03  0.44552576838E+03  0.46999998093E+01 0.  1.
</event>
<event>
 5   0  0.1175993E-02  0.9101644E+03  0.7818609E-02  0.9412964E-01
        1   -1    0    0  501    0  0.00000000000E+00  0.00000000000E+00  0.51901599706E+03  0.51901599709E+03  0.50400001928E-02 0.  1.
       -1   -1    0    0    0  501  0.00000000000E+00  0.00000000000E+00 -0.39902391806E+03  0.39902391810E+03  0.50400001928E-02 0. -1.
    10030    2    1    2    0    0  0.00000000000E+00  0.00000000000E+00  0.11999207900E+03  0.91803991518E+03  0.91016437353E+03 0.  0.
        4    1    3    3  502    0 -0.19315402796E+03 -0.39731222763E+03 -0.50186068334E+02  0.44461864457E+03  0.12699999809E+01 0. -1.
       -4    1    3    3    0  502  0.19315402796E+03  0.39731222763E+03  0.17017814733E+03  0.47342127062E+03  0.12699999809E+01 0.  1.
</event>
<event>
 5   0  0.1206541E-02  0.9441634E+03  0.7818609E-02  0.9371999E-01
       -1   -1    0    0    0  501  0.00000000000E+00  0.00000000000E+00  0.30662952679E+03  0.30662952683E+03  0.50400001928E-02 0.  1.
        1   -1    0    0  501    0  0.00000000000E+00  0.00000000000E+00 -0.72680916415E+03  0.72680916417E+03  0.50400001928E-02 0. -1.
    10030    2    1    2    0    0  0.00000000000E+00  0.00000000000E+00 -0.42017963736E+03  0.10334386910E+04  0.94416343945E+03 0.  0.
        3    1    3    3  502    0 -0.32899704223E+03  0.87789875484E+02  0.14780623224E+03  0.37120453731E+03  0.10100000352E+00 0.  1.
       -3    1    3    3    0  502  0.32899704223E+03 -0.87789875484E+02 -0.56798586961E+03  0.66223415368E+03  0.10100000352E+00 0. -1.
</event>
<event>
 5   0  0.7893875E-03  0.9021360E+03  0.7818609E-02  0.9422915E-01
       -3   -1    0    0    0  501  0.00000000000E+00  0.00000000000E+00  0.16799380576E+03  0.16799383612E+03  0.10100000352E+00 0.  1.
        3   -1    0    0  501    0  0.00000000000E+00  0.00000000000E+00 -0.12111298555E+04  0.12111298597E+04  0.10100000352E+00 0. -1.
    10030    2    1    2    0    0  0.00000000000E+00  0.00000000000E+00 -0.10431360498E+04  0.13791236959E+04  0.90213599316E+03 0.  0.
        4    1    3    3  502    0 -0.40092427024E+03  0.23693383585E+01 -0.83751965765E+03  0.92854007673E+03  0.12699999809E+01 0. -1.
       -4    1    3    3    0  502  0.40092427024E+03 -0.23693383585E+01 -0.20561639212E+03  0.45058361914E+03  0.12699999809E+01 0.  1.
</event>
<event>
 5   0  0.1162839E-02  0.8779757E+03  0.7818609E-02  0.9453540E-01
       -1   -1    0    0    0  501  0.00000000000E+00  0.00000000000E+00  0.12881768634E+03  0.12881768644E+03  0.50400001928E-02 0. -1.
        1   -1    0    0  501    0  0.00000000000E+00  0.00000000000E+00 -0.14959927827E+04  0.14959927827E+04  0.50400001928E-02 0.  1.
    10030    2    1    2    0    0  0.00000000000E+00  0.00000000000E+00 -0.13671750963E+04  0.16248104691E+04  0.87797569246E+03 0.  0.
        2    1    3    3  502    0  0.17954862606E+01  0.25137443358E+03 -0.13496044956E+04  0.13728163112E+04  0.25500000920E-02 0.  1.
       -2    1    3    3    0  502 -0.17954862606E+01 -0.25137443358E+03 -0.17570600725E+02  0.25199415796E+03  0.25500000920E-02 0. -1.
</event>
<event>
 5   0  0.7893875E-03  0.8818335E+03  0.7818609E-02  0.9448580E-01
        3   -1    0    0  501    0  0.00000000000E+00  0.00000000000E+00  0.16684584661E+03  0.16684587718E+03  0.10100000352E+00 0.  1.
       -3   -1    0    0    0  501  0.00000000000E+00  0.00000000000E+00 -0.11651926563E+04  0.11651926606E+04  0.10100000352E+00 0. -1.
    10030    2    1    2    0    0  0.00000000000E+00  0.00000000000E+00 -0.99834680965E+03  0.13320385378E+04  0.88183349556E+03 0.  0.
        1    1    3    3  502    0  0.28284286434E+03 -0.15483061344E+03 -0.95342703536E+03  0.10064768833E+04  0.50400001928E-02 0. -1.
       -1    1    3    3    0  502 -0.28284286434E+03  0.15483061344E+03 -0.44919774292E+02  0.32556165455E+03  0.50400001928E-02 0.  1.
</event>
<event>
 5   0  0.1924218E-02  0.8905267E+03  0.7818609E-02  0.9437502E-01
        2   -1    0    0  501    0  0.00000000000E+00  0.00000000000E+00  0.66595318016E+03  0.66595318017E+03  0.25500000920E-02 0.  1.
       -2   -1    0    0    0  501  0.00000000000E+00  0.00000000000E+00 -0.29770778899E+03  0.29770778900E+03  0.25500000920E-02 0. -1.
    10030    2    1    2    0    0  0.00000000000E+00  0.00000000000E+00  0.36824539118E+03  0.96366096917E+03  0.89052669548E+03 0.  0.
        4    1    3    3  502    0  0.33986217649E+03  0.51040785411E+02 -0.12222828079E+03  0.36476406938E+03  0.12699999809E+01 0. -1.
       -4    1    3    3    0  502 -0.33986217649E+03 -0.51040785411E+02  0.49047367196E+03  0.59889689979E+03  0.12699999809E+01 0.  1.
</event>
<event>
 5   0  0.1226424E-02  0.9142072E+03  0.7818609E-02  0.9407994E-01
       -1   -1    0    0    0  501  0.00000000000E+00  0.00000000000E+00  0.43680466283E+03  0.43680466286E+03  0.50400001928E-02 0. -1.
        1   -1    0    0  501    0  0.00000000000E+00  0.00000000000E+00 -0.47834585814E+03  0.47834585817E+03  0.50400001928E-02 0.  1.
    10030    2    1    2    0    0  0.00000000000E+00  0.00000000000E+00 -0.41541195313E+02  0.91515052102E+03  0.91420720038E+03 0.  0.
        1    1    3    3  502    0  0.36077045034E+03 -0.10300362101E+03 -0.28215041657E+03  0.46944000829E+03  0.50400001928E-02 0.  1.
       -1    1    3    3    0  502 -0.36077045034E+03  0.10300362101E+03  0.24060922126E+03  0.44571051274E+03  0.50400001928E-02 0. -1.
</event>
<event>
 5   0  0.1206541E-02  0.8340370E+03  0.7818609E-02  0.9512016E-01
       -1   -1    0    0    0  501  0.00000000000E+00  0.00000000000E+00  0.68152913707E+03  0.68152913709E+03  0.50400001928E-02 0. -1.
        1   -1    0    0  501    0  0.00000000000E+00  0.00000000000E+00 -0.25516802806E+03  0.25516802811E+03  0.50400001928E-02 0.  1.
    10030    2    1    2    0    0  0.00000000000E+00  0.00000000000E+00  0.42636110901E+03  0.93669716521E+03  0.83403703996E+03 0.  0.
        3    1    3    3  502    0 -0.21034656973E+03 -0.17172446380E+03  0.56863303119E+03  0.63014165489E+03  0.10100000352E+00 0. -1.
       -3    1    3    3    0  502  0.21034656973E+03  0.17172446380E+03 -0.14227192218E+03  0.30655551032E+03  0.10100000352E+00 0.  1.
</event>
<event>
 5   0  0.1968763E-02  0.9145087E+03  0.7818609E-02  0.9407624E-01
        2   -1    0    0  501    0  0.00000000000E+00  0.00000000000E+00  0.13494306165E+04  0.13494306165E+04  0.25500000920E-02 0. -1.
       -2   -1    0    0    0  501  0.00000000000E+00  0.00000000000E+00 -0.15494057786E+03  0.15494057788E+03  0.25500000920E-02 0.  1.
    10030    2    1    2    0    0  0.00000000000E+00  0.00000000000E+00  0.11944900386E+04  0.15043711944E+04  0.91450874137E+03 0.  0.
        2    1    3    3  502    0  0.42652294043E+03 -0.13905542764E+03  0.74274500160E+03  0.86771445077E+03  0.25500000920E-02 0.  1.
       -2    1    3    3    0  502 -0.42652294043E+03  0.13905542764E+03  0.45174503703E+03  0.63665674359E+03  0.25500000920E-02 0. -1.
</event>
<event>
 5   0  0.1924218E-02  0.7871412E+03  0.7818609E-02  0.9578818E-01
        2   -1    0    0  501    0  0.00000000000E+00  0.00000000000E+00  0.69509254223E+03  0.69509254224E+03  0.25500000920E-02 0. -1.
       -2   -1    0    0    0  501  0.00000000000E+00  0.00000000000E+00 -0.22284487425E+03  0.22284487426E+03  0.25500000920E-02 0.  1.
    10030    2    1    2    0    0  0.00000000000E+00  0.00000000000E+00  0.47224766798E+03  0.91793741650E+03  0.78714118219E+03 0.  0.
        4    1    3    3  502    0 -0.96455986106E+02  0.22736882830E+02 -0.20805456805E+03  0.23045398517E+03  0.12699999809E+01 0.  1.
       -4    1    3    3    0  502  0.96455986106E+02 -0.22736882830E+02  0.68030223603E+03  0.68748343133E+03  0.12699999809E+01 0. -1.
</event>
<event>
 5   0  0.1177712E-02  0.8894517E+03  0.7818609E-02  0.9438864E-01
        1   -1    0    0  501    0  0.00000000000E+00  0.00000000000E+00  0.91664797254E+03  0.91664797255E+03  0.50400001928E-02 0. -1.
       -1   -1    0    0    0  501  0.00000000000E+00  0.00000000000E+00 -0.21576556022E+03  0.21576556028E+03  0.50400001928E-02 0.  1.
    10030    2    1    2    0    0  0.00000000000E+00  0.00000000000E+00  0.70088241232E+03  0.11324135328E+04  0.88945165886E+03 0.  0.
        5    1    3    3  502    0 -0.41993896446E+03 -0.11723638258E+03  0.23896981299E+03  0.49721400301E+03  0.46999998093E+01 0. -1.
       -5    1    3    3    0  502  0.41993896446E+03  0.11723638258E+03  0.46191259932E+03  0.63519952982E+03  0.46999998093E+01 0.  1.
</event>
<event>
 5   0  0.1924218E-02  0.8941275E+03  0.7818609E-02  0.9432952E-01
        2   -1    0    0  501    0  0.00000000000E+00  0.00000000000E+00  0.14770791132E+04  0.14770791132E+04  0.25500000920E-02 0. -1.
       -2   -1    0    0    0  501  0.00000000000E+00  0.00000000000E+00 -0.13531164934E+03  0.13531164936E+03  0.25500000920E-02 0.  1.
    10030    2    1    2    0    0  0.00000000000E+00  0.00000000000E+00  0.13417674639E+04  0.16123907626E+04  0.89412753235E+03 0.  0.
        4    1    3    3  502    0 -0.26831343685E+03 -0.33918686027E+03  0.46666655617E+03  0.63625396983E+03  0.12699999809E+01 0.  1.
       -4    1    3    3    0  502  0.26831343685E+03  0.33918686027E+03  0.87510090771E+03  0.97613679275E+03  0.12699999809E+01 0. -1.
</event>
<event>
 5   0  0.1162839E-02  0.8965257E+03  0.7818609E-02  0.9429935E-01
       -1   -1    0    0    0  501  0.00000000000E+00  0.00000000000E+00  0.51052485267E+03  0.51052485270E+03  0.50400001928E-02 0.  1.
        1   -1    0    0  501    0  0.00000000000E+00  0.00000000000E+00 -0.39359410335E+03  0.39359410338E+03  0.50400001928E-02 0. -1.
    10030    2    1    2    0    0  0.00000000000E+00  0.00000000000E+00  0.11693074932E+03  0.90411895608E+03  0.89652567538E+03 0.  0.
        2    1    3    3  502    0 -0.20717004368E+03 -0.73683083522E+02 -0.33547203834E+03  0.40111109721E+03  0.25500000920E-02 0. -1.
       -2    1    3    3    0  502  0.20717004368E+03  0.73683083522E+02  0.45240278766E+03  0.50300785887E+03  0.25500000920E-02 0.  1.
</event>
<event>
 5   0  0.2041861E-02  0.8865955E+03  0.7818609E-02  0.9442495E-01
       -2   -1    0    0    0  501  0.00000000000E+00  0.00000000000E+00  0.11571398077E+04  0.11571398077E+04  0.25500000920E-02 0. -1.
        2   -1    0    0  501    0  0.00000000000E+00  0.00000000000E+00 -0.16982640527E+03  0.16982640529E+03  0.25500000920E-02 0.  1.
    10030    2    1    2    0    0  0.00000000000E+00  0.00000000000E+00  0.98731340248E+03  0.13269662130E+04  0.88659549730E+03 0.  0.
        5    1    3    3  502    0 -0.32842164883E+03 -0.10707829385E+03  0.90941645970E+03  0.97282420179E+03  0.46999998093E+01 0. -1.
       -5    1    3    3    0  502  0.32842164883E+03  0.10707829385E+03  0.77896942780E+02  0.35414201124E+03  0.46999998093E+01 0.  1.
</event>
<event>
 5   0  0.1162839E-02  0.8638377E+03  0.7818609E-02  0.9471950E-01
       -1   -1    0    0    0  501  0.00000000000E+00  0.00000000000E+00  0.54827965614E+03  0.54827965616E+03  0.50400001928E-02 0.  1.
        1   -1    0    0  501    0  0.00000000000E+00  0.00000000000E+00 -0.34025320164E+03  0.34025320167E+03  0.50400001928E-02 0. -1.
    10030    2    1    2    0    0  0.00000000000E+00  0.00000000000E+00  0.20802645450E+03  0.88853285784E+03  0.86383773574E+03 0.  0.
        2    1    3    3  502    0 -0.13934438833E+03 -0.25083573859E+03 -0.22804457763E+03  0.36652388149E+03  0.25500000920E-02 0. -1.
       -2    1    3    3    0  502  0.13934438833E+03  0.25083573859E+03  0.43607103213E+03  0.52200897634E+03  0.25500000920E-02 0.  1.
</event>
<event>
 5   0  0.2008643E-02  0.8815507E+03  0.7818609E-02  0.9448942E-01
        2   -1    0    0  501    0  0.00000000000E+00  0.00000000000E+00  0.40952018412E+03  0.40952018413E+03  0.25500000920E-02 0. -1.
       -2   -1    0    0    0  501  0.00000000000E+00  0.00000000000E+00 -0.47441593551E+03  0.47441593551E+03  0.25500000920E-02 0.  1.
    10030    2    1    2    0    0  0.00000000000E+00  0.00000000000E+00 -0.64895751384E+02  0.88393611964E+03  0.88155068207E+03 0.  0.
        3    1    3    3  502    0 -0.33125857688E+03  0.24125501582E+03  0.13030789963E+03  0.43001905344E+03  0.10100000352E+00 0. -1.
       -3    1    3    3    0  502  0.33125857688E+03 -0.24125501582E+03 -0.19520365101E+03  0.45391706620E+03  0.10100000352E+00 0.  1.
</event>
<event>
 5   0  0.7893875E-03  0.9103344E+03  0.7818609E-02  0.9412754E-01
        4   -1    0    0  501    0  0.00000000000E+00  0.00000000000E+00  0.80003269907E+03  0.80003370709E+03  0.12699999809E+01 0. -1.
       -4   -1    0    0    0  501  0.00000000000E+00  0.00000000000E+00 -0.25895815772E+03  0.25896127191E+03  0.12699999809E+01 0.  1.
    10030    2    1    2    0    0  0.00000000000E+00  0.00000000000E+00  0.54107454135E+03  0.10589949790E+04  0.91033439255E+03 0.  0.
        2    1    3    3  502    0  0.42877524672E+03  0.14779703945E+03  0.31536596622E+03  0.55240190960E+03  0.25500000920E-02 0.  1.
       -2    1    3    3    0  502 -0.42877524672E+03 -0.14779703945E+03  0.22570857513E+03  0.50659306940E+03  0.25500000920E-02 0. -1.
</event>
<event>
 5   0  0.1968763E-02  0.9028514E+03  0.7818609E-02  0.9422024E-01
        2   -1    0    0  501    0  0.00000000000E+00  0.00000000000E+00  0.31848216891E+03  0.31848216892E+03  0.25500000920E-02 0.  1.
       -2   -1    0    0    0  501  0.00000000000E+00  0.00000000000E+00 -0.63986369124E+03  0.63986369124E+03  0.25500000920E-02 0. -1.
    10030    2    1    2    0    0  0.00000000000E+00  0.00000000000E+00 -0.32138152233E+03  0.95834586016E+03  0.90285143008E+03 0.  0.
        2    1    3    3  502    0 -0.29921475148E+02  0.34131120278E+02  0.31605384381E+03  0.31929650834E+03  0.25500000920E-02 0.  1.
       -2    1    3    3    0  502  0.29921475148E+02 -0.34131120278E+02 -0.63743536614E+03  0.63904935182E+03  0.25500000920E-02 0. -1.
</event>
<event>
 5   0  0.1177712E-02  0.8685471E+03  0.7818609E-02  0.9465776E-01
        1   -1    0    0  501    0  0.00000000000E+00  0.00000000000E+00  0.29653371313E+03  0.29653371318E+03  0.50400001928E-02 0. -1.
       -1   -1    0    0    0  501  0.00000000000E+00  0.00000000000E+00 -0.63599344562E+03  0.63599344564E+03  0.50400001928E-02 0.  1.
    10030    2    1    2    0    0  0.00000000000E+00  0.00000000000E+00 -0.33945973248E+03  0.93252715881E+03  0.86854705799E+03 0.  0.
        5    1    3    3  502    0  0.25901117428E+03 -0.34761457152E+03 -0.14238348410E+03  0.45630891430E+03  0.46999998093E+01 0.  1.
       -5    1    3    3    0  502 -0.25901117428E+03  0.34761457152E+03 -0.19707624838E+03  0.47621824451E+03  0.46999998093E+01 0. -1.
</event>
<event>
 5   0  0.1924218E-02  0.7157858E+03  0.7818609E-02  0.9690611E-01
       -2   -1    0    0    0  501  0.00000000000E+00  0.00000000000E+00  0.19921784108E+03  0.19921784109E+03  0.25500000920E-02 0.  1.
        2   -1    0    0  501    0  0.00000000000E+00  0.00000000000E+00 -0.64295109055E+03  0.64295109056E+03  0.25500000920E-02 0. -1.
    10030    2    1    2    0    0  0.00000000000E+00  0.00000000000E+00 -0.44373324948E+03  0.84216893165E+03  0.71578580088E+03 0.  0.
        4    1    3    3  502    0 -0.28249465865E+03 -0.14265540585E+03 -0.25229045782E+02  0.31747742382E+03  0.12699999809E+01 0.  1.
       -4    1    3    3    0  502  0.28249465865E+03  0.14265540585E+03 -0.41850420369E+03  0.52469150783E+03  0.12699999809E+01 0. -1.
</event>
<event>
 5   0  0.2041861E-02  0.8489304E+03  0.7818609E-02  0.9491774E-01
       -2   -1    0    0    0  501  0.00000000000E+00  0.00000000000E+00  0.35561917376E+03  0.35561917377E+03  0.25500000920E-02 0.  1.
        2   -1    0    0  501    0  0.00000000000E+00  0.00000000000E+00 -0.50663948969E+03  0.50663948970E+03  0.25500000920E-02 0. -1.
    10030    2    1    2    0    0  0.00000000000E+00  0.00000000000E+00 -0.15102031593E+03  0.86225866347E+03  0.84893042524E+03 0.  0.
        5    1    3    3  502    0  0.22815283367E+02 -0.18219133054E+03 -0.46418554232E+03  0.49920389198E+03  0.46999998093E+01 0. -1.
       -5    1    3    3    0  502 -0.22815283367E+02  0.18219133054E+03  0.31316522639E+03  0.36305477148E+03  0.46999998093E+01 0.  1.
</event>
<event>
 5   0  0.1175993E-02  0.8950758E+03  0.7818609E-02  0.9431758E-01
        1   -1    0    0  501    0  0.00000000000E+00  0.00000000000E+00  0.16247460497E+04  0.16247460498E+04  0.50400001928E-02 0.  1.
       -1   -1    0    0    0  501  0.00000000000E+00  0.00000000000E+00 -0.12327476561E+03  0.12327476571E+03  0.50400001928E-02 0. -1.
    10030    2    1    2    0    0  0.00000000000E+00  0.00000000000E+00  0.15014712841E+04  0.17480208155E+04  0.89507583713E+03 0.  0.
        4    1    3    3  502    0 -0.84212988449E+02  0.35266350530E+03  0.12630782899E+04  0.13140897057E+04  0.12699999809E+01 0.  1.
       -4    1    3    3    0  502  0.84212988449E+02 -0.35266350530E+03  0.23839299424E+03  0.43393110973E+03  0.12699999809E+01 0. -1.
</event>
<event>
 5   0  0.7893875E-03  0.9257086E+03  0.7818609E-02  0.9394003E-01
       -4   -1    0    0    0  501  0.00000000000E+00  0.00000000000E+00  0.10765944038E+04  0.10765951528E+04  0.12699999809E+01 0. -1.
        4   -1    0    0  501    0  0.00000000000E+00  0.00000000000E+00 -0.19898956372E+03  0.19899361640E+03  0.12699999809E+01 0.  1.
    10030    2    1    2    0    0  0.00000000000E+00  0.00000000000E+00  0.87760484004E+03  0.12755887692E+04  0.92570862205E+03 0.  0.
        4    1    3    3  502    0  0.20611197270E+02 -0.40659165204E+03  0.13536681908E+03  0.42903074665E+03  0.12699999809E+01 0.  1.
       -4    1    3    3    0  502 -0.20611197270E+02  0.40659165204E+03  0.74223802095E+03  0.84655802259E+03  0.12699999809E+01 0. -1.
</event>
<event>
 5   0  0.2041861E-02  0.7914373E+03  0.7818609E-02  0.9572495E-01
       -2   -1    0    0    0  501  0.00000000000E+00  0.00000000000E+00  0.23250526492E+03  0.23250526493E+03  0.25500000920E-02 0.  1.
        2   -1    0    0  501    0  0.00000000000E+00  0.00000000000E+00 -0.67350408256E+03  0.67350408256E+03  0.25500000920E-02 0. -1.
    10030    2    1    2    0    0  0.00000000000E+00  0.00000000000E+00 -0.44099881764E+03  0.90600934749E+03  0.79143728784E+03 0.  0.
        5    1    3    3  502    0  0.27078324535E+03 -0.40887735474E+02 -0.54746104213E+03  0.61215280406E+03  0.46999998093E+01 0. -1.
       -5    1    3    3    0  502 -0.27078324535E+03  0.40887735474E+02  0.10646222449E+03  0.29385654343E+03  0.46999998093E+01 0.  1.
</event>
<event>
 5   0  0.1206541E-02  0.8428042E+03  0.7818609E-02  0.9500046E-01
       -1   -1    0    0    0  501  0.00000000000E+00  0.00000000000E+00  0.21341959268E+03  0.21341959274E+03  0.50400001928E-02 0. -1.
        1   -1    0    0  501    0  0.00000000000E+00  0.00000000000E+00 -0.83206863589E+03  0.83206863591E+03  0.50400001928E-02 0.  1.
    10030    2    1    2    0    0  0.00000000000E+00  0.00000000000E+00 -0.61864904322E+03  0.10454882286E+04  0.84280424629E+03 0.  0.
        3    1    3    3  502    0  0.52808901725E+02  0.30523031139E+03  0.45084800260E+02  0.31302870876E+03  0.10100000352E+00 0. -1.
       -3    1    3    3    0  502 -0.52808901725E+02 -0.30523031139E+03 -0.66373384348E+03  0.73245951988E+03  0.10100000352E+00 0.  1.
</event>
<event>
 5   0  0.2008770E-02  0.9127746E+03  0.7818609E-02  0.9409752E-01
        2   -1    0    0  501    0  0.00000000000E+00  0.00000000000E+00  0.68685825173E+03  0.68685825173E+03  0.25500000920E-02 0.  1.
       -2   -1    0    0    0  501  0.00000000000E+00  0.00000000000E+00 -0.30324941509E+03  0.30324941510E+03  0.25500000920E-02 0. -1.
    10030    2    1    2    0    0  0.00000000000E+00  0.00000000000E+00  0.38360883664E+03  0.99010766683E+03  0.91277459012E+03 0.  0.
        1    1    3    3  502    0  0.18812896031E+03  0.38257189043E+03  0.36850313161E+03  0.56351425455E+03  0.50400001928E-02 0.  1.
       -1    1    3    3    0  502 -0.18812896031E+03 -0.38257189043E+03  0.15105705037E+02  0.42659341228E+03  0.50400001928E-02 0. -1.
</event>
<event>
 5   0  0.1226424E-02  0.8939167E+03  0.7818609E-02  0.9433218E-01
        1   -1    0    0  501    0  0.00000000000E+00  0.00000000000E+00  0.15188092134E+03  0.15188092142E+03  0.50400001928E-02 0. -1.
       -1   -1    0    0    0  501  0.00000000000E+00  0.00000000000E+00 -0.13153183595E+04  0.13153183596E+04  0.50400001928E-02 0.  1.
    10030    2    1    2    0    0  0.00000000000E+00  0.00000000000E+00 -0.11634374382E+04  0.14671992810E+04  0.89391669492E+03 0.  0.
        1    1    3    3  502    0 -0.98487389225E+02 -0.27154400502E+03 -0.11415392790E+04  0.11775176594E+04  0.50400001928E-02 0.  1.
       -1    1    3    3    0  502  0.98487389225E+02  0.27154400502E+03 -0.21898159166E+02  0.28968162161E+03  0.50400001928E-02 0. -1.
</event>
<event>
 5   0  0.2008770E-02  0.8704942E+03  0.7818609E-02  0.9463236E-01
        2   -1    0    0  501    0  0.00000000000E+00  0.00000000000E+00  0.24875865238E+03  0.24875865240E+03  0.25500000920E-02 0.  1.
       -2   -1    0    0    0  501  0.00000000000E+00  0.00000000000E+00 -0.76154151542E+03  0.76154151542E+03  0.25500000920E-02 0. -1.
    10030    2    1    2    0    0  0.00000000000E+00  0.00000000000E+00 -0.51278286303E+03  0.10103001678E+04  0.87049420703E+03 0.  0.
        1    1    3    3  502    0 -0.36375363333E+03 -0.13488716632E+03 -0.27399605926E+02  0.38892414663E+03  0.50400001928E-02 0.  1.
       -1    1    3    3    0  502  0.36375363333E+03  0.13488716632E+03 -0.48538325711E+03  0.62137602119E+03  0.50400001928E-02 0. -1.
</event>
<event>
 5   0  0.2008770E-02  0.9233914E+03  0.7818609E-02  0.9396804E-01
       -2   -1    0    0    0  501  0.00000000000E+00  0.00000000000E+00  0.25132861305E+03  0.25132861306E+03  0.25500000920E-02 0. -1.
        2   -1    0    0  501    0  0.00000000000E+00  0.00000000000E+00 -0.84814418697E+03  0.84814418698E+03  0.25500000920E-02 0.  1.
    10030    2    1    2    0    0  0.00000000000E+00  0.00000000000E+00 -0.59681557392E+03  0.10994728000E+04  0.92339136272E+03 0.  0.
        1    1    3    3  502    0 -0.27867641298E+03  0.24930005084E+03  0.24073262824E+02  0.37468731031E+03  0.50400001928E-02 0. -1.
       -1    1    3    3    0  502  0.27867641298E+03 -0.24930005084E+03 -0.62088883674E+03  0.72478548973E+03  0.50400001928E-02 0.  1.
</event>
<event>
 5   0  0.2041861E-02  0.9500015E+03  0.7818609E-02  0.9365149E-01
       -2   -1    0    0    0  501  0.00000000000E+00  0.00000000000E+00  0.12410011615E+03  0.12410011617E+03  0.25500000920E-02 0. -1.
        2   -1    0    0  501    0  0.00000000000E+00  0.00000000000E+00 -0.18180944158E+04  0.18180944158E+04  0.25500000920E-02 0.  1.
    10030    2    1    2    0    0  0.00000000000E+00  0.00000000000E+00 -0.16939942996E+04  0.19421945320E+04  0.95000153304E+03 0.  0.
        5    1    3    3  502    0  0.15777399115E+03 -0.97284927316E+02 -0.17410544176E+04  0.17508996443E+04  0.46999998093E+01 0.  1.
       -5    1    3    3    0  502 -0.15777399115E+03  0.97284927316E+02  0.47060117913E+02  0.19129488771E+03  0.46999998093E+01 0. -1.
</event>
<event>
 5   0  0.2008643E-02  0.9211300E+03  0.7818609E-02  0.9399547E-01
        2   -1    0    0  501    0  0.00000000000E+00  0.00000000000E+00  0.33959251353E+03  0.33959251354E+03  0.25500000920E-02 0.  1.
       -2   -1    0    0    0  501  0.00000000000E+00  0.00000000000E+00 -0.62463131053E+03  0.62463131053E+03  0.25500000920E-02 0. -1.
    10030    2    1    2    0    0  0.00000000000E+00  0.00000000000E+00 -0.28503879699E+03  0.96422382408E+03  0.92112999469E+03 0.  0.
        3    1    3    3  502    0  0.12642677631E+03 -0.16481722771E+03 -0.57281198778E+03  0.60931275373E+03  0.10100000352E+00 0. -1.
       -3    1    3    3    0  502 -0.12642677631E+03  0.16481722771E+03  0.28777319078E+03  0.35491107034E+03  0.10100000352E+00 0.  1.
</event>
<event>
 5   0  0.1162839E-02  0.8996519E+03  0.7818609E-02  0.9426017E-01
       -1   -1    0    0    0  501  0.00000000000E+00  0.00000000000E+00  0.36974942837E+03  0.36974942840E+03  0.50400001928E-02 0. -1.
        1   -1    0    0  501    0  0.00000000000E+00  0.00000000000E+00 -0.54724460500E+03  0.54724460503E+03  0.50400001928E-02 0.  1.
    10030    2    1    2    0    0  0.00000000000E+00  0.00000000000E+00 -0.17749517664E+03  0.91699403343E+03  0.89965188802E+03 0.  0.
        2    1    3    3  502    0 -0.34909153108E+03 -0.25298194698E+03  0.42095985681E+02  0.43317067605E+03  0.25500000920E-02 0. -1.
       -2    1    3    3    0  502  0.34909153108E+03  0.25298194698E+03 -0.21959116232E+03  0.48382335738E+03  0.25500000920E-02 0.  1.
</event>
<event>
 5   0  0.1206541E-02  0.9062648E+03  0.7818609E-02  0.9417784E-01
       -1   -1    0    0    0  501  0.00000000000E+00  0.00000000000E+00  0.10133671808E+04  0.10133671808E+04  0.50400001928E-02 0.  1.
        1   -1    0    0  501    0  0.00000000000E+00  0.00000000000E+00 -0.20262052019E+03  0.20262052025E+03  0.50400001928E-02 0. -1.
    10030    2    1    2    0    0  0.00000000000E+00  0.00000000000E+00  0.81074666059E+03  0.12159877010E+04  0.90626482963E+03 0.  0.
        3    1    3    3  502    0 -0.20491475563E+02 -0.21401181119E+02  0.10120659945E+04  0.10124996289E+04  0.10100000352E+00 0.  1.
       -3    1    3    3    0  502  0.20491475563E+02  0.21401181119E+02 -0.20131933387E+03  0.20348807217E+03  0.10100000352E+00 0. -1.
</event>
<event>
 5   0  0.1177712E-02  0.6670500E+03  0.7818609E-02  0.9775302E-01
        1   -1    0    0  501    0  0.00000000000E+00  0.00000000000E+00  0.76402296458E+03  0.76402296460E+03  0.50400001928E-02 0. -1.
       -1   -1    0    0    0  501  0.00000000000E+00  0.00000000000E+00 -0.14559629834E+03  0.14559629842E+03  0.50400001928E-02 0.  1.
    10030    2    1    2    0    0  0.00000000000E+00  0.00000000000E+00  0.61842666624E+03  0.90961926302E+03  0.66704996974E+03 0.  0.
        5    1    3    3  502    0 -0.26519277031E+03  0.10955542937E+03  0.77444937374E+02  0.29723627950E+03  0.46999998093E+01 0.  1.
       -5    1    3    3    0  502  0.26519277031E+03 -0.10955542937E+03  0.54098172887E+03  0.61238298352E+03  0.46999998093E+01 0. -1.
</event>
<event>
 5   0  0.7893875E-03  0.9251232E+03  0.7818609E-02  0.9394710E-01
        3   -1    0    0  501    0  0.00000000000E+00  0.00000000000E+00  0.98629326456E+03  0.98629326973E+03  0.10100000352E+00 0.  1.
       -3   -1    0    0    0  501  0.00000000000E+00  0.00000000000E+00 -0.21693669578E+03  0.21693671930E+03  0.10100000352E+00 0. -1.
    10030    2    1    2    0    0  0.00000000000E+00  0.00000000000E+00  0.76935656878E+03  0.12032299890E+04  0.92512316833E+03 0.  0.
        3    1    3    3  502    0 -0.21324971836E+03  0.17304756938E+02 -0.14871432780E+03  0.26055874287E+03  0.10100000352E+00 0. -1.
       -3    1    3    3    0  502  0.21324971836E+03 -0.17304756938E+02  0.91807089657E+03  0.94267124616E+03  0.10100000352E+00 0.  1.
</event>
<event>
 5   0  0.1162839E-02  0.8955808E+03  0.7818609E-02  0.9431123E-01
       -1   -1    0    0    0  501  0.00000000000E+00  0.00000000000E+00  0.29692003008E+03  0.29692003013E+03  0.50400001928E-02 0. -1.
        1   -1    0    0  501    0  0.00000000000E+00  0.00000000000E+00 -0.67532069636E+03  0.67532069638E+03  0.50400001928E-02 0.  1.
    10030    2    1    2    0    0  0.00000000000E+00  0.00000000000E+00 -0.37840066628E+03  0.97224072651E+03  0.89558079816E+03 0.  0.
        2    1    3    3  502    0 -0.31056536558E+03 -0.22592556193E+03  0.60777402698E+02  0.38882785203E+03  0.25500000920E-02 0. -1.
       -2    1    3    3    0  502  0.31056536558E+03  0.22592556193E+03 -0.43917806898E+03  0.58341287448E+03  0.25500000920E-02 0.  1.
</event>
<event>
 5   0  0.1226424E-02  0.8879475E+03  0.7818609E-02  0.9440774E-01
       -1   -1    0    0    0  501  0.00000000000E+00  0.00000000000E+00  0.36307121934E+03  0.36307121937E+03  0.50400001928E-02 0.  1.
        1   -1    0    0  501    0  0.00000000000E+00  0.00000000000E+00 -0.54290363787E+03  0.54290363789E+03  0.50400001928E-02 0. -1.
    10030    2    1    2    0    0  0.00000000000E+00  0.00000000000E+00 -0.17983241853E+03  0.90597485727E+03  0.88794748901E+03 0.  0.
        1    1    3    3  502    0  0.37262908788E+03  0.24136092236E+03 -0.87599919140E+02  0.45252765422E+03  0.50400001928E-02 0.  1.
       -1    1    3    3    0  502 -0.37262908788E+03 -0.24136092236E+03 -0.92232499393E+02  0.45344720304E+03  0.50400001928E-02 0. -1.
</event>
<event>
 5   0  0.1924218E-02  0.9056828E+03  0.7818609E-02  0.9418505E-01
       -2   -1    0    0    0  501  0.00000000000E+00  0.00000000000E+00  0.54134437229E+03  0.54134437230E+03  0.25500000920E-02 0.  1.
        2   -1    0    0  501    0  0.00000000000E+00  0.00000000000E+00 -0.37880758529E+03  0.37880758530E+03  0.25500000920E-02 0. -1.
    10030    2    1    2    0    0  0.00000000000E+00  0.00000000000E+00  0.16253678700E+03  0.92015195760E+03  0.90568284623E+03 0.  0.
        4    1    3    3  502    0  0.67095194994E+02  0.38623749410E+03 -0.14903023027E+03  0.41939574327E+03  0.12699999809E+01 0. -1.
       -4    1    3    3    0  502 -0.67095194994E+02 -0.38623749410E+03  0.31156701727E+03  0.50075621433E+03  0.12699999809E+01 0.  1.
</event>
<event>
 5   0  0.1206541E-02  0.8804101E+03  0.7818609E-02  0.9450407E-01
        1   -1    0    0  501    0  0.00000000000E+00  0.00000000000E+00  0.11987889143E+04  0.11987889143E+04  0.50400001928E-02 0. -1.
       -1   -1    0    0    0  501  0.00000000000E+00  0.00000000000E+00 -0.16164687499E+03  0.16164687506E+03  0.50400001928E-02 0.  1.
    10030    2    1    2    0    0  0.00000000000E+00  0.00000000000E+00  0.10371420393E+04  0.13604357893E+04  0.88041009040E+03 0.  0.
        3    1    3    3  502    0 -0.21747094577E+03 -0.23166367704E+03  0.98934343977E+03  0.10391160299E+04  0.10100000352E+00 0. -1.
       -3    1    3    3    0  502  0.21747094577E+03  0.23166367704E+03  0.47798599516E+02  0.32131975948E+03  0.10100000352E+00 0.  1.
</event>
<event>
 5   0  0.1968763E-02  0.9020558E+03  0.7818609E-02  0.9423015E-01
        2   -1    0    0  501    0  0.00000000000E+00  0.00000000000E+00  0.25340734455E+04  0.25340734455E+04  0.25500000920E-02 0. -1.
       -2   -1    0    0    0  501  0.00000000000E+00  0.00000000000E+00 -0.80276348445E+02  0.80276348485E+02  0.25500000920E-02 0.  1.
    10030    2    1    2    0    0  0.00000000000E+00  0.00000000000E+00  0.24537970971E+04  0.26143497940E+04  0.90205579195E+03 0.  0.
        2    1    3    3  502    0 -0.33626851363E+03 -0.24187707930E+03  0.17440905456E+04  0.17926050502E+04  0.25500000920E-02 0. -1.
       -2    1    3    3    0  502  0.33626851363E+03  0.24187707930E+03  0.70970655143E+03  0.82174474376E+03  0.25500000920E-02 0.  1.
</event>
<event>
 5   0  0.1177712E-02  0.9070902E+03  0.7818609E-02  0.9416761E-01
       -1   -1    0    0    0  501  0.00000000000E+00  0.00000000000E+00  0.16893426823E+03  0.16893426830E+03  0.50400001928E-02 0.  1.
        1   -1    0    0  501    0  0.00000000000E+00  0.00000000000E+00 -0.12176521125E+04  0.12176521125E+04  0.50400001928E-02 0. -1.
    10030    2    1    2    0    0  0.00000000000E+00  0.00000000000E+00 -0.10487178443E+04  0.13865863808E+04  0.90709022404E+03 0.  0.
        5    1    3    3  502    0 -0.16145302456E+02 -0.54645862417E+02  0.16340347417E+03  0.17311737763E+03  0.46999998093E+01 0.  1.
       -5    1    3    3    0  502  0.16145302456E+02  0.54645862417E+02 -0.12121213184E+04  0.12134690032E+04  0.46999998093E+01 0. -1.
</event>
<event>
 5   0  0.1924218E-02  0.9026409E+03  0.7818609E-02  0.9422286E-01
       -2   -1    0    0    0  501  0.00000000000E+00  0.00000000000E+00  0.14609841768E+03  0.14609841771E+03  0.25500000920E-02 0.  1.
        2   -1    0    0  501    0  0.00000000000E+00  0.00000000000E+00 -0.13941981494E+04  0.13941981494E+04  0.25500000920E-02 0. -1.
    10030    2    1    2    0    0  0.00000000000E+00  0.00000000000E+00 -0.12480997317E+04  0.15402965671E+04  0.90264088892E+03 0.  0.
        4    1    3    3  502    0 -0.16423140021E+03 -0.26211987744E+03 -0.11848664147E+04  0.12245769950E+04  0.12699999809E+01 0. -1.
       -4    1    3    3    0  502  0.16423140021E+03  0.26211987744E+03 -0.63233317008E+02  0.31571957216E+03  0.12699999809E+01 0.  1.
</event>
<event>
 5   0  0.2008770E-02  0.8989990E+03  0.7818609E-02  0.9426834E-01
        2   -1    0    0  501    0  0.00000000000E+00  0.00000000000E+00  0.50903068724E+03  0.50903068724E+03  0.25500000920E-02 0.  1.
       -2   -1    0    0    0  501  0.00000000000E+00  0.00000000000E+00 -0.39693045985E+03  0.39693045986E+03  0.25500000920E-02 0. -1.
    10030    2    1    2    0    0  0.00000000000E+00  0.00000000000E+00  0.11210022738E+03  0.90596114711E+03  0.89899896501E+03 0.  0.
        1    1    3    3  502    0 -0.14328667661E+03 -0.42564997091E+03  0.74654267988E+02  0.45528258168E+03  0.50400001928E-02 0.  1.
       -1    1    3    3    0  502  0.14328667661E+03  0.42564997091E+03  0.37445959396E+02  0.45067856542E+03  0.50400001928E-02 0. -1.
</event>
<event>
 5   0  0.2008770E-02  0.7741226E+03  0.7818609E-02  0.9598248E-01
       -2   -1    0    0    0  501  0.00000000000E+00  0.00000000000E+00  0.99914112152E+02  0.99914112184E+02  0.25500000920E-02 0. -1.
        2   -1    0    0  501    0  0.00000000000E+00  0.00000000000E+00 -0.14994525175E+04  0.14994525175E+04  0.25500000920E-02 0.  1.
    10030    2    1    2    0    0  0.00000000000E+00  0.00000000000E+00 -0.13995384054E+04  0.15993666297E+04  0.77412264411E+03 0.  0.
        1    1    3    3  502    0 -0.35784274112E+03 -0.99036077187E+02 -0.47385295422E+03  0.60199351675E+03  0.50400001928E-02 0. -1.
       -1    1    3    3    0  502  0.35784274112E+03  0.99036077187E+02 -0.92568545115E+03  0.99737311296E+03  0.50400001928E-02 0.  1.
</event>
<event>
 5   0  0.1162839E-02  0.9072598E+03  0.7818609E-02  0.9416552E-01
        1   -1    0    0  501    0  0.00000000000E+00  0.00000000000E+00  0.27079552213E+03  0.27079552217E+03  0.50400001928E-02 0.  1.
       -1   -1    0    0    0  501  0.00000000000E+00  0.00000000000E+00 -0.75990955039E+03  0.75990955041E+03  0.50400001928E-02 0. -1.
    10030    2    1    2    0    0  0.00000000000E+00  0.00000000000E+00 -0.48911402826E+03  0.10307050726E+04  0.90725983819E+03 0.  0.
        2    1    3    3  502    0  0.37754659430E+03 -0.10901732388E+03  0.12890927894E+02  0.39318237982E+03  0.25500000920E-02 0.  1.
       -2    1    3    3    0  502 -0.37754659430E+03  0.10901732388E+03 -0.50200495616E+03  0.63752269276E+03  0.25500000920E-02 0. -1.
</event>
<event>
 5   0  0.1924218E-02  0.8981522E+03  0.7818609E-02  0.9427894E-01
       -2   -1    0    0    0  501  0.00000000000E+00  0.00000000000E+00  0.97767083112E+02  0.97767083145E+02  0.25500000920E-02 0. -1.
        2   -1    0    0  501    0  0.00000000000E+00  0.00000000000E+00 -0.20627531130E+04  0.20627531130E+04  0.25500000920E-02 0.  1.
    10030    2    1    2    0    0  0.00000000000E+00  0.00000000000E+00 -0.19649860299E+04  0.21605201962E+04  0.89815222558E+03 0.  0.
        4    1    3    3  502    0 -0.21639152660E+03 -0.37370566980E+03 -0.12789335158E+04  0.13498717610E+04  0.12699999809E+01 0.  1.
       -4    1    3    3    0  502  0.21639152660E+03  0.37370566980E+03 -0.68605251415E+03  0.81064843520E+03  0.12699999809E+01 0. -1.
</event>
<event>
 5   0  0.1924218E-02  0.8529958E+03  0.7818609E-02  0.9486325E-01
       -2   -1    0    0    0  501  0.00000000000E+00  0.00000000000E+00  0.36780212238E+03  0.36780212239E+03  0.25500000920E-02 0. -1.
        2   -1    0    0  501    0  0.00000000000E+00  0.00000000000E+00 -0.49456071159E+03  0.49456071160E+03  0.25500000920E-02 0.  1.
    10030    2    1    2    0    0  0.00000000000E+00  0.00000000000E+00 -0.12675858921E+03  0.86236283399E+03  0.85299584847E+03 0.  0.
        4    1    3    3  502    0  0.27305633027E+03 -0.32711069476E+03 -0.81957718427E+02  0.43391225684E+03  0.12699999809E+01 0. -1.
       -4    1    3    3    0  502 -0.27305633027E+03  0.32711069476E+03 -0.44800870782E+02  0.42845057714E+03  0.12699999809E+01 0.  1.
</event>
<event>
 5   0  0.7893875E-03  0.8936399E+03  0.7818609E-02  0.9433567E-01
       -4   -1    0    0    0  501  0.00000000000E+00  0.00000000000E+00  0.55409635463E+03  0.55409781007E+03  0.12699999809E+01 0. -1.
        4   -1    0    0  501    0  0.00000000000E+00  0.00000000000E+00 -0.36030985931E+03  0.36031209751E+03  0.12699999809E+01 0.  1.
    10030    2    1    2    0    0  0.00000000000E+00  0.00000000000E+00  0.19378649533E+03  0.91440990758E+03  0.89363990136E+03 0.  0.
        4    1    3    3  502    0  0.62076012385E+02  0.24619024794E+03  0.47311164672E+03  0.53693511028E+03  0.12699999809E+01 0. -1.
       -4    1    3    3    0  502 -0.62076012385E+02 -0.24619024794E+03 -0.27932515139E+03  0.37747479730E+03  0.12699999809E+01 0.  1.
</event>
<event>
 5   0  0.1924218E-02  0.9078516E+03  0.7818609E-02  0.9415819E-01
       -2   -1    0    0    0  501  0.00000000000E+00  0.00000000000E+00  0.30468552864E+03  0.30468552865E+03  0.25500000920E-02 0. -1.
        2   -1    0    0  501    0  0.00000000000E+00  0.00000000000E+00 -0.67626648942E+03  0.67626648942E+03  0.25500000920E-02 0.  1.
    10030    2    1    2    0    0  0.00000000000E+00  0.00000000000E+00 -0.37158096078E+03  0.98095201807E+03  0.90785155799E+03 0.  0.
        4    1    3    3  502    0 -0.43601693683E+03 -0.12322937439E+03 -0.15618438203E+03  0.47926132955E+03  0.12699999809E+01 0. -1.
       -4    1    3    3    0  502  0.43601693683E+03  0.12322937439E+03 -0.21539657875E+03  0.50169068852E+03  0.12699999809E+01 0.  1.
</event>
<event>
 5   0  0.1206541E-02  0.8867766E+03  0.7818609E-02  0.9442264E-01
       -1   -1    0    0    0  501  0.00000000000E+00  0.00000000000E+00  0.32939225272E+03  0.32939225276E+03  0.50400001928E-02 0. -1.
        1   -1    0    0  501    0  0.00000000000E+00  0.00000000000E+00 -0.59683613383E+03  0.59683613385E+03  0.50400001928E-02 0.  1.
    10030    2    1    2    0    0  0.00000000000E+00  0.00000000000E+00 -0.26744388111E+03  0.92622838661E+03  0.88677663175E+03 0.  0.
        3    1    3    3  502    0 -0.35910896429E+03 -0.15550396148E+03 -0.35144830555E+03  0.52598160799E+03  0.10100000352E+00 0.  1.
       -3    1    3    3    0  502  0.35910896429E+03  0.15550396148E+03  0.84004424437E+02  0.40024677862E+03  0.10100000352E+00 0. -1.
</event>
<event>
 5   0  0.1177712E-02  0.9020347E+03  0.7818609E-02  0.9423042E-01
       -1   -1    0    0    0  501  0.00000000000E+00  0.00000000000E+00  0.31744800748E+03  0.31744800752E+03  0.50400001928E-02 0. -1.
        1   -1    0    0  501    0  0.00000000000E+00  0.00000000000E+00 -0.64078722556E+03  0.64078722558E+03  0.50400001928E-02 0.  1.
    10030    2    1    2    0    0  0.00000000000E+00  0.00000000000E+00 -0.32333921808E+03  0.95823523311E+03  0.90203465123E+03 0.  0.
        5    1    3    3  502    0  0.19502490574E+02 -0.44719170875E+03 -0.22018094166E+03  0.49886121174E+03  0.46999998093E+01 0. -1.
       -5    1    3    3    0  502 -0.19502490574E+02  0.44719170875E+03 -0.10315827642E+03  0.45937402137E+03  0.46999998093E+01 0.  1.
</event>
<event>
 5   0  0.1206541E-02  0.8919332E+03  0.7818609E-02  0.9435722E-01
        1   -1    0    0  501    0  0.00000000000E+00  0.00000000000E+00  0.27292126554E+04  0.27292126554E+04  0.50400001928E-02 0.  1.
       -1   -1    0    0    0  501  0.00000000000E+00  0.00000000000E+00 -0.72873113985E+02  0.72873114160E+02  0.50400001928E-02 0. -1.
    10030    2    1    2    0    0  0.00000000000E+00  0.00000000000E+00  0.26563395414E+04  0.28020857696E+04  0.89193323781E+03 0.  0.
        3    1    3    3  502    0  0.34663578320E+03 -0.18422089237E+03  0.66327673540E+03  0.77073324912E+03  0.10100000352E+00 0. -1.
       -3    1    3    3    0  502 -0.34663578320E+03  0.18422089237E+03  0.19930628060E+04  0.20313525204E+04  0.10100000352E+00 0.  1.
</event>
<event>
 5   0  0.7893875E-03  0.9015574E+03  0.7818609E-02  0.9423637E-01
       -4   -1    0    0    0  501  0.00000000000E+00  0.00000000000E+00  0.78658654464E+03  0.78658756989E+03  0.12699999809E+01 0.  1.
        4   -1    0    0  501    0  0.00000000000E+00  0.00000000000E+00 -0.25833044135E+03  0.25833356311E+03  0.12699999809E+01 0. -1.
    10030    2    1    2    0    0  0.00000000000E+00  0.00000000000E+00  0.52825610328E+03  0.10449211330E+04  0.90155735455E+03 0.  0.
        3    1    3    3  502    0 -0.63048878073E+02 -0.15166965673E+03 -0.22241458574E+03  0.27649069415E+03  0.10100000352E+00 0. -1.
       -3    1    3    3    0  502  0.63048878073E+02  0.15166965673E+03  0.75067068903E+03  0.76843043886E+03  0.10100000352E+00 0.  1.
</event>
<event>
 5   0  0.2008643E-02  0.8826762E+03  0.7818609E-02  0.9447500E-01
       -2   -1    0    0    0  501  0.00000000000E+00  0.00000000000E+00  0.19499585025E+03  0.19499585026E+03  0.25500000920E-02 0.  1.
        2   -1    0    0  501    0  0.00000000000E+00  0.00000000000E+00 -0.99888945042E+03  0.99888945042E+03  0.25500000920E-02 0. -1.
    10030    2    1    2    0    0  0.00000000000E+00  0.00000000000E+00 -0.80389360017E+03  0.11938853007E+04  0.88267615284E+03 0.  0.
        3    1    3    3  502    0 -0.90471784487E+01  0.17207633794E+03  0.14761669009E+03  0.22689824793E+03  0.10100000352E+00 0.  1.
       -3    1    3    3    0  502  0.90471784487E+01 -0.17207633794E+03 -0.95151029026E+03  0.96698705275E+03  0.10100000352E+00 0. -1.
</event>
<event>
 5   0  0.2041861E-02  0.8988596E+03  0.7818609E-02  0.9427008E-01
        2   -1    0    0  501    0  0.00000000000E+00  0.00000000000E+00  0.16052526598E+04  0.16052526598E+04  0.25500000920E-02 0. -1.
       -2   -1    0    0    0  501  0.00000000000E+00  0.00000000000E+00 -0.12582888631E+03  0.12582888634E+03  0.25500000920E-02 0.  1.
    10030    2    1    2    0    0  0.00000000000E+00  0.00000000000E+00  0.14794237735E+04  0.17310815462E+04  0.89885962076E+03 0.  0.
        5    1    3    3  502    0 -0.23314897244E+03  0.60595016012E+02  0.90631157055E+01  0.24111082385E+03  0.46999998093E+01 0.  1.
       -5    1    3    3    0  502  0.23314897244E+03 -0.60595016012E+02  0.14703606578E+04  0.14899707223E+04  0.46999998093E+01 0. -1.
</event>
<event>
 5   0  0.1968763E-02  0.8883259E+03  0.7818609E-02  0.9440293E-01
        2   -1    0    0  501    0  0.00000000000E+00  0.00000000000E+00  0.12262319184E+04  0.12262319184E+04  0.25500000920E-02 0.  1.
       -2   -1    0    0    0  501  0.00000000000E+00  0.00000000000E+00 -0.16088369692E+03  0.16088369694E+03  0.25500000920E-02 0. -1.
    10030    2    1    2    0    0  0.00000000000E+00  0.00000000000E+00  0.10653482215E+04  0.13871156154E+04  0.88832589592E+03 0.  0.
        2    1    3    3  502    0 -0.15083672222E+03  0.38830240314E+03  0.29203044058E+03  0.50873593473E+03  0.25500000920E-02 0. -1.
       -2    1    3    3    0  502  0.15083672222E+03 -0.38830240314E+03  0.77331778094E+03  0.87837968065E+03  0.25500000920E-02 0.  1.
</event>
<event>
 5   0  0.1162839E-02  0.9164397E+03  0.7818609E-02  0.9405261E-01
        1   -1    0    0  501    0  0.00000000000E+00  0.00000000000E+00  0.12474338962E+04  0.12474338962E+04  0.50400001928E-02 0. -1.
       -1   -1    0    0    0  501  0.00000000000E+00  0.00000000000E+00 -0.16831788700E+03  0.16831788707E+03  0.50400001928E-02 0.  1.
    10030    2    1    2    0    0  0.00000000000E+00  0.00000000000E+00  0.10791160092E+04  0.14157517833E+04  0.91643971463E+03 0.  0.
        2    1    3    3  502    0  0.14711549965E+03  0.11599806963E+03  0.11855647315E+04  0.12002759079E+04  0.25500000920E-02 0. -1.
       -2    1    3    3    0  502 -0.14711549965E+03 -0.11599806963E+03 -0.10644872231E+03  0.21547587541E+03  0.25500000920E-02 0.  1.
</event>
<event>
 5   0  0.2008770E-02  0.9047662E+03  0.7818609E-02  0.9419643E-01
       -2   -1    0    0    0  501  0.00000000000E+00  0.00000000000E+00  0.13614314862E+03  0.13614314865E+03  0.25500000920E-02 0.  1.
        2   -1    0    0  501    0  0.00000000000E+00  0.00000000000E+00 -0.15032007171E+04  0.15032007171E+04  0.25500000920E-02 0. -1.
    10030    2    1    2    0    0  0.00000000000E+00  0.00000000000E+00 -0.13670575684E+04  0.16393438657E+04  0.90476622098E+03 0.  0.
        1    1    3    3  502    0 -0.19416805854E+03  0.24360387262E+03 -0.89164469469E+02  0.32402836967E+03  0.50400001928E-02 0.  1.
       -1    1    3    3    0  502  0.19416805854E+03 -0.24360387262E+03 -0.12778930990E+04  0.13153154960E+04  0.50400001928E-02 0. -1.
</event>
<event>
 5   0  0.7893875E-03  0.9007286E+03  0.7818609E-02  0.9424671E-01
       -3   -1    0    0    0  501  0.00000000000E+00  0.00000000000E+00  0.19521313509E+03  0.19521316122E+03  0.10100000352E+00 0. -1.
        3   -1    0    0  501    0  0.00000000000E+00  0.00000000000E+00 -0.10390078199E+04  0.10390078248E+04  0.10100000352E+00 0.  1.
    10030    2    1    2    0    0  0.00000000000E+00  0.00000000000E+00 -0.84379468480E+03  0.12342209860E+04  0.90072857855E+03 0.  0.
        2    1    3    3  502    0  0.28013214680E+03  0.67129246448E+02 -0.89626352772E+03  0.94141843329E+03  0.25500000920E-02 0.  1.
       -2    1    3    3    0  502 -0.28013214680E+03 -0.67129246448E+02  0.52468842919E+02  0.29280255273E+03  0.25500000920E-02 0. -1.
</event>
<event>
 5   0  0.7893875E-03  0.9100420E+03  0.7818609E-02  0.9413115E-01
       -4   -1    0    0    0  501  0.00000000000E+00  0.00000000000E+00  0.17723626732E+03  0.17724081741E+03  0.12699999809E+01 0.  1.
        4   -1    0    0  501    0  0.00000000000E+00  0.00000000000E+00 -0.11681614912E+04  0.11681621815E+04  0.12699999809E+01 0. -1.
    10030    2    1    2    0    0  0.00000000000E+00  0.00000000000E+00 -0.99092522386E+03  0.13454029989E+04  0.91004199370E+03 0.  0.
        4    1    3    3  502    0 -0.37744466295E+03 -0.31111633537E+02 -0.12259560710E+03  0.39807499685E+03  0.12699999809E+01 0.  1.
       -4    1    3    3    0  502  0.37744466295E+03  0.31111633537E+02 -0.86832961675E+03  0.94732800210E+03  0.12699999809E+01 0. -1.
</event>
<event>
 5   0  0.1226424E-02  0.9139672E+03  0.7818609E-02  0.9408288E-01
       -1   -1    0    0    0  501  0.00000000000E+00  0.00000000000E+00  0.13978710190E+03  0.13978710199E+03  0.50400001928E-02 0.  1.
        1   -1    0    0  501    0  0.00000000000E+00  0.00000000000E+00 -0.14939432267E+04  0.14939432267E+04  0.50400001928E-02 0. -1.
    10030    2    1    2    0    0  0.00000000000E+00  0.00000000000E+00 -0.13541561248E+04  0.16337303287E+04  0.91396716384E+03 0.  0.
        1    1    3    3  502    0  0.38330575531E+03 -0.11189292202E+03 -0.10743356672E+04  0.11461415505E+04  0.50400001928E-02 0. -1.
       -1    1    3    3    0  502 -0.38330575531E+03  0.11189292202E+03 -0.27982045757E+03  0.48758877813E+03  0.50400001928E-02 0.  1.
</event>
<event>
 5   0  0.7893875E-03  0.6962140E+03  0.7818609E-02  0.9723729E-01
        3   -1    0    0  501    0  0.00000000000E+00  0.00000000000E+00  0.79439661660E+02  0.79439725865E+02  0.10100000352E+00 0. -1.
       -3   -1    0    0    0  501  0.00000000000E+00  0.00000000000E+00 -0.15254146832E+04  0.15254146865E+04  0.10100000352E+00 0.  1.
    10030    2    1    2    0    0  0.00000000000E+00  0.00000000000E+00 -0.14459750215E+04  0.16048544124E+04  0.69621399161E+03 0.  0.
        3    1    3    3  502    0 -0.31986618786E+03  0.12643826655E+03 -0.59933660259E+03  0.69101764579E+03  0.10100000352E+00 0. -1.
       -3    1    3    3    0  502  0.31986618786E+03 -0.12643826655E+03 -0.84663841894E+03  0.91383676662E+03  0.10100000352E+00 0.  1.
</event>
<event>
 5   0  0.1206541E-02  0.8468014E+03  0.7818609E-02  0.9494640E-01
        1   -1    0    0  501    0  0.00000000000E+00  0.00000000000E+00  0.55161601488E+03  0.55161601490E+03  0.50400001928E-02 0.  1.
       -1   -1    0    0    0  501  0.00000000000E+00  0.00000000000E+00 -0.32498721935E+03  0.32498721939E+03  0.50400001928E-02 0. -1.
    10030    2    1    2    0    0  0.00000000000E+00  0.00000000000E+00  0.22662879553E+03  0.87660323429E+03  0.84680140494E+03 0.  0.
        3    1    3    3  502    0  0.29412798736E+03  0.54535389033E+02  0.42349739066E+03  0.51849342494E+03  0.10100000352E+00 0. -1.
       -3    1    3    3    0  502 -0.29412798736E+03 -0.54535389033E+02 -0.19686859513E+03  0.35810980936E+03  0.10100000352E+00 0.  1.
</event>
<event>
 5   0  0.1162839E-02  0.9138562E+03  0.7818609E-02  0.9408424E-01
        1   -1    0    0  501    0  0.00000000000E+00  0.00000000000E+00  0.87077409020E+03  0.87077409021E+03  0.50400001928E-02 0.  1.
       -1   -1    0    0    0  501  0.00000000000E+00  0.00000000000E+00 -0.23976744177E+03  0.23976744183E+03  0.50400001928E-02 0. -1.
    10030    2    1    2    0    0  0.00000000000E+00  0.00000000000E+00  0.63100664842E+03  0.11105415320E+04  0.91385617251E+03 0.  0.
        2    1    3    3  502    0 -0.15034134824E+03  0.53707136923E+02  0.83577933634E+03  0.85089016718E+03  0.25500000920E-02 0.  1.
       -2    1    3    3    0  502  0.15034134824E+03 -0.53707136923E+02 -0.20477268792E+03  0.25965136485E+03  0.25500000920E-02 0. -1.
</event>
<event>
 5   0  0.1206541E-02  0.9112509E+03  0.7818609E-02  0.9411626E-01
        1   -1    0    0  501    0  0.00000000000E+00  0.00000000000E+00  0.13422572925E+04  0.13422572926E+04  0.50400001928E-02 0.  1.
       -1   -1    0    0    0  501  0.00000000000E+00  0.00000000000E+00 -0.15466077862E+03  0.15466077870E+03  0.50400001928E-02 0. -1.
    10030    2    1    2    0    0  0.00000000000E+00  0.00000000000E+00  0.11875965139E+04  0.14969180712E+04  0.91125091613E+03 0.  0.
        3    1    3    3  502    0 -0.25601737166E+03 -0.16482791197E+03  0.11505799370E+04  0.11901879418E+04  0.10100000352E+00 0.  1.
       -3    1    3    3    0  502  0.25601737166E+03  0.16482791197E+03  0.37016576941E+02  0.30673012947E+03  0.10100000352E+00 0. -1.
</event>
<event>
 5   0  0.1175993E-02  0.8966700E+03  0.7818609E-02  0.9429754E-01
        1   -1    0    0  501    0  0.00000000000E+00  0.00000000000E+00  0.10989256152E+04  0.10989256153E+04  0.50400001928E-02 0. -1.
       -1   -1    0    0    0  501  0.00000000000E+00  0.00000000000E+00 -0.18290981539E+03  0.18290981546E+03  0.50400001928E-02 0.  1.
    10030    2    1    2    0    0  0.00000000000E+00  0.00000000000E+00  0.91601579985E+03  0.12818354307E+04  0.89667002061E+03 0.  0.
        4    1    3    3  502    0  0.28178169674E+03 -0.25207566293E+03  0.80246620232E+03  0.88707197184E+03  0.12699999809E+01 0. -1.
       -4    1    3    3    0  502 -0.28178169674E+03  0.25207566293E+03  0.11354959753E+03  0.39476345887E+03  0.12699999809E+01 0.  1.
</event>
<event>
 5   0  0.7893875E-03  0.8824313E+03  0.7818609E-02  0.9447814E-01
       -4   -1    0    0    0  501  0.00000000000E+00  0.00000000000E+00  0.23407121924E+03  0.23407466453E+03  0.12699999809E+01 0.  1.
        4   -1    0    0  501    0  0.00000000000E+00  0.00000000000E+00 -0.83166520647E+03  0.83166617615E+03  0.12699999809E+01 0. -1.
    10030    2    1    2    0    0  0.00000000000E+00  0.00000000000E+00 -0.59759398723E+03  0.10657408407E+04  0.88243128114E+03 0.  0.
        5    1    3    3  502    0 -0.19312233818E+03 -0.75220286273E+02 -0.76918484094E+03  0.79663149480E+03  0.46999998093E+01 0. -1.
       -5    1    3    3    0  502  0.19312233818E+03  0.75220286273E+02  0.17159085370E+03  0.26910934589E+03  0.46999998093E+01 0.  1.
</event>
<event>
 5   0  0.1968763E-02  0.9063859E+03  0.7818609E-02  0.9417634E-01
       -2   -1    0    0    0  501  0.00000000000E+00  0.00000000000E+00  0.23566924791E+03  0.23566924792E+03  0.25500000920E-02 0.  1.
        2   -1    0    0  501    0  0.00000000000E+00  0.00000000000E+00 -0.87149189841E+03  0.87149189841E+03  0.25500000920E-02 0. -1.
    10030    2    1    2    0    0  0.00000000000E+00  0.00000000000E+00 -0.63582265050E+03  0.11071611463E+04  0.90638587867E+03 0.  0.
        2    1    3    3  502    0 -0.24183688344E+03 -0.30744172124E+03 -0.38352238487E+02  0.39303483860E+03  0.25500000920E-02 0.  1.
       -2    1    3    3    0  502  0.24183688344E+03  0.30744172124E+03 -0.59747041201E+03  0.71412630773E+03  0.25500000920E-02 0. -1.
</event>
<event>
 5   0  0.1162839E-02  0.8271241E+03  0.7818609E-02  0.9521565E-01
       -1   -1    0    0    0  501  0.00000000000E+00  0.00000000000E+00  0.22993428005E+03  0.22993428010E+03  0.50400001928E-02 0. -1.
        1   -1    0    0  501    0  0.00000000000E+00  0.00000000000E+00 -0.74383670200E+03  0.74383670202E+03  0.50400001928E-02 0.  1.
    10030    2    1    2    0    0  0.00000000000E+00  0.00000000000E+00 -0.51390242196E+03  0.97377098212E+03  0.82712406949E+03 0.  0.
        2    1    3    3  502    0 -0.53465446720E+02 -0.11069392080E+03 -0.72182993553E+03  0.73222274884E+03  0.25500000920E-02 0.  1.
       -2    1    3    3    0  502  0.53465446720E+02  0.11069392080E+03  0.20792751357E+03  0.24154823328E+03  0.25500000920E-02 0. -1.
</event>
<event>
 5   0  0.1177712E-02  0.9123598E+03  0.7818609E-02  0.9410262E-01
        1   -1    0    0  501    0  0.00000000000E+00  0.00000000000E+00  0.27399387936E+03  0.27399387941E+03  0.50400001928E-02 0.  1.
       -1   -1    0    0    0  501  0.00000000000E+00  0.00000000000E+00 -0.75950638322E+03  0.75950638324E+03  0.50400001928E-02 0. -1.
    10030    2    1    2    0    0  0.00000000000E+00  0.00000000000E+00 -0.48551250386E+03  0.10335002626E+04  0.91235979826E+03 0.  0.
        5    1    3    3  502    0  0.15953452867E+03  0.20872065358E+03  0.17966850515E+03  0.31830557459E+03  0.46999998093E+01 0.  1.
       -5    1    3    3    0  502 -0.15953452867E+03 -0.20872065358E+03 -0.66518100901E+03  0.71519468805E+03  0.46999998093E+01 0. -1.
</event>
<event>
 5   0  0.1177712E-02  0.8858787E+03  0.7818609E-02  0.9443408E-01
        1   -1    0    0  501    0  0.00000000000E+00  0.00000000000E+00  0.94591784738E+03  0.94591784739E+03  0.50400001928E-02 0. -1.
       -1   -1    0    0    0  501  0.00000000000E+00  0.00000000000E+00 -0.20741258898E+03  0.20741258904E+03  0.50400001928E-02 0.  1.
    10030    2    1    2    0    0  0.00000000000E+00  0.00000000000E+00  0.73850525839E+03  0.11533304364E+04  0.88587870441E+03 0.  0.
        5    1    3    3  502    0  0.84944174713E+02 -0.11770467419E+03 -0.17553423551E+03  0.22782506662E+03  0.46999998093E+01 0.  1.
       -5    1    3    3    0  502 -0.84944174713E+02  0.11770467419E+03  0.91403949391E+03  0.92550536982E+03  0.46999998093E+01 0. -1.
</event>
<event>
 5   0  0.2008643E-02  0.9009088E+03  0.7818609E-02  0.9424446E-01
        2   -1    0    0  501    0  0.00000000000E+00  0.00000000000E+00  0.59180829496E+03  0.59180829496E+03  0.25500000920E-02 0.  1.
       -2   -1    0    0    0  501  0.00000000000E+00  0.00000000000E+00 -0.34286296631E+03  0.34286296632E+03  0.25500000920E-02 0. -1.
    10030    2    1    2    0    0  0.00000000000E+00  0.00000000000E+00  0.24894532865E+03  0.93467126128E+03  0.90090875787E+03 0.  0.
        3    1    3    3  502    0  0.28857476030E+03 -0.15141137660E+02  0.48297204640E+03  0.56282026806E+03  0.10100000352E+00 0.  1.
       -3    1    3    3    0  502 -0.28857476030E+03  0.15141137660E+02 -0.23402671775E+03  0.37185099322E+03  0.10100000352E+00 0. -1.
</event>
<event>
 5   0  0.2008643E-02  0.8955542E+03  0.7818609E-02  0.9431156E-01
       -2   -1    0    0    0  501  0.00000000000E+00  0.00000000000E+00  0.27370545321E+03  0.27370545322E+03  0.25500000920E-02 0. -1.
        2   -1    0    0  501    0  0.00000000000E+00  0.00000000000E+00 -0.73255509911E+03  0.73255509911E+03  0.25500000920E-02 0.  1.
    10030    2    1    2    0    0  0.00000000000E+00  0.00000000000E+00 -0.45884964590E+03  0.10062605523E+04  0.89555418688E+03 0.  0.
        3    1    3    3  502    0  0.23598915848E+03  0.16600966738E+03  0.15532889477E+03  0.32768455614E+03  0.10100000352E+00 0. -1.
       -3    1    3    3    0  502 -0.23598915848E+03 -0.16600966738E+03 -0.61417854067E+03  0.67857599619E+03  0.10100000352E+00 0.  1.
</event>
<event>
 5   0  0.1924218E-02  0.8908509E+03  0.7818609E-02  0.9437091E-01
        2   -1    0    0  501    0  0.00000000000E+00  0.00000000000E+00  0.95747944915E+03  0.95747944915E+03  0.25500000920E-02 0. -1.
       -2   -1    0    0    0  501  0.00000000000E+00  0.00000000000E+00 -0.20721470270E+03  0.20721470272E+03  0.25500000920E-02 0.  1.
    10030    2    1    2    0    0  0.00000000000E+00  0.00000000000E+00  0.75026474645E+03  0.11646941519E+04  0.89085087284E+03 0.  0.
        4    1    3    3  502    0  0.12378909369E+03  0.38962828378E+03  0.14394783080E+03  0.43342419191E+03  0.12699999809E+01 0.  1.
       -4    1    3    3    0  502 -0.12378909369E+03 -0.38962828378E+03  0.60631691565E+03  0.73126995996E+03  0.12699999809E+01 0. -1.
</event>
<event>
 5   0  0.2008643E-02  0.9014552E+03  0.7818609E-02  0.9423764E-01
        2   -1    0    0  501    0  0.00000000000E+00  0.00000000000E+00  0.62836227272E+03  0.62836227273E+03  0.25500000920E-02 0. -1.
       -2   -1    0    0    0  501  0.00000000000E+00  0.00000000000E+00 -0.32330932664E+03  0.32330932665E+03  0.25500000920E-02 0.  1.
    10030    2    1    2    0    0  0.00000000000E+00  0.00000000000E+00  0.30505294608E+03  0.95167159938E+03  0.90145523081E+03 0.  0.
        3    1    3    3  502    0  0.84576234868E+01  0.42921558241E+03  0.29750001587E+03  0.52230624850E+03  0.10100000352E+00 0. -1.
       -3    1    3    3    0  502 -0.84576234868E+01 -0.42921558241E+03  0.75529302145E+01  0.42936535088E+03  0.10100000352E+00 0.  1.
</event>
<event>
 5   0  0.2008770E-02  0.8959346E+03  0.7818609E-02  0.9430678E-01
        2   -1    0    0  501    0  0.00000000000E+00  0.00000000000E+00  0.60019036746E+03  0.60019036746E+03  0.25500000920E-02 0.  1.
       -2   -1    0    0    0  501  0.00000000000E+00  0.00000000000E+00 -0.33435172083E+03  0.33435172084E+03  0.25500000920E-02 0. -1.
    10030    2    1    2    0    0  0.00000000000E+00  0.00000000000E+00  0.26583864663E+03  0.93454208830E+03  0.89593455608E+03 0.  0.
        1    1    3    3  502    0  0.25340147262E+03  0.31328445827E+03 -0.71258355511E+02  0.40919092289E+03  0.50400001928E-02 0. -1.
       -1    1    3    3    0  502 -0.25340147262E+03 -0.31328445827E+03  0.33709700214E+03  0.52535116541E+03  0.50400001928E-02 0.  1.
</event>
<event>
 5   0  0.2008643E-02  0.9296864E+03  0.7818609E-02  0.9389214E-01
       -2   -1    0    0    0  501  0.00000000000E+00  0.00000000000E+00  0.24491780925E+03  0.24491780927E+03  0.25500000920E-02 0. -1.
        2   -1    0    0  501    0  0.00000000000E+00  0.00000000000E+00 -0.88225185997E+03  0.88225185997E+03  0.25500000920E-02 0.  1.
    10030    2    1    2    0    0  0.00000000000E+00  0.00000000000E+00 -0.63733405072E+03  0.11271696692E+04  0.92968638317E+03 0.  0.
        3    1    3    3  502    0 -0.17886076948E+03 -0.31709771780E+02  0.20010462950E+03  0.27025646604E+03  0.10100000352E+00 0. -1.
       -3    1    3    3    0  502  0.17886076948E+03  0.31709771780E+02 -0.83743868022E+03  0.85691320320E+03  0.10100000352E+00 0.  1.
</event>
<event>
 5   0  0.2041861E-02  0.8923606E+03  0.7818609E-02  0.9435182E-01
        2   -1    0    0  501    0  0.00000000000E+00  0.00000000000E+00  0.15119944968E+04  0.15119944968E+04  0.25500000920E-02 0. -1.
       -2   -1    0    0    0  501  0.00000000000E+00  0.00000000000E+00 -0.13166505614E+03  0.13166505617E+03  0.25500000920E-02 0.  1.
    10030    2    1    2    0    0  0.00000000000E+00  0.00000000000E+00  0.13803294407E+04  0.16436595530E+04  0.89236055568E+03 0.  0.
        5    1    3    3  502    0  0.15826110365E+03 -0.40602533819E+03  0.86637042879E+03  0.96980563108E+03  0.46999998093E+01 0.  1.
       -5    1    3    3    0  502 -0.15826110365E+03  0.40602533819E+03  0.51395901187E+03  0.67385392190E+03  0.46999998093E+01 0. -1.
</event>
<event>
 5   0  0.1206541E-02  0.8872647E+03  0.7818609E-02  0.9441643E-01
       -1   -1    0    0    0  501  0.00000000000E+00  0.00000000000E+00  0.24235852938E+03  0.24235852943E+03  0.50400001928E-02 0. -1.
        1   -1    0    0  501    0  0.00000000000E+00  0.00000000000E+00 -0.81205997528E+03  0.81205997530E+03  0.50400001928E-02 0.  1.
    10030    2    1    2    0    0  0.00000000000E+00  0.00000000000E+00 -0.56970144591E+03  0.10544185047E+04  0.88726469875E+03 0.  0.
        3    1    3    3  502    0 -0.49898520673E+02 -0.69025093475E+02  0.23255092929E+03  0.24765756764E+03  0.10100000352E+00 0. -1.
       -3    1    3    3    0  502  0.49898520673E+02  0.69025093475E+02 -0.80225237520E+03  0.80676093709E+03  0.10100000352E+00 0.  1.
</event>
<event>
 5   0  0.7893875E-03  0.9046604E+03  0.7818609E-02  0.9419774E-01
       -3   -1    0    0    0  501  0.00000000000E+00  0.00000000000E+00  0.18734403317E+03  0.18734406040E+03  0.10100000352E+00 0. -1.
        3   -1    0    0  501    0  0.00000000000E+00  0.00000000000E+00 -0.10921222328E+04  0.10921222375E+04  0.10100000352E+00 0.  1.
    10030    2    1    2    0    0  0.00000000000E+00  0.00000000000E+00 -0.90477819965E+03  0.12794662979E+04  0.90466038760E+03 0.  0.
        3    1    3    3  502    0  0.23558732762E+03  0.40320051843E+02 -0.99551837575E+03  0.10238085476E+04  0.10100000352E+00 0.  1.
       -3    1    3    3    0  502 -0.23558732762E+03 -0.40320051843E+02  0.90740176102E+02  0.25565775028E+03  0.10100000352E+00 0. -1.
</event>
<event>
 5   0  0.1226424E-02  0.8842380E+03  0.7818609E-02  0.9445502E-01
        1   -1    0    0  501    0  0.00000000000E+00  0.00000000000E+00  0.36610567724E+03  0.36610567727E+03  0.50400001928E-02 0. -1.
       -1   -1    0    0    0  501  0.00000000000E+00  0.00000000000E+00 -0.53391474043E+03  0.53391474045E+03  0.50400001928E-02 0.  1.
    10030    2    1    2    0    0  0.00000000000E+00  0.00000000000E+00 -0.16780906319E+03  0.90002041772E+03  0.88423801695E+03 0.  0.
        1    1    3    3  502    0 -0.43476184916E+03 -0.70864214161E+01 -0.24694258641E+01  0.43482661021E+03  0.50400001928E-02 0. -1.
       -1    1    3    3    0  502  0.43476184916E+03  0.70864214161E+01 -0.16533963733E+03  0.46519380751E+03  0.50400001928E-02 0.  1.
</event>
<event>
 5   0  0.1206541E-02  0.9362698E+03  0.7818609E-02  0.9381345E-01
       -1   -1    0    0    0  501  0.00000000000E+00  0.00000000000E+00  0.47160288674E+03  0.47160288677E+03  0.50400001928E-02 0. -1.
        1   -1    0    0  501    0  0.00000000000E+00  0.00000000000E+00 -0.46469241862E+03  0.46469241864E+03  0.50400001928E-02 0.  1.
    10030    2    1    2    0    0  0.00000000000E+00  0.00000000000E+00  0.69104681252E+01  0.93629530541E+03  0.93626980319E+03 0.  0.
        3    1    3    3  502    0  0.25247523021E+03  0.37932936839E+03  0.11076968623E+03  0.46893970314E+03  0.10100000352E+00 0.  1.
       -3    1    3    3    0  502 -0.25247523021E+03 -0.37932936839E+03 -0.10385921810E+03  0.46735560227E+03  0.10100000352E+00 0. -1.
</event>
<event>
 5   0  0.1175993E-02  0.9161857E+03  0.7818609E-02  0.9405572E-01
       -1   -1    0    0    0  501  0.00000000000E+00  0.00000000000E+00  0.23538758105E+03  0.23538758111E+03  0.50400001928E-02 0. -1.
        1   -1    0    0  501    0  0.00000000000E+00  0.00000000000E+00 -0.89150447308E+03  0.89150447310E+03  0.50400001928E-02 0.  1.
    10030    2    1    2    0    0  0.00000000000E+00  0.00000000000E+00 -0.65611689203E+03  0.11268920542E+04  0.91618574853E+03 0.  0.
        4    1    3    3  502    0  0.21517881372E+02 -0.39984883947E+03 -0.54389906880E+02  0.40410640742E+03  0.12699999809E+01 0. -1.
       -4    1    3    3    0  502 -0.21517881372E+02  0.39984883947E+03 -0.60172698515E+03  0.72278564679E+03  0.12699999809E+01 0.  1.
</event>
<event>
 5   0  0.1175993E-02  0.8973907E+03  0.7818609E-02  0.9428849E-01
        1   -1    0    0  501    0  0.00000000000E+00  0.00000000000E+00  0.57271393857E+03  0.57271393859E+03  0.50400001928E-02 0. -1.
       -1   -1    0    0    0  501  0.00000000000E+00  0.00000000000E+00 -0.35153240300E+03  0.35153240304E+03  0.50400001928E-02 0.  1.
    10030    2    1    2    0    0  0.00000000000E+00  0.00000000000E+00  0.22118153557E+03  0.92424634163E+03  0.89739067765E+03 0.  0.
        4    1    3    3  502    0 -0.33364034368E+03 -0.18772547066E+03 -0.13044097348E+03  0.40444182738E+03  0.12699999809E+01 0.  1.
       -4    1    3    3    0  502  0.33364034368E+03  0.18772547066E+03  0.35162250905E+03  0.51980451426E+03  0.12699999809E+01 0. -1.
</event>
<event>
 5   0  0.1924218E-02  0.8448317E+03  0.7818609E-02  0.9497300E-01
        2   -1    0    0  501    0  0.00000000000E+00  0.00000000000E+00  0.54035274524E+03  0.54035274525E+03  0.25500000920E-02 0.  1.
       -2   -1    0    0    0  501  0.00000000000E+00  0.00000000000E+00 -0.33021977397E+03  0.33021977398E+03  0.25500000920E-02 0. -1.
    10030    2    1    2    0    0  0.00000000000E+00  0.00000000000E+00  0.21013297127E+03  0.87057251923E+03  0.84483172621E+03 0.  0.
        4    1    3    3  502    0 -0.31080688357E+03 -0.25426529537E+03 -0.30006634657E+02  0.40268321337E+03  0.12699999809E+01 0.  1.
       -4    1    3    3    0  502  0.31080688357E+03  0.25426529537E+03  0.24013960593E+03  0.46788930586E+03  0.12699999809E+01 0. -1.
</event>
<event>
 5   0  0.2041861E-02  0.9000015E+03  0.7818609E-02  0.9425580E-01
       -2   -1    0    0    0  501  0.00000000000E+00  0.00000000000E+00  0.15364793880E+03  0.15364793882E+03  0.25500000920E-02 0. -1.
        2   -1    0    0  501    0  0.00000000000E+00  0.00000000000E+00 -0.13179524160E+04  0.13179524160E+04  0.25500000920E-02 0.  1.
    10030    2    1    2    0    0  0.00000000000E+00  0.00000000000E+00 -0.11643044772E+04  0.14716003549E+04  0.90000149372E+03 0.  0.
        5    1    3    3  502    0  0.85671808102E+02  0.33828403516E+03 -0.10466579405E+04  0.11033089692E+04  0.46999998093E+01 0.  1.
       -5    1    3    3    0  502 -0.85671808102E+02 -0.33828403516E+03 -0.11764653678E+03  0.36829138568E+03  0.46999998093E+01 0. -1.
</event>
<event>
 5   0  0.1175993E-02  0.7864673E+03  0.7818609E-02  0.9579814E-01
        1   -1    0    0  501    0  0.00000000000E+00  0.00000000000E+00  0.40144415591E+03  0.40144415595E+03  0.50400001928E-02 0.  1.
       -1   -1    0    0    0  501  0.00000000000E+00  0.00000000000E+00 -0.38519110271E+03  0.38519110275E+03  0.50400001928E-02 0. -1.
    10030    2    1    2    0    0  0.00000000000E+00  0.00000000000E+00  0.16253053201E+02  0.78663525869E+03  0.78646733466E+03 0.  0.
        4    1    3    3  502    0  0.32112684678E+02 -0.95833421458E+02  0.38822850246E+03  0.40117110091E+03  0.12699999809E+01 0.  1.
       -4    1    3    3    0  502 -0.32112684678E+02  0.95833421458E+02 -0.37197544926E+03  0.38546415778E+03  0.12699999809E+01 0. -1.
</event>
<event>
 5   0  0.2008643E-02  0.9416838E+03  0.7818609E-02  0.9374924E-01
        2   -1    0    0  501    0  0.00000000000E+00  0.00000000000E+00  0.11964666155E+04  0.11964666155E+04  0.25500000920E-02 0.  1.
       -2   -1    0    0    0  501  0.00000000000E+00  0.00000000000E+00 -0.18528897637E+03  0.18528897638E+03  0.25500000920E-02 0. -1.
    10030    2    1    2    0    0  0.00000000000E+00  0.00000000000E+00  0.10111776391E+04  0.13817555919E+04  0.94168375680E+03 0.  0.
        3    1    3    3  502    0 -0.87629341134E+02 -0.61414531723E+02 -0.16721010745E+03  0.19851920907E+03  0.10100000352E+00 0. -1.
       -3    1    3    3    0  502  0.87629341134E+02  0.61414531723E+02  0.11783877466E+04  0.11832363828E+04  0.10100000352E+00 0.  1.
</event>
<event>
 5   0  0.2008770E-02  0.7610686E+03  0.7818609E-02  0.9618144E-01
       -2   -1    0    0    0  501  0.00000000000E+00  0.00000000000E+00  0.37647834098E+03  0.37647834099E+03  0.25500000920E-02 0. -1.
        2   -1    0    0  501    0  0.00000000000E+00  0.00000000000E+00 -0.38463399693E+03  0.38463399694E+03  0.25500000920E-02 0.  1.
    10030    2    1    2    0    0  0.00000000000E+00  0.00000000000E+00 -0.81556559449E+01  0.76111233793E+03  0.76106864094E+03 0.  0.
        1    1    3    3  502    0 -0.40200782493E+02  0.21890064432E+03  0.30460277488E+03  0.37724851953E+03  0.50400001928E-02 0. -1.
       -1    1    3    3    0  502  0.40200782493E+02 -0.21890064432E+03 -0.31275843083E+03  0.38386381840E+03  0.50400001928E-02 0.  1.
</event>
<event>
 5   0  0.1968763E-02  0.9084792E+03  0.7818609E-02  0.9415044E-01
        2   -1    0    0  501    0  0.00000000000E+00  0.00000000000E+00  0.85873961255E+03  0.85873961256E+03  0.25500000920E-02 0.  1.
       -2   -1    0    0    0  501  0.00000000000E+00  0.00000000000E+00 -0.24027493889E+03  0.24027493891E+03  0.25500000920E-02 0. -1.
    10030    2    1    2    0    0  0.00000000000E+00  0.00000000000E+00  0.61846467366E+03  0.10990145515E+04  0.90847918620E+03 0.  0.
        2    1    3    3  502    0 -0.10165118127E+03  0.35867598759E+03  0.62318508818E+03  0.72618253963E+03  0.25500000920E-02 0.  1.
       -2    1    3    3    0  502  0.10165118127E+03 -0.35867598759E+03 -0.47204145182E+01  0.37283201183E+03  0.25500000920E-02 0. -1.
</event>
<event>
 5   0  0.7893875E-03  0.7953579E+03  0.7818609E-02  0.9566761E-01
        4   -1    0    0  501    0  0.00000000000E+00  0.00000000000E+00  0.12350124753E+03  0.12350777725E+03  0.12699999809E+01 0.  1.
       -4   -1    0    0    0  501  0.00000000000E+00  0.00000000000E+00 -0.12805014783E+04  0.12805021081E+04  0.12699999809E+01 0. -1.
    10030    2    1    2    0    0  0.00000000000E+00  0.00000000000E+00 -0.11570002307E+04  0.14040098853E+04  0.79535792202E+03 0.  0.
        4    1    3    3  502    0 -0.24432631684E+03  0.24725517355E+02 -0.26338369220E+02  0.24698587592E+03  0.12699999809E+01 0.  1.
       -4    1    3    3    0  502  0.24432631684E+03 -0.24725517355E+02 -0.11306618615E+04  0.11570240094E+04  0.12699999809E+01 0. -1.
</event>
<event>
 5   0  0.1175993E-02  0.8968181E+03  0.7818609E-02  0.9429568E-01
        1   -1    0    0  501    0  0.00000000000E+00  0.00000000000E+00  0.17767414968E+04  0.17767414968E+04  0.50400001928E-02 0.  1.
       -1   -1    0    0    0  501  0.00000000000E+00  0.00000000000E+00 -0.11316823173E+03  0.11316823184E+03  0.50400001928E-02 0. -1.
    10030    2    1    2    0    0  0.00000000000E+00  0.00000000000E+00  0.16635732651E+04  0.18899097286E+04  0.89681813885E+03 0.  0.
        4    1    3    3  502    0  0.27655549443E+03  0.25068569456E+03  0.30815012985E+03  0.48402931149E+03  0.12699999809E+01 0. -1.
       -4    1    3    3    0  502 -0.27655549443E+03 -0.25068569456E+03  0.13554231352E+04  0.14058804171E+04  0.12699999809E+01 0.  1.
</event>
<event>
 5   0  0.2041861E-02  0.1007330E+04  0.7818609E-02  0.9300542E-01
        2   -1    0    0  501    0  0.00000000000E+00  0.00000000000E+00  0.22791822022E+04  0.22791822022E+04  0.25500000920E-02 0. -1.
       -2   -1    0    0    0  501  0.00000000000E+00  0.00000000000E+00 -0.11130234420E+03  0.11130234423E+03  0.25500000920E-02 0.  1.
    10030    2    1    2    0    0  0.00000000000E+00  0.00000000000E+00  0.21678798580E+04  0.23904845465E+04  0.10073297812E+04 0.  0.
        5    1    3    3  502    0 -0.19678194205E+02  0.49076110015E+03  0.13484361830E+04  0.14351083299E+04  0.46999998093E+01 0.  1.
       -5    1    3    3    0  502  0.19678194205E+02 -0.49076110015E+03  0.81944367503E+03  0.95537621662E+03  0.46999998093E+01 0. -1.
</event>
<event>
 5   0  0.7893875E-03  0.8923977E+03  0.7818609E-02  0.9435135E-01
        4   -1    0    0  501    0  0.00000000000E+00  0.00000000000E+00  0.25884966016E+03  0.25885277566E+03  0.12699999809E+01 0.  1.
       -4   -1    0    0    0  501  0.00000000000E+00  0.00000000000E+00 -0.76913858308E+03  0.76913963159E+03  0.12699999809E+01 0. -1.
    10030    2    1    2    0    0  0.00000000000E+00  0.00000000000E+00 -0.51028892292E+03  0.10279924073E+04  0.89239767174E+03 0.  0.
        2    1    3    3  502    0  0.22409038586E+03 -0.10738694009E+03  0.17176700392E+03  0.30208005492E+03  0.25500000920E-02 0.  1.
       -2    1    3    3    0  502 -0.22409038586E+03  0.10738694009E+03 -0.68205592684E+03  0.72591235234E+03  0.25500000920E-02 0. -1.
</event>
<event>
 5   0  0.1177712E-02  0.8090190E+03  0.7818609E-02  0.9547053E-01
        1   -1    0    0  501    0  0.00000000000E+00  0.00000000000E+00  0.19430397741E+04  0.19430397741E+04  0.50400001928E-02 0. -1.
       -1   -1    0    0    0  501  0.00000000000E+00  0.00000000000E+00 -0.84212343774E+02  0.84212343924E+02  0.50400001928E-02 0.  1.
    10030    2    1    2    0    0  0.00000000000E+00  0.00000000000E+00  0.18588274303E+04  0.20272521180E+04  0.80901899504E+03 0.  0.
        5    1    3    3  502    0 -0.14283187983E+03  0.68230066245E+02 -0.33069801528E+01  0.15839606672E+03  0.46999998093E+01 0.  1.
       -5    1    3    3    0  502  0.14283187983E+03 -0.68230066245E+02  0.18621344105E+04  0.18688560513E+04  0.46999998093E+01 0. -1.
</event>
<event>
 5   0  0.1175993E-02  0.8921673E+03  0.7818609E-02  0.9435426E-01
       -1   -1    0    0    0  501  0.00000000000E+00  0.00000000000E+00  0.11809341464E+03  0.11809341475E+03  0.50400001928E-02 0. -1.
        1   -1    0    0  501    0  0.00000000000E+00  0.00000000000E+00 -0.16850270965E+04  0.16850270965E+04  0.50400001928E-02 0.  1.
    10030    2    1    2    0    0  0.00000000000E+00  0.00000000000E+00 -0.15669336818E+04  0.18031205112E+04  0.89216725717E+03 0.  0.
        4    1    3    3  502    0  0.38122874257E+03 -0.90111743779E+02 -0.35220201408E+03  0.52678586935E+03  0.12699999809E+01 0. -1.
       -4    1    3    3    0  502 -0.38122874257E+03  0.90111743779E+02 -0.12147316677E+04  0.12763346419E+04  0.12699999809E+01 0.  1.
</event>
<event>
 5   0  0.1206541E-02  0.8925135E+03  0.7818609E-02  0.9434989E-01
        1   -1    0    0  501    0  0.00000000000E+00  0.00000000000E+00  0.14576125060E+04  0.14576125060E+04  0.50400001928E-02 0. -1.
       -1   -1    0    0    0  501  0.00000000000E+00  0.00000000000E+00 -0.13662416216E+03  0.13662416225E+03  0.50400001928E-02 0.  1.
    10030    2    1    2    0    0  0.00000000000E+00  0.00000000000E+00  0.13209883438E+04  0.15942366682E+04  0.89251350121E+03 0.  0.
        3    1    3    3  502    0 -0.19854453488E+03 -0.35810855819E+03  0.34355286036E+03  0.53449999986E+03  0.10100000352E+00 0.  1.
       -3    1    3    3    0  502  0.19854453488E+03  0.35810855819E+03  0.97743548346E+03  0.10597366684E+04  0.10100000352E+00 0. -1.
</event>
<event>
 5   0  0.7893875E-03  0.8967042E+03  0.7818609E-02  0.9429711E-01
       -3   -1    0    0    0  501  0.00000000000E+00  0.00000000000E+00  0.45122964849E+03  0.45122965979E+03  0.10100000352E+00 0. -1.
        3   -1    0    0  501    0  0.00000000000E+00  0.00000000000E+00 -0.44549284247E+03  0.44549285392E+03  0.10100000352E+00 0.  1.
    10030    2    1    2    0    0  0.00000000000E+00  0.00000000000E+00  0.57368060185E+01  0.89672251371E+03  0.89670416284E+03 0.  0.
        5    1    3    3  502    0  0.17980234460E+03 -0.23988775078E+03  0.33622561542E+03  0.45049391845E+03  0.46999998093E+01 0. -1.
       -5    1    3    3    0  502 -0.17980234460E+03  0.23988775078E+03 -0.33048880940E+03  0.44622859527E+03  0.46999998093E+01 0.  1.
</event>
<event>
 5   0  0.7893875E-03  0.7463905E+03  0.7818609E-02  0.9641030E-01
        3   -1    0    0  501    0  0.00000000000E+00  0.00000000000E+00  0.94766658108E+03  0.94766658647E+03  0.10100000352E+00 0. -1.
       -3   -1    0    0    0  501  0.00000000000E+00  0.00000000000E+00 -0.14696590791E+03  0.14696594261E+03  0.10100000352E+00 0.  1.
    10030    2    1    2    0    0  0.00000000000E+00  0.00000000000E+00  0.80070067318E+03  0.10946325291E+04  0.74639051822E+03 0.  0.
        4    1    3    3  502    0 -0.22459564288E+03  0.14724049064E+03  0.78038712952E+03  0.82530518580E+03  0.12699999809E+01 0. -1.
       -4    1    3    3    0  502  0.22459564288E+03 -0.14724049064E+03  0.20313543656E+02  0.26932734328E+03  0.12699999809E+01 0.  1.
</event>
<event>
 5   0  0.1177712E-02  0.8949872E+03  0.7818609E-02  0.9431869E-01
        1   -1    0    0  501    0  0.00000000000E+00  0.00000000000E+00  0.48592289963E+03  0.48592289966E+03  0.50400001928E-02 0.  1.
       -1   -1    0    0    0  501  0.00000000000E+00  0.00000000000E+00 -0.41210345019E+03  0.41210345022E+03  0.50400001928E-02 0. -1.
    10030    2    1    2    0    0  0.00000000000E+00  0.00000000000E+00  0.73819449442E+02  0.89802634987E+03  0.89498715854E+03 0.  0.
        5    1    3    3  502    0 -0.20529957399E+03  0.85661972149E+02  0.42648390778E+03  0.48103690310E+03  0.46999998093E+01 0.  1.
       -5    1    3    3    0  502  0.20529957399E+03 -0.85661972149E+02 -0.35266445833E+03  0.41698944678E+03  0.46999998093E+01 0. -1.
</event>
<event>
 5   0  0.1175993E-02  0.9409214E+03  0.7818609E-02  0.9375825E-01
        1   -1    0    0  501    0  0.00000000000E+00  0.00000000000E+00  0.61592335608E+03  0.61592335610E+03  0.50400001928E-02 0. -1.
       -1   -1    0    0    0  501  0.00000000000E+00  0.00000000000E+00 -0.35935196104E+03  0.35935196108E+03  0.50400001928E-02 0.  1.
    10030    2    1    2    0    0  0.00000000000E+00  0.00000000000E+00  0.25657139503E+03  0.97527531718E+03  0.94092139074E+03 0.  0.
        4    1    3    3  502    0  0.10931035253E+03  0.26542478936E+03  0.51463127311E+03  0.58927585403E+03  0.12699999809E+01 0. -1.
       -4    1    3    3    0  502 -0.10931035253E+03 -0.26542478936E+03 -0.25805987808E+03  0.38599946315E+03  0.12699999809E+01 0.  1.
</event>
<event>
 5   0  0.1177712E-02  0.9175687E+03  0.7818609E-02  0.9403882E-01
       -1   -1    0    0    0  501  0.00000000000E+00  0.00000000000E+00  0.41642352868E+03  0.41642352871E+03  0.50400001928E-02 0.  1.
        1   -1    0    0  501    0  0.00000000000E+00  0.00000000000E+00 -0.50545437498E+03  0.50545437501E+03  0.50400001928E-02 0. -1.
    10030    2    1    2    0    0  0.00000000000E+00  0.00000000000E+00 -0.89030846309E+02  0.92187790372E+03  0.91756873190E+03 0.  0.
        5    1    3    3  502    0 -0.52180236413E+02  0.14801368486E+03 -0.47762014603E+03  0.50276626962E+03  0.46999998093E+01 0. -1.
       -5    1    3    3    0  502  0.52180236413E+02 -0.14801368486E+03  0.38858929972E+03  0.41911163409E+03  0.46999998093E+01 0.  1.
</event>
<event>
 5   0  0.2008770E-02  0.9037294E+03  0.7818609E-02  0.9420931E-01
        2   -1    0    0  501    0  0.00000000000E+00  0.00000000000E+00  0.16208314295E+04  0.16208314295E+04  0.25500000920E-02 0.  1.
       -2   -1    0    0    0  501  0.00000000000E+00  0.00000000000E+00 -0.12597344566E+03  0.12597344569E+03  0.25500000920E-02 0. -1.
    10030    2    1    2    0    0  0.00000000000E+00  0.00000000000E+00  0.14948579838E+04  0.17468048752E+04  0.90372942861E+03 0.  0.
        1    1    3    3  502    0  0.18540147578E+03 -0.37591408943E+03  0.10737180958E+04  0.11526298882E+04  0.50400001928E-02 0.  1.
       -1    1    3    3    0  502 -0.18540147578E+03  0.37591408943E+03  0.42113988799E+03  0.59417498697E+03  0.50400001928E-02 0. -1.
</event>
<event>
 5   0  0.1226424E-02  0.8920465E+03  0.7818609E-02  0.9435579E-01
        1   -1    0    0  501    0  0.00000000000E+00  0.00000000000E+00  0.86417941207E+03  0.86417941208E+03  0.50400001928E-02 0.  1.
       -1   -1    0    0    0  501  0.00000000000E+00  0.00000000000E+00 -0.23020306979E+03  0.23020306985E+03  0.50400001928E-02 0. -1.
    10030    2    1    2    0    0  0.00000000000E+00  0.00000000000E+00  0.63397634227E+03  0.10943824819E+04  0.89204653140E+03 0.  0.
        1    1    3    3  502    0  0.13410081208E+02  0.37684363452E+03  0.60923410607E+03  0.71648946342E+03  0.50400001928E-02 0.  1.
       -1    1    3    3    0  502 -0.13410081208E+02 -0.37684363452E+03  0.24742236199E+02  0.37789301851E+03  0.50400001928E-02 0. -1.
</event>
<event>
 5   0  0.1924218E-02  0.9281358E+03  0.7818609E-02  0.9391078E-01
        2   -1    0    0  501    0  0.00000000000E+00  0.00000000000E+00  0.10669070013E+04  0.10669070013E+04  0.25500000920E-02 0.  1.
       -2   -1    0    0    0  501  0.00000000000E+00  0.00000000000E+00 -0.20185357800E+03  0.20185357802E+03  0.25500000920E-02 0. -1.
    10030    2    1    2    0    0  0.00000000000E+00  0.00000000000E+00  0.86505342334E+03  0.12687605794E+04  0.92813575651E+03 0.  0.
        4    1    3    3  502    0 -0.38349150755E+03 -0.15917646721E+03  0.71584362368E+03  0.82754854271E+03  0.12699999809E+01 0.  1.
       -4    1    3    3    0  502  0.38349150755E+03  0.15917646721E+03  0.14920979967E+03  0.44121203666E+03  0.12699999809E+01 0. -1.
</event>
<event>
 5   0  0.2041861E-02  0.8906743E+03  0.7818609E-02  0.9437315E-01
       -2   -1    0    0    0  501  0.00000000000E+00  0.00000000000E+00  0.17782907290E+03  0.17782907291E+03  0.25500000920E-02 0.  1.
        2   -1    0    0  501    0  0.00000000000E+00  0.00000000000E+00 -0.11152573595E+04  0.11152573595E+04  0.25500000920E-02 0. -1.
    10030    2    1    2    0    0  0.00000000000E+00  0.00000000000E+00 -0.93742828664E+03  0.12930864325E+04  0.89067431152E+03 0.  0.
        5    1    3    3  502    0 -0.43710107540E+03 -0.84103925583E+02 -0.48776944533E+03  0.66035743519E+03  0.46999998093E+01 0.  1.
       -5    1    3    3    0  502  0.43710107540E+03  0.84103925583E+02 -0.44965884131E+03  0.63272899727E+03  0.46999998093E+01 0. -1.
</event>
<event>
 5   0  0.7893875E-03  0.9081216E+03  0.7818609E-02  0.9415486E-01
       -4   -1    0    0    0  501  0.00000000000E+00  0.00000000000E+00  0.23807132236E+03  0.23807470977E+03  0.12699999809E+01 0.  1.
        4   -1    0    0  501    0  0.00000000000E+00  0.00000000000E+00 -0.86599600699E+03  0.86599693823E+03  0.12699999809E+01 0. -1.
    10030    2    1    2    0    0  0.00000000000E+00  0.00000000000E+00 -0.62792468463E+03  0.11040716480E+04  0.90812157464E+03 0.  0.
        3    1    3    3  502    0  0.34965881600E+03 -0.25585448183E+03 -0.14882988655E+03  0.45811914260E+03  0.10100000352E+00 0.  1.
       -3    1    3    3    0  502 -0.34965881600E+03  0.25585448183E+03 -0.47909479807E+03  0.64595250539E+03  0.10100000352E+00 0. -1.
</event>
<event>
 5   0  0.1226424E-02  0.8789468E+03  0.7818609E-02  0.9452288E-01
        1   -1    0    0  501    0  0.00000000000E+00  0.00000000000E+00  0.10060751974E+04  0.10060751975E+04  0.50400001928E-02 0.  1.
       -1   -1    0    0    0  501  0.00000000000E+00  0.00000000000E+00 -0.19197061159E+03  0.19197061166E+03  0.50400001928E-02 0. -1.
    10030    2    1    2    0    0  0.00000000000E+00  0.00000000000E+00  0.81410458585E+03  0.11980458091E+04  0.87894680387E+03 0.  0.
        1    1    3    3  502    0  0.31207703799E+03  0.18222482070E+03  0.66184490991E+02  0.36739399804E+03  0.50400001928E-02 0. -1.
       -1    1    3    3    0  502 -0.31207703799E+03 -0.18222482070E+03  0.74792009486E+03  0.83065181107E+03  0.50400001928E-02 0.  1.
</event>
<event>
 5   0  0.1968763E-02  0.8774779E+03  0.7818609E-02  0.9454181E-01
       -2   -1    0    0    0  501  0.00000000000E+00  0.00000000000E+00  0.15184616147E+03  0.15184616150E+03  0.25500000920E-02 0.  1.
        2   -1    0    0  501    0  0.00000000000E+00  0.00000000000E+00 -0.12676768385E+04  0.12676768385E+04  0.25500000920E-02 0. -1.
    10030    2    1    2    0    0  0.00000000000E+00  0.00000000000E+00 -0.11158306771E+04  0.14195230000E+04  0.87747789018E+03 0.  0.
        2    1    3    3  502    0 -0.90047216568E+02 -0.23234526139E+03 -0.11420909862E+04  0.11689587856E+04  0.25500000920E-02 0. -1.
       -2    1    3    3    0  502  0.90047216568E+02  0.23234526139E+03  0.26260309146E+02  0.25056421441E+03  0.25500000920E-02 0.  1.
</event>
<event>
 5   0  0.1206541E-02  0.9151422E+03  0.7818609E-02  0.9406848E-01
       -1   -1    0    0    0  501  0.00000000000E+00  0.00000000000E+00  0.92415214861E+03  0.92415214862E+03  0.50400001928E-02 0.  1.
        1   -1    0    0  501    0  0.00000000000E+00  0.00000000000E+00 -0.22655503991E+03  0.22655503997E+03  0.50400001928E-02 0. -1.
    10030    2    1    2    0    0  0.00000000000E+00  0.00000000000E+00  0.69759710870E+03  0.11507071886E+04  0.91514223365E+03 0.  0.
        3    1    3    3  502    0 -0.22146814689E+03 -0.18285344297E+03 -0.99106695816E+02  0.30381848043E+03  0.10100000352E+00 0. -1.
       -3    1    3    3    0  502  0.22146814689E+03  0.18285344297E+03  0.79670380451E+03  0.84688870816E+03  0.10100000352E+00 0.  1.
</event>
<event>
 5   0  0.1206541E-02  0.9157748E+03  0.7818609E-02  0.9406074E-01
       -1   -1    0    0    0  501  0.00000000000E+00  0.00000000000E+00  0.13868218522E+03  0.13868218532E+03  0.50400001928E-02 0. -1.
        1   -1    0    0  501    0  0.00000000000E+00  0.00000000000E+00 -0.15118083980E+04  0.15118083980E+04  0.50400001928E-02 0.  1.
    10030    2    1    2    0    0  0.00000000000E+00  0.00000000000E+00 -0.13731262128E+04  0.16504905834E+04  0.91577484648E+03 0.  0.
        3    1    3    3  502    0  0.41095962535E+03  0.17359396456E+03 -0.50067204950E+03  0.67059316246E+03  0.10100000352E+00 0. -1.
       -3    1    3    3    0  502 -0.41095962535E+03 -0.17359396456E+03 -0.87245416332E+03  0.97989742090E+03  0.10100000352E+00 0.  1.
</event>
<event>
 5   0  0.1968763E-02  0.8988176E+03  0.7818609E-02  0.9427061E-01
        2   -1    0    0  501    0  0.00000000000E+00  0.00000000000E+00  0.63036855455E+03  0.63036855455E+03  0.25500000920E-02 0.  1.
       -2   -1    0    0    0  501  0.00000000000E+00  0.00000000000E+00 -0.32039713787E+03  0.32039713788E+03  0.25500000920E-02 0. -1.
    10030    2    1    2    0    0  0.00000000000E+00  0.00000000000E+00  0.30997141668E+03  0.95076569243E+03  0.89881762485E+03 0.  0.
        2    1    3    3  502    0 -0.79660056897E+02 -0.41616638387E+03 -0.34299602757E+01  0.42373570579E+03  0.25500000920E-02 0. -1.
       -2    1    3    3    0  502  0.79660056897E+02  0.41616638387E+03  0.31340137696E+03  0.52702998664E+03  0.25500000920E-02 0.  1.
</event>
<event>
 5   0  0.1206541E-02  0.7207071E+03  0.7818609E-02  0.9682461E-01
        1   -1    0    0  501    0  0.00000000000E+00  0.00000000000E+00  0.75718861989E+03  0.75718861990E+03  0.50400001928E-02 0. -1.
       -1   -1    0    0    0  501  0.00000000000E+00  0.00000000000E+00 -0.17149581577E+03  0.17149581585E+03  0.50400001928E-02 0.  1.
    10030    2    1    2    0    0  0.00000000000E+00  0.00000000000E+00  0.58569280411E+03  0.92868443575E+03  0.72070709752E+03 0.  0.
        3    1    3    3  502    0 -0.23210571714E+03 -0.74671132827E+02 -0.49065070084E+02  0.24870913395E+03  0.10100000352E+00 0.  1.
       -3    1    3    3    0  502  0.23210571714E+03  0.74671132827E+02  0.63475787420E+03  0.67997530180E+03  0.10100000352E+00 0. -1.
</event>
<event>
 5   0  0.2008643E-02  0.9033457E+03  0.7818609E-02  0.9421409E-01
       -2   -1    0    0    0  501  0.00000000000E+00  0.00000000000E+00  0.18136606211E+03  0.18136606213E+03  0.25500000920E-02 0. -1.
        2   -1    0    0  501    0  0.00000000000E+00  0.00000000000E+00 -0.11248431413E+04  0.11248431413E+04  0.25500000920E-02 0.  1.
    10030    2    1    2    0    0  0.00000000000E+00  0.00000000000E+00 -0.94347707916E+03  0.13062092034E+04  0.90334571685E+03 0.  0.
        3    1    3    3  502    0 -0.17225363109E+03 -0.47430068205E+02  0.12809857187E+03  0.21984125889E+03  0.10100000352E+00 0. -1.
       -3    1    3    3    0  502  0.17225363109E+03  0.47430068205E+02 -0.10715756510E+04  0.10863679445E+04  0.10100000352E+00 0.  1.
</event>
<event>
 5   0  0.2008643E-02  0.9055102E+03  0.7818609E-02  0.9418720E-01
        2   -1    0    0  501    0  0.00000000000E+00  0.00000000000E+00  0.87434343810E+03  0.87434343810E+03  0.25500000920E-02 0.  1.
       -2   -1    0    0    0  501  0.00000000000E+00  0.00000000000E+00 -0.23444696022E+03  0.23444696024E+03  0.25500000920E-02 0. -1.
    10030    2    1    2    0    0  0.00000000000E+00  0.00000000000E+00  0.63989647788E+03  0.11087903983E+04  0.90551015734E+03 0.  0.
        3    1    3    3  502    0  0.67909942858E+02 -0.32178667280E+03 -0.61080947474E+02  0.33449860310E+03  0.10100000352E+00 0. -1.
       -3    1    3    3    0  502 -0.67909942858E+02  0.32178667280E+03  0.70097742535E+03  0.77429179524E+03  0.10100000352E+00 0.  1.
</event>
<event>
 5   0  0.1968763E-02  0.9041730E+03  0.7818609E-02  0.9420380E-01
        2   -1    0    0  501    0  0.00000000000E+00  0.00000000000E+00  0.57746397376E+03  0.57746397377E+03  0.25500000920E-02 0.  1.
       -2   -1    0    0    0  501  0.00000000000E+00  0.00000000000E+00 -0.35393069097E+03  0.35393069098E+03  0.25500000920E-02 0. -1.
    10030    2    1    2    0    0  0.00000000000E+00  0.00000000000E+00  0.22353328279E+03  0.93139466474E+03  0.90417304372E+03 0.  0.
        2    1    3    3  502    0  0.67823583565E+02 -0.27877158526E+03  0.47166855116E+03  0.55207323554E+03  0.25500000920E-02 0.  1.
       -2    1    3    3    0  502 -0.67823583565E+02  0.27877158526E+03 -0.24813526837E+03  0.37932142920E+03  0.25500000920E-02 0. -1.
</event>
<event>
 5   0  0.1175993E-02  0.9102569E+03  0.7818609E-02  0.9412850E-01
        1   -1    0    0  501    0  0.00000000000E+00  0.00000000000E+00  0.39054146417E+03  0.39054146421E+03  0.50400001928E-02 0.  1.
       -1   -1    0    0    0  501  0.00000000000E+00  0.00000000000E+00 -0.53039673028E+03  0.53039673030E+03  0.50400001928E-02 0. -1.
    10030    2    1    2    0    0  0.00000000000E+00  0.00000000000E+00 -0.13985526610E+03  0.92093819450E+03  0.91025692123E+03 0.  0.
        4    1    3    3  502    0  0.15493383838E+03 -0.42763915866E+03 -0.53596395743E+02  0.45798900733E+03  0.12699999809E+01 0. -1.
       -4    1    3    3    0  502 -0.15493383838E+03  0.42763915866E+03 -0.86258870360E+02  0.46294918718E+03  0.12699999809E+01 0.  1.
</event>
<event>
 5   0  0.2008770E-02  0.8829084E+03  0.7818609E-02  0.9447203E-01
       -2   -1    0    0    0  501  0.00000000000E+00  0.00000000000E+00  0.87786950009E+03  0.87786950010E+03  0.25500000920E-02 0. -1.
        2   -1    0    0  501    0  0.00000000000E+00  0.00000000000E+00 -0.22199407343E+03  0.22199407344E+03  0.25500000920E-02 0.  1.
    10030    2    1    2    0    0  0.00000000000E+00  0.00000000000E+00  0.65587542667E+03  0.10998635735E+04  0.88290843528E+03 0.  0.
        1    1    3    3  502    0 -0.16163473253E+03  0.11901694830E+03 -0.16185832016E+03  0.25785448721E+03  0.50400001928E-02 0.  1.
       -1    1    3    3    0  502  0.16163473253E+03 -0.11901694830E+03  0.81773374682E+03  0.84200908633E+03  0.50400001928E-02 0. -1.
</event>
<event>
 5   0  0.1968763E-02  0.9411305E+03  0.7818609E-02  0.9375578E-01
       -2   -1    0    0    0  501  0.00000000000E+00  0.00000000000E+00  0.43264677993E+03  0.43264677994E+03  0.25500000920E-02 0.  1.
        2   -1    0    0  501    0  0.00000000000E+00  0.00000000000E+00 -0.51180704352E+03  0.51180704352E+03  0.25500000920E-02 0. -1.
    10030    2    1    2    0    0  0.00000000000E+00  0.00000000000E+00 -0.79160263582E+02  0.94445382346E+03  0.94113053150E+03 0.  0.
        2    1    3    3  502    0  0.26549749856E+03  0.18427929961E+03  0.30365670483E+03  0.44345820141E+03  0.25500000920E-02 0.  1.
       -2    1    3    3    0  502 -0.26549749856E+03 -0.18427929961E+03 -0.38281696841E+03  0.50099562205E+03  0.25500000920E-02 0. -1.
</event>
<event>
 5   0  0.1924218E-02  0.8984248E+03  0.7818609E-02  0.9427553E-01
        2   -1    0    0  501    0  0.00000000000E+00  0.00000000000E+00  0.75591226537E+03  0.75591226537E+03  0.25500000920E-02 0. -1.
       -2   -1    0    0    0  501  0.00000000000E+00  0.00000000000E+00 -0.26695134410E+03  0.26695134411E+03  0.25500000920E-02 0.  1.
    10030    2    1    2    0    0  0.00000000000E+00  0.00000000000E+00  0.48896092127E+03  0.10228636095E+04  0.89842483329E+03 0.  0.
        4    1    3    3  502    0 -0.12674866253E+03  0.28304706906E+03  0.61446799696E+03  0.68829746400E+03  0.12699999809E+01 0. -1.
       -4    1    3    3    0  502  0.12674866253E+03 -0.28304706906E+03 -0.12550707569E+03  0.33456614549E+03  0.12699999809E+01 0.  1.
</event>
<event>
 5   0  0.2008643E-02  0.8829066E+03  0.7818609E-02  0.9447205E-01
       -2   -1    0    0    0  501  0.00000000000E+00  0.00000000000E+00  0.26186962540E+03  0.26186962541E+03  0.25500000920E-02 0. -1.
        2   -1    0    0  501    0  0.00000000000E+00  0.00000000000E+00 -0.74419100943E+03  0.74419100944E+03  0.25500000920E-02 0.  1.
    10030    2    1    2    0    0  0.00000000000E+00  0.00000000000E+00 -0.48232138403E+03  0.10060606349E+04  0.88290661086E+03 0.  0.
        3    1    3    3  502    0  0.16500562268E+03  0.33302414038E+03  0.30288647370E+02  0.37289320985E+03  0.10100000352E+00 0. -1.
       -3    1    3    3    0  502 -0.16500562268E+03 -0.33302414038E+03 -0.51261003140E+03  0.63316742500E+03  0.10100000352E+00 0.  1.
</event>
<event>
 5   0  0.7893875E-03  0.8815754E+03  0.7818609E-02  0.9448911E-01
        4   -1    0    0  501    0  0.00000000000E+00  0.00000000000E+00  0.10280341757E+04  0.10280349601E+04  0.12699999809E+01 0.  1.
       -4   -1    0    0    0  501  0.00000000000E+00  0.00000000000E+00 -0.18899248762E+03  0.18899675467E+03  0.12699999809E+01 0. -1.
    10030    2    1    2    0    0  0.00000000000E+00  0.00000000000E+00  0.83904168803E+03  0.12170317148E+04  0.88157543100E+03 0.  0.
        1    1    3    3  502    0 -0.39927284348E+03  0.79986283799E+02  0.65248605263E+03  0.76912590520E+03  0.50400001928E-02 0.  1.
       -1    1    3    3    0  502  0.39927284348E+03 -0.79986283799E+02  0.18655563540E+03  0.44790580959E+03  0.50400001928E-02 0. -1.
</event>
<event>
 5   0  0.2008770E-02  0.8991029E+03  0.7818609E-02  0.9426704E-01
        2   -1    0    0  501    0  0.00000000000E+00  0.00000000000E+00  0.15714480360E+04  0.15714480360E+04  0.25500000920E-02 0. -1.
       -2   -1    0    0    0  501  0.00000000000E+00  0.00000000000E+00 -0.12860526271E+03  0.12860526274E+03  0.25500000920E-02 0.  1.
    10030    2    1    2    0    0  0.00000000000E+00  0.00000000000E+00  0.14428427733E+04  0.17000532988E+04  0.89910285850E+03 0.  0.
        1    1    3    3  502    0  0.43115199097E+03  0.47783357359E+02  0.94451723013E+03  0.10393690810E+04  0.50400001928E-02 0. -1.
       -1    1    3    3    0  502 -0.43115199097E+03 -0.47783357359E+02  0.49832554319E+03  0.66068421775E+03  0.50400001928E-02 0.  1.
</event>
<event>
 5   0  0.1924218E-02  0.8365354E+03  0.7818609E-02  0.9508589E-01
        2   -1    0    0  501    0  0.00000000000E+00  0.00000000000E+00  0.50710958916E+03  0.50710958917E+03  0.25500000920E-02 0.  1.
       -2   -1    0    0    0  501  0.00000000000E+00  0.00000000000E+00 -0.34499026988E+03  0.34499026989E+03  0.25500000920E-02 0. -1.
    10030    2    1    2    0    0  0.00000000000E+00  0.00000000000E+00  0.16211931928E+03  0.85209985905E+03  0.83653541235E+03 0.  0.
        4    1    3    3  502    0  0.12579412257E+03 -0.22455456146E+03  0.41688668209E+03  0.48994390592E+03  0.12699999809E+01 0.  1.
       -4    1    3    3    0  502 -0.12579412257E+03  0.22455456146E+03 -0.25476736281E+03  0.36215595314E+03  0.12699999809E+01 0. -1.
</event>
<event>
 5   0  0.1226424E-02  0.8590726E+03  0.7818609E-02  0.9478240E-01
        1   -1    0    0  501    0  0.00000000000E+00  0.00000000000E+00  0.89402673204E+03  0.89402673206E+03  0.50400001928E-02 0. -1.
       -1   -1    0    0    0  501  0.00000000000E+00  0.00000000000E+00 -0.20637129122E+03  0.20637129128E+03  0.50400001928E-02 0.  1.
    10030    2    1    2    0    0  0.00000000000E+00  0.00000000000E+00  0.68765544083E+03  0.11003980233E+04  0.85907264213E+03 0.  0.
        1    1    3    3  502    0 -0.38462656250E+03  0.24631092687E+02  0.58671940729E+03  0.70198571654E+03  0.50400001928E-02 0.  1.
       -1    1    3    3    0  502  0.38462656250E+03 -0.24631092687E+02  0.10093603353E+03  0.39841230679E+03  0.50400001928E-02 0. -1.
</event>
<event>
 5   0  0.1162839E-02  0.9043679E+03  0.7818609E-02  0.9420138E-01
       -1   -1    0    0    0  501  0.00000000000E+00  0.00000000000E+00  0.13555353916E+03  0.13555353925E+03  0.50400001928E-02 0. -1.
        1   -1    0    0  501    0  0.00000000000E+00  0.00000000000E+00 -0.15084099622E+04  0.15084099622E+04  0.50400001928E-02 0.  1.
    10030    2    1    2    0    0  0.00000000000E+00  0.00000000000E+00 -0.13728564230E+04  0.16439635014E+04  0.90436786533E+03 0.  0.
        2    1    3    3  502    0  0.12345146839E+03  0.76336527251E+01  0.10420529253E+03  0.16173212637E+03  0.25500000920E-02 0. -1.
       -2    1    3    3    0  502 -0.12345146839E+03 -0.76336527251E+01 -0.14770617155E+04  0.14822313751E+04  0.25500000920E-02 0.  1.
</event>
<event>
 5   0  0.1177712E-02  0.8246715E+03  0.7818609E-02  0.9524977E-01
       -1   -1    0    0    0  501  0.00000000000E+00  0.00000000000E+00  0.43714950300E+03  0.43714950302E+03  0.50400001928E-02 0.  1.
        1   -1    0    0  501    0  0.00000000000E+00  0.00000000000E+00 -0.38893046295E+03  0.38893046298E+03  0.50400001928E-02 0. -1.
    10030    2    1    2    0    0  0.00000000000E+00  0.00000000000E+00  0.48219040048E+02  0.82607996600E+03  0.82467147059E+03 0.  0.
        5    1    3    3  502    0 -0.50500757160E+02  0.30155931098E+03  0.30118694329E+03  0.42921324457E+03  0.46999998093E+01 0.  1.
       -5    1    3    3    0  502  0.50500757160E+02 -0.30155931098E+03 -0.25296790324E+03  0.39686672143E+03  0.46999998093E+01 0. -1.
</event>
<event>
 5   0  0.1177712E-02  0.9001452E+03  0.7818609E-02  0.9425400E-01
       -1   -1    0    0    0  501  0.00000000000E+00  0.00000000000E+00  0.22225612860E+03  0.22225612865E+03  0.50400001928E-02 0. -1.
        1   -1    0    0  501    0  0.00000000000E+00  0.00000000000E+00 -0.91140507597E+03  0.91140507598E+03  0.50400001928E-02 0.  1.
    10030    2    1    2    0    0  0.00000000000E+00  0.00000000000E+00 -0.68914894737E+03  0.11336612046E+04  0.90014524118E+03 0.  0.
        5    1    3    3  502    0 -0.38168624270E+03 -0.23770056065E+03 -0.32076745158E+03  0.55235839125E+03  0.46999998093E+01 0.  1.
       -5    1    3    3    0  502  0.38168624270E+03  0.23770056065E+03 -0.36838149579E+03  0.58130281338E+03  0.46999998093E+01 0. -1.
</event>
<event>
 5   0  0.1226424E-02  0.8986218E+03  0.7818609E-02  0.9427306E-01
        1   -1    0    0  501    0  0.00000000000E+00  0.00000000000E+00  0.36351139635E+03  0.36351139638E+03  0.50400001928E-02 0. -1.
       -1   -1    0    0    0  501  0.00000000000E+00  0.00000000000E+00 -0.55536166063E+03  0.55536166066E+03  0.50400001928E-02 0.  1.
    10030    2    1    2    0    0  0.00000000000E+00  0.00000000000E+00 -0.19185026429E+03  0.91887305704E+03  0.89862181759E+03 0.  0.
        1    1    3    3  502    0 -0.31640540706E+03  0.13552613016E+03  0.19937462658E+03  0.39778129081E+03  0.50400001928E-02 0. -1.
       -1    1    3    3    0  502  0.31640540706E+03 -0.13552613016E+03 -0.39122489087E+03  0.52109176623E+03  0.50400001928E-02 0.  1.
</event>
<event>
 5   0  0.1924218E-02  0.9063154E+03  0.7818609E-02  0.9417721E-01
        2   -1    0    0  501    0  0.00000000000E+00  0.00000000000E+00  0.14555589266E+04  0.14555589266E+04  0.25500000920E-02 0.  1.
       -2   -1    0    0    0  501  0.00000000000E+00  0.00000000000E+00 -0.14108111836E+03  0.14108111838E+03  0.25500000920E-02 0. -1.
    10030    2    1    2    0    0  0.00000000000E+00  0.00000000000E+00  0.13144778082E+04  0.15966400450E+04  0.90631535619E+03 0.  0.
        4    1    3    3  502    0  0.20083416100E+03 -0.36359851219E+03  0.33812610080E+03  0.53560163483E+03  0.12699999809E+01 0. -1.
       -4    1    3    3    0  502 -0.20083416100E+03  0.36359851219E+03  0.97635170742E+03  0.10610384101E+04  0.12699999809E+01 0.  1.
</event>
<event>
 5   0  0.1226424E-02  0.8745043E+03  0.7818609E-02  0.9458026E-01
        1   -1    0    0  501    0  0.00000000000E+00  0.00000000000E+00  0.67957576221E+03  0.67957576223E+03  0.50400001928E-02 0. -1.
       -1   -1    0    0    0  501  0.00000000000E+00  0.00000000000E+00 -0.28133648352E+03  0.28133648356E+03  0.50400001928E-02 0.  1.
    10030    2    1    2    0    0  0.00000000000E+00  0.00000000000E+00  0.39823927869E+03  0.96091224579E+03  0.87450432876E+03 0.  0.
        1    1    3    3  502    0 -0.26839427181E+03 -0.26690436194E+03 -0.41406447707E+02  0.38077278986E+03  0.50400001928E-02 0. -1.
       -1    1    3    3    0  502  0.26839427181E+03  0.26690436194E+03  0.43964572640E+03  0.58013945593E+03  0.50400001928E-02 0.  1.
</event>
<event>
 5   0  0.2041861E-02  0.9201021E+03  0.7818609E-02  0.9400796E-01
       -2   -1    0    0    0  501  0.00000000000E+00  0.00000000000E+00  0.24578445030E+03  0.24578445031E+03  0.25500000920E-02 0. -1.
        2   -1    0    0  501    0  0.00000000000E+00  0.00000000000E+00 -0.86110808637E+03  0.86110808637E+03  0.25500000920E-02 0.  1.
    10030    2    1    2    0    0  0.00000000000E+00  0.00000000000E+00 -0.61532363607E+03  0.11068925367E+04  0.92010211970E+03 0.  0.
        5    1    3    3  502    0  0.15220382653E+03 -0.11483491512E+03  0.19598429028E+03  0.27346845262E+03  0.46999998093E+01 0. -1.
       -5    1    3    3    0  502 -0.15220382653E+03  0.11483491512E+03 -0.81130792635E+03  0.83342408407E+03  0.46999998093E+01 0.  1.
</event>
<event>
 5   0  0.2041861E-02  0.8968130E+03  0.7818609E-02  0.9429574E-01
        2   -1    0    0  501    0  0.00000000000E+00  0.00000000000E+00  0.25508699166E+03  0.25508699167E+03  0.25500000920E-02 0.  1.
       -2   -1    0    0    0  501  0.00000000000E+00  0.00000000000E+00 -0.78823460200E+03  0.78823460200E+03  0.25500000920E-02 0. -1.
    10030    2    1    2    0    0  0.00000000000E+00  0.00000000000E+00 -0.53314761034E+03  0.10433215937E+04  0.89681300917E+03 0.  0.
        5    1    3    3  502    0  0.27051846270E+03  0.35396051846E+03 -0.20750487483E+03  0.49147599165E+03  0.46999998093E+01 0. -1.
       -5    1    3    3    0  502 -0.27051846270E+03 -0.35396051846E+03 -0.32564273551E+03  0.55184560203E+03  0.46999998093E+01 0.  1.
</event>
<event>
 5   0  0.2041861E-02  0.9043717E+03  0.7818609E-02  0.9420133E-01
        2   -1    0    0  501    0  0.00000000000E+00  0.00000000000E+00  0.29106122399E+03  0.29106122400E+03  0.25500000920E-02 0.  1.
       -2   -1    0    0    0  501  0.00000000000E+00  0.00000000000E+00 -0.70250526283E+03  0.70250526283E+03  0.25500000920E-02 0. -1.
    10030    2    1    2    0    0  0.00000000000E+00  0.00000000000E+00 -0.41144403884E+03  0.99356648684E+03  0.90437169718E+03 0.  0.
        5    1    3    3  502    0  0.37677783103E+03 -0.24509129874E+03 -0.25975246508E+03  0.51915769453E+03  0.46999998093E+01 0.  1.
       -5    1    3    3    0  502 -0.37677783103E+03  0.24509129874E+03 -0.15169157375E+03  0.47440879231E+03  0.46999998093E+01 0. -1.
</event>
<event>
 5   0  0.1968763E-02  0.9315119E+03  0.7818609E-02  0.9387025E-01
       -2   -1    0    0    0  501  0.00000000000E+00  0.00000000000E+00  0.34523598233E+03  0.34523598234E+03  0.25500000920E-02 0.  1.
        2   -1    0    0  501    0  0.00000000000E+00  0.00000000000E+00 -0.62834872224E+03  0.62834872224E+03  0.25500000920E-02 0. -1.
    10030    2    1    2    0    0  0.00000000000E+00  0.00000000000E+00 -0.28311273990E+03  0.97358470459E+03  0.93151186439E+03 0.  0.
        2    1    3    3  502    0 -0.97612779536E+02 -0.45404063994E+03 -0.10464215775E+03  0.47605791521E+03  0.25500000920E-02 0. -1.
       -2    1    3    3    0  502  0.97612779536E+02  0.45404063994E+03 -0.17847058216E+03  0.49752678938E+03  0.25500000920E-02 0.  1.
</event>
<event>
 5   0  0.1175993E-02  0.9084109E+03  0.7818609E-02  0.9415128E-01
       -1   -1    0    0    0  501  0.00000000000E+00  0.00000000000E+00  0.32792736267E+03  0.32792736271E+03  0.50400001928E-02 0.  1.
        1   -1    0    0  501    0  0.00000000000E+00  0.00000000000E+00 -0.62911068492E+03  0.62911068494E+03  0.50400001928E-02 0. -1.
    10030    2    1    2    0    0  0.00000000000E+00  0.00000000000E+00 -0.30118332225E+03  0.95703804765E+03  0.90841093732E+03 0.  0.
        4    1    3    3  502    0 -0.33876051187E+03 -0.70682216054E+02  0.15934374345E+03  0.38098123516E+03  0.12699999809E+01 0.  1.
       -4    1    3    3    0  502  0.33876051187E+03  0.70682216054E+02 -0.46052706571E+03  0.57605681249E+03  0.12699999809E+01 0. -1.
</event>
<event>
 5   0  0.2008770E-02  0.9578775E+03  0.7818609E-02  0.9355990E-01
       -2   -1    0    0    0  501  0.00000000000E+00  0.00000000000E+00  0.13446328374E+03  0.13446328376E+03  0.25500000920E-02 0. -1.
        2   -1    0    0  501    0  0.00000000000E+00  0.00000000000E+00 -0.17059103407E+04  0.17059103407E+04  0.25500000920E-02 0.  1.
    10030    2    1    2    0    0  0.00000000000E+00  0.00000000000E+00 -0.15714470570E+04  0.18403736245E+04  0.95787745814E+03 0.  0.
        1    1    3    3  502    0  0.26686364481E+03  0.23329521939E+03 -0.14045487429E+04  0.14485855292E+04  0.50400001928E-02 0.  1.
       -1    1    3    3    0  502 -0.26686364481E+03 -0.23329521939E+03 -0.16689831407E+03  0.39178809524E+03  0.50400001928E-02 0. -1.
</event>
<event>
 5   0  0.2041861E-02  0.9056113E+03  0.7818609E-02  0.9418594E-01
        2   -1    0    0  501    0  0.00000000000E+00  0.00000000000E+00  0.45265246758E+03  0.45265246759E+03  0.25500000920E-02 0. -1.
       -2   -1    0    0    0  501  0.00000000000E+00  0.00000000000E+00 -0.45295887674E+03  0.45295887675E+03  0.25500000920E-02 0.  1.
    10030    2    1    2    0    0  0.00000000000E+00  0.00000000000E+00 -0.30640915687E+00  0.90561134434E+03  0.90561129250E+03 0.  0.
        5    1    3    3  502    0 -0.30206518671E+03 -0.17925270488E+03  0.28556687416E+03  0.45270900018E+03  0.46999998093E+01 0. -1.
       -5    1    3    3    0  502  0.30206518671E+03  0.17925270488E+03 -0.28587328332E+03  0.45290234416E+03  0.46999998093E+01 0.  1.
</event>
<event>
 5   0  0.1924218E-02  0.8724673E+03  0.7818609E-02  0.9460669E-01
       -2   -1    0    0    0  501  0.00000000000E+00  0.00000000000E+00  0.13173973499E+03  0.13173973502E+03  0.25500000920E-02 0. -1.
        2   -1    0    0  501    0  0.00000000000E+00  0.00000000000E+00 -0.14445133384E+04  0.14445133384E+04  0.25500000920E-02 0.  1.
    10030    2    1    2    0    0  0.00000000000E+00  0.00000000000E+00 -0.13127736034E+04  0.15762530735E+04  0.87246731611E+03 0.  0.
        4    1    3    3  502    0 -0.26768169935E+03 -0.34207809902E+03 -0.58350702069E+03  0.72742901653E+03  0.12699999809E+01 0. -1.
       -4    1    3    3    0  502  0.26768169935E+03  0.34207809902E+03 -0.72926658275E+03  0.84882405692E+03  0.12699999809E+01 0.  1.
</event>
<event>
 5   0  0.2008643E-02  0.9043057E+03  0.7818609E-02  0.9420215E-01
        2   -1    0    0  501    0  0.00000000000E+00  0.00000000000E+00  0.31848975968E+03  0.31848975969E+03  0.25500000920E-02 0.  1.
       -2   -1    0    0    0  501  0.00000000000E+00  0.00000000000E+00 -0.64191142563E+03  0.64191142564E+03  0.25500000920E-02 0. -1.
    10030    2    1    2    0    0  0.00000000000E+00  0.00000000000E+00 -0.32342166595E+03  0.96040118532E+03  0.90430573523E+03 0.  0.
        3    1    3    3  502    0 -0.24606865092E+03  0.37253949525E+03 -0.23760522018E+03  0.50575854649E+03  0.10100000352E+00 0. -1.
       -3    1    3    3    0  502  0.24606865092E+03 -0.37253949525E+03 -0.85816445770E+02  0.45464263884E+03  0.10100000352E+00 0.  1.
</event>
<event>
 5   0  0.2041861E-02  0.1221797E+04  0.7818609E-02  0.9093989E-01
        2   -1    0    0  501    0  0.00000000000E+00  0.00000000000E+00  0.38111009611E+03  0.38111009612E+03  0.25500000920E-02 0. -1.
       -2   -1    0    0    0  501  0.00000000000E+00  0.00000000000E+00 -0.97923648911E+03  0.97923648911E+03  0.25500000920E-02 0.  1.
    10030    2    1    2    0    0  0.00000000000E+00  0.00000000000E+00 -0.59812639300E+03  0.13603465852E+04  0.12217968939E+04 0.  0.
        5    1    3    3  502    0 -0.49023955667E+03  0.78862941223E+02  0.97126155719E+02  0.50597407695E+03  0.46999998093E+01 0. -1.
       -5    1    3    3    0  502  0.49023955667E+03 -0.78862941223E+02 -0.69525254872E+03  0.85437250829E+03  0.46999998093E+01 0.  1.
</event>
<event>
 5   0  0.1175993E-02  0.8990186E+03  0.7818609E-02  0.9426809E-01
        1   -1    0    0  501    0  0.00000000000E+00  0.00000000000E+00  0.14366664404E+03  0.14366664413E+03  0.50400001928E-02 0.  1.
       -1   -1    0    0    0  501  0.00000000000E+00  0.00000000000E+00 -0.14064407370E+04  0.14064407370E+04  0.50400001928E-02 0. -1.
    10030    2    1    2    0    0  0.00000000000E+00  0.00000000000E+00 -0.12627740930E+04  0.15501073812E+04  0.89901862230E+03 0.  0.
        4    1    3    3  502    0  0.37682961457E+03 -0.70031345025E+01 -0.20901465590E+03  0.43097371334E+03  0.12699999809E+01 0.  1.
       -4    1    3    3    0  502 -0.37682961457E+03  0.70031345025E+01 -0.10537594371E+04  0.11191336678E+04  0.12699999809E+01 0. -1.
</event>
<event>
 5   0  0.1206541E-02  0.8983017E+03  0.7818609E-02  0.9427707E-01
       -1   -1    0    0    0  501  0.00000000000E+00  0.00000000000E+00  0.49910322022E+03  0.49910322025E+03  0.50400001928E-02 0.  1.
        1   -1    0    0  501    0  0.00000000000E+00  0.00000000000E+00 -0.40419789796E+03  0.40419789799E+03  0.50400001928E-02 0. -1.
    10030    2    1    2    0    0  0.00000000000E+00  0.00000000000E+00  0.94905322261E+02  0.90330111824E+03  0.89830166983E+03 0.  0.
        3    1    3    3  502    0 -0.44631996037E+03 -0.21057162645E+02  0.93440668212E+02  0.45648228859E+03  0.10100000352E+00 0.  1.
       -3    1    3    3    0  502  0.44631996037E+03  0.21057162645E+02  0.14646540490E+01  0.44681882965E+03  0.10100000352E+00 0. -1.
</event>
<event>
 5   0  0.1177712E-02  0.8926465E+03  0.7818609E-02  0.9434821E-01
       -1   -1    0    0    0  501  0.00000000000E+00  0.00000000000E+00  0.14074290786E+03  0.14074290795E+03  0.50400001928E-02 0.  1.
        1   -1    0    0  501    0  0.00000000000E+00  0.00000000000E+00 -0.14153780828E+04  0.14153780828E+04  0.50400001928E-02 0. -1.
    10030    2    1    2    0    0  0.00000000000E+00  0.00000000000E+00 -0.12746351749E+04  0.15561209907E+04  0.89264646341E+03 0.  0.
        5    1    3    3  502    0 -0.21473146380E+03  0.26285262405E+03 -0.13212729434E+03  0.36425377888E+03  0.46999998093E+01 0.  1.
       -5    1    3    3    0  502  0.21473146380E+03 -0.26285262405E+03 -0.11425078806E+04  0.11918672118E+04  0.46999998093E+01 0. -1.
</event>
<event>
 5   0  0.2008770E-02  0.9091355E+03  0.7818609E-02  0.9414233E-01
        2   -1    0    0  501    0  0.00000000000E+00  0.00000000000E+00  0.35384968870E+03  0.35384968871E+03  0.25500000920E-02 0. -1.
       -2   -1    0    0    0  501  0.00000000000E+00  0.00000000000E+00 -0.58395376840E+03  0.58395376840E+03  0.25500000920E-02 0.  1.
    10030    2    1    2    0    0  0.00000000000E+00  0.00000000000E+00 -0.23010407969E+03  0.93780345711E+03  0.90913554362E+03 0.  0.
        1    1    3    3  502    0 -0.16811748255E+03 -0.34361418434E+03  0.13824693615E+03  0.40675104302E+03  0.50400001928E-02 0. -1.
       -1    1    3    3    0  502  0.16811748255E+03  0.34361418434E+03 -0.36835101584E+03  0.53105241409E+03  0.50400001928E-02 0.  1.
</event>
<event>
 5   0  0.2041861E-02  0.8930230E+03  0.7818609E-02  0.9434345E-01
       -2   -1    0    0    0  501  0.00000000000E+00  0.00000000000E+00  0.11706931308E+03  0.11706931310E+03  0.25500000920E-02 0.  1.
        2   -1    0    0  501    0  0.00000000000E+00  0.00000000000E+00 -0.17030297451E+04  0.17030297451E+04  0.25500000920E-02 0. -1.
    10030    2    1    2    0    0  0.00000000000E+00  0.00000000000E+00 -0.15859604320E+04  0.18200990582E+04  0.89302300626E+03 0.  0.
        5    1    3    3  502    0  0.21353928724E+03  0.63224080860E+02 -0.15816982452E+04  0.15973064016E+04  0.46999998093E+01 0. -1.
       -5    1    3    3    0  502 -0.21353928724E+03 -0.63224080860E+02 -0.42621867689E+01  0.22279265659E+03  0.46999998093E+01 0.  1.
</event>
<event>
 5   0  0.1177712E-02  0.8903058E+03  0.7818609E-02  0.9437781E-01
        1   -1    0    0  501    0  0.00000000000E+00  0.00000000000E+00  0.41276621851E+03  0.41276621854E+03  0.50400001928E-02 0.  1.
       -1   -1    0    0    0  501  0.00000000000E+00  0.00000000000E+00 -0.48008067273E+03  0.48008067276E+03  0.50400001928E-02 0. -1.
    10030    2    1    2    0    0  0.00000000000E+00  0.00000000000E+00 -0.67314454223E+02  0.89284689129E+03  0.89030575397E+03 0.  0.
        5    1    3    3  502    0 -0.39508675353E+03 -0.14506611795E+02  0.17146264898E+03  0.43095883168E+03  0.46999998093E+01 0.  1.
       -5    1    3    3    0  502  0.39508675353E+03  0.14506611795E+02 -0.23877710321E+03  0.46188805962E+03  0.46999998093E+01 0. -1.
</event>
<event>
 5   0  0.1226424E-02  0.8950719E+03  0.7818609E-02  0.9431763E-01
        1   -1    0    0  501    0  0.00000000000E+00  0.00000000000E+00  0.39659260389E+03  0.39659260393E+03  0.50400001928E-02 0. -1.
       -1   -1    0    0    0  501  0.00000000000E+00  0.00000000000E+00 -0.50502307647E+03  0.50502307649E+03  0.50400001928E-02 0.  1.
    10030    2    1    2    0    0  0.00000000000E+00  0.00000000000E+00 -0.10843047258E+03  0.90161568042E+03  0.89507187856E+03 0.  0.
        1    1    3    3  502    0  0.23743514645E+03  0.16119014410E+03  0.29170581487E+03  0.40920654171E+03  0.50400001928E-02 0. -1.
       -1    1    3    3    0  502 -0.23743514645E+03 -0.16119014410E+03 -0.40013628744E+03  0.49240913871E+03  0.50400001928E-02 0.  1.
</event>
<event>
 5   0  0.1968763E-02  0.9724426E+03  0.7818609E-02  0.9339297E-01
       -2   -1    0    0    0  501  0.00000000000E+00  0.00000000000E+00  0.16517086193E+03  0.16517086195E+03  0.25500000920E-02 0. -1.
        2   -1    0    0  501    0  0.00000000000E+00  0.00000000000E+00 -0.14313126244E+04  0.14313126244E+04  0.25500000920E-02 0.  1.
    10030    2    1    2    0    0  0.00000000000E+00  0.00000000000E+00 -0.12661417624E+04  0.15964834863E+04  0.97244257387E+03 0.  0.
        2    1    3    3  502    0  0.21366477858E+03 -0.30776916015E+03 -0.12430385157E+03  0.39474794625E+03  0.25500000920E-02 0. -1.
       -2    1    3    3    0  502 -0.21366477858E+03  0.30776916015E+03 -0.11418379109E+04  0.12017355401E+04  0.25500000920E-02 0.  1.
</event>
<event>
 5   0  0.1175993E-02  0.8910705E+03  0.7818609E-02  0.9436813E-01
       -1   -1    0    0    0  501  0.00000000000E+00  0.00000000000E+00  0.13156476291E+03  0.13156476301E+03  0.50400001928E-02 0.  1.
        1   -1    0    0  501    0  0.00000000000E+00  0.00000000000E+00 -0.15087752781E+04  0.15087752781E+04  0.50400001928E-02 0. -1.
    10030    2    1    2    0    0  0.00000000000E+00  0.00000000000E+00 -0.13772105151E+04  0.16403400411E+04  0.89107050637E+03 0.  0.
        4    1    3    3  502    0 -0.21064480139E+03  0.24342336167E+03 -0.12556210517E+04  0.12962299194E+04  0.12699999809E+01 0. -1.
       -4    1    3    3    0  502  0.21064480139E+03 -0.24342336167E+03 -0.12158946341E+03  0.34411012172E+03  0.12699999809E+01 0.  1.
</event>
<event>
 5   0  0.1924218E-02  0.9023517E+03  0.7818609E-02  0.9422646E-01
        2   -1    0    0  501    0  0.00000000000E+00  0.00000000000E+00  0.34762057425E+03  0.34762057426E+03  0.25500000920E-02 0.  1.
       -2   -1    0    0    0  501  0.00000000000E+00  0.00000000000E+00 -0.58557998763E+03  0.58557998764E+03  0.25500000920E-02 0. -1.
    10030    2    1    2    0    0  0.00000000000E+00  0.00000000000E+00 -0.23795941339E+03  0.93320056190E+03  0.90235170876E+03 0.  0.
        4    1    3    3  502    0 -0.21050503303E+02 -0.15509168371E+03  0.31864339210E+03  0.35500954674E+03  0.12699999809E+01 0.  1.
       -4    1    3    3    0  502  0.21050503303E+02  0.15509168371E+03 -0.55660280548E+03  0.57819101516E+03  0.12699999809E+01 0. -1.
</event>
<event>
 5   0  0.2008770E-02  0.8899741E+03  0.7818609E-02  0.9438202E-01
       -2   -1    0    0    0  501  0.00000000000E+00  0.00000000000E+00  0.88231743050E+03  0.88231743050E+03  0.25500000920E-02 0. -1.
        2   -1    0    0  501    0  0.00000000000E+00  0.00000000000E+00 -0.22442431340E+03  0.22442431342E+03  0.25500000920E-02 0.  1.
    10030    2    1    2    0    0  0.00000000000E+00  0.00000000000E+00  0.65789311710E+03  0.11067417439E+04  0.88997411996E+03 0.  0.
        1    1    3    3  502    0 -0.39087768463E+03 -0.95570366632E+02  0.92687226257E+02  0.41292854256E+03  0.50400001928E-02 0.  1.
       -1    1    3    3    0  502  0.39087768463E+03  0.95570366632E+02  0.56520589084E+03  0.69381320136E+03  0.50400001928E-02 0. -1.
</event>
<event>
 5   0  0.2041861E-02  0.8944694E+03  0.7818609E-02  0.9432521E-01
       -2   -1    0    0    0  501  0.00000000000E+00  0.00000000000E+00  0.52243614159E+03  0.52243614159E+03  0.25500000920E-02 0. -1.
        2   -1    0    0  501    0  0.00000000000E+00  0.00000000000E+00 -0.38285804352E+03  0.38285804353E+03  0.25500000920E-02 0.  1.
    10030    2    1    2    0    0  0.00000000000E+00  0.00000000000E+00  0.13957809806E+03  0.90529418512E+03  0.89446940482E+03 0.  0.
        5    1    3    3  502    0  0.44418726387E+03 -0.17823979562E+02  0.11913116447E+03  0.46025465123E+03  0.46999998093E+01 0.  1.
       -5    1    3    3    0  502 -0.44418726387E+03  0.17823979562E+02  0.20446933587E+02  0.44503953389E+03  0.46999998093E+01 0. -1.
</event>
<event>
 5   0  0.1226424E-02  0.8761281E+03  0.7818609E-02  0.9455924E-01
       -1   -1    0    0    0  501  0.00000000000E+00  0.00000000000E+00  0.13921083476E+04  0.13921083476E+04  0.50400001928E-02 0. -1.
        1   -1    0    0  501    0  0.00000000000E+00  0.00000000000E+00 -0.13784855669E+03  0.13784855678E+03  0.50400001928E-02 0.  1.
    10030    2    1    2    0    0  0.00000000000E+00  0.00000000000E+00  0.12542597909E+04  0.15299569044E+04  0.87612813343E+03 0.  0.
        1    1    3    3  502    0  0.29385556895E+03 -0.14409522495E+03  0.11865137300E+03  0.34812738703E+03  0.50400001928E-02 0.  1.
       -1    1    3    3    0  502 -0.29385556895E+03  0.14409522495E+03  0.11356084179E+04  0.11818295173E+04  0.50400001928E-02 0. -1.
</event>
<event>
 5   0  0.1177712E-02  0.8971647E+03  0.7818609E-02  0.9429133E-01
        1   -1    0    0  501    0  0.00000000000E+00  0.00000000000E+00  0.10783154066E+04  0.10783154066E+04  0.50400001928E-02 0.  1.
       -1   -1    0    0    0  501  0.00000000000E+00  0.00000000000E+00 -0.18661155705E+03  0.18661155712E+03  0.50400001928E-02 0. -1.
    10030    2    1    2    0    0  0.00000000000E+00  0.00000000000E+00  0.89170384950E+03  0.12649269637E+04  0.89716468290E+03 0.  0.
        5    1    3    3  502    0 -0.58436531065E+02  0.44127522278E+03  0.36779072821E+03  0.57743463713E+03  0.46999998093E+01 0. -1.
       -5    1    3    3    0  502  0.58436531065E+02 -0.44127522278E+03  0.52391312130E+03  0.68749232655E+03  0.46999998093E+01 0.  1.
</event>
<event>
 5   0  0.1924218E-02  0.8648572E+03  0.7818609E-02  0.9470610E-01
       -2   -1    0    0    0  501  0.00000000000E+00  0.00000000000E+00  0.15647148991E+03  0.15647148993E+03  0.25500000920E-02 0. -1.
        2   -1    0    0  501    0  0.00000000000E+00  0.00000000000E+00 -0.11950707627E+04  0.11950707627E+04  0.25500000920E-02 0.  1.
    10030    2    1    2    0    0  0.00000000000E+00  0.00000000000E+00 -0.10385992728E+04  0.13515422527E+04  0.86485722014E+03 0.  0.
        4    1    3    3  502    0  0.44103299180E+02 -0.28987648639E+03 -0.10159921672E+04  0.10574569377E+04  0.12699999809E+01 0.  1.
       -4    1    3    3    0  502 -0.44103299180E+02  0.28987648639E+03 -0.22607105629E+02  0.29408531498E+03  0.12699999809E+01 0. -1.
</event>
<event>
 5   0  0.7893875E-03  0.9221493E+03  0.7818609E-02  0.9398310E-01
       -3   -1    0    0    0  501  0.00000000000E+00  0.00000000000E+00  0.15888710197E+03  0.15888713407E+03  0.10100000352E+00 0. -1.
        3   -1    0    0  501    0  0.00000000000E+00  0.00000000000E+00 -0.13379928912E+04  0.13379928950E+04  0.10100000352E+00 0.  1.
    10030    2    1    2    0    0  0.00000000000E+00  0.00000000000E+00 -0.11791057893E+04  0.14968800291E+04  0.92214931508E+03 0.  0.
        3    1    3    3  502    0 -0.44069322509E+03 -0.75755504741E+02 -0.77205438007E+03  0.89219806720E+03  0.10100000352E+00 0. -1.
       -3    1    3    3    0  502  0.44069322509E+03  0.75755504741E+02 -0.40705140919E+03  0.60468196191E+03  0.10100000352E+00 0.  1.
</event>
<event>
 5   0  0.1175993E-02  0.9007612E+03  0.7818609E-02  0.9424630E-01
       -1   -1    0    0    0  501  0.00000000000E+00  0.00000000000E+00  0.18152644662E+03  0.18152644669E+03  0.50400001928E-02 0. -1.
        1   -1    0    0  501    0  0.00000000000E+00  0.00000000000E+00 -0.11174277777E+04  0.11174277777E+04  0.50400001928E-02 0.  1.
    10030    2    1    2    0    0  0.00000000000E+00  0.00000000000E+00 -0.93590133105E+03  0.12989542244E+04  0.90076122006E+03 0.  0.
        4    1    3    3  502    0 -0.36337738743E+02 -0.62624726779E+02 -0.11089776477E+04  0.11113394277E+04  0.12699999809E+01 0.  1.
       -4    1    3    3    0  502  0.36337738743E+02  0.62624726779E+02  0.17307631661E+03  0.18761479667E+03  0.12699999809E+01 0. -1.
</event>
<event>
 5   0  0.1924218E-02  0.9079125E+03  0.7818609E-02  0.9415744E-01
        2   -1    0    0  501    0  0.00000000000E+00  0.00000000000E+00  0.12655095251E+04  0.12655095251E+04  0.25500000920E-02 0. -1.
       -2   -1    0    0    0  501  0.00000000000E+00  0.00000000000E+00 -0.16284054857E+03  0.16284054859E+03  0.25500000920E-02 0.  1.
    10030    2    1    2    0    0  0.00000000000E+00  0.00000000000E+00  0.11026689766E+04  0.14283500737E+04  0.90791247444E+03 0.  0.
        4    1    3    3  502    0 -0.36979550034E+03  0.87868332111E+02  0.94181467255E+03  0.10156210150E+04  0.12699999809E+01 0. -1.
       -4    1    3    3    0  502  0.36979550034E+03 -0.87868332111E+02  0.16085430400E+03  0.41272905868E+03  0.12699999809E+01 0.  1.
</event>
<event>
 5   0  0.7893875E-03  0.9175253E+03  0.7818609E-02  0.9403935E-01
       -4   -1    0    0    0  501  0.00000000000E+00  0.00000000000E+00  0.10844607112E+04  0.10844614549E+04  0.12699999809E+01 0.  1.
        4   -1    0    0  501    0  0.00000000000E+00  0.00000000000E+00 -0.19406884262E+03  0.19407299806E+03  0.12699999809E+01 0. -1.
    10030    2    1    2    0    0  0.00000000000E+00  0.00000000000E+00  0.89039186861E+03  0.12785344529E+04  0.91752529538E+03 0.  0.
        3    1    3    3  502    0  0.95483419144E+02 -0.21629557991E+02 -0.17934488967E+03  0.20432699470E+03  0.10100000352E+00 0. -1.
       -3    1    3    3    0  502 -0.95483419144E+02  0.21629557991E+02  0.10697367583E+04  0.10742074582E+04  0.10100000352E+00 0.  1.
</event>
<event>
 5   0  0.2008770E-02  0.8527116E+03  0.7818609E-02  0.9486705E-01
       -2   -1    0    0    0  501  0.00000000000E+00  0.00000000000E+00  0.25700818368E+03  0.25700818369E+03  0.25500000920E-02 0.  1.
        2   -1    0    0  501    0  0.00000000000E+00  0.00000000000E+00 -0.70728987057E+03  0.70728987057E+03  0.25500000920E-02 0. -1.
    10030    2    1    2    0    0  0.00000000000E+00  0.00000000000E+00 -0.45028168689E+03  0.96429805427E+03  0.85271163937E+03 0.  0.
        1    1    3    3  502    0 -0.39559384722E+03 -0.85945501090E+02 -0.73849757902E+02  0.41150322949E+03  0.50400001928E-02 0.  1.
       -1    1    3    3    0  502  0.39559384722E+03  0.85945501090E+02 -0.37643192899E+03  0.55279482478E+03  0.50400001928E-02 0. -1.
</event>
<event>
 5   0  0.1226424E-02  0.9120420E+03  0.7818609E-02  0.9410652E-01
       -1   -1    0    0    0  501  0.00000000000E+00  0.00000000000E+00  0.68408264229E+03  0.68408264230E+03  0.50400001928E-02 0. -1.
        1   -1    0    0  501    0  0.00000000000E+00  0.00000000000E+00 -0.30399125544E+03  0.30399125548E+03  0.50400001928E-02 0.  1.
    10030    2    1    2    0    0  0.00000000000E+00  0.00000000000E+00  0.38009138685E+03  0.98807389779E+03  0.91204197553E+03 0.  0.
        1    1    3    3  502    0  0.18988467163E+03 -0.23833273030E+03 -0.17749513311E+03  0.35265167114E+03  0.50400001928E-02 0.  1.
       -1    1    3    3    0  502 -0.18988467163E+03  0.23833273030E+03  0.55758651995E+03  0.63542222665E+03  0.50400001928E-02 0. -1.
</event>
<event>
 5   0  0.1175993E-02  0.9123972E+03  0.7818609E-02  0.9410216E-01
       -1   -1    0    0    0  501  0.00000000000E+00  0.00000000000E+00  0.20311118918E+03  0.20311118925E+03  0.50400001928E-02 0. -1.
        1   -1    0    0  501    0  0.00000000000E+00  0.00000000000E+00 -0.10246464301E+04  0.10246464301E+04  0.50400001928E-02 0.  1.
    10030    2    1    2    0    0  0.00000000000E+00  0.00000000000E+00 -0.82153524089E+03  0.12277576193E+04  0.91239718314E+03 0.  0.
        4    1    3    3  502    0 -0.24572457855E+03  0.33287761218E+03 -0.15218253485E+03  0.44085055292E+03  0.12699999809E+01 0. -1.
       -4    1    3    3    0  502  0.24572457855E+03 -0.33287761218E+03 -0.66935270604E+03  0.78690706641E+03  0.12699999809E+01 0.  1.
</event>
<event>
 5   0  0.1206541E-02  0.7347028E+03  0.7818609E-02  0.9659660E-01
       -1   -1    0    0    0  501  0.00000000000E+00  0.00000000000E+00  0.46976923531E+03  0.46976923533E+03  0.50400001928E-02 0. -1.
        1   -1    0    0  501    0  0.00000000000E+00  0.00000000000E+00 -0.28726238981E+03  0.28726238986E+03  0.50400001928E-02 0.  1.
    10030    2    1    2    0    0  0.00000000000E+00  0.00000000000E+00  0.18250684549E+03  0.75703162519E+03  0.73470275138E+03 0.  0.
        3    1    3    3  502    0 -0.44555270301E+02 -0.62807795320E+02  0.46135921283E+03  0.46774172866E+03  0.10100000352E+00 0. -1.
       -3    1    3    3    0  502  0.44555270301E+02  0.62807795320E+02 -0.27885236734E+03  0.28928989653E+03  0.10100000352E+00 0.  1.
</event>
<event>
 5   0  0.2008643E-02  0.8942349E+03  0.7818609E-02  0.9432817E-01
        2   -1    0    0  501    0  0.00000000000E+00  0.00000000000E+00  0.33591201071E+03  0.33591201072E+03  0.25500000920E-02 0.  1.
       -2   -1    0    0    0  501  0.00000000000E+00  0.00000000000E+00 -0.59513806983E+03  0.59513806983E+03  0.25500000920E-02 0. -1.
    10030    2    1    2    0    0  0.00000000000E+00  0.00000000000E+00 -0.25922605912E+03  0.93105008055E+03  0.89423492594E+03 0.  0.
        3    1    3    3  502    0 -0.16919111590E+03  0.39182298420E+03  0.91523638893E+01  0.42688951805E+03  0.10100000352E+00 0. -1.
       -3    1    3    3    0  502  0.16919111590E+03 -0.39182298420E+03 -0.26837842301E+03  0.50416056251E+03  0.10100000352E+00 0.  1.
</event>
<event>
 5   0  0.1968763E-02  0.9055265E+03  0.7818609E-02  0.9418699E-01
        2   -1    0    0  501    0  0.00000000000E+00  0.00000000000E+00  0.49283665693E+03  0.49283665693E+03  0.25500000920E-02 0. -1.
       -2   -1    0    0    0  501  0.00000000000E+00  0.00000000000E+00 -0.41594828050E+03  0.41594828051E+03  0.25500000920E-02 0.  1.
    10030    2    1    2    0    0  0.00000000000E+00  0.00000000000E+00  0.76888376424E+02  0.90878493745E+03  0.90552649884E+03 0.  0.
        2    1    3    3  502    0 -0.18847075828E+03 -0.18073278730E+03  0.40965214733E+03  0.48579877413E+03  0.25500000920E-02 0. -1.
       -2    1    3    3    0  502  0.18847075828E+03  0.18073278730E+03 -0.33276377090E+03  0.42298616332E+03  0.25500000920E-02 0.  1.
</event>
<event>
 5   0  0.1162839E-02  0.5643204E+03  0.7818609E-02  0.9982326E-01
       -1   -1    0    0    0  501  0.00000000000E+00  0.00000000000E+00  0.44550993950E+03  0.44550993953E+03  0.50400001928E-02 0. -1.
        1   -1    0    0  501    0  0.00000000000E+00  0.00000000000E+00 -0.17870394564E+03  0.17870394572E+03  0.50400001928E-02 0.  1.
    10030    2    1    2    0    0  0.00000000000E+00  0.00000000000E+00  0.26680599386E+03  0.62421388524E+03  0.56432041978E+03 0.  0.
        2    1    3    3  502    0  0.20851170559E+02 -0.84767303095E+02  0.43019771284E+03  0.43896507735E+03  0.25500000920E-02 0. -1.
       -2    1    3    3    0  502 -0.20851170559E+02  0.84767303095E+02 -0.16339171899E+03  0.18524880790E+03  0.25500000920E-02 0.  1.
</event>
<event>
 5   0  0.1924218E-02  0.9019473E+03  0.7818609E-02  0.9423150E-01
        2   -1    0    0  501    0  0.00000000000E+00  0.00000000000E+00  0.18304556403E+04  0.18304556403E+04  0.25500000920E-02 0.  1.
       -2   -1    0    0    0  501  0.00000000000E+00  0.00000000000E+00 -0.11110743358E+03  0.11110743361E+03  0.25500000920E-02 0. -1.
    10030    2    1    2    0    0  0.00000000000E+00  0.00000000000E+00  0.17193482067E+04  0.19415630739E+04  0.90194729003E+03 0.  0.
        4    1    3    3  502    0  0.61462188246E+02 -0.32390678146E+03  0.19729747231E+03  0.38421492572E+03  0.12699999809E+01 0. -1.
       -4    1    3    3    0  502 -0.61462188246E+02  0.32390678146E+03  0.15220507344E+04  0.15573481482E+04  0.12699999809E+01 0.  1.
</event>
<event>
 5   0  0.2041861E-02  0.8569489E+03  0.7818609E-02  0.9481058E-01
        2   -1    0    0  501    0  0.00000000000E+00  0.00000000000E+00  0.56246374989E+03  0.56246374989E+03  0.25500000920E-02 0.  1.
       -2   -1    0    0    0  501  0.00000000000E+00  0.00000000000E+00 -0.32640389104E+03  0.32640389105E+03  0.25500000920E-02 0. -1.
    10030    2    1    2    0    0  0.00000000000E+00  0.00000000000E+00  0.23605985885E+03  0.88886764094E+03  0.85694890522E+03 0.  0.
        5    1    3    3  502    0 -0.33101248043E+03 -0.17644674786E+03 -0.96721649470E+02  0.38740145134E+03  0.46999998093E+01 0. -1.
       -5    1    3    3    0  502  0.33101248043E+03  0.17644674786E+03  0.33278150832E+03  0.50146618959E+03  0.46999998093E+01 0.  1.
</event>
<event>
 5   0  0.1175993E-02  0.7085381E+03  0.7818609E-02  0.9702741E-01
        1   -1    0    0  501    0  0.00000000000E+00  0.00000000000E+00  0.13170061065E+04  0.13170061065E+04  0.50400001928E-02 0. -1.
       -1   -1    0    0    0  501  0.00000000000E+00  0.00000000000E+00 -0.95296865926E+02  0.95296866059E+02  0.50400001928E-02 0.  1.
    10030    2    1    2    0    0  0.00000000000E+00  0.00000000000E+00  0.12217092406E+04  0.14123029726E+04  0.70853808494E+03 0.  0.
        4    1    3    3  502    0 -0.12162229764E+03 -0.35468127850E+02 -0.48596207167E+02  0.13569515697E+03  0.12699999809E+01 0.  1.
       -4    1    3    3    0  502  0.12162229764E+03  0.35468127850E+02  0.12703054477E+04  0.12766078156E+04  0.12699999809E+01 0. -1.
</event>
<event>
 5   0  0.1924218E-02  0.8999845E+03  0.7818609E-02  0.9425601E-01
        2   -1    0    0  501    0  0.00000000000E+00  0.00000000000E+00  0.11669183991E+04  0.11669183991E+04  0.25500000920E-02 0.  1.
       -2   -1    0    0    0  501  0.00000000000E+00  0.00000000000E+00 -0.17352799760E+03  0.17352799762E+03  0.25500000920E-02 0. -1.
    10030    2    1    2    0    0  0.00000000000E+00  0.00000000000E+00  0.99339040153E+03  0.13404463967E+04  0.89998447359E+03 0.  0.
        4    1    3    3  502    0 -0.70411050488E+02 -0.24649328097E+03  0.10475249582E+04  0.10784372047E+04  0.12699999809E+01 0.  1.
       -4    1    3    3    0  502  0.70411050488E+02  0.24649328097E+03 -0.54134556647E+02  0.26200919204E+03  0.12699999809E+01 0. -1.
</event>
<event>
 5   0  0.1226424E-02  0.9073552E+03  0.7818609E-02  0.9416433E-01
        1   -1    0    0  501    0  0.00000000000E+00  0.00000000000E+00  0.76570934012E+03  0.76570934013E+03  0.50400001928E-02 0.  1.
       -1   -1    0    0    0  501  0.00000000000E+00  0.00000000000E+00 -0.26880093301E+03  0.26880093306E+03  0.50400001928E-02 0. -1.
    10030    2    1    2    0    0  0.00000000000E+00  0.00000000000E+00  0.49690840711E+03  0.10345102732E+04  0.90735524481E+03 0.  0.
        1    1    3    3  502    0  0.42053850968E+03 -0.67583167393E+02  0.42656137180E+03  0.60280571213E+03  0.50400001928E-02 0.  1.
       -1    1    3    3    0  502 -0.42053850968E+03  0.67583167393E+02  0.70347035304E+02  0.43170456106E+03  0.50400001928E-02 0. -1.
</event>
<event>
 5   0  0.2008770E-02  0.9054327E+03  0.7818609E-02  0.9418816E-01
       -2   -1    0    0    0  501  0.00000000000E+00  0.00000000000E+00  0.13213614098E+03  0.13213614100E+03  0.25500000920E-02 0. -1.
        2   -1    0    0  501    0  0.00000000000E+00  0.00000000000E+00 -0.15510677167E+04  0.15510677167E+04  0.25500000920E-02 0.  1.
    10030    2    1    2    0    0  0.00000000000E+00  0.00000000000E+00 -0.14189315757E+04  0.16832038577E+04  0.90543271976E+03 0.  0.
        1    1    3    3  502    0 -0.32441199303E+03 -0.16789016455E+03 -0.12066300641E+04  0.12607086738E+04  0.50400001928E-02 0.  1.
       -1    1    3    3    0  502  0.32441199303E+03  0.16789016455E+03 -0.21230151165E+03  0.42249518393E+03  0.50400001928E-02 0. -1.
</event>
<event>
 5   0  0.1162839E-02  0.8244120E+03  0.7818609E-02  0.9525339E-01
       -1   -1    0    0    0  501  0.00000000000E+00  0.00000000000E+00  0.41815119139E+03  0.41815119142E+03  0.50400001928E-02 0.  1.
        1   -1    0    0  501    0  0.00000000000E+00  0.00000000000E+00 -0.40634535741E+03  0.40634535745E+03  0.50400001928E-02 0. -1.
    10030    2    1    2    0    0  0.00000000000E+00  0.00000000000E+00  0.11805833978E+02  0.82449654887E+03  0.82441202161E+03 0.  0.
        2    1    3    3  502    0 -0.39944519069E+03 -0.10159087334E+03  0.11955762842E+02  0.41233494416E+03  0.25500000920E-02 0.  1.
       -2    1    3    3    0  502  0.39944519069E+03  0.10159087334E+03 -0.14992886362E+00  0.41216160470E+03  0.25500000920E-02 0. -1.
</event>
<event>
 5   0  0.1968763E-02  0.9979991E+03  0.7818609E-02  0.9310742E-01
       -2   -1    0    0    0  501  0.00000000000E+00  0.00000000000E+00  0.20959435917E+03  0.20959435919E+03  0.25500000920E-02 0.  1.
        2   -1    0    0  501    0  0.00000000000E+00  0.00000000000E+00 -0.11880116861E+04  0.11880116861E+04  0.25500000920E-02 0. -1.
    10030    2    1    2    0    0  0.00000000000E+00  0.00000000000E+00 -0.97841732691E+03  0.13976060453E+04  0.99799909428E+03 0.  0.
        2    1    3    3  502    0 -0.29618361373E+03 -0.26795608833E+03 -0.90810477175E+03  0.99205820132E+03  0.25500000920E-02 0. -1.
       -2    1    3    3    0  502  0.29618361373E+03  0.26795608833E+03 -0.70312555160E+02  0.40554784395E+03  0.25500000920E-02 0.  1.
</event>
<event>
 5   0  0.1968763E-02  0.8965346E+03  0.7818609E-02  0.9429924E-01
       -2   -1    0    0    0  501  0.00000000000E+00  0.00000000000E+00  0.58778756556E+03  0.58778756556E+03  0.25500000920E-02 0.  1.
        2   -1    0    0  501    0  0.00000000000E+00  0.00000000000E+00 -0.34186430761E+03  0.34186430762E+03  0.25500000920E-02 0. -1.
    10030    2    1    2    0    0  0.00000000000E+00  0.00000000000E+00  0.24592325795E+03  0.92965187318E+03  0.89653463765E+03 0.  0.
        2    1    3    3  502    0  0.30580561963E+03  0.19544336360E+03 -0.14987045131E+03  0.39265294798E+03  0.25500000920E-02 0. -1.
       -2    1    3    3    0  502 -0.30580561963E+03 -0.19544336360E+03  0.39579370926E+03  0.53699892520E+03  0.25500000920E-02 0.  1.
</event>
<event>
 5   0  0.1175993E-02  0.9303805E+03  0.7818609E-02  0.9388381E-01
        1   -1    0    0  501    0  0.00000000000E+00  0.00000000000E+00  0.68981277616E+03  0.68981277618E+03  0.50400001928E-02 0.  1.
       -1   -1    0    0    0  501  0.00000000000E+00  0.00000000000E+00 -0.31371117949E+03  0.31371117953E+03  0.50400001928E-02 0. -1.
    10030    2    1    2    0    0  0.00000000000E+00  0.00000000000E+00  0.37610159667E+03  0.10035239557E+04  0.93038052359E+03 0.  0.
        4    1    3    3  502    0  0.51885775326E+02 -0.30846320018E+03 -0.18334229646E+03  0.36257094495E+03  0.12699999809E+01 0. -1.
       -4    1    3    3    0  502 -0.51885775326E+02  0.30846320018E+03  0.55944389313E+03  0.64095301077E+03  0.12699999809E+01 0.  1.
</event>
<event>
 5   0  0.1177712E-02  0.8965703E+03  0.7818609E-02  0.9429879E-01
        1   -1    0    0  501    0  0.00000000000E+00  0.00000000000E+00  0.23396357635E+03  0.23396357641E+03  0.50400001928E-02 0. -1.
       -1   -1    0    0    0  501  0.00000000000E+00  0.00000000000E+00 -0.85893531283E+03  0.85893531284E+03  0.50400001928E-02 0.  1.
    10030    2    1    2    0    0  0.00000000000E+00  0.00000000000E+00 -0.62497173648E+03  0.10928988893E+04  0.89657030440E+03 0.  0.
        5    1    3    3  502    0  0.44626233309E+01 -0.74152496244E+02  0.22637792665E+03  0.23830141288E+03  0.46999998093E+01 0. -1.
       -5    1    3    3    0  502 -0.44626233309E+01  0.74152496244E+02 -0.85134966313E+03  0.85459747637E+03  0.46999998093E+01 0.  1.
</event>
<event>
 5   0  0.7893875E-03  0.8994062E+03  0.7818609E-02  0.9426324E-01
       -4   -1    0    0    0  501  0.00000000000E+00  0.00000000000E+00  0.36813672982E+03  0.36813892044E+03  0.12699999809E+01 0.  1.
        4   -1    0    0  501    0  0.00000000000E+00  0.00000000000E+00 -0.54933723564E+03  0.54933870368E+03  0.12699999809E+01 0. -1.
    10030    2    1    2    0    0  0.00000000000E+00  0.00000000000E+00 -0.18120050582E+03  0.91747762412E+03  0.89940623049E+03 0.  0.
        1    1    3    3  502    0  0.48454303330E+02 -0.18125329536E+03  0.32630737382E+03  0.37640015784E+03  0.50400001928E-02 0.  1.
       -1    1    3    3    0  502 -0.48454303330E+02  0.18125329536E+03 -0.50750787964E+03  0.54107746628E+03  0.50400001928E-02 0. -1.
</event>
<event>
 5   0  0.2008643E-02  0.8831134E+03  0.7818609E-02  0.9446940E-01
        2   -1    0    0  501    0  0.00000000000E+00  0.00000000000E+00  0.10747256821E+04  0.10747256821E+04  0.25500000920E-02 0.  1.
       -2   -1    0    0    0  501  0.00000000000E+00  0.00000000000E+00 -0.18141587621E+03  0.18141587623E+03  0.25500000920E-02 0. -1.
    10030    2    1    2    0    0  0.00000000000E+00  0.00000000000E+00  0.89330980585E+03  0.12561415583E+04  0.88311335923E+03 0.  0.
        3    1    3    3  502    0  0.24201488584E+03 -0.36391834189E+03  0.53621566835E+03  0.69176225519E+03  0.10100000352E+00 0.  1.
       -3    1    3    3    0  502 -0.24201488584E+03  0.36391834189E+03  0.35709413750E+03  0.56437930310E+03  0.10100000352E+00 0. -1.
</event>
<event>
 5   0  0.7893875E-03  0.8929590E+03  0.7818609E-02  0.9434426E-01
        4   -1    0    0  501    0  0.00000000000E+00  0.00000000000E+00  0.77170762855E+03  0.77170867357E+03  0.12699999809E+01 0. -1.
       -4   -1    0    0    0  501  0.00000000000E+00  0.00000000000E+00 -0.25831261512E+03  0.25831573709E+03  0.12699999809E+01 0.  1.
    10030    2    1    2    0    0  0.00000000000E+00  0.00000000000E+00  0.51339501343E+03  0.10300244107E+04  0.89295903979E+03 0.  0.
        5    1    3    3  502    0 -0.85628978842E+02  0.10407578591E+02  0.76197764612E+03  0.76685895893E+03  0.46999998093E+01 0. -1.
       -5    1    3    3    0  502  0.85628978842E+02 -0.10407578591E+02 -0.24858263269E+03  0.26316545173E+03  0.46999998093E+01 0.  1.
</event>
<event>
 5   0  0.1226424E-02  0.9154218E+03  0.7818609E-02  0.9406506E-01
        1   -1    0    0  501    0  0.00000000000E+00  0.00000000000E+00  0.14500640970E+04  0.14500640970E+04  0.50400001928E-02 0.  1.
       -1   -1    0    0    0  501  0.00000000000E+00  0.00000000000E+00 -0.14447587073E+03  0.14447587081E+03  0.50400001928E-02 0. -1.
    10030    2    1    2    0    0  0.00000000000E+00  0.00000000000E+00  0.13055882263E+04  0.15945399678E+04  0.91542181119E+03 0.  0.
        1    1    3    3  502    0  0.16022983552E+03  0.12612984932E+02  0.13992931122E+04  0.14084934865E+04  0.50400001928E-02 0.  1.
       -1    1    3    3    0  502 -0.16022983552E+03 -0.12612984932E+02 -0.93704885869E+02  0.18604648140E+03  0.50400001928E-02 0. -1.
</event>
<event>
 5   0  0.2008770E-02  0.9015978E+03  0.7818609E-02  0.9423586E-01
        2   -1    0    0  501    0  0.00000000000E+00  0.00000000000E+00  0.13873040560E+04  0.13873040560E+04  0.25500000920E-02 0.  1.
       -2   -1    0    0    0  501  0.00000000000E+00  0.00000000000E+00 -0.14648530004E+03  0.14648530006E+03  0.25500000920E-02 0. -1.
    10030    2    1    2    0    0  0.00000000000E+00  0.00000000000E+00  0.12408187560E+04  0.15337893561E+04  0.90159780592E+03 0.  0.
        1    1    3    3  502    0 -0.34757462497E+03  0.12824722504E+03  0.10573344417E+04  0.11203622594E+04  0.50400001928E-02 0.  1.
       -1    1    3    3    0  502  0.34757462497E+03 -0.12824722504E+03  0.18348431427E+03  0.41342709667E+03  0.50400001928E-02 0. -1.
</event>
<event>
 5   0  0.1177712E-02  0.8964004E+03  0.7818609E-02  0.9430092E-01
        1   -1    0    0  501    0  0.00000000000E+00  0.00000000000E+00  0.56051827301E+03  0.56051827303E+03  0.50400001928E-02 0. -1.
       -1   -1    0    0    0  501  0.00000000000E+00  0.00000000000E+00 -0.35838870025E+03  0.35838870029E+03  0.50400001928E-02 0.  1.
    10030    2    1    2    0    0  0.00000000000E+00  0.00000000000E+00  0.20212957276E+03  0.91890697332E+03  0.89640039125E+03 0.  0.
        5    1    3    3  502    0 -0.37839716495E+03  0.22915529580E+03  0.27394113223E+02  0.44324834063E+03  0.46999998093E+01 0.  1.
       -5    1    3    3    0  502  0.37839716495E+03 -0.22915529580E+03  0.17473545953E+03  0.47565863269E+03  0.46999998093E+01 0. -1.
</event>
<event>
 5   0  0.1177712E-02  0.8928673E+03  0.7818609E-02  0.9434542E-01
        1   -1    0    0  501    0  0.00000000000E+00  0.00000000000E+00  0.86531096446E+03  0.86531096447E+03  0.50400001928E-02 0.  1.
       -1   -1    0    0    0  501  0.00000000000E+00  0.00000000000E+00 -0.23032530960E+03  0.23032530966E+03  0.50400001928E-02 0. -1.
    10030    2    1    2    0    0  0.00000000000E+00  0.00000000000E+00  0.63498565485E+03  0.10956362741E+04  0.89286732683E+03 0.  0.
        5    1    3    3  502    0 -0.20267944316E+03  0.16596824266E+02  0.80514144434E+03  0.83043918902E+03  0.46999998093E+01 0.  1.
       -5    1    3    3    0  502  0.20267944316E+03 -0.16596824266E+02 -0.17015578949E+03  0.26519708511E+03  0.46999998093E+01 0. -1.
</event>
<event>
 5   0  0.1968763E-02  0.8907386E+03  0.7818609E-02  0.9437233E-01
       -2   -1    0    0    0  501  0.00000000000E+00  0.00000000000E+00  0.18003874569E+03  0.18003874571E+03  0.25500000920E-02 0. -1.
        2   -1    0    0  501    0  0.00000000000E+00  0.00000000000E+00 -0.11017284650E+04  0.11017284650E+04  0.25500000920E-02 0.  1.
    10030    2    1    2    0    0  0.00000000000E+00  0.00000000000E+00 -0.92168971933E+03  0.12817672107E+04  0.89073859453E+03 0.  0.
        2    1    3    3  502    0 -0.26008900472E+03  0.36054346988E+03 -0.42234197887E+03  0.61319705737E+03  0.25500000920E-02 0. -1.
       -2    1    3    3    0  502  0.26008900472E+03 -0.36054346988E+03 -0.49934774046E+03  0.66857015335E+03  0.25500000920E-02 0.  1.
</event>
<event>
 5   0  0.1968763E-02  0.8954259E+03  0.7818609E-02  0.9431317E-01
        2   -1    0    0  501    0  0.00000000000E+00  0.00000000000E+00  0.30876494909E+03  0.30876494910E+03  0.25500000920E-02 0.  1.
       -2   -1    0    0    0  501  0.00000000000E+00  0.00000000000E+00 -0.64918927005E+03  0.64918927006E+03  0.25500000920E-02 0. -1.
    10030    2    1    2    0    0  0.00000000000E+00  0.00000000000E+00 -0.34042432097E+03  0.95795421916E+03  0.89542591413E+03 0.  0.
        2    1    3    3  502    0 -0.28243147664E+03 -0.27029834053E+03  0.63241883138E+02  0.39601548919E+03  0.25500000920E-02 0. -1.
       -2    1    3    3    0  502  0.28243147664E+03  0.27029834053E+03 -0.40366620410E+03  0.56193872996E+03  0.25500000920E-02 0.  1.
</event>
<event>
 5   0  0.1226424E-02  0.8997056E+03  0.7818609E-02  0.9425949E-01
        1   -1    0    0  501    0  0.00000000000E+00  0.00000000000E+00  0.28403706768E+03  0.28403706773E+03  0.50400001928E-02 0. -1.
       -1   -1    0    0    0  501  0.00000000000E+00  0.00000000000E+00 -0.71246880224E+03  0.71246880225E+03  0.50400001928E-02 0.  1.
    10030    2    1    2    0    0  0.00000000000E+00  0.00000000000E+00 -0.42843173455E+03  0.99650586998E+03  0.89970561726E+03 0.  0.
        1    1    3    3  502    0  0.10151258987E+03 -0.43712298803E+03 -0.24899910786E+03  0.51320743204E+03  0.50400001928E-02 0.  1.
       -1    1    3    3    0  502 -0.10151258987E+03  0.43712298803E+03 -0.17943262669E+03  0.48329843793E+03  0.50400001928E-02 0. -1.
</event>
<event>
 5   0  0.2041861E-02  0.9157567E+03  0.7818609E-02  0.9406096E-01
       -2   -1    0    0    0  501  0.00000000000E+00  0.00000000000E+00  0.32527410146E+03  0.32527410147E+03  0.25500000920E-02 0. -1.
        2   -1    0    0  501    0  0.00000000000E+00  0.00000000000E+00 -0.64454131512E+03  0.64454131513E+03  0.25500000920E-02 0.  1.
    10030    2    1    2    0    0  0.00000000000E+00  0.00000000000E+00 -0.31926721366E+03  0.96981541660E+03  0.91575673001E+03 0.  0.
        5    1    3    3  502    0  0.26770287322E+03  0.36261750984E+03 -0.24484598840E+03  0.51295997388E+03  0.46999998093E+01 0. -1.
       -5    1    3    3    0  502 -0.26770287322E+03 -0.36261750984E+03 -0.74421225260E+02  0.45685544272E+03  0.46999998093E+01 0.  1.
</event>
<event>
 5   0  0.1175993E-02  0.8447304E+03  0.7818609E-02  0.9497437E-01
        1   -1    0    0  501    0  0.00000000000E+00  0.00000000000E+00  0.42873504923E+03  0.42873504926E+03  0.50400001928E-02 0.  1.
       -1   -1    0    0    0  501  0.00000000000E+00  0.00000000000E+00 -0.41609003335E+03  0.41609003338E+03  0.50400001928E-02 0. -1.
    10030    2    1    2    0    0  0.00000000000E+00  0.00000000000E+00  0.12645015880E+02  0.84482508264E+03  0.84473044448E+03 0.  0.
        4    1    3    3  502    0  0.24950750980E+03  0.31502806269E+03  0.13631433826E+03  0.42435820888E+03  0.12699999809E+01 0.  1.
       -4    1    3    3    0  502 -0.24950750980E+03 -0.31502806269E+03 -0.12366932238E+03  0.42046687376E+03  0.12699999809E+01 0. -1.
</event>
<event>
 5   0  0.1968763E-02  0.8932863E+03  0.7818609E-02  0.9434013E-01
       -2   -1    0    0    0  501  0.00000000000E+00  0.00000000000E+00  0.62762396273E+03  0.62762396273E+03  0.25500000920E-02 0.  1.
        2   -1    0    0  501    0  0.00000000000E+00  0.00000000000E+00 -0.31784969003E+03  0.31784969004E+03  0.25500000920E-02 0. -1.
    10030    2    1    2    0    0  0.00000000000E+00  0.00000000000E+00  0.30977427270E+03  0.94547365277E+03  0.89328625203E+03 0.  0.
        2    1    3    3  502    0  0.17292858843E+03 -0.20220274599E+03 -0.22481913982E+03  0.34833014917E+03  0.25500000920E-02 0. -1.
       -2    1    3    3    0  502 -0.17292858843E+03  0.20220274599E+03  0.53459341252E+03  0.59714350361E+03  0.25500000920E-02 0.  1.
</event>
<event>
 5   0  0.1206541E-02  0.8999119E+03  0.7818609E-02  0.9425692E-01
        1   -1    0    0  501    0  0.00000000000E+00  0.00000000000E+00  0.14540782405E+04  0.14540782405E+04  0.50400001928E-02 0.  1.
       -1   -1    0    0    0  501  0.00000000000E+00  0.00000000000E+00 -0.13923623036E+03  0.13923623045E+03  0.50400001928E-02 0. -1.
    10030    2    1    2    0    0  0.00000000000E+00  0.00000000000E+00  0.13148420101E+04  0.15933144709E+04  0.89991193554E+03 0.  0.
        3    1    3    3  502    0  0.25697957599E+02  0.12191823849E+03 -0.10808370896E+03  0.16494405186E+03  0.10100000352E+00 0. -1.
       -3    1    3    3    0  502 -0.25697957599E+02 -0.12191823849E+03  0.14229257191E+04  0.14283704191E+04  0.10100000352E+00 0.  1.
</event>
<event>
 5   0  0.1177712E-02  0.8921020E+03  0.7818609E-02  0.9435508E-01
       -1   -1    0    0    0  501  0.00000000000E+00  0.00000000000E+00  0.36781542002E+03  0.36781542006E+03  0.50400001928E-02 0. -1.
        1   -1    0    0  501    0  0.00000000000E+00  0.00000000000E+00 -0.54092760508E+03  0.54092760510E+03  0.50400001928E-02 0.  1.
    10030    2    1    2    0    0  0.00000000000E+00  0.00000000000E+00 -0.17311218505E+03  0.90874302516E+03  0.89210204414E+03 0.  0.
        5    1    3    3  502    0 -0.32281195124E+03 -0.14466081921E+03  0.19018253904E+03  0.40165382686E+03  0.46999998093E+01 0. -1.
       -5    1    3    3    0  502  0.32281195124E+03  0.14466081921E+03 -0.36329472409E+03  0.50708919830E+03  0.46999998093E+01 0.  1.
</event>
<event>
 5   0  0.7893875E-03  0.8916186E+03  0.7818609E-02  0.9436120E-01
       -4   -1    0    0    0  501  0.00000000000E+00  0.00000000000E+00  0.61197045396E+03  0.61197177175E+03  0.12699999809E+01 0. -1.
        4   -1    0    0  501    0  0.00000000000E+00  0.00000000000E+00 -0.32476102727E+03  0.32476351047E+03  0.12699999809E+01 0.  1.
    10030    2    1    2    0    0  0.00000000000E+00  0.00000000000E+00  0.28720942670E+03  0.93673528222E+03  0.89161860354E+03 0.  0.
        5    1    3    3  502    0  0.19984499624E+03  0.24497685222E+03  0.47378796401E+03  0.56960407784E+03  0.46999998093E+01 0. -1.
       -5    1    3    3    0  502 -0.19984499624E+03 -0.24497685222E+03 -0.18657853731E+03  0.36713120439E+03  0.46999998093E+01 0.  1.
</event>
<event>
 5   0  0.1177712E-02  0.8722852E+03  0.7818609E-02  0.9460905E-01
       -1   -1    0    0    0  501  0.00000000000E+00  0.00000000000E+00  0.66614042001E+03  0.66614042003E+03  0.50400001928E-02 0.  1.
        1   -1    0    0  501    0  0.00000000000E+00  0.00000000000E+00 -0.28555597111E+03  0.28555597115E+03  0.50400001928E-02 0. -1.
    10030    2    1    2    0    0  0.00000000000E+00  0.00000000000E+00  0.38058444891E+03  0.95169639118E+03  0.87228521611E+03 0.  0.
        5    1    3    3  502    0 -0.64644546295E+02 -0.18126298494E+02 -0.27985633468E+03  0.28783526212E+03  0.46999998093E+01 0. -1.
       -5    1    3    3    0  502  0.64644546295E+02  0.18126298494E+02  0.66044078358E+03  0.66386112906E+03  0.46999998093E+01 0.  1.
</event>
<event>
 5   0  0.1968763E-02  0.9030054E+03  0.7818609E-02  0.9421832E-01
        2   -1    0    0  501    0  0.00000000000E+00  0.00000000000E+00  0.77387358479E+03  0.77387358480E+03  0.25500000920E-02 0. -1.
       -2   -1    0    0    0  501  0.00000000000E+00  0.00000000000E+00 -0.26342117901E+03  0.26342117902E+03  0.25500000920E-02 0.  1.
    10030    2    1    2    0    0  0.00000000000E+00  0.00000000000E+00  0.51045240579E+03  0.10372947638E+04  0.90300540888E+03 0.  0.
        2    1    3    3  502    0 -0.34945189420E+03 -0.12270757239E+03  0.55185452636E+03  0.66461808052E+03  0.25500000920E-02 0. -1.
       -2    1    3    3    0  502  0.34945189420E+03  0.12270757239E+03 -0.41402120568E+02  0.37267668330E+03  0.25500000920E-02 0.  1.
</event>
<event>
 5   0  0.1968763E-02  0.9027768E+03  0.7818609E-02  0.9422117E-01
       -2   -1    0    0    0  501  0.00000000000E+00  0.00000000000E+00  0.10150029904E+03  0.10150029908E+03  0.25500000920E-02 0. -1.
        2   -1    0    0  501    0  0.00000000000E+00  0.00000000000E+00 -0.20073979282E+04  0.20073979282E+04  0.25500000920E-02 0.  1.
    10030    2    1    2    0    0  0.00000000000E+00  0.00000000000E+00 -0.19058976292E+04  0.21088982273E+04  0.90277680531E+03 0.  0.
        2    1    3    3  502    0  0.11881293749E+03 -0.12909971648E+03  0.18586097239E+02  0.17643325630E+03  0.25500000920E-02 0. -1.
       -2    1    3    3    0  502 -0.11881293749E+03  0.12909971648E+03 -0.19244837264E+04  0.19324649710E+04  0.25500000920E-02 0.  1.
</event>
<event>
 5   0  0.1162839E-02  0.9107455E+03  0.7818609E-02  0.9412248E-01
        1   -1    0    0  501    0  0.00000000000E+00  0.00000000000E+00  0.52279494233E+03  0.52279494236E+03  0.50400001928E-02 0.  1.
       -1   -1    0    0    0  501  0.00000000000E+00  0.00000000000E+00 -0.39664563890E+03  0.39664563893E+03  0.50400001928E-02 0. -1.
    10030    2    1    2    0    0  0.00000000000E+00  0.00000000000E+00  0.12614930343E+03  0.91944058129E+03  0.91074548353E+03 0.  0.
        2    1    3    3  502    0 -0.45093920161E+03  0.11672399471E+02  0.12597459286E+03  0.46835030320E+03  0.25500000920E-02 0.  1.
       -2    1    3    3    0  502  0.45093920161E+03 -0.11672399471E+02  0.17471056935E+00  0.45109027809E+03  0.25500000920E-02 0. -1.
</event>
<event>
 5   0  0.1924218E-02  0.9284456E+03  0.7818609E-02  0.9390705E-01
       -2   -1    0    0    0  501  0.00000000000E+00  0.00000000000E+00  0.48611951464E+03  0.48611951465E+03  0.25500000920E-02 0. -1.
        2   -1    0    0  501    0  0.00000000000E+00  0.00000000000E+00 -0.44331238003E+03  0.44331238003E+03  0.25500000920E-02 0.  1.
    10030    2    1    2    0    0  0.00000000000E+00  0.00000000000E+00  0.42807134614E+02  0.92943189468E+03  0.92844558057E+03 0.  0.
        4    1    3    3  502    0 -0.20778832801E+02 -0.45641640931E+03 -0.60863339796E+02  0.46092695474E+03  0.12699999809E+01 0.  1.
       -4    1    3    3    0  502  0.20778832801E+02  0.45641640931E+03  0.10367047441E+03  0.46850493993E+03  0.12699999809E+01 0. -1.
</event>
<event>
 5   0  0.1177712E-02  0.9166875E+03  0.7818609E-02  0.9404958E-01
       -1   -1    0    0    0  501  0.00000000000E+00  0.00000000000E+00  0.21171577109E+03  0.21171577115E+03  0.50400001928E-02 0.  1.
        1   -1    0    0  501    0  0.00000000000E+00  0.00000000000E+00 -0.99226904502E+03  0.99226904503E+03  0.50400001928E-02 0. -1.
    10030    2    1    2    0    0  0.00000000000E+00  0.00000000000E+00 -0.78055327393E+03  0.12039848162E+04  0.91668752808E+03 0.  0.
        5    1    3    3  502    0  0.23408567587E+02 -0.39764935563E+03 -0.68800033808E+03  0.79500913596E+03  0.46999998093E+01 0. -1.
       -5    1    3    3    0  502 -0.23408567587E+02  0.39764935563E+03 -0.92552935855E+02  0.40897568021E+03  0.46999998093E+01 0.  1.
</event>
<event>
 5   0  0.1177712E-02  0.9109741E+03  0.7818609E-02  0.9411966E-01
        1   -1    0    0  501    0  0.00000000000E+00  0.00000000000E+00  0.44297696965E+03  0.44297696968E+03  0.50400001928E-02 0. -1.
       -1   -1    0    0    0  501  0.00000000000E+00  0.00000000000E+00 -0.46835044078E+03  0.46835044080E+03  0.50400001928E-02 0.  1.
    10030    2    1    2    0    0  0.00000000000E+00  0.00000000000E+00 -0.25373471123E+02  0.91132741049E+03  0.91097411383E+03 0.  0.
        5    1    3    3  502    0  0.17920757480E+03  0.18858232335E+03  0.36131346865E+03  0.44525067117E+03  0.46999998093E+01 0. -1.
       -5    1    3    3    0  502 -0.17920757480E+03 -0.18858232335E+03 -0.38668693978E+03  0.46607673932E+03  0.46999998093E+01 0.  1.
</event>
<event>
 5   0  0.1206541E-02  0.9105684E+03  0.7818609E-02  0.9412466E-01
       -1   -1    0    0    0  501  0.00000000000E+00  0.00000000000E+00  0.41804957826E+03  0.41804957829E+03  0.50400001928E-02 0. -1.
        1   -1    0    0  501    0  0.00000000000E+00  0.00000000000E+00 -0.49583524258E+03  0.49583524260E+03  0.50400001928E-02 0.  1.
    10030    2    1    2    0    0  0.00000000000E+00  0.00000000000E+00 -0.77785664318E+02  0.91388482089E+03  0.91056842482E+03 0.  0.
        3    1    3    3  502    0  0.22508809328E+03 -0.30903716796E+02 -0.43487259450E+03  0.49064638295E+03  0.10100000352E+00 0.  1.
       -3    1    3    3    0  502 -0.22508809328E+03  0.30903716796E+02  0.35708693018E+03  0.42323843795E+03  0.10100000352E+00 0. -1.
</event>
<event>
 5   0  0.1968763E-02  0.9008794E+03  0.7818609E-02  0.9424483E-01
        2   -1    0    0  501    0  0.00000000000E+00  0.00000000000E+00  0.14711880435E+04  0.14711880435E+04  0.25500000920E-02 0.  1.
       -2   -1    0    0    0  501  0.00000000000E+00  0.00000000000E+00 -0.13791298880E+03  0.13791298882E+03  0.25500000920E-02 0. -1.
    10030    2    1    2    0    0  0.00000000000E+00  0.00000000000E+00  0.13332750547E+04  0.16091010323E+04  0.90087943742E+03 0.  0.
        2    1    3    3  502    0 -0.24290241651E+03 -0.21940079789E+03  0.12193552244E+04  0.12625234482E+04  0.25500000920E-02 0.  1.
       -2    1    3    3    0  502  0.24290241651E+03  0.21940079789E+03  0.11391983031E+03  0.34657758411E+03  0.25500000920E-02 0. -1.
</event>
<event>
 5   0  0.1175993E-02  0.8873047E+03  0.7818609E-02  0.9441592E-01
        1   -1    0    0  501    0  0.00000000000E+00  0.00000000000E+00  0.99647039745E+03  0.99647039747E+03  0.50400001928E-02 0.  1.
       -1   -1    0    0    0  501  0.00000000000E+00  0.00000000000E+00 -0.19752457417E+03  0.19752457424E+03  0.50400001928E-02 0. -1.
    10030    2    1    2    0    0  0.00000000000E+00  0.00000000000E+00  0.79894582328E+03  0.11939949717E+04  0.88730466240E+03 0.  0.
        4    1    3    3  502    0  0.19920483845E+03 -0.36945865243E+03  0.20613298331E+03  0.46762664940E+03  0.12699999809E+01 0. -1.
       -4    1    3    3    0  502 -0.19920483845E+03  0.36945865243E+03  0.59281283997E+03  0.72636832231E+03  0.12699999809E+01 0.  1.
</event>
<event>
 5   0  0.1968763E-02  0.8964902E+03  0.7818609E-02  0.9429980E-01
        2   -1    0    0  501    0  0.00000000000E+00  0.00000000000E+00  0.16446473768E+04  0.16446473768E+04  0.25500000920E-02 0.  1.
       -2   -1    0    0    0  501  0.00000000000E+00  0.00000000000E+00 -0.12216823580E+03  0.12216823583E+03  0.25500000920E-02 0. -1.
    10030    2    1    2    0    0  0.00000000000E+00  0.00000000000E+00  0.15224791410E+04  0.17668156126E+04  0.89649019753E+03 0.  0.
        2    1    3    3  502    0  0.38921352628E+03 -0.10530400223E+03  0.11471749459E+04  0.12159714052E+04  0.25500000920E-02 0. -1.
       -2    1    3    3    0  502 -0.38921352628E+03  0.10530400223E+03  0.37530419510E+03  0.55084420737E+03  0.25500000920E-02 0.  1.
</event>
<event>
 5   0  0.1968763E-02  0.5552516E+03  0.7818609E-02  0.1000286E+00
        2   -1    0    0  501    0  0.00000000000E+00  0.00000000000E+00  0.12118326814E+04  0.12118326814E+04  0.25500000920E-02 0.  1.
       -2   -1    0    0    0  501  0.00000000000E+00  0.00000000000E+00 -0.63602917330E+02  0.63602917382E+02  0.25500000920E-02 0. -1.
    10030    2    1    2    0    0  0.00000000000E+00  0.00000000000E+00  0.11482297641E+04  0.12754355988E+04  0.55525163264E+03 0.  0.
        2    1    3    3  502    0  0.36213684892E+02  0.13229396061E+03  0.19661542980E+02  0.13856297942E+03  0.25500000920E-02 0. -1.
       -2    1    3    3    0  502 -0.36213684892E+02 -0.13229396061E+03  0.11285682211E+04  0.11368726194E+04  0.25500000920E-02 0.  1.
</event>
<event>
 5   0  0.1206541E-02  0.9124980E+03  0.7818609E-02  0.9410092E-01
        1   -1    0    0  501    0  0.00000000000E+00  0.00000000000E+00  0.16658140169E+04  0.16658140169E+04  0.50400001928E-02 0. -1.
       -1   -1    0    0    0  501  0.00000000000E+00  0.00000000000E+00 -0.12496182870E+03  0.12496182880E+03  0.50400001928E-02 0.  1.
    10030    2    1    2    0    0  0.00000000000E+00  0.00000000000E+00  0.15408521882E+04  0.17907758457E+04  0.91249803489E+03 0.  0.
        3    1    3    3  502    0  0.28333032052E+03 -0.30062661150E+03  0.39033558716E+03  0.56834347967E+03  0.10100000352E+00 0.  1.
       -3    1    3    3    0  502 -0.28333032052E+03  0.30062661150E+03  0.11505166011E+04  0.12224323661E+04  0.10100000352E+00 0. -1.
</event>
<event>
 5   0  0.1226424E-02  0.1102586E+04  0.7818609E-02  0.9202675E-01
       -1   -1    0    0    0  501  0.00000000000E+00  0.00000000000E+00  0.88499228003E+03  0.88499228005E+03  0.50400001928E-02 0.  1.
        1   -1    0    0  501    0  0.00000000000E+00  0.00000000000E+00 -0.34342004036E+03  0.34342004040E+03  0.50400001928E-02 0. -1.
    10030    2    1    2    0    0  0.00000000000E+00  0.00000000000E+00  0.54157223967E+03  0.12284123204E+04  0.11025862044E+04 0.  0.
        1    1    3    3  502    0 -0.37499013980E+03  0.72180960609E+02 -0.17220251462E+03  0.41890500366E+03  0.50400001928E-02 0.  1.
       -1    1    3    3    0  502  0.37499013980E+03 -0.72180960609E+02  0.71377475430E+03  0.80950731678E+03  0.50400001928E-02 0. -1.
</event>
<event>
 5   0  0.1206541E-02  0.9310100E+03  0.7818609E-02  0.9387627E-01
        1   -1    0    0  501    0  0.00000000000E+00  0.00000000000E+00  0.11328552993E+04  0.11328552993E+04  0.50400001928E-02 0.  1.
       -1   -1    0    0    0  501  0.00000000000E+00  0.00000000000E+00 -0.19128205894E+03  0.19128205901E+03  0.50400001928E-02 0. -1.
    10030    2    1    2    0    0  0.00000000000E+00  0.00000000000E+00  0.94157324033E+03  0.13241373583E+04  0.93100997671E+03 0.  0.
        3    1    3    3  502    0  0.34742870352E+03  0.13466453622E+03  0.73944124346E+02  0.37988022464E+03  0.10100000352E+00 0. -1.
       -3    1    3    3    0  502 -0.34742870352E+03 -0.13466453622E+03  0.86762911599E+03  0.94425713366E+03  0.10100000352E+00 0.  1.
</event>
<event>
 5   0  0.1177712E-02  0.8677047E+03  0.7818609E-02  0.9466878E-01
        1   -1    0    0  501    0  0.00000000000E+00  0.00000000000E+00  0.37396230678E+03  0.37396230681E+03  0.50400001928E-02 0.  1.
       -1   -1    0    0    0  501  0.00000000000E+00  0.00000000000E+00 -0.50333373294E+03  0.50333373297E+03  0.50400001928E-02 0. -1.
    10030    2    1    2    0    0  0.00000000000E+00  0.00000000000E+00 -0.12937142616E+03  0.87729603978E+03  0.86770465915E+03 0.  0.
        5    1    3    3  502    0  0.34019107361E+03 -0.17498026789E+03  0.14216731582E+03  0.40814421030E+03  0.46999998093E+01 0. -1.
       -5    1    3    3    0  502 -0.34019107361E+03  0.17498026789E+03 -0.27153874198E+03  0.46915182948E+03  0.46999998093E+01 0.  1.
</event>
<event>
 5   0  0.1175993E-02  0.7847956E+03  0.7818609E-02  0.9582289E-01
        1   -1    0    0  501    0  0.00000000000E+00  0.00000000000E+00  0.88270777262E+03  0.88270777263E+03  0.50400001928E-02 0. -1.
       -1   -1    0    0    0  501  0.00000000000E+00  0.00000000000E+00 -0.17443601705E+03  0.17443601713E+03  0.50400001928E-02 0.  1.
    10030    2    1    2    0    0  0.00000000000E+00  0.00000000000E+00  0.70827175557E+03  0.10571437898E+04  0.78479558644E+03 0.  0.
        4    1    3    3  502    0 -0.13436362676E+03  0.34204571125E+03  0.16882457537E+03  0.40441587868E+03  0.12699999809E+01 0.  1.
       -4    1    3    3    0  502  0.13436362676E+03 -0.34204571125E+03  0.53944718020E+03  0.65272791108E+03  0.12699999809E+01 0. -1.
</event>
<event>
 5   0  0.1175993E-02  0.8950401E+03  0.7818609E-02  0.9431803E-01
       -1   -1    0    0    0  501  0.00000000000E+00  0.00000000000E+00  0.24253034872E+03  0.24253034877E+03  0.50400001928E-02 0.  1.
        1   -1    0    0  501    0  0.00000000000E+00  0.00000000000E+00 -0.82576954473E+03  0.82576954474E+03  0.50400001928E-02 0. -1.
    10030    2    1    2    0    0  0.00000000000E+00  0.00000000000E+00 -0.58323919600E+03  0.10682998935E+04  0.89504005649E+03 0.  0.
        4    1    3    3  502    0 -0.95733980105E+02  0.22934580379E+03  0.15259032116E+03  0.29163318000E+03  0.12699999809E+01 0.  1.
       -4    1    3    3    0  502  0.95733980105E+02 -0.22934580379E+03 -0.73582951716E+03  0.77666671352E+03  0.12699999809E+01 0. -1.
</event>
<event>
 5   0  0.2008770E-02  0.8859122E+03  0.7818609E-02  0.9443365E-01
       -2   -1    0    0    0  501  0.00000000000E+00  0.00000000000E+00  0.30861716694E+03  0.30861716695E+03  0.25500000920E-02 0. -1.
        2   -1    0    0  501    0  0.00000000000E+00  0.00000000000E+00 -0.63577188541E+03  0.63577188542E+03  0.25500000920E-02 0.  1.
    10030    2    1    2    0    0  0.00000000000E+00  0.00000000000E+00 -0.32715471847E+03  0.94438905236E+03  0.88591222613E+03 0.  0.
        1    1    3    3  502    0 -0.15720083048E+03 -0.98208240715E+02  0.26528787133E+03  0.32362727689E+03  0.50400001928E-02 0. -1.
       -1    1    3    3    0  502  0.15720083048E+03  0.98208240715E+02 -0.59244258980E+03  0.62076177547E+03  0.50400001928E-02 0.  1.
</event>
<event>
 5   0  0.2008643E-02  0.8630230E+03  0.7818609E-02  0.9473023E-01
       -2   -1    0    0    0  501  0.00000000000E+00  0.00000000000E+00  0.11836863772E+03  0.11836863775E+03  0.25500000920E-02 0. -1.
        2   -1    0    0  501    0  0.00000000000E+00  0.00000000000E+00 -0.15730703122E+04  0.15730703122E+04  0.25500000920E-02 0.  1.
    10030    2    1    2    0    0  0.00000000000E+00  0.00000000000E+00 -0.14547016744E+04  0.16914389499E+04  0.86302303542E+03 0.  0.
        3    1    3    3  502    0 -0.25023638576E+03 -0.35081526703E+03 -0.68297827533E+03  0.80755738812E+03  0.10100000352E+00 0. -1.
       -3    1    3    3    0  502  0.25023638576E+03  0.35081526703E+03 -0.77172339911E+03  0.88388156179E+03  0.10100000352E+00 0.  1.
</event>
<event>
 5   0  0.1177712E-02  0.8094408E+03  0.7818609E-02  0.9546452E-01
        1   -1    0    0  501    0  0.00000000000E+00  0.00000000000E+00  0.28484536568E+03  0.28484536573E+03  0.50400001928E-02 0.  1.
       -1   -1    0    0    0  501  0.00000000000E+00  0.00000000000E+00 -0.57504397515E+03  0.57504397517E+03  0.50400001928E-02 0. -1.
    10030    2    1    2    0    0  0.00000000000E+00  0.00000000000E+00 -0.29019860947E+03  0.85988934090E+03  0.80944082282E+03 0.  0.
        5    1    3    3  502    0  0.10660624651E+03 -0.95821543546E+02  0.25694530868E+03  0.29426117932E+03  0.46999998093E+01 0.  1.
       -5    1    3    3    0  502 -0.10660624651E+03  0.95821543546E+02 -0.54714391815E+03  0.56562816158E+03  0.46999998093E+01 0. -1.
</event>
<event>
 5   0  0.1968763E-02  0.8986818E+03  0.7818609E-02  0.9427231E-01
        2   -1    0    0  501    0  0.00000000000E+00  0.00000000000E+00  0.26144411399E+03  0.26144411400E+03  0.25500000920E-02 0.  1.
       -2   -1    0    0    0  501  0.00000000000E+00  0.00000000000E+00 -0.77227684213E+03  0.77227684213E+03  0.25500000920E-02 0. -1.
    10030    2    1    2    0    0  0.00000000000E+00  0.00000000000E+00 -0.51083272814E+03  0.10337209561E+04  0.89868177850E+03 0.  0.
        2    1    3    3  502    0 -0.27066541226E+03  0.25332372131E+02 -0.66695641526E+03  0.72023076464E+03  0.25500000920E-02 0. -1.
       -2    1    3    3    0  502  0.27066541226E+03 -0.25332372131E+02  0.15612368712E+03  0.31349019149E+03  0.25500000920E-02 0.  1.
</event>
<event>
 5   0  0.1924218E-02  0.9100881E+03  0.7818609E-02  0.9413058E-01
        2   -1    0    0  501    0  0.00000000000E+00  0.00000000000E+00  0.53385337820E+03  0.53385337821E+03  0.25500000920E-02 0.  1.
       -2   -1    0    0    0  501  0.00000000000E+00  0.00000000000E+00 -0.38786882965E+03  0.38786882966E+03  0.25500000920E-02 0. -1.
    10030    2    1    2    0    0  0.00000000000E+00  0.00000000000E+00  0.14598454855E+03  0.92172220787E+03  0.91008809467E+03 0.  0.
        4    1    3    3  502    0 -0.10100788397E+02 -0.33569170001E+03 -0.23797106877E+03  0.41160999241E+03  0.12699999809E+01 0. -1.
       -4    1    3    3    0  502  0.10100788397E+02  0.33569170001E+03  0.38395561732E+03  0.51011221545E+03  0.12699999809E+01 0.  1.
</event>
<event>
 5   0  0.1175993E-02  0.8912553E+03  0.7818609E-02  0.9436579E-01
       -1   -1    0    0    0  501  0.00000000000E+00  0.00000000000E+00  0.92983179393E+03  0.92983179394E+03  0.50400001928E-02 0. -1.
        1   -1    0    0  501    0  0.00000000000E+00  0.00000000000E+00 -0.21356983475E+03  0.21356983481E+03  0.50400001928E-02 0.  1.
    10030    2    1    2    0    0  0.00000000000E+00  0.00000000000E+00  0.71626195918E+03  0.11434016287E+04  0.89125534526E+03 0.  0.
        4    1    3    3  502    0  0.25990872173E+02 -0.18040386660E+03  0.87982233005E+03  0.89850432713E+03  0.12699999809E+01 0. -1.
       -4    1    3    3    0  502 -0.25990872173E+02  0.18040386660E+03 -0.16356037087E+03  0.24489730162E+03  0.12699999809E+01 0.  1.
</event>
<event>
 5   0  0.2041861E-02  0.9084854E+03  0.7818609E-02  0.9415036E-01
       -2   -1    0    0    0  501  0.00000000000E+00  0.00000000000E+00  0.12815931443E+04  0.12815931443E+04  0.25500000920E-02 0. -1.
        2   -1    0    0  501    0  0.00000000000E+00  0.00000000000E+00 -0.16099995062E+03  0.16099995064E+03  0.25500000920E-02 0.  1.
    10030    2    1    2    0    0  0.00000000000E+00  0.00000000000E+00  0.11205931936E+04  0.14425930949E+04  0.90848540540E+03 0.  0.
        5    1    3    3  502    0  0.14077391376E+03 -0.84442058248E+02  0.12328033757E+04  0.12436936958E+04  0.46999998093E+01 0. -1.
       -5    1    3    3    0  502 -0.14077391376E+03  0.84442058248E+02 -0.11221018204E+03  0.19889939906E+03  0.46999998093E+01 0.  1.
</event>
<event>
 5   0  0.2008770E-02  0.8126859E+03  0.7818609E-02  0.9541834E-01
        2   -1    0    0  501    0  0.00000000000E+00  0.00000000000E+00  0.70538270875E+03  0.70538270875E+03  0.25500000920E-02 0. -1.
       -2   -1    0    0    0  501  0.00000000000E+00  0.00000000000E+00 -0.23407800054E+03  0.23407800055E+03  0.25500000920E-02 0.  1.
    10030    2    1    2    0    0  0.00000000000E+00  0.00000000000E+00  0.47130470821E+03  0.93946070931E+03  0.81268585342E+03 0.  0.
        1    1    3    3  502    0 -0.20415898952E+03  0.29048135012E+03  0.46410182845E+03  0.58433792874E+03  0.50400001928E-02 0. -1.
       -1    1    3    3    0  502  0.20415898952E+03 -0.29048135012E+03  0.72028797622E+01  0.35512278056E+03  0.50400001928E-02 0.  1.
</event>
<event>
 5   0  0.1175993E-02  0.9120739E+03  0.7818609E-02  0.9410613E-01
        1   -1    0    0  501    0  0.00000000000E+00  0.00000000000E+00  0.95547028562E+03  0.95547028564E+03  0.50400001928E-02 0. -1.
       -1   -1    0    0    0  501  0.00000000000E+00  0.00000000000E+00 -0.21766213668E+03  0.21766213673E+03  0.50400001928E-02 0.  1.
    10030    2    1    2    0    0  0.00000000000E+00  0.00000000000E+00  0.73780814895E+03  0.11731324224E+04  0.91207390916E+03 0.  0.
        4    1    3    3  502    0 -0.34599700983E+02 -0.35337395531E+03  0.81483508370E+00  0.35506699150E+03  0.12699999809E+01 0.  1.
       -4    1    3    3    0  502  0.34599700983E+02  0.35337395531E+03  0.73699331387E+03  0.81806543087E+03  0.12699999809E+01 0. -1.
</event>
<event>
 5   0  0.7893875E-03  0.9013868E+03  0.7818609E-02  0.9423850E-01
       -3   -1    0    0    0  501  0.00000000000E+00  0.00000000000E+00  0.91305839802E+03  0.91305840361E+03  0.10100000352E+00 0.  1.
        3   -1    0    0  501    0  0.00000000000E+00  0.00000000000E+00 -0.22246605935E+03  0.22246608227E+03  0.10100000352E+00 0. -1.
    10030    2    1    2    0    0  0.00000000000E+00  0.00000000000E+00  0.69059233867E+03  0.11355244859E+04  0.90138675373E+03 0.  0.
        1    1    3    3  502    0 -0.76121305835E+02 -0.34122892003E+03 -0.12998634556E+02  0.34985796203E+03  0.50400001928E-02 0. -1.
       -1    1    3    3    0  502  0.76121305835E+02  0.34122892003E+03  0.70359097323E+03  0.78566652385E+03  0.50400001928E-02 0.  1.
</event>
<event>
 5   0  0.1226424E-02  0.9315923E+03  0.7818609E-02  0.9386929E-01
       -1   -1    0    0    0  501  0.00000000000E+00  0.00000000000E+00  0.17096254636E+03  0.17096254644E+03  0.50400001928E-02 0.  1.
        1   -1    0    0  501    0  0.00000000000E+00  0.00000000000E+00 -0.12690852656E+04  0.12690852656E+04  0.50400001928E-02 0. -1.
    10030    2    1    2    0    0  0.00000000000E+00  0.00000000000E+00 -0.10981227192E+04  0.14400478121E+04  0.93159228984E+03 0.  0.
        1    1    3    3  502    0 -0.45983616374E+03 -0.71642592508E+02 -0.51876659681E+03  0.69692233465E+03  0.50400001928E-02 0. -1.
       -1    1    3    3    0  502  0.45983616374E+03  0.71642592508E+02 -0.57935612244E+03  0.74312547741E+03  0.50400001928E-02 0.  1.
</event>
<event>
 5   0  0.1924218E-02  0.9105351E+03  0.7818609E-02  0.9412507E-01
       -2   -1    0    0    0  501  0.00000000000E+00  0.00000000000E+00  0.15218496173E+03  0.15218496175E+03  0.25500000920E-02 0.  1.
        2   -1    0    0  501    0  0.00000000000E+00  0.00000000000E+00 -0.13619516337E+04  0.13619516337E+04  0.25500000920E-02 0. -1.
    10030    2    1    2    0    0  0.00000000000E+00  0.00000000000E+00 -0.12097666720E+04  0.15141365955E+04  0.91053513336E+03 0.  0.
        4    1    3    3  502    0 -0.43347511361E+03 -0.57911134491E+02 -0.81530908379E+03  0.92519451394E+03  0.12699999809E+01 0. -1.
       -4    1    3    3    0  502  0.43347511361E+03  0.57911134491E+02 -0.39445758822E+03  0.58894208155E+03  0.12699999809E+01 0.  1.
</event>
<event>
 5   0  0.2008643E-02  0.1044102E+04  0.7818609E-02  0.9261454E-01
       -2   -1    0    0    0  501  0.00000000000E+00  0.00000000000E+00  0.59071700675E+03  0.59071700676E+03  0.25500000920E-02 0.  1.
        2   -1    0    0  501    0  0.00000000000E+00  0.00000000000E+00 -0.46136721303E+03  0.46136721304E+03  0.25500000920E-02 0. -1.
    10030    2    1    2    0    0  0.00000000000E+00  0.00000000000E+00  0.12934979372E+03  0.10520842198E+04  0.10441024071E+04 0.  0.
        3    1    3    3  502    0  0.83803494579E+02  0.15814086134E+03 -0.42948815347E+03  0.46528662339E+03  0.10100000352E+00 0. -1.
       -3    1    3    3    0  502 -0.83803494579E+02 -0.15814086134E+03  0.55883794719E+03  0.58679759641E+03  0.10100000352E+00 0.  1.
</event>
<event>
 5   0  0.1968763E-02  0.1190705E+04  0.7818609E-02  0.9121032E-01
        2   -1    0    0  501    0  0.00000000000E+00  0.00000000000E+00  0.11883645324E+04  0.11883645324E+04  0.25500000920E-02 0. -1.
       -2   -1    0    0    0  501  0.00000000000E+00  0.00000000000E+00 -0.29826247496E+03  0.29826247497E+03  0.25500000920E-02 0.  1.
    10030    2    1    2    0    0  0.00000000000E+00  0.00000000000E+00  0.89010205743E+03  0.14866270074E+04  0.11907049115E+04 0.  0.
        2    1    3    3  502    0  0.56728615958E+03 -0.77722329399E+02  0.24145998489E+03  0.62141553863E+03  0.25500000920E-02 0.  1.
       -2    1    3    3    0  502 -0.56728615958E+03  0.77722329399E+02  0.64864207254E+03  0.86521146872E+03  0.25500000920E-02 0. -1.
</event>
<event>
 5   0  0.1968763E-02  0.8811030E+03  0.7818609E-02  0.9449517E-01
       -2   -1    0    0    0  501  0.00000000000E+00  0.00000000000E+00  0.47276469841E+03  0.47276469842E+03  0.25500000920E-02 0.  1.
        2   -1    0    0  501    0  0.00000000000E+00  0.00000000000E+00 -0.41053323975E+03  0.41053323976E+03  0.25500000920E-02 0. -1.
    10030    2    1    2    0    0  0.00000000000E+00  0.00000000000E+00  0.62231458658E+02  0.88329793818E+03  0.88110299803E+03 0.  0.
        2    1    3    3  502    0  0.25301066939E+03  0.19125469351E+03  0.33764346414E+03  0.46324493035E+03  0.25500000920E-02 0.  1.
       -2    1    3    3    0  502 -0.25301066939E+03 -0.19125469351E+03 -0.27541200548E+03  0.42005300783E+03  0.25500000920E-02 0. -1.
</event>
<event>
 5   0  0.1924218E-02  0.9259809E+03  0.7818609E-02  0.9393674E-01
        2   -1    0    0  501    0  0.00000000000E+00  0.00000000000E+00  0.75029938389E+03  0.75029938389E+03  0.25500000920E-02 0.  1.
       -2   -1    0    0    0  501  0.00000000000E+00  0.00000000000E+00 -0.28569951923E+03  0.28569951924E+03  0.25500000920E-02 0. -1.
    10030    2    1    2    0    0  0.00000000000E+00  0.00000000000E+00  0.46459986466E+03  0.10359989031E+04  0.92598093558E+03 0.  0.
        4    1    3    3  502    0 -0.27202966515E+03 -0.25807962775E+02 -0.18586113357E+03  0.33047263659E+03  0.12699999809E+01 0. -1.
       -4    1    3    3    0  502  0.27202966515E+03  0.25807962775E+02  0.65046099823E+03  0.70552626654E+03  0.12699999809E+01 0.  1.
</event>
<event>
 5   0  0.2041861E-02  0.9233960E+03  0.7818609E-02  0.9396799E-01
       -2   -1    0    0    0  501  0.00000000000E+00  0.00000000000E+00  0.36807464793E+03  0.36807464794E+03  0.25500000920E-02 0. -1.
        2   -1    0    0  501    0  0.00000000000E+00  0.00000000000E+00 -0.57913538754E+03  0.57913538755E+03  0.25500000920E-02 0.  1.
    10030    2    1    2    0    0  0.00000000000E+00  0.00000000000E+00 -0.21106073961E+03  0.94721003549E+03  0.92339602313E+03 0.  0.
        5    1    3    3  502    0  0.10064078790E+03  0.64604179723E+02  0.35188518365E+03  0.37168204248E+03  0.46999998093E+01 0. -1.
       -5    1    3    3    0  502 -0.10064078790E+03 -0.64604179723E+02 -0.56294592326E+03  0.57552799301E+03  0.46999998093E+01 0.  1.
</event>
<event>
 5   0  0.2041861E-02  0.9010021E+03  0.7818609E-02  0.9424330E-01
       -2   -1    0    0    0  501  0.00000000000E+00  0.00000000000E+00  0.23321905058E+03  0.23321905060E+03  0.25500000920E-02 0.  1.
        2   -1    0    0  501    0  0.00000000000E+00  0.00000000000E+00 -0.87021715437E+03  0.87021715438E+03  0.25500000920E-02 0. -1.
    10030    2    1    2    0    0  0.00000000000E+00  0.00000000000E+00 -0.63699810379E+03  0.11034362050E+04  0.90100214995E+03 0.  0.
        5    1    3    3  502    0  0.24044866525E+02 -0.29826710376E+03 -0.73088550486E+03  0.78978296512E+03  0.46999998093E+01 0. -1.
       -5    1    3    3    0  502 -0.24044866525E+02  0.29826710376E+03  0.93887401068E+02  0.31365323985E+03  0.46999998093E+01 0.  1.
</event>
<event>
 5   0  0.2008643E-02  0.1027732E+04  0.7818609E-02  0.9278641E-01
       -2   -1    0    0    0  501  0.00000000000E+00  0.00000000000E+00  0.51767844811E+03  0.51767844812E+03  0.25500000920E-02 0.  1.
        2   -1    0    0  501    0  0.00000000000E+00  0.00000000000E+00 -0.51008128622E+03  0.51008128622E+03  0.25500000920E-02 0. -1.
    10030    2    1    2    0    0  0.00000000000E+00  0.00000000000E+00  0.75971618932E+01  0.10277597343E+04  0.10277316550E+04 0.  0.
        3    1    3    3  502    0  0.81640415462E+02 -0.36117886993E+03 -0.35250140729E+03  0.51124611085E+03  0.10100000352E+00 0. -1.
       -3    1    3    3    0  502 -0.81640415462E+02  0.36117886993E+03  0.36009856918E+03  0.51651362349E+03  0.10100000352E+00 0.  1.
</event>
<event>
 5   0  0.1175993E-02  0.9049892E+03  0.7818609E-02  0.9419366E-01
       -1   -1    0    0    0  501  0.00000000000E+00  0.00000000000E+00  0.37594225988E+03  0.37594225991E+03  0.50400001928E-02 0.  1.
        1   -1    0    0  501    0  0.00000000000E+00  0.00000000000E+00 -0.54463514750E+03  0.54463514752E+03  0.50400001928E-02 0. -1.
    10030    2    1    2    0    0  0.00000000000E+00  0.00000000000E+00 -0.16869288763E+03  0.92057740744E+03  0.90498921140E+03 0.  0.
        4    1    3    3  502    0 -0.15080455279E+02 -0.87276859250E+02 -0.53572962849E+03  0.54300323944E+03  0.12699999809E+01 0. -1.
       -4    1    3    3    0  502  0.15080455279E+02  0.87276859250E+02  0.36703674087E+03  0.37757416800E+03  0.12699999809E+01 0.  1.
</event>
<event>
 5   0  0.1226424E-02  0.8977283E+03  0.7818609E-02  0.9428426E-01
       -1   -1    0    0    0  501  0.00000000000E+00  0.00000000000E+00  0.20005815522E+03  0.20005815529E+03  0.50400001928E-02 0.  1.
        1   -1    0    0  501    0  0.00000000000E+00  0.00000000000E+00 -0.10071021789E+04  0.10071021789E+04  0.50400001928E-02 0. -1.
    10030    2    1    2    0    0  0.00000000000E+00  0.00000000000E+00 -0.80704402365E+03  0.12071603342E+04  0.89772825304E+03 0.  0.
        1    1    3    3  502    0 -0.85995599724E+02 -0.41601135687E+03 -0.59847009921E+03  0.73391222356E+03  0.50400001928E-02 0. -1.
       -1    1    3    3    0  502  0.85995599724E+02  0.41601135687E+03 -0.20857392444E+03  0.47324811062E+03  0.50400001928E-02 0.  1.
</event>
<event>
 5   0  0.1968763E-02  0.9901459E+03  0.7818609E-02  0.9319419E-01
        2   -1    0    0  501    0  0.00000000000E+00  0.00000000000E+00  0.85003724527E+03  0.85003724528E+03  0.25500000920E-02 0.  1.
       -2   -1    0    0    0  501  0.00000000000E+00  0.00000000000E+00 -0.28833705238E+03  0.28833705240E+03  0.25500000920E-02 0. -1.
    10030    2    1    2    0    0  0.00000000000E+00  0.00000000000E+00  0.56170019289E+03  0.11383742977E+04  0.99014591597E+03 0.  0.
        2    1    3    3  502    0  0.48977776997E+03  0.24353777290E+02  0.35901187430E+03  0.60775397680E+03  0.25500000920E-02 0.  1.
       -2    1    3    3    0  502 -0.48977776997E+03 -0.24353777290E+02  0.20268831859E+03  0.53062032087E+03  0.25500000920E-02 0. -1.
</event>
<event>
 5   0  0.1924218E-02  0.9017148E+03  0.7818609E-02  0.9423440E-01
        2   -1    0    0  501    0  0.00000000000E+00  0.00000000000E+00  0.95593980825E+03  0.95593980825E+03  0.25500000920E-02 0. -1.
       -2   -1    0    0    0  501  0.00000000000E+00  0.00000000000E+00 -0.21264140883E+03  0.21264140885E+03  0.25500000920E-02 0.  1.
    10030    2    1    2    0    0  0.00000000000E+00  0.00000000000E+00  0.74329839942E+03  0.11685812171E+04  0.90171478328E+03 0.  0.
        4    1    3    3  502    0  0.37016269169E+03  0.15683486250E+03  0.10715642960E+03  0.41605493113E+03  0.12699999809E+01 0.  1.
       -4    1    3    3    0  502 -0.37016269169E+03 -0.15683486250E+03  0.63614196982E+03  0.75252628597E+03  0.12699999809E+01 0. -1.
</event>
<event>
 5   0  0.1177712E-02  0.8935842E+03  0.7818609E-02  0.9433637E-01
       -1   -1    0    0    0  501  0.00000000000E+00  0.00000000000E+00  0.17594402118E+03  0.17594402126E+03  0.50400001928E-02 0. -1.
        1   -1    0    0  501    0  0.00000000000E+00  0.00000000000E+00 -0.11345834676E+04  0.11345834676E+04  0.50400001928E-02 0.  1.
    10030    2    1    2    0    0  0.00000000000E+00  0.00000000000E+00 -0.95863944640E+03  0.13105274888E+04  0.89358419348E+03 0.  0.
        5    1    3    3  502    0  0.34224354029E+02  0.17835655696E+03  0.11932967969E+03  0.21735691908E+03  0.46999998093E+01 0. -1.
       -5    1    3    3    0  502 -0.34224354029E+02 -0.17835655696E+03 -0.10779691261E+04  0.10931705698E+04  0.46999998093E+01 0.  1.
</event>
<event>
 5   0  0.7893875E-03  0.6349223E+03  0.7818609E-02  0.9835490E-01
        3   -1    0    0  501    0  0.00000000000E+00  0.00000000000E+00  0.16752060745E+03  0.16752063790E+03  0.10100000352E+00 0.  1.
       -3   -1    0    0    0  501  0.00000000000E+00  0.00000000000E+00 -0.60160707490E+03  0.60160708338E+03  0.10100000352E+00 0. -1.
    10030    2    1    2    0    0  0.00000000000E+00  0.00000000000E+00 -0.43408646745E+03  0.76912772128E+03  0.63492234991E+03 0.  0.
        2    1    3    3  502    0 -0.30086815311E+03 -0.10114812857E+03 -0.22356759076E+03  0.38824612955E+03  0.25500000920E-02 0. -1.
       -2    1    3    3    0  502  0.30086815311E+03  0.10114812857E+03 -0.21051887669E+03  0.38088159173E+03  0.25500000920E-02 0.  1.
</event>
<event>
 5   0  0.1924218E-02  0.7352927E+03  0.7818609E-02  0.9658710E-01
       -2   -1    0    0    0  501  0.00000000000E+00  0.00000000000E+00  0.83373722355E+02  0.83373722394E+02  0.25500000920E-02 0. -1.
        2   -1    0    0  501    0  0.00000000000E+00  0.00000000000E+00 -0.16211804571E+04  0.16211804571E+04  0.25500000920E-02 0.  1.
    10030    2    1    2    0    0  0.00000000000E+00  0.00000000000E+00 -0.15378067347E+04  0.17045541795E+04  0.73529272906E+03 0.  0.
        4    1    3    3  502    0  0.28351970626E+03 -0.44909777372E+02 -0.13013926271E+04  0.13326757651E+04  0.12699999809E+01 0.  1.
       -4    1    3    3    0  502 -0.28351970626E+03  0.44909777372E+02 -0.23641410761E+03  0.37187841442E+03  0.12699999809E+01 0. -1.
</event>
<event>
 5   0  0.1177712E-02  0.8724867E+03  0.7818609E-02  0.9460643E-01
        1   -1    0    0  501    0  0.00000000000E+00  0.00000000000E+00  0.13188374089E+04  0.13188374089E+04  0.50400001928E-02 0. -1.
       -1   -1    0    0    0  501  0.00000000000E+00  0.00000000000E+00 -0.14430002180E+03  0.14430002189E+03  0.50400001928E-02 0.  1.
    10030    2    1    2    0    0  0.00000000000E+00  0.00000000000E+00  0.11745373871E+04  0.14631374308E+04  0.87248671492E+03 0.  0.
        5    1    3    3  502    0 -0.15290336304E+03 -0.14578022140E+03 -0.52744307674E+02  0.21779661010E+03  0.46999998093E+01 0.  1.
       -5    1    3    3    0  502  0.15290336304E+03  0.14578022140E+03  0.12272816948E+04  0.12453408207E+04  0.46999998093E+01 0. -1.
</event>
<event>
 5   0  0.1175993E-02  0.8956651E+03  0.7818609E-02  0.9431017E-01
        1   -1    0    0  501    0  0.00000000000E+00  0.00000000000E+00  0.43680958449E+03  0.43680958452E+03  0.50400001928E-02 0.  1.
       -1   -1    0    0    0  501  0.00000000000E+00  0.00000000000E+00 -0.45913369640E+03  0.45913369643E+03  0.50400001928E-02 0. -1.
    10030    2    1    2    0    0  0.00000000000E+00  0.00000000000E+00 -0.22324111910E+02  0.89594328094E+03  0.89566511415E+03 0.  0.
        4    1    3    3  502    0  0.32257591855E+03  0.23482930109E+03 -0.21457801403E+03  0.45304013165E+03  0.12699999809E+01 0. -1.
       -4    1    3    3    0  502 -0.32257591855E+03 -0.23482930109E+03  0.19225390212E+03  0.44290314930E+03  0.12699999809E+01 0.  1.
</event>
<event>
 5   0  0.1175993E-02  0.9004377E+03  0.7818609E-02  0.9425034E-01
        1   -1    0    0  501    0  0.00000000000E+00  0.00000000000E+00  0.64080440060E+03  0.64080440062E+03  0.50400001928E-02 0. -1.
       -1   -1    0    0    0  501  0.00000000000E+00  0.00000000000E+00 -0.31631653839E+03  0.31631653843E+03  0.50400001928E-02 0.  1.
    10030    2    1    2    0    0  0.00000000000E+00  0.00000000000E+00  0.32448786221E+03  0.95712093905E+03  0.90043773757E+03 0.  0.
        4    1    3    3  502    0  0.18948209925E+03  0.11084133543E+03 -0.25557297982E+03  0.33691011930E+03  0.12699999809E+01 0.  1.
       -4    1    3    3    0  502 -0.18948209925E+03 -0.11084133543E+03  0.58006084203E+03  0.62021081974E+03  0.12699999809E+01 0. -1.
</event>
<event>
 5   0  0.1226424E-02  0.8739341E+03  0.7818609E-02  0.9458765E-01
       -1   -1    0    0    0  501  0.00000000000E+00  0.00000000000E+00  0.17474578521E+03  0.17474578528E+03  0.50400001928E-02 0. -1.
        1   -1    0    0  501    0  0.00000000000E+00  0.00000000000E+00 -0.10926742519E+04  0.10926742519E+04  0.50400001928E-02 0.  1.
    10030    2    1    2    0    0  0.00000000000E+00  0.00000000000E+00 -0.91792846666E+03  0.12674200372E+04  0.87393413979E+03 0.  0.
        1    1    3    3  502    0 -0.34833089522E+03 -0.13920682709E+01 -0.76352260175E+02  0.35660344653E+03  0.50400001928E-02 0. -1.
       -1    1    3    3    0  502  0.34833089522E+03  0.13920682709E+01 -0.84157620648E+03  0.91081659063E+03  0.50400001928E-02 0.  1.
</event>
<event>
 5   0  0.1226424E-02  0.8836531E+03  0.7818609E-02  0.9446250E-01
       -1   -1    0    0    0  501  0.00000000000E+00  0.00000000000E+00  0.16751309584E+03  0.16751309592E+03  0.50400001928E-02 0.  1.
        1   -1    0    0  501    0  0.00000000000E+00  0.00000000000E+00 -0.11653459600E+04  0.11653459600E+04  0.50400001928E-02 0. -1.
    10030    2    1    2    0    0  0.00000000000E+00  0.00000000000E+00 -0.99783286417E+03  0.13328590559E+04  0.88365312097E+03 0.  0.
        1    1    3    3  502    0 -0.32780903496E+03  0.10662174851E+03 -0.91578859551E+03  0.97851709865E+03  0.50400001928E-02 0. -1.
       -1    1    3    3    0  502  0.32780903496E+03 -0.10662174851E+03 -0.82044268660E+02  0.35434195730E+03  0.50400001928E-02 0.  1.
</event>
<event>
 5   0  0.7893875E-03  0.8796185E+03  0.7818609E-02  0.9451424E-01
       -4   -1    0    0    0  501  0.00000000000E+00  0.00000000000E+00  0.18239967679E+03  0.18240409807E+03  0.12699999809E+01 0. -1.
        4   -1    0    0  501    0  0.00000000000E+00  0.00000000000E+00 -0.10604675878E+04  0.10604683483E+04  0.12699999809E+01 0.  1.
    10030    2    1    2    0    0  0.00000000000E+00  0.00000000000E+00 -0.87806791102E+03  0.12428724464E+04  0.87961847499E+03 0.  0.
        4    1    3    3  502    0 -0.35308852660E+03 -0.78538739171E+02 -0.85535792528E+02  0.37169587820E+03  0.12699999809E+01 0. -1.
       -4    1    3    3    0  502  0.35308852660E+03  0.78538739171E+02 -0.79253211849E+03  0.87117656816E+03  0.12699999809E+01 0.  1.
</event>
<event>
 5   0  0.1177712E-02  0.9229593E+03  0.7818609E-02  0.9397328E-01
        1   -1    0    0  501    0  0.00000000000E+00  0.00000000000E+00  0.41351517649E+03  0.41351517652E+03  0.50400001928E-02 0. -1.
       -1   -1    0    0    0  501  0.00000000000E+00  0.00000000000E+00 -0.51500766340E+03  0.51500766342E+03  0.50400001928E-02 0.  1.
    10030    2    1    2    0    0  0.00000000000E+00  0.00000000000E+00 -0.10149248691E+03  0.92852283995E+03  0.92295933789E+03 0.  0.
        5    1    3    3  502    0 -0.40631181356E+02  0.37426895707E+03  0.21772045708E+03  0.43491658114E+03  0.46999998093E+01 0. -1.
       -5    1    3    3    0  502  0.40631181356E+02 -0.37426895707E+03 -0.31921294399E+03  0.49360625880E+03  0.46999998093E+01 0.  1.
</event>
<event>
 5   0  0.2008643E-02  0.8916135E+03  0.7818609E-02  0.9436126E-01
        2   -1    0    0  501    0  0.00000000000E+00  0.00000000000E+00  0.75036454227E+03  0.75036454228E+03  0.25500000920E-02 0.  1.
       -2   -1    0    0    0  501  0.00000000000E+00  0.00000000000E+00 -0.26486278772E+03  0.26486278773E+03  0.25500000920E-02 0. -1.
    10030    2    1    2    0    0  0.00000000000E+00  0.00000000000E+00  0.48550175455E+03  0.10152273300E+04  0.89161346890E+03 0.  0.
        3    1    3    3  502    0  0.41792610104E+02  0.20066753762E+03 -0.20802651339E+03  0.29204301633E+03  0.10100000352E+00 0. -1.
       -3    1    3    3    0  502 -0.41792610104E+02 -0.20066753762E+03  0.69352826795E+03  0.72318431368E+03  0.10100000352E+00 0.  1.
</event>
<event>
 5   0  0.1206541E-02  0.8883941E+03  0.7818609E-02  0.9440207E-01
       -1   -1    0    0    0  501  0.00000000000E+00  0.00000000000E+00  0.19273039092E+03  0.19273039099E+03  0.50400001928E-02 0.  1.
        1   -1    0    0  501    0  0.00000000000E+00  0.00000000000E+00 -0.10237669609E+04  0.10237669609E+04  0.50400001928E-02 0. -1.
    10030    2    1    2    0    0  0.00000000000E+00  0.00000000000E+00 -0.83103656996E+03  0.12164973519E+04  0.88839407163E+03 0.  0.
        3    1    3    3  502    0 -0.76583422159E+02 -0.42403267941E+03 -0.56326717022E+03  0.70918167560E+03  0.10100000352E+00 0. -1.
       -3    1    3    3    0  502  0.76583422159E+02  0.42403267941E+03 -0.26776939975E+03  0.50731567628E+03  0.10100000352E+00 0.  1.
</event>
<event>
 5   0  0.7893875E-03  0.8911846E+03  0.7818609E-02  0.9436669E-01
        3   -1    0    0  501    0  0.00000000000E+00  0.00000000000E+00  0.81476805653E+03  0.81476806279E+03  0.10100000352E+00 0.  1.
       -3   -1    0    0    0  501  0.00000000000E+00  0.00000000000E+00 -0.24369201959E+03  0.24369204052E+03  0.10100000352E+00 0. -1.
    10030    2    1    2    0    0  0.00000000000E+00  0.00000000000E+00  0.57107603695E+03  0.10584601033E+04  0.89118457703E+03 0.  0.
        5    1    3    3  502    0  0.26949006690E+02 -0.11420054452E+03  0.79605901674E+03  0.80467388516E+03  0.46999998093E+01 0.  1.
       -5    1    3    3    0  502 -0.26949006690E+02  0.11420054452E+03 -0.22498297979E+03  0.25378621815E+03  0.46999998093E+01 0. -1.
</event>
<event>
 5   0  0.7893875E-03  0.8894513E+03  0.7818609E-02  0.9438865E-01
       -4   -1    0    0    0  501  0.00000000000E+00  0.00000000000E+00  0.83824819099E+03  0.83824915306E+03  0.12699999809E+01 0. -1.
        4   -1    0    0  501    0  0.00000000000E+00  0.00000000000E+00 -0.23594272643E+03  0.23594614439E+03  0.12699999809E+01 0.  1.
    10030    2    1    2    0    0  0.00000000000E+00  0.00000000000E+00  0.60230546456E+03  0.10741952974E+04  0.88945132774E+03 0.  0.
        5    1    3    3  502    0  0.33622352735E+03 -0.96464863780E+02 -0.30487466324E+02  0.35114570464E+03  0.46999998093E+01 0.  1.
       -5    1    3    3    0  502 -0.33622352735E+03  0.96464863780E+02  0.63279293089E+03  0.72304959281E+03  0.46999998093E+01 0. -1.
</event>
<event>
 5   0  0.2041861E-02  0.6786074E+03  0.7818609E-02  0.9754532E-01
        2   -1    0    0  501    0  0.00000000000E+00  0.00000000000E+00  0.10764368901E+04  0.10764368901E+04  0.25500000920E-02 0.  1.
       -2   -1    0    0    0  501  0.00000000000E+00  0.00000000000E+00 -0.10695193980E+03  0.10695193983E+03  0.25500000920E-02 0. -1.
    10030    2    1    2    0    0  0.00000000000E+00  0.00000000000E+00  0.96948495028E+03  0.11833888299E+04  0.67860743729E+03 0.  0.
        5    1    3    3  502    0  0.86851516182E+01 -0.12486629402E+03  0.10346438723E+04  0.10421981845E+04  0.46999998093E+01 0.  1.
       -5    1    3    3    0  502 -0.86851516182E+01  0.12486629402E+03 -0.65158922026E+02  0.14119064543E+03  0.46999998093E+01 0. -1.
</event>
<event>
 5   0  0.2008643E-02  0.9239455E+03  0.7818609E-02  0.9396134E-01
        2   -1    0    0  501    0  0.00000000000E+00  0.00000000000E+00  0.24731739260E+04  0.24731739260E+04  0.25500000920E-02 0. -1.
       -2   -1    0    0    0  501  0.00000000000E+00  0.00000000000E+00 -0.86293495216E+02  0.86293495254E+02  0.25500000920E-02 0.  1.
    10030    2    1    2    0    0  0.00000000000E+00  0.00000000000E+00  0.23868804308E+04  0.25594674213E+04  0.92394550143E+03 0.  0.
        3    1    3    3  502    0  0.32782769741E+02 -0.45388487753E+03  0.97299789691E+03  0.10741559987E+04  0.10100000352E+00 0.  1.
       -3    1    3    3    0  502 -0.32782769741E+02  0.45388487753E+03  0.14138825339E+04  0.14853114225E+04  0.10100000352E+00 0. -1.
</event>
<event>
 5   0  0.1226424E-02  0.8965961E+03  0.7818609E-02  0.9429846E-01
        1   -1    0    0  501    0  0.00000000000E+00  0.00000000000E+00  0.44091971236E+03  0.44091971239E+03  0.50400001928E-02 0.  1.
       -1   -1    0    0    0  501  0.00000000000E+00  0.00000000000E+00 -0.45579986533E+03  0.45579986536E+03  0.50400001928E-02 0. -1.
    10030    2    1    2    0    0  0.00000000000E+00  0.00000000000E+00 -0.14880152974E+02  0.89671957775E+03  0.89659610872E+03 0.  0.
        1    1    3    3  502    0 -0.73009514811E+02 -0.18263065421E+03 -0.41034391126E+03  0.45504556985E+03  0.50400001928E-02 0. -1.
       -1    1    3    3    0  502  0.73009514811E+02  0.18263065421E+03  0.39546375828E+03  0.44167400790E+03  0.50400001928E-02 0.  1.
</event>
<event>
 5   0  0.1924218E-02  0.8996287E+03  0.7818609E-02  0.9426046E-01
       -2   -1    0    0    0  501  0.00000000000E+00  0.00000000000E+00  0.85702485748E+02  0.85702485786E+02  0.25500000920E-02 0. -1.
        2   -1    0    0  501    0  0.00000000000E+00  0.00000000000E+00 -0.23608759427E+04  0.23608759427E+04  0.25500000920E-02 0.  1.
    10030    2    1    2    0    0  0.00000000000E+00  0.00000000000E+00 -0.22751734569E+04  0.24465784285E+04  0.89962867202E+03 0.  0.
        4    1    3    3  502    0 -0.38719386011E+03 -0.71759924256E+00 -0.51498535355E+03  0.64430670299E+03  0.12699999809E+01 0. -1.
       -4    1    3    3    0  502  0.38719386011E+03  0.71759924256E+00 -0.17601881034E+04  0.18022717255E+04  0.12699999809E+01 0.  1.
</event>
<event>
 5   0  0.2008770E-02  0.9152180E+03  0.7818609E-02  0.9406756E-01
       -2   -1    0    0    0  501  0.00000000000E+00  0.00000000000E+00  0.23180888588E+03  0.23180888590E+03  0.25500000920E-02 0. -1.
        2   -1    0    0  501    0  0.00000000000E+00  0.00000000000E+00 -0.90335611852E+03  0.90335611852E+03  0.25500000920E-02 0.  1.
    10030    2    1    2    0    0  0.00000000000E+00  0.00000000000E+00 -0.67154723264E+03  0.11351650044E+04  0.91521795306E+03 0.  0.
        1    1    3    3  502    0 -0.27717620037E+03  0.21944785406E+03 -0.69615487763E+03  0.78077885497E+03  0.50400001928E-02 0.  1.
       -1    1    3    3    0  502  0.27717620037E+03 -0.21944785406E+03  0.24607644992E+02  0.35438614945E+03  0.50400001928E-02 0. -1.
</event>
<event>
 5   0  0.2008643E-02  0.8826930E+03  0.7818609E-02  0.9447478E-01
       -2   -1    0    0    0  501  0.00000000000E+00  0.00000000000E+00  0.14949622857E+03  0.14949622859E+03  0.25500000920E-02 0.  1.
        2   -1    0    0  501    0  0.00000000000E+00  0.00000000000E+00 -0.13029540922E+04  0.13029540922E+04  0.25500000920E-02 0. -1.
    10030    2    1    2    0    0  0.00000000000E+00  0.00000000000E+00 -0.11534578637E+04  0.14524503208E+04  0.88269297675E+03 0.  0.
        3    1    3    3  502    0 -0.26936479047E+03 -0.33271854606E+03 -0.40005894121E+03  0.58592336349E+03  0.10100000352E+00 0.  1.
       -3    1    3    3    0  502  0.26936479047E+03  0.33271854606E+03 -0.75339892245E+03  0.86652695733E+03  0.10100000352E+00 0. -1.
</event>
<event>
 5   0  0.1177712E-02  0.5959623E+03  0.7818609E-02  0.9913819E-01
        1   -1    0    0  501    0  0.00000000000E+00  0.00000000000E+00  0.32290373663E+03  0.32290373667E+03  0.50400001928E-02 0. -1.
       -1   -1    0    0    0  501  0.00000000000E+00  0.00000000000E+00 -0.27498217515E+03  0.27498217520E+03  0.50400001928E-02 0.  1.
    10030    2    1    2    0    0  0.00000000000E+00  0.00000000000E+00  0.47921561480E+02  0.59788591187E+03  0.59596232059E+03 0.  0.
        5    1    3    3  502    0  0.29452177790E+03  0.18194652242E+02  0.65283032908E+02  0.30225500395E+03  0.46999998093E+01 0.  1.
       -5    1    3    3    0  502 -0.29452177790E+03 -0.18194652242E+02 -0.17361471428E+02  0.29563090792E+03  0.46999998093E+01 0. -1.
</event>
<event>
 5   0  0.1162839E-02  0.9191831E+03  0.7818609E-02  0.9401914E-01
        1   -1    0    0  501    0  0.00000000000E+00  0.00000000000E+00  0.17526114522E+03  0.17526114530E+03  0.50400001928E-02 0.  1.
       -1   -1    0    0    0  501  0.00000000000E+00  0.00000000000E+00 -0.12051980333E+04  0.12051980333E+04  0.50400001928E-02 0. -1.
    10030    2    1    2    0    0  0.00000000000E+00  0.00000000000E+00 -0.10299368880E+04  0.13804591786E+04  0.91918308859E+03 0.  0.
        2    1    3    3  502    0  0.32440511906E+03  0.29163629631E+02 -0.10019310279E+04  0.10535440110E+04  0.25500000920E-02 0. -1.
       -2    1    3    3    0  502 -0.32440511906E+03 -0.29163629631E+02 -0.28005860191E+02  0.32691516756E+03  0.25500000920E-02 0.  1.
</event>
<event>
 5   0  0.1226424E-02  0.9074303E+03  0.7818609E-02  0.9416341E-01
       -1   -1    0    0    0  501  0.00000000000E+00  0.00000000000E+00  0.71601289852E+03  0.71601289854E+03  0.50400001928E-02 0. -1.
        1   -1    0    0  501    0  0.00000000000E+00  0.00000000000E+00 -0.28750521182E+03  0.28750521186E+03  0.50400001928E-02 0.  1.
    10030    2    1    2    0    0  0.00000000000E+00  0.00000000000E+00  0.42850768670E+03  0.10035181104E+04  0.90743030605E+03 0.  0.
        1    1    3    3  502    0  0.65776144303E+02  0.36508738862E+03  0.50314765962E+03  0.62511828472E+03  0.50400001928E-02 0. -1.
       -1    1    3    3    0  502 -0.65776144303E+02 -0.36508738862E+03 -0.74639972921E+02  0.37839982568E+03  0.50400001928E-02 0.  1.
</event>
<event>
 5   0  0.1968763E-02  0.8677031E+03  0.7818609E-02  0.9466880E-01
        2   -1    0    0  501    0  0.00000000000E+00  0.00000000000E+00  0.59472471900E+03  0.59472471900E+03  0.25500000920E-02 0. -1.
       -2   -1    0    0    0  501  0.00000000000E+00  0.00000000000E+00 -0.31649461747E+03  0.31649461748E+03  0.25500000920E-02 0.  1.
    10030    2    1    2    0    0  0.00000000000E+00  0.00000000000E+00  0.27823010153E+03  0.91121933649E+03  0.86770311155E+03 0.  0.
        2    1    3    3  502    0 -0.21817013110E+03  0.14825648128E+03 -0.22261432643E+03  0.34515985961E+03  0.25500000920E-02 0.  1.
       -2    1    3    3    0  502  0.21817013110E+03 -0.14825648128E+03  0.50084442796E+03  0.56605947688E+03  0.25500000920E-02 0. -1.
</event>
<event>
 5   0  0.1924218E-02  0.9753776E+03  0.7818609E-02  0.9335970E-01
        2   -1    0    0  501    0  0.00000000000E+00  0.00000000000E+00  0.53942272879E+03  0.53942272879E+03  0.25500000920E-02 0.  1.
       -2   -1    0    0    0  501  0.00000000000E+00  0.00000000000E+00 -0.44091645811E+03  0.44091645811E+03  0.25500000920E-02 0. -1.
    10030    2    1    2    0    0  0.00000000000E+00  0.00000000000E+00  0.98506270681E+02  0.98033918691E+03  0.97537758639E+03 0.  0.
        4    1    3    3  502    0 -0.32303481823E+03 -0.33033790118E+03 -0.10763098477E+03  0.47440559074E+03  0.12699999809E+01 0. -1.
       -4    1    3    3    0  502  0.32303481823E+03  0.33033790118E+03  0.20613725545E+03  0.50593359617E+03  0.12699999809E+01 0.  1.
</event>
<event>
 5   0  0.1162839E-02  0.9054269E+03  0.7818609E-02  0.9418823E-01
        1   -1    0    0  501    0  0.00000000000E+00  0.00000000000E+00  0.14355604811E+04  0.14355604812E+04  0.50400001928E-02 0. -1.
       -1   -1    0    0    0  501  0.00000000000E+00  0.00000000000E+00 -0.14276617463E+03  0.14276617472E+03  0.50400001928E-02 0.  1.
    10030    2    1    2    0    0  0.00000000000E+00  0.00000000000E+00  0.12927943065E+04  0.15783266559E+04  0.90542692343E+03 0.  0.
        2    1    3    3  502    0  0.43176741943E+03  0.11329976652E+03  0.51491041758E+03  0.68146363052E+03  0.25500000920E-02 0. -1.
       -2    1    3    3    0  502 -0.43176741943E+03 -0.11329976652E+03  0.77788388894E+03  0.89686302536E+03  0.25500000920E-02 0.  1.
</event>
<event>
 5   0  0.7893875E-03  0.8901343E+03  0.7818609E-02  0.9437999E-01
       -3   -1    0    0    0  501  0.00000000000E+00  0.00000000000E+00  0.22911452174E+03  0.22911454400E+03  0.10100000352E+00 0. -1.
        3   -1    0    0  501    0  0.00000000000E+00  0.00000000000E+00 -0.86456659146E+03  0.86456659736E+03  0.10100000352E+00 0.  1.
    10030    2    1    2    0    0  0.00000000000E+00  0.00000000000E+00 -0.63545206972E+03  0.10936811414E+04  0.89013431911E+03 0.  0.
        3    1    3    3  502    0  0.24642974533E+03  0.13179146189E+03  0.10787666098E+03  0.29955632692E+03  0.10100000352E+00 0. -1.
       -3    1    3    3    0  502 -0.24642974533E+03 -0.13179146189E+03 -0.74332873071E+03  0.79412481444E+03  0.10100000352E+00 0.  1.
</event>
<event>
 5   0  0.1177712E-02  0.9502722E+03  0.7818609E-02  0.9364833E-01
       -1   -1    0    0    0  501  0.00000000000E+00  0.00000000000E+00  0.24219840299E+03  0.24219840304E+03  0.50400001928E-02 0.  1.
        1   -1    0    0  501    0  0.00000000000E+00  0.00000000000E+00 -0.93210478679E+03  0.93210478681E+03  0.50400001928E-02 0. -1.
    10030    2    1    2    0    0  0.00000000000E+00  0.00000000000E+00 -0.68990638381E+03  0.11743031898E+04  0.95027215221E+03 0.  0.
        5    1    3    3  502    0  0.19270360564E+03 -0.43045438332E+03 -0.27389413133E+03  0.54540419958E+03  0.46999998093E+01 0.  1.
       -5    1    3    3    0  502 -0.19270360564E+03  0.43045438332E+03 -0.41601225248E+03  0.62889899027E+03  0.46999998093E+01 0. -1.
</event>
<event>
 5   0  0.1162839E-02  0.8959852E+03  0.7818609E-02  0.9430614E-01
        1   -1    0    0  501    0  0.00000000000E+00  0.00000000000E+00  0.61671986542E+03  0.61671986544E+03  0.50400001928E-02 0. -1.
       -1   -1    0    0    0  501  0.00000000000E+00  0.00000000000E+00 -0.32542710315E+03  0.32542710319E+03  0.50400001928E-02 0.  1.
    10030    2    1    2    0    0  0.00000000000E+00  0.00000000000E+00  0.29129276227E+03  0.94214696863E+03  0.89598517686E+03 0.  0.
        2    1    3    3  502    0 -0.35531687008E+03 -0.19762613775E+03 -0.52171441851E+02  0.40991221967E+03  0.25500000920E-02 0.  1.
       -2    1    3    3    0  502  0.35531687008E+03  0.19762613775E+03  0.34346420413E+03  0.53223474896E+03  0.25500000920E-02 0. -1.
</event>
<event>
 5   0  0.7893875E-03  0.9120351E+03  0.7818609E-02  0.9410661E-01
        3   -1    0    0  501    0  0.00000000000E+00  0.00000000000E+00  0.15750291318E+04  0.15750291350E+04  0.10100000352E+00 0.  1.
       -3   -1    0    0    0  501  0.00000000000E+00  0.00000000000E+00 -0.13203056607E+03  0.13203060470E+03  0.10100000352E+00 0. -1.
    10030    2    1    2    0    0  0.00000000000E+00  0.00000000000E+00  0.14429985657E+04  0.17070597397E+04  0.91203513875E+03 0.  0.
        2    1    3    3  502    0  0.38830816099E+03  0.16575752117E+03  0.39897238315E+03  0.58089391996E+03  0.25500000920E-02 0. -1.
       -2    1    3    3    0  502 -0.38830816099E+03 -0.16575752117E+03  0.10440261825E+04  0.11261658197E+04  0.25500000920E-02 0.  1.
</event>
<event>
 5   0  0.1968763E-02  0.9027651E+03  0.7818609E-02  0.9422132E-01
        2   -1    0    0  501    0  0.00000000000E+00  0.00000000000E+00  0.11277481606E+04  0.11277481606E+04  0.25500000920E-02 0.  1.
       -2   -1    0    0    0  501  0.00000000000E+00  0.00000000000E+00 -0.18066640096E+03  0.18066640098E+03  0.25500000920E-02 0. -1.
    10030    2    1    2    0    0  0.00000000000E+00  0.00000000000E+00  0.94708175968E+03  0.13084145616E+04  0.90276508879E+03 0.  0.
        2    1    3    3  502    0 -0.38827454777E+03 -0.49382109336E+02  0.14767921436E+03  0.41833583104E+03  0.25500000920E-02 0. -1.
       -2    1    3    3    0  502  0.38827454777E+03  0.49382109336E+02  0.79940254532E+03  0.89007873058E+03  0.25500000920E-02 0.  1.
</event>
<event>
 5   0  0.2008643E-02  0.9321343E+03  0.7818609E-02  0.9386280E-01
        2   -1    0    0  501    0  0.00000000000E+00  0.00000000000E+00  0.90422570918E+03  0.90422570918E+03  0.25500000920E-02 0. -1.
       -2   -1    0    0    0  501  0.00000000000E+00  0.00000000000E+00 -0.24022608488E+03  0.24022608489E+03  0.25500000920E-02 0.  1.
    10030    2    1    2    0    0  0.00000000000E+00  0.00000000000E+00  0.66399962430E+03  0.11444517941E+04  0.93213432931E+03 0.  0.
        3    1    3    3  502    0  0.29239783956E+03  0.36021591824E+03  0.38644702230E+03  0.60381563045E+03  0.10100000352E+00 0. -1.
       -3    1    3    3    0  502 -0.29239783956E+03 -0.36021591824E+03  0.27755260200E+03  0.54063616362E+03  0.10100000352E+00 0.  1.
</event>
<event>
 5   0  0.1968763E-02  0.8933081E+03  0.7818609E-02  0.9433985E-01
       -2   -1    0    0    0  501  0.00000000000E+00  0.00000000000E+00  0.26080720827E+03  0.26080720828E+03  0.25500000920E-02 0.  1.
        2   -1    0    0  501    0  0.00000000000E+00  0.00000000000E+00 -0.76493225658E+03  0.76493225658E+03  0.25500000920E-02 0. -1.
    10030    2    1    2    0    0  0.00000000000E+00  0.00000000000E+00 -0.50412504831E+03  0.10257394649E+04  0.89330811339E+03 0.  0.
        2    1    3    3  502    0 -0.30604894594E+03  0.31091400795E+03 -0.14212791220E+03  0.45883964637E+03  0.25500000920E-02 0. -1.
       -2    1    3    3    0  502  0.30604894594E+03 -0.31091400795E+03 -0.36199713611E+03  0.56689981849E+03  0.25500000920E-02 0.  1.
</event>
<event>
 5   0  0.1206541E-02  0.1030726E+04  0.7818609E-02  0.9275473E-01
        1   -1    0    0  501    0  0.00000000000E+00  0.00000000000E+00  0.90810814121E+03  0.90810814122E+03  0.50400001928E-02 0. -1.
       -1   -1    0    0    0  501  0.00000000000E+00  0.00000000000E+00 -0.29247499113E+03  0.29247499117E+03  0.50400001928E-02 0.  1.
    10030    2    1    2    0    0  0.00000000000E+00  0.00000000000E+00  0.61563315008E+03  0.12005831324E+04  0.10307258037E+04 0.  0.
        3    1    3    3  502    0  0.37391315193E+03 -0.15550752188E+03 -0.63468266404E+02  0.40990470306E+03  0.10100000352E+00 0.  1.
       -3    1    3    3    0  502 -0.37391315193E+03  0.15550752188E+03  0.67910141648E+03  0.79067842934E+03  0.10100000352E+00 0. -1.
</event>
<event>
 5   0  0.1177712E-02  0.1227823E+04  0.7818609E-02  0.9088846E-01
        1   -1    0    0  501    0  0.00000000000E+00  0.00000000000E+00  0.10438114162E+04  0.10438114162E+04  0.50400001928E-02 0. -1.
       -1   -1    0    0    0  501  0.00000000000E+00  0.00000000000E+00 -0.36106825735E+03  0.36106825738E+03  0.50400001928E-02 0.  1.
    10030    2    1    2    0    0  0.00000000000E+00  0.00000000000E+00  0.68274315882E+03  0.14048796736E+04  0.12278227381E+04 0.  0.
        5    1    3    3  502    0 -0.49777944452E+03  0.26646274516E+03  0.61711835268E+03  0.83644720166E+03  0.46999998093E+01 0. -1.
       -5    1    3    3    0  502  0.49777944452E+03 -0.26646274516E+03  0.65624806143E+02  0.56843247191E+03  0.46999998093E+01 0.  1.
</event>
<event>
 5   0  0.2008643E-02  0.9022330E+03  0.7818609E-02  0.9422794E-01
        2   -1    0    0  501    0  0.00000000000E+00  0.00000000000E+00  0.16190555886E+04  0.16190555886E+04  0.25500000920E-02 0.  1.
       -2   -1    0    0    0  501  0.00000000000E+00  0.00000000000E+00 -0.12569432218E+03  0.12569432220E+03  0.25500000920E-02 0. -1.
    10030    2    1    2    0    0  0.00000000000E+00  0.00000000000E+00  0.14933612664E+04  0.17447499108E+04  0.90223299607E+03 0.  0.
        3    1    3    3  502    0 -0.18280507761E+02  0.44707865346E+03  0.63571640581E+03  0.77739877679E+03  0.10100000352E+00 0.  1.
       -3    1    3    3    0  502  0.18280507761E+02 -0.44707865346E+03  0.85764486059E+03  0.96735113399E+03  0.10100000352E+00 0. -1.
</event>
<event>
 5   0  0.1177712E-02  0.8918109E+03  0.7818609E-02  0.9435877E-01
       -1   -1    0    0    0  501  0.00000000000E+00  0.00000000000E+00  0.24630417416E+03  0.24630417421E+03  0.50400001928E-02 0. -1.
        1   -1    0    0  501    0  0.00000000000E+00  0.00000000000E+00 -0.80726058097E+03  0.80726058099E+03  0.50400001928E-02 0.  1.
    10030    2    1    2    0    0  0.00000000000E+00  0.00000000000E+00 -0.56095640681E+03  0.10535647552E+04  0.89181085610E+03 0.  0.
        5    1    3    3  502    0 -0.13647731724E+03  0.21238825541E+03  0.15370751649E+03  0.29560602122E+03  0.46999998093E+01 0. -1.
       -5    1    3    3    0  502  0.13647731724E+03 -0.21238825541E+03 -0.71466392330E+03  0.75795873399E+03  0.46999998093E+01 0.  1.
</event>
<event>
 5   0  0.1162839E-02  0.8889058E+03  0.7818609E-02  0.9439557E-01
       -1   -1    0    0    0  501  0.00000000000E+00  0.00000000000E+00  0.54500176425E+03  0.54500176428E+03  0.50400001928E-02 0.  1.
        1   -1    0    0  501    0  0.00000000000E+00  0.00000000000E+00 -0.36245454908E+03  0.36245454912E+03  0.50400001928E-02 0. -1.
    10030    2    1    2    0    0  0.00000000000E+00  0.00000000000E+00  0.18254721517E+03  0.90745631340E+03  0.88890577395E+03 0.  0.
        2    1    3    3  502    0  0.14936304031E+03 -0.16630437296E+03  0.48344132754E+03  0.53261804275E+03  0.25500000920E-02 0.  1.
       -2    1    3    3    0  502 -0.14936304031E+03  0.16630437296E+03 -0.30089411237E+03  0.37483827065E+03  0.25500000920E-02 0. -1.
</event>
<event>
 5   0  0.2041861E-02  0.8807508E+03  0.7818609E-02  0.9449969E-01
       -2   -1    0    0    0  501  0.00000000000E+00  0.00000000000E+00  0.22538993296E+03  0.22538993297E+03  0.25500000920E-02 0.  1.
        2   -1    0    0  501    0  0.00000000000E+00  0.00000000000E+00 -0.86042218649E+03  0.86042218649E+03  0.25500000920E-02 0. -1.
    10030    2    1    2    0    0  0.00000000000E+00  0.00000000000E+00 -0.63503225353E+03  0.10858121195E+04  0.88075081365E+03 0.  0.
        5    1    3    3  502    0 -0.25517331044E+03 -0.35744256077E+03 -0.27795402002E+03  0.51976834249E+03  0.46999998093E+01 0.  1.
       -5    1    3    3    0  502  0.25517331044E+03  0.35744256077E+03 -0.35707823351E+03  0.56604377698E+03  0.46999998093E+01 0. -1.
</event>
<event>
 5   0  0.1226424E-02  0.9113027E+03  0.7818609E-02  0.9411562E-01
        1   -1    0    0  501    0  0.00000000000E+00  0.00000000000E+00  0.12479315011E+04  0.12479315011E+04  0.50400001928E-02 0.  1.
       -1   -1    0    0    0  501  0.00000000000E+00  0.00000000000E+00 -0.16636982910E+03  0.16636982918E+03  0.50400001928E-02 0. -1.
    10030    2    1    2    0    0  0.00000000000E+00  0.00000000000E+00  0.10815616720E+04  0.14143013303E+04  0.91130269532E+03 0.  0.
        1    1    3    3  502    0  0.20048909288E+03 -0.82202257912E+02  0.11628519274E+04  0.11828684173E+04  0.50400001928E-02 0.  1.
       -1    1    3    3    0  502 -0.20048909288E+03  0.82202257912E+02 -0.81290255389E+02  0.23143291299E+03  0.50400001928E-02 0. -1.
</event>
<event>
 5   0  0.2008643E-02  0.9015136E+03  0.7818609E-02  0.9423691E-01
        2   -1    0    0  501    0  0.00000000000E+00  0.00000000000E+00  0.38194364662E+03  0.38194364663E+03  0.25500000920E-02 0. -1.
       -2   -1    0    0    0  501  0.00000000000E+00  0.00000000000E+00 -0.53196776807E+03  0.53196776808E+03  0.25500000920E-02 0.  1.
    10030    2    1    2    0    0  0.00000000000E+00  0.00000000000E+00 -0.15002412145E+03  0.91391141470E+03  0.90151363656E+03 0.  0.
        3    1    3    3  502    0  0.26394225391E+03  0.36460730529E+03 -0.99377959892E+02  0.46095551801E+03  0.10100000352E+00 0. -1.
       -3    1    3    3    0  502 -0.26394225391E+03 -0.36460730529E+03 -0.50646161559E+02  0.45295589670E+03  0.10100000352E+00 0.  1.
</event>
<event>
 5   0  0.1924218E-02  0.9863315E+03  0.7818609E-02  0.9323664E-01
       -2   -1    0    0    0  501  0.00000000000E+00  0.00000000000E+00  0.71831497352E+03  0.71831497353E+03  0.25500000920E-02 0. -1.
        2   -1    0    0  501    0  0.00000000000E+00  0.00000000000E+00 -0.33858750927E+03  0.33858750928E+03  0.25500000920E-02 0.  1.
    10030    2    1    2    0    0  0.00000000000E+00  0.00000000000E+00  0.37972746425E+03  0.10569024828E+04  0.98633154216E+03 0.  0.
        4    1    3    3  502    0 -0.40895821602E+03 -0.84321946392E+02 -0.91310887618E+02  0.42742988219E+03  0.12699999809E+01 0.  1.
       -4    1    3    3    0  502  0.40895821602E+03  0.84321946392E+02  0.47103835187E+03  0.62947260061E+03  0.12699999809E+01 0. -1.
</event>
<event>
 5   0  0.2008643E-02  0.8880873E+03  0.7818609E-02  0.9440597E-01
       -2   -1    0    0    0  501  0.00000000000E+00  0.00000000000E+00  0.14372344160E+04  0.14372344160E+04  0.25500000920E-02 0.  1.
        2   -1    0    0  501    0  0.00000000000E+00  0.00000000000E+00 -0.13719040891E+03  0.13719040893E+03  0.25500000920E-02 0. -1.
    10030    2    1    2    0    0  0.00000000000E+00  0.00000000000E+00  0.13000440071E+04  0.15744248249E+04  0.88808733184E+03 0.  0.
        3    1    3    3  502    0  0.98283537898E+02  0.34313722874E+03  0.18174082648E+03  0.40054032229E+03  0.10100000352E+00 0. -1.
       -3    1    3    3    0  502 -0.98283537898E+02 -0.34313722874E+03  0.11183031806E+04  0.11738845026E+04  0.10100000352E+00 0.  1.
</event>
<event>
 5   0  0.7893875E-03  0.9059468E+03  0.7818609E-02  0.9418178E-01
       -4   -1    0    0    0  501  0.00000000000E+00  0.00000000000E+00  0.44157817393E+03  0.44158000022E+03  0.12699999809E+01 0.  1.
        4   -1    0    0  501    0  0.00000000000E+00  0.00000000000E+00 -0.46465907325E+03  0.46466080882E+03  0.12699999809E+01 0. -1.
    10030    2    1    2    0    0  0.00000000000E+00  0.00000000000E+00 -0.23080899317E+02  0.90624080904E+03  0.90594683953E+03 0.  0.
        1    1    3    3  502    0  0.99093212008E+01  0.43467350199E+03  0.11556639864E+03  0.44988314094E+03  0.50400001928E-02 0.  1.
       -1    1    3    3    0  502 -0.99093212008E+01 -0.43467350199E+03 -0.13864729796E+03  0.45635766810E+03  0.50400001928E-02 0. -1.
</event>
<event>
 5   0  0.1924218E-02  0.8906306E+03  0.7818609E-02  0.9437370E-01
        2   -1    0    0  501    0  0.00000000000E+00  0.00000000000E+00  0.57298686490E+03  0.57298686490E+03  0.25500000920E-02 0.  1.
       -2   -1    0    0    0  501  0.00000000000E+00  0.00000000000E+00 -0.34609124492E+03  0.34609124493E+03  0.25500000920E-02 0. -1.
    10030    2    1    2    0    0  0.00000000000E+00  0.00000000000E+00  0.22689561998E+03  0.91907810983E+03  0.89063064713E+03 0.  0.
        4    1    3    3  502    0  0.17423396991E+03  0.37776061841E+03  0.27740486812E+03  0.50001563461E+03  0.12699999809E+01 0.  1.
       -4    1    3    3    0  502 -0.17423396991E+03 -0.37776061841E+03 -0.50509248141E+02  0.41906247522E+03  0.12699999809E+01 0. -1.
</event>
<event>
 5   0  0.1177712E-02  0.8884098E+03  0.7818609E-02  0.9440187E-01
       -1   -1    0    0    0  501  0.00000000000E+00  0.00000000000E+00  0.19622579737E+03  0.19622579744E+03  0.50400001928E-02 0. -1.
        1   -1    0    0  501    0  0.00000000000E+00  0.00000000000E+00 -0.10055660761E+04  0.10055660761E+04  0.50400001928E-02 0.  1.
    10030    2    1    2    0    0  0.00000000000E+00  0.00000000000E+00 -0.80934027873E+03  0.12017918736E+04  0.88840982692E+03 0.  0.
        5    1    3    3  502    0  0.25451293138E+03 -0.32813070803E+03 -0.19142792904E+03  0.45728911621E+03  0.46999998093E+01 0. -1.
       -5    1    3    3    0  502 -0.25451293138E+03  0.32813070803E+03 -0.61791234970E+03  0.74450275735E+03  0.46999998093E+01 0.  1.
</event>
<event>
 5   0  0.7893875E-03  0.8932157E+03  0.7818609E-02  0.9434102E-01
        4   -1    0    0  501    0  0.00000000000E+00  0.00000000000E+00  0.45233266493E+03  0.45233444780E+03  0.12699999809E+01 0.  1.
       -4   -1    0    0    0  501  0.00000000000E+00  0.00000000000E+00 -0.44095195831E+03  0.44095378719E+03  0.12699999809E+01 0. -1.
    10030    2    1    2    0    0  0.00000000000E+00  0.00000000000E+00  0.11380706622E+02  0.89328823499E+03  0.89321573558E+03 0.  0.
        2    1    3    3  502    0 -0.20206016578E+03  0.28911872948E+03 -0.26826734294E+03  0.44315383066E+03  0.25500000920E-02 0. -1.
       -2    1    3    3    0  502  0.20206016578E+03 -0.28911872948E+03  0.27964804957E+03  0.45013440433E+03  0.25500000920E-02 0.  1.
</event>
<event>
 5   0  0.7893875E-03  0.1126197E+04  0.7818609E-02  0.9180028E-01
        3   -1    0    0  501    0  0.00000000000E+00  0.00000000000E+00  0.24048369364E+03  0.24048371485E+03  0.10100000352E+00 0.  1.
       -3   -1    0    0    0  501  0.00000000000E+00  0.00000000000E+00 -0.13185079802E+04  0.13185079841E+04  0.10100000352E+00 0. -1.
    10030    2    1    2    0    0  0.00000000000E+00  0.00000000000E+00 -0.10780242866E+04  0.15589916990E+04  0.11261965880E+04 0.  0.
        4    1    3    3  502    0 -0.34165733872E+03 -0.42079690945E+01 -0.11586005397E+04  0.12079338838E+04  0.12699999809E+01 0. -1.
       -4    1    3    3    0  502  0.34165733872E+03  0.42079690945E+01  0.80576253134E+02  0.35105781514E+03  0.12699999809E+01 0.  1.
</event>
<event>
 5   0  0.7893875E-03  0.9060687E+03  0.7818609E-02  0.9418027E-01
        3   -1    0    0  501    0  0.00000000000E+00  0.00000000000E+00  0.16756649426E+03  0.16756652469E+03  0.10100000352E+00 0. -1.
       -3   -1    0    0    0  501  0.00000000000E+00  0.00000000000E+00 -0.12248277406E+04  0.12248277447E+04  0.10100000352E+00 0.  1.
    10030    2    1    2    0    0  0.00000000000E+00  0.00000000000E+00 -0.10572612463E+04  0.13923942694E+04  0.90606868315E+03 0.  0.
        1    1    3    3  502    0  0.22243769158E+03  0.18812177261E+03  0.45366216538E+01  0.29135701283E+03  0.50400001928E-02 0. -1.
       -1    1    3    3    0  502 -0.22243769158E+03 -0.18812177261E+03 -0.10617978680E+04  0.11010372566E+04  0.50400001928E-02 0.  1.
</event>
<event>
 5   0  0.1177712E-02  0.9037104E+03  0.7818609E-02  0.9420955E-01
        1   -1    0    0  501    0  0.00000000000E+00  0.00000000000E+00  0.21497433497E+03  0.21497433502E+03  0.50400001928E-02 0.  1.
       -1   -1    0    0    0  501  0.00000000000E+00  0.00000000000E+00 -0.94975582711E+03  0.94975582712E+03  0.50400001928E-02 0. -1.
    10030    2    1    2    0    0  0.00000000000E+00  0.00000000000E+00 -0.73478149214E+03  0.11647301621E+04  0.90371041236E+03 0.  0.
        5    1    3    3  502    0 -0.11100547926E+03  0.41859546698E+03 -0.53347831574E+03  0.68714305990E+03  0.46999998093E+01 0. -1.
       -5    1    3    3    0  502  0.11100547926E+03 -0.41859546698E+03 -0.20130317640E+03  0.47758710224E+03  0.46999998093E+01 0.  1.
</event>
<event>
 5   0  0.7893875E-03  0.9024494E+03  0.7818609E-02  0.9422525E-01
       -4   -1    0    0    0  501  0.00000000000E+00  0.00000000000E+00  0.61598653089E+03  0.61598784008E+03  0.12699999809E+01 0. -1.
        4   -1    0    0  501    0  0.00000000000E+00  0.00000000000E+00 -0.33052991033E+03  0.33053235019E+03  0.12699999809E+01 0.  1.
    10030    2    1    2    0    0  0.00000000000E+00  0.00000000000E+00  0.28545662056E+03  0.94652019027E+03  0.90244943813E+03 0.  0.
        3    1    3    3  502    0  0.33639211793E+03 -0.27479162306E+03  0.27089934707E+03  0.51191460182E+03  0.10100000352E+00 0. -1.
       -3    1    3    3    0  502 -0.33639211793E+03  0.27479162306E+03  0.14557273485E+02  0.43460558846E+03  0.10100000352E+00 0.  1.
</event>
<event>
 5   0  0.1206541E-02  0.6905200E+03  0.7818609E-02  0.9733583E-01
        1   -1    0    0  501    0  0.00000000000E+00  0.00000000000E+00  0.33900221345E+03  0.33900221349E+03  0.50400001928E-02 0. -1.
       -1   -1    0    0    0  501  0.00000000000E+00  0.00000000000E+00 -0.35163334978E+03  0.35163334981E+03  0.50400001928E-02 0.  1.
    10030    2    1    2    0    0  0.00000000000E+00  0.00000000000E+00 -0.12631136323E+02  0.69063556330E+03  0.69052004728E+03 0.  0.
        3    1    3    3  502    0  0.61960878263E+02 -0.17908816028E+03 -0.29496868922E+03  0.35059700143E+03  0.10100000352E+00 0. -1.
       -3    1    3    3    0  502 -0.61960878263E+02  0.17908816028E+03  0.28233755290E+03  0.34003856188E+03  0.10100000352E+00 0.  1.
</event>
<event>
 5   0  0.1177712E-02  0.8990695E+03  0.7818609E-02  0.9426745E-01
        1   -1    0    0  501    0  0.00000000000E+00  0.00000000000E+00  0.14875272798E+04  0.14875272798E+04  0.50400001928E-02 0.  1.
       -1   -1    0    0    0  501  0.00000000000E+00  0.00000000000E+00 -0.13585059749E+03  0.13585059759E+03  0.50400001928E-02 0. -1.
    10030    2    1    2    0    0  0.00000000000E+00  0.00000000000E+00  0.13516766823E+04  0.16233778773E+04  0.89906945187E+03 0.  0.
        5    1    3    3  502    0 -0.79430884574E+02  0.43213312286E+03  0.50443678173E+03  0.66897448237E+03  0.46999998093E+01 0. -1.
       -5    1    3    3    0  502  0.79430884574E+02 -0.43213312286E+03  0.84723990053E+03  0.95440339498E+03  0.46999998093E+01 0.  1.
</event>
<event>
 5   0  0.2041861E-02  0.9333082E+03  0.7818609E-02  0.9384876E-01
        2   -1    0    0  501    0  0.00000000000E+00  0.00000000000E+00  0.10017806189E+04  0.10017806189E+04  0.25500000920E-02 0.  1.
       -2   -1    0    0    0  501  0.00000000000E+00  0.00000000000E+00 -0.21737899270E+03  0.21737899271E+03  0.25500000920E-02 0. -1.
    10030    2    1    2    0    0  0.00000000000E+00  0.00000000000E+00  0.78440162622E+03  0.12191596116E+04  0.93330822744E+03 0.  0.
        5    1    3    3  502    0 -0.45784538555E+03  0.49119817220E+02  0.49089886585E+03  0.67308167410E+03  0.46999998093E+01 0. -1.
       -5    1    3    3    0  502  0.45784538555E+03 -0.49119817220E+02  0.29350276037E+03  0.54607793753E+03  0.46999998093E+01 0.  1.
</event>
<event>
 5   0  0.1226424E-02  0.8686817E+03  0.7818609E-02  0.9465600E-01
       -1   -1    0    0    0  501  0.00000000000E+00  0.00000000000E+00  0.19621073818E+03  0.19621073825E+03  0.50400001928E-02 0. -1.
        1   -1    0    0  501    0  0.00000000000E+00  0.00000000000E+00 -0.96147630180E+03  0.96147630182E+03  0.50400001928E-02 0.  1.
    10030    2    1    2    0    0  0.00000000000E+00  0.00000000000E+00 -0.76526556362E+03  0.11576870401E+04  0.86868170228E+03 0.  0.
        1    1    3    3  502    0 -0.29464708348E+03 -0.29616839353E+02  0.40815799350E+02  0.29893141433E+03  0.50400001928E-02 0. -1.
       -1    1    3    3    0  502  0.29464708348E+03  0.29616839353E+02 -0.80608136297E+03  0.85875562573E+03  0.50400001928E-02 0.  1.
</event>
<event>
 5   0  0.1177712E-02  0.9213353E+03  0.7818609E-02  0.9399297E-01
       -1   -1    0    0    0  501  0.00000000000E+00  0.00000000000E+00  0.50277833835E+03  0.50277833837E+03  0.50400001928E-02 0.  1.
        1   -1    0    0  501    0  0.00000000000E+00  0.00000000000E+00 -0.42208395109E+03  0.42208395112E+03  0.50400001928E-02 0. -1.
    10030    2    1    2    0    0  0.00000000000E+00  0.00000000000E+00  0.80694387259E+02  0.92486228949E+03  0.92133526492E+03 0.  0.
        5    1    3    3  502    0 -0.23551697991E+03  0.33899682107E+03 -0.16489942492E+03  0.44452334343E+03  0.46999998093E+01 0. -1.
       -5    1    3    3    0  502  0.23551697991E+03 -0.33899682107E+03  0.24559381218E+03  0.48033894606E+03  0.46999998093E+01 0.  1.
</event>
<event>
 5   0  0.1175993E-02  0.9269902E+03  0.7818609E-02  0.9392457E-01
       -1   -1    0    0    0  501  0.00000000000E+00  0.00000000000E+00  0.29543203044E+03  0.29543203049E+03  0.50400001928E-02 0.  1.
        1   -1    0    0  501    0  0.00000000000E+00  0.00000000000E+00 -0.72716450554E+03  0.72716450556E+03  0.50400001928E-02 0. -1.
    10030    2    1    2    0    0  0.00000000000E+00  0.00000000000E+00 -0.43173247510E+03  0.10225965360E+04  0.92699015393E+03 0.  0.
        4    1    3    3  502    0  0.13993686495E+03 -0.47971823511E+02  0.26868877669E+03  0.30672282869E+03  0.12699999809E+01 0.  1.
       -4    1    3    3    0  502 -0.13993686495E+03  0.47971823511E+02 -0.70042125179E+03  0.71587370735E+03  0.12699999809E+01 0. -1.
</event>
<event>
 5   0  0.1162839E-02  0.9059310E+03  0.7818609E-02  0.9418198E-01
       -1   -1    0    0    0  501  0.00000000000E+00  0.00000000000E+00  0.22353659743E+03  0.22353659749E+03  0.50400001928E-02 0.  1.
        1   -1    0    0  501    0  0.00000000000E+00  0.00000000000E+00 -0.91787093474E+03  0.91787093475E+03  0.50400001928E-02 0. -1.
    10030    2    1    2    0    0  0.00000000000E+00  0.00000000000E+00 -0.69433433730E+03  0.11414075322E+04  0.90593100327E+03 0.  0.
        2    1    3    3  502    0 -0.36370213011E+03  0.21702021105E+03 -0.54954439714E+03  0.69381269510E+03  0.25500000920E-02 0. -1.
       -2    1    3    3    0  502  0.36370213011E+03 -0.21702021105E+03 -0.14478994017E+03  0.44759483714E+03  0.25500000920E-02 0.  1.
</event>
<event>
 5   0  0.1968763E-02  0.5894534E+03  0.7818609E-02  0.9927532E-01
       -2   -1    0    0    0  501  0.00000000000E+00  0.00000000000E+00  0.45088401070E+02  0.45088401142E+02  0.25500000920E-02 0.  1.
        2   -1    0    0  501    0  0.00000000000E+00  0.00000000000E+00 -0.19265225659E+04  0.19265225659E+04  0.25500000920E-02 0. -1.
    10030    2    1    2    0    0  0.00000000000E+00  0.00000000000E+00 -0.18814341648E+04  0.19716109670E+04  0.58945338134E+03 0.  0.
        2    1    3    3  502    0 -0.24814731803E+03 -0.17123094527E+01 -0.40886247696E+03  0.47827664434E+03  0.25500000920E-02 0. -1.
       -2    1    3    3    0  502  0.24814731803E+03  0.17123094527E+01 -0.14725716878E+04  0.14933343227E+04  0.25500000920E-02 0.  1.
</event>
<event>
 5   0  0.2008643E-02  0.8858458E+03  0.7818609E-02  0.9443450E-01
       -2   -1    0    0    0  501  0.00000000000E+00  0.00000000000E+00  0.83194602689E+03  0.83194602689E+03  0.25500000920E-02 0.  1.
        2   -1    0    0  501    0  0.00000000000E+00  0.00000000000E+00 -0.23580941918E+03  0.23580941919E+03  0.25500000920E-02 0. -1.
    10030    2    1    2    0    0  0.00000000000E+00  0.00000000000E+00  0.59613660771E+03  0.10677554461E+04  0.88584583173E+03 0.  0.
        3    1    3    3  502    0  0.22653367531E+03 -0.30059930081E+03  0.16667804947E+02  0.37676952056E+03  0.10100000352E+00 0. -1.
       -3    1    3    3    0  502 -0.22653367531E+03  0.30059930081E+03  0.57946880276E+03  0.69098592553E+03  0.10100000352E+00 0.  1.
</event>
<event>
 5   0  0.1924218E-02  0.9125318E+03  0.7818609E-02  0.9410050E-01
       -2   -1    0    0    0  501  0.00000000000E+00  0.00000000000E+00  0.46899791943E+03  0.46899791943E+03  0.25500000920E-02 0. -1.
        2   -1    0    0  501    0  0.00000000000E+00  0.00000000000E+00 -0.44387950940E+03  0.44387950941E+03  0.25500000920E-02 0.  1.
    10030    2    1    2    0    0  0.00000000000E+00  0.00000000000E+00  0.25118410021E+02  0.91287742884E+03  0.91253178880E+03 0.  0.
        4    1    3    3  502    0 -0.17531216101E+00  0.43518374327E+03  0.14969516229E+03  0.46021209855E+03  0.12699999809E+01 0. -1.
       -4    1    3    3    0  502  0.17531216101E+00 -0.43518374327E+03 -0.12457675227E+03  0.45266533029E+03  0.12699999809E+01 0.  1.
</event>
<event>
 5   0  0.1206541E-02  0.9081202E+03  0.7818609E-02  0.9415487E-01
        1   -1    0    0  501    0  0.00000000000E+00  0.00000000000E+00  0.17330183029E+04  0.17330183029E+04  0.50400001928E-02 0.  1.
       -1   -1    0    0    0  501  0.00000000000E+00  0.00000000000E+00 -0.11896617263E+03  0.11896617273E+03  0.50400001928E-02 0. -1.
    10030    2    1    2    0    0  0.00000000000E+00  0.00000000000E+00  0.16140521302E+04  0.18519844756E+04  0.90812015656E+03 0.  0.
        3    1    3    3  502    0 -0.45089249378E+01  0.96141122594E+02  0.17119763332E+04  0.17146796848E+04  0.10100000352E+00 0.  1.
       -3    1    3    3    0  502  0.45089249378E+01 -0.96141122594E+02 -0.97924202941E+02  0.13730479081E+03  0.10100000352E+00 0. -1.
</event>
<event>
 5   0  0.2008770E-02  0.8788623E+03  0.7818609E-02  0.9452397E-01
       -2   -1    0    0    0  501  0.00000000000E+00  0.00000000000E+00  0.97523896658E+02  0.97523896691E+02  0.25500000920E-02 0.  1.
        2   -1    0    0  501    0  0.00000000000E+00  0.00000000000E+00 -0.19800246376E+04  0.19800246376E+04  0.25500000920E-02 0. -1.
    10030    2    1    2    0    0  0.00000000000E+00  0.00000000000E+00 -0.18825007409E+04  0.20775485343E+04  0.87886226036E+03 0.  0.
        1    1    3    3  502    0  0.36552605474E+03  0.18835913706E+03 -0.13075511223E+04  0.13706853756E+04  0.50400001928E-02 0.  1.
       -1    1    3    3    0  502 -0.36552605474E+03 -0.18835913706E+03 -0.57494961856E+03  0.70686315870E+03  0.50400001928E-02 0. -1.
</event>
<event>
 5   0  0.2041861E-02  0.8923658E+03  0.7818609E-02  0.9435175E-01
       -2   -1    0    0    0  501  0.00000000000E+00  0.00000000000E+00  0.89223553766E+03  0.89223553767E+03  0.25500000920E-02 0.  1.
        2   -1    0    0  501    0  0.00000000000E+00  0.00000000000E+00 -0.22312401104E+03  0.22312401106E+03  0.25500000920E-02 0. -1.
    10030    2    1    2    0    0  0.00000000000E+00  0.00000000000E+00  0.66911152662E+03  0.11153595487E+04  0.89236578144E+03 0.  0.
        5    1    3    3  502    0 -0.99053139086E+02  0.43499088701E+03  0.34122669392E+03  0.56168170950E+03  0.46999998093E+01 0. -1.
       -5    1    3    3    0  502  0.99053139086E+02 -0.43499088701E+03  0.32788483270E+03  0.55367783923E+03  0.46999998093E+01 0.  1.
</event>
<event>
 5   0  0.1175993E-02  0.9027936E+03  0.7818609E-02  0.9422096E-01
       -1   -1    0    0    0  501  0.00000000000E+00  0.00000000000E+00  0.18041189440E+03  0.18041189448E+03  0.50400001928E-02 0. -1.
        1   -1    0    0  501    0  0.00000000000E+00  0.00000000000E+00 -0.11294104845E+04  0.11294104845E+04  0.50400001928E-02 0.  1.
    10030    2    1    2    0    0  0.00000000000E+00  0.00000000000E+00 -0.94899859006E+03  0.13098223790E+04  0.90279363116E+03 0.  0.
        4    1    3    3  502    0 -0.98995143632E+02 -0.28008395222E+03  0.18600121714E+02  0.29764851114E+03  0.12699999809E+01 0. -1.
       -4    1    3    3    0  502  0.98995143632E+02  0.28008395222E+03 -0.96759871178E+03  0.10121738678E+04  0.12699999809E+01 0.  1.
</event>
<event>
 5   0  0.1162839E-02  0.8935413E+03  0.7818609E-02  0.9433691E-01
       -1   -1    0    0    0  501  0.00000000000E+00  0.00000000000E+00  0.20451496281E+03  0.20451496287E+03  0.50400001928E-02 0.  1.
        1   -1    0    0  501    0  0.00000000000E+00  0.00000000000E+00 -0.97598736989E+03  0.97598736990E+03  0.50400001928E-02 0. -1.
    10030    2    1    2    0    0  0.00000000000E+00  0.00000000000E+00 -0.77147240708E+03  0.11805023328E+04  0.89354131567E+03 0.  0.
        2    1    3    3  502    0 -0.31572857830E+03  0.29983075337E+03 -0.25348249834E+03  0.50382178674E+03  0.25500000920E-02 0. -1.
       -2    1    3    3    0  502  0.31572857830E+03 -0.29983075337E+03 -0.51798990874E+03  0.67668054604E+03  0.25500000920E-02 0.  1.
</event>
<event>
 5   0  0.1162839E-02  0.8829519E+03  0.7818609E-02  0.9447147E-01
       -1   -1    0    0    0  501  0.00000000000E+00  0.00000000000E+00  0.16151178963E+03  0.16151178970E+03  0.50400001928E-02 0.  1.
        1   -1    0    0  501    0  0.00000000000E+00  0.00000000000E+00 -0.12067292421E+04  0.12067292421E+04  0.50400001928E-02 0. -1.
    10030    2    1    2    0    0  0.00000000000E+00  0.00000000000E+00 -0.10452174525E+04  0.13682410318E+04  0.88295186630E+03 0.  0.
        2    1    3    3  502    0 -0.38157211110E+03 -0.12125135413E+03 -0.23435486577E+03  0.46391957273E+03  0.25500000920E-02 0.  1.
       -2    1    3    3    0  502  0.38157211110E+03  0.12125135413E+03 -0.81086258673E+03  0.90432145911E+03  0.25500000920E-02 0. -1.
</event>
<event>
 5   0  0.1206541E-02  0.8969301E+03  0.7818609E-02  0.9429427E-01
       -1   -1    0    0    0  501  0.00000000000E+00  0.00000000000E+00  0.12079910685E+03  0.12079910695E+03  0.50400001928E-02 0.  1.
        1   -1    0    0  501    0  0.00000000000E+00  0.00000000000E+00 -0.16649205397E+04  0.16649205397E+04  0.50400001928E-02 0. -1.
    10030    2    1    2    0    0  0.00000000000E+00  0.00000000000E+00 -0.15441214328E+04  0.17857196466E+04  0.89693012942E+03 0.  0.
        3    1    3    3  502    0 -0.17508129735E+03  0.20127810973E+03 -0.14897730927E+04  0.15134695954E+04  0.10100000352E+00 0. -1.
       -3    1    3    3    0  502  0.17508129735E+03 -0.20127810973E+03 -0.54348340106E+02  0.27225005126E+03  0.10100000352E+00 0.  1.
</event>
<event>
 5   0  0.1162839E-02  0.9041352E+03  0.7818609E-02  0.9420427E-01
        1   -1    0    0  501    0  0.00000000000E+00  0.00000000000E+00  0.34512714408E+03  0.34512714412E+03  0.50400001928E-02 0. -1.
       -1   -1    0    0    0  501  0.00000000000E+00  0.00000000000E+00 -0.59214439125E+03  0.59214439127E+03  0.50400001928E-02 0.  1.
    10030    2    1    2    0    0  0.00000000000E+00  0.00000000000E+00 -0.24701724717E+03  0.93727153539E+03  0.90413517278E+03 0.  0.
        2    1    3    3  502    0  0.77974551804E+02 -0.44146118100E+03 -0.63087878667E+02  0.45271192331E+03  0.25500000920E-02 0. -1.
       -2    1    3    3    0  502 -0.77974551804E+02  0.44146118100E+03 -0.18392936850E+03  0.48455961209E+03  0.25500000920E-02 0.  1.
</event>
<event>
 5   0  0.1968763E-02  0.8854036E+03  0.7818609E-02  0.9444014E-01
        2   -1    0    0  501    0  0.00000000000E+00  0.00000000000E+00  0.75617461277E+03  0.75617461277E+03  0.25500000920E-02 0.  1.
       -2   -1    0    0    0  501  0.00000000000E+00  0.00000000000E+00 -0.25917941776E+03  0.25917941777E+03  0.25500000920E-02 0. -1.
    10030    2    1    2    0    0  0.00000000000E+00  0.00000000000E+00  0.49699519501E+03  0.10153540305E+04  0.88540362744E+03 0.  0.
        2    1    3    3  502    0 -0.39559457638E+02  0.83146180577E+02  0.74507224921E+03  0.75074023109E+03  0.25500000920E-02 0.  1.
       -2    1    3    3    0  502  0.39559457638E+02 -0.83146180577E+02 -0.24807705420E+03  0.26461379945E+03  0.25500000920E-02 0. -1.
</event>
<event>
 5   0  0.1968763E-02  0.8930010E+03  0.7818609E-02  0.9434373E-01
        2   -1    0    0  501    0  0.00000000000E+00  0.00000000000E+00  0.60753589466E+03  0.60753589466E+03  0.25500000920E-02 0. -1.
       -2   -1    0    0    0  501  0.00000000000E+00  0.00000000000E+00 -0.32814966062E+03  0.32814966063E+03  0.25500000920E-02 0.  1.
    10030    2    1    2    0    0  0.00000000000E+00  0.00000000000E+00  0.27938623404E+03  0.93568555529E+03  0.89300100258E+03 0.  0.
        2    1    3    3  502    0 -0.15386460083E+03 -0.25455428254E+03 -0.20922630827E+03  0.36365896967E+03  0.25500000920E-02 0.  1.
       -2    1    3    3    0  502  0.15386460083E+03  0.25455428254E+03  0.48861254231E+03  0.57202658562E+03  0.25500000920E-02 0. -1.
</event>
<event>
 5   0  0.2008643E-02  0.9143246E+03  0.7818609E-02  0.9407850E-01
       -2   -1    0    0    0  501  0.00000000000E+00  0.00000000000E+00  0.16992374838E+03  0.16992374840E+03  0.25500000920E-02 0. -1.
        2   -1    0    0  501    0  0.00000000000E+00  0.00000000000E+00 -0.12299478763E+04  0.12299478763E+04  0.25500000920E-02 0.  1.
    10030    2    1    2    0    0  0.00000000000E+00  0.00000000000E+00 -0.10600241280E+04  0.13998716247E+04  0.91432456704E+03 0.  0.
        3    1    3    3  502    0  0.27392249695E+03 -0.10622738555E+03  0.62460930402E+01  0.29386530189E+03  0.10100000352E+00 0. -1.
       -3    1    3    3    0  502 -0.27392249695E+03  0.10622738555E+03 -0.10662702210E+04  0.11060063229E+04  0.10100000352E+00 0.  1.
</event>
<event>
 5   0  0.7893875E-03  0.8438147E+03  0.7818609E-02  0.9498676E-01
        3   -1    0    0  501    0  0.00000000000E+00  0.00000000000E+00  0.21687573462E+03  0.21687575814E+03  0.10100000352E+00 0. -1.
       -3   -1    0    0    0  501  0.00000000000E+00  0.00000000000E+00 -0.82077330384E+03  0.82077331005E+03  0.10100000352E+00 0.  1.
    10030    2    1    2    0    0  0.00000000000E+00  0.00000000000E+00 -0.60389756921E+03  0.10376490682E+04  0.84381473951E+03 0.  0.
        1    1    3    3  502    0  0.12799384488E+03 -0.24200023194E+03  0.92823786868E+02  0.28907229549E+03  0.50400001928E-02 0. -1.
       -1    1    3    3    0  502 -0.12799384488E+03  0.24200023194E+03 -0.69672135608E+03  0.74857677270E+03  0.50400001928E-02 0.  1.
</event>
<event>
 5   0  0.1175993E-02  0.9086437E+03  0.7818609E-02  0.9414840E-01
       -1   -1    0    0    0  501  0.00000000000E+00  0.00000000000E+00  0.11799855279E+04  0.11799855279E+04  0.50400001928E-02 0.  1.
        1   -1    0    0  501    0  0.00000000000E+00  0.00000000000E+00 -0.17492445926E+03  0.17492445934E+03  0.50400001928E-02 0. -1.
    10030    2    1    2    0    0  0.00000000000E+00  0.00000000000E+00  0.10050610686E+04  0.13549099872E+04  0.90864367154E+03 0.  0.
        4    1    3    3  502    0  0.35995881797E+02 -0.12847125517E+03 -0.14505145799E+03  0.19708400563E+03  0.12699999809E+01 0. -1.
       -4    1    3    3    0  502 -0.35995881797E+02  0.12847125517E+03  0.11501125266E+04  0.11578259816E+04  0.12699999809E+01 0.  1.
</event>
<event>
 5   0  0.1162839E-02  0.8803940E+03  0.7818609E-02  0.9450427E-01
       -1   -1    0    0    0  501  0.00000000000E+00  0.00000000000E+00  0.13433358238E+03  0.13433358247E+03  0.50400001928E-02 0.  1.
        1   -1    0    0  501    0  0.00000000000E+00  0.00000000000E+00 -0.14424791809E+04  0.14424791809E+04  0.50400001928E-02 0. -1.
    10030    2    1    2    0    0  0.00000000000E+00  0.00000000000E+00 -0.13081455985E+04  0.15768127634E+04  0.88039399352E+03 0.  0.
        2    1    3    3  502    0 -0.41511612400E+03 -0.14391274793E+03 -0.70283097843E+03  0.82885683907E+03  0.25500000920E-02 0.  1.
       -2    1    3    3    0  502  0.41511612400E+03  0.14391274793E+03 -0.60531462011E+03  0.74795592433E+03  0.25500000920E-02 0. -1.
</event>
<event>
 5   0  0.7893875E-03  0.9881034E+03  0.7818609E-02  0.9321690E-01
       -3   -1    0    0    0  501  0.00000000000E+00  0.00000000000E+00  0.26356453362E+03  0.26356455297E+03  0.10100000352E+00 0. -1.
        3   -1    0    0  501    0  0.00000000000E+00  0.00000000000E+00 -0.92609990645E+03  0.92609991196E+03  0.10100000352E+00 0.  1.
    10030    2    1    2    0    0  0.00000000000E+00  0.00000000000E+00 -0.66253537283E+03  0.11896644649E+04  0.98810344543E+03 0.  0.
        5    1    3    3  502    0 -0.28296069990E+03 -0.98321396590E+02  0.14171896695E+03  0.33142149947E+03  0.46999998093E+01 0. -1.
       -5    1    3    3    0  502  0.28296069990E+03  0.98321396590E+02 -0.80425433978E+03  0.85824296546E+03  0.46999998093E+01 0.  1.
</event>
<event>
 5   0  0.1162839E-02  0.9071066E+03  0.7818609E-02  0.9416741E-01
       -1   -1    0    0    0  501  0.00000000000E+00  0.00000000000E+00  0.47397710626E+03  0.47397710629E+03  0.50400001928E-02 0.  1.
        1   -1    0    0  501    0  0.00000000000E+00  0.00000000000E+00 -0.43400958042E+03  0.43400958045E+03  0.50400001928E-02 0. -1.
    10030    2    1    2    0    0  0.00000000000E+00  0.00000000000E+00  0.39967525844E+02  0.90798668674E+03  0.90710662007E+03 0.  0.
        2    1    3    3  502    0  0.24978660146E+02 -0.28566897644E+03 -0.33175423885E+03  0.43851062993E+03  0.25500000920E-02 0. -1.
       -2    1    3    3    0  502 -0.24978660146E+02  0.28566897644E+03  0.37172176469E+03  0.46947605681E+03  0.25500000920E-02 0.  1.
</event>
<event>
 5   0  0.2008643E-02  0.9031580E+03  0.7818609E-02  0.9421642E-01
        2   -1    0    0  501    0  0.00000000000E+00  0.00000000000E+00  0.16151333148E+04  0.16151333148E+04  0.25500000920E-02 0.  1.
       -2   -1    0    0    0  501  0.00000000000E+00  0.00000000000E+00 -0.12625804708E+03  0.12625804710E+03  0.25500000920E-02 0. -1.
    10030    2    1    2    0    0  0.00000000000E+00  0.00000000000E+00  0.14888752677E+04  0.17413913619E+04  0.90315796652E+03 0.  0.
        3    1    3    3  502    0 -0.31451356090E+03  0.16762346149E+03  0.12791448739E+04  0.13278659659E+04  0.10100000352E+00 0. -1.
       -3    1    3    3    0  502  0.31451356090E+03 -0.16762346149E+03  0.20973039384E+03  0.41352539600E+03  0.10100000352E+00 0.  1.
</event>
<event>
 5   0  0.1968763E-02  0.8726969E+03  0.7818609E-02  0.9460370E-01
       -2   -1    0    0    0  501  0.00000000000E+00  0.00000000000E+00  0.24597405295E+03  0.24597405296E+03  0.25500000920E-02 0.  1.
        2   -1    0    0  501    0  0.00000000000E+00  0.00000000000E+00 -0.77406528399E+03  0.77406528399E+03  0.25500000920E-02 0. -1.
    10030    2    1    2    0    0  0.00000000000E+00  0.00000000000E+00 -0.52809123104E+03  0.10200393369E+04  0.87269691223E+03 0.  0.
        2    1    3    3  502    0  0.40407806769E+02  0.80301364644E+02 -0.76312461673E+03  0.76840111965E+03  0.25500000920E-02 0. -1.
       -2    1    3    3    0  502 -0.40407806769E+02 -0.80301364644E+02  0.23503338569E+03  0.25163821730E+03  0.25500000920E-02 0.  1.
</event>
<event>
 5   0  0.1968763E-02  0.8930155E+03  0.7818609E-02  0.9434355E-01
        2   -1    0    0  501    0  0.00000000000E+00  0.00000000000E+00  0.35494635112E+03  0.35494635113E+03  0.25500000920E-02 0.  1.
       -2   -1    0    0    0  501  0.00000000000E+00  0.00000000000E+00 -0.56168813666E+03  0.56168813667E+03  0.25500000920E-02 0. -1.
    10030    2    1    2    0    0  0.00000000000E+00  0.00000000000E+00 -0.20674178555E+03  0.91663448779E+03  0.89301546365E+03 0.  0.
        2    1    3    3  502    0 -0.41411403245E+03  0.12299322085E+03  0.12537793617E+02  0.43217468751E+03  0.25500000920E-02 0. -1.
       -2    1    3    3    0  502  0.41411403245E+03 -0.12299322085E+03 -0.21927957916E+03  0.48445980029E+03  0.25500000920E-02 0.  1.
</event>
<event>
 5   0  0.1162839E-02  0.9000244E+03  0.7818609E-02  0.9425551E-01
        1   -1    0    0  501    0  0.00000000000E+00  0.00000000000E+00  0.70075244019E+03  0.70075244021E+03  0.50400001928E-02 0.  1.
       -1   -1    0    0    0  501  0.00000000000E+00  0.00000000000E+00 -0.28899073863E+03  0.28899073867E+03  0.50400001928E-02 0. -1.
    10030    2    1    2    0    0  0.00000000000E+00  0.00000000000E+00  0.41176170156E+03  0.98974317888E+03  0.90002436704E+03 0.  0.
        2    1    3    3  502    0  0.84287171684E+02 -0.13426202495E+03 -0.25726843582E+03  0.30218813135E+03  0.25500000920E-02 0. -1.
       -2    1    3    3    0  502 -0.84287171684E+02  0.13426202495E+03  0.66903013738E+03  0.68755504753E+03  0.25500000920E-02 0.  1.
</event>
<event>
 5   0  0.1177712E-02  0.9018105E+03  0.7818609E-02  0.9423321E-01
       -1   -1    0    0    0  501  0.00000000000E+00  0.00000000000E+00  0.20770621000E+03  0.20770621006E+03  0.50400001928E-02 0. -1.
        1   -1    0    0  501    0  0.00000000000E+00  0.00000000000E+00 -0.97886109663E+03  0.97886109665E+03  0.50400001928E-02 0.  1.
    10030    2    1    2    0    0  0.00000000000E+00  0.00000000000E+00 -0.77115488663E+03  0.11865673067E+04  0.90181046466E+03 0.  0.
        5    1    3    3  502    0 -0.32602538632E+03  0.26788062376E+02  0.22697341680E+02  0.32794422106E+03  0.46999998093E+01 0. -1.
       -5    1    3    3    0  502  0.32602538632E+03 -0.26788062376E+02 -0.79385222831E+03  0.85862308565E+03  0.46999998093E+01 0.  1.
</event>
<event>
 5   0  0.2008770E-02  0.9062598E+03  0.7818609E-02  0.9417790E-01
        2   -1    0    0  501    0  0.00000000000E+00  0.00000000000E+00  0.13931817284E+04  0.13931817284E+04  0.25500000920E-02 0.  1.
       -2   -1    0    0    0  501  0.00000000000E+00  0.00000000000E+00 -0.14737969393E+03  0.14737969395E+03  0.25500000920E-02 0. -1.
    10030    2    1    2    0    0  0.00000000000E+00  0.00000000000E+00  0.12458020345E+04  0.15405614223E+04  0.90625977895E+03 0.  0.
        1    1    3    3  502    0  0.36746451475E+02  0.11835398171E+03  0.13638142856E+04  0.13694332303E+04  0.50400001928E-02 0.  1.
       -1    1    3    3    0  502 -0.36746451475E+02 -0.11835398171E+03 -0.11801225110E+03  0.17112819206E+03  0.50400001928E-02 0. -1.
</event>
<event>
 5   0  0.2008643E-02  0.8765225E+03  0.7818609E-02  0.9455415E-01
       -2   -1    0    0    0  501  0.00000000000E+00  0.00000000000E+00  0.41476292905E+03  0.41476292906E+03  0.25500000920E-02 0.  1.
        2   -1    0    0  501    0  0.00000000000E+00  0.00000000000E+00 -0.46309089095E+03  0.46309089095E+03  0.25500000920E-02 0. -1.
    10030    2    1    2    0    0  0.00000000000E+00  0.00000000000E+00 -0.48327961894E+02  0.87785382001E+03  0.87652252533E+03 0.  0.
        3    1    3    3  502    0 -0.15180481665E+02  0.13485884400E+02  0.41429154994E+03  0.41478887961E+03  0.10100000352E+00 0.  1.
       -3    1    3    3    0  502  0.15180481665E+02 -0.13485884400E+02 -0.46261951183E+03  0.46306494040E+03  0.10100000352E+00 0. -1.
</event>
<event>
 5   0  0.7893875E-03  0.8978632E+03  0.7818609E-02  0.9428257E-01
        4   -1    0    0  501    0  0.00000000000E+00  0.00000000000E+00  0.68461464413E+03  0.68461582209E+03  0.12699999809E+01 0. -1.
       -4   -1    0    0    0  501  0.00000000000E+00  0.00000000000E+00 -0.29438115303E+03  0.29438389249E+03  0.12699999809E+01 0.  1.
    10030    2    1    2    0    0  0.00000000000E+00  0.00000000000E+00  0.39023349110E+03  0.97899971458E+03  0.89786316528E+03 0.  0.
        4    1    3    3  502    0  0.11448954538E+03  0.43070878593E+03  0.25403728506E+03  0.51298583741E+03  0.12699999809E+01 0.  1.
       -4    1    3    3    0  502 -0.11448954538E+03 -0.43070878593E+03  0.13619620604E+03  0.46601387717E+03  0.12699999809E+01 0. -1.
</event>
<event>
 5   0  0.2008643E-02  0.7737075E+03  0.7818609E-02  0.9598874E-01
       -2   -1    0    0    0  501  0.00000000000E+00  0.00000000000E+00  0.11218492548E+03  0.11218492551E+03  0.25500000920E-02 0. -1.
        2   -1    0    0  501    0  0.00000000000E+00  0.00000000000E+00 -0.13340100946E+04  0.13340100946E+04  0.25500000920E-02 0.  1.
    10030    2    1    2    0    0  0.00000000000E+00  0.00000000000E+00 -0.12218251692E+04  0.14461950202E+04  0.77370749791E+03 0.  0.
        3    1    3    3  502    0  0.94825890664E+02 -0.19879341053E+03 -0.12053722031E+04  0.12253297221E+04  0.10100000352E+00 0.  1.
       -3    1    3    3    0  502 -0.94825890664E+02  0.19879341053E+03 -0.16452966089E+02  0.22086529810E+03  0.10100000352E+00 0. -1.
</event>
<event>
 5   0  0.1968763E-02  0.9058931E+03  0.7818609E-02  0.9418245E-01
        2   -1    0    0  501    0  0.00000000000E+00  0.00000000000E+00  0.49555605963E+03  0.49555605964E+03  0.25500000920E-02 0.  1.
       -2   -1    0    0    0  501  0.00000000000E+00  0.00000000000E+00 -0.41400072034E+03  0.41400072035E+03  0.25500000920E-02 0. -1.
    10030    2    1    2    0    0  0.00000000000E+00  0.00000000000E+00  0.81555339288E+02  0.90955677999E+03  0.90589307462E+03 0.  0.
        2    1    3    3  502    0 -0.29437145967E+03 -0.18941325797E+03  0.32939216837E+03  0.48065698700E+03  0.25500000920E-02 0.  1.
       -2    1    3    3    0  502  0.29437145967E+03  0.18941325797E+03 -0.24783682909E+03  0.42889979298E+03  0.25500000920E-02 0. -1.
</event>
<event>
 5   0  0.2008643E-02  0.8996362E+03  0.7818609E-02  0.9426036E-01
       -2   -1    0    0    0  501  0.00000000000E+00  0.00000000000E+00  0.99888867840E+02  0.99888867873E+02  0.25500000920E-02 0. -1.
        2   -1    0    0  501    0  0.00000000000E+00  0.00000000000E+00 -0.20256144145E+04  0.20256144145E+04  0.25500000920E-02 0.  1.
    10030    2    1    2    0    0  0.00000000000E+00  0.00000000000E+00 -0.19257255467E+04  0.21255032824E+04  0.89963621666E+03 0.  0.
        3    1    3    3  502    0  0.10198870908E+03 -0.12061270205E+03  0.32212623314E+02  0.16120416861E+03  0.10100000352E+00 0. -1.
       -3    1    3    3    0  502 -0.10198870908E+03  0.12061270205E+03 -0.19579381700E+04  0.19642991138E+04  0.10100000352E+00 0.  1.
</event>
<event>
 5   0  0.1206541E-02  0.8907769E+03  0.7818609E-02  0.9437185E-01
        1   -1    0    0  501    0  0.00000000000E+00  0.00000000000E+00  0.17477849027E+04  0.17477849028E+04  0.50400001928E-02 0.  1.
       -1   -1    0    0    0  501  0.00000000000E+00  0.00000000000E+00 -0.11349845281E+03  0.11349845292E+03  0.50400001928E-02 0. -1.
    10030    2    1    2    0    0  0.00000000000E+00  0.00000000000E+00  0.16342864499E+04  0.18612833557E+04  0.89077692475E+03 0.  0.
        3    1    3    3  502    0 -0.10784963047E+03  0.39619909953E+03  0.11776395798E+04  0.12471729067E+04  0.10100000352E+00 0. -1.
       -3    1    3    3    0  502  0.10784963047E+03 -0.39619909953E+03  0.45664687016E+03  0.61411044893E+03  0.10100000352E+00 0.  1.
</event>
<event>
 5   0  0.1177712E-02  0.8664062E+03  0.7818609E-02  0.9468578E-01
        1   -1    0    0  501    0  0.00000000000E+00  0.00000000000E+00  0.62430152027E+03  0.62430152029E+03  0.50400001928E-02 0. -1.
       -1   -1    0    0    0  501  0.00000000000E+00  0.00000000000E+00 -0.30059985633E+03  0.30059985637E+03  0.50400001928E-02 0.  1.
    10030    2    1    2    0    0  0.00000000000E+00  0.00000000000E+00  0.32370166394E+03  0.92490137666E+03  0.86640624957E+03 0.  0.
        5    1    3    3  502    0 -0.72682393055E+02  0.34823570854E+03 -0.10200462855E+03  0.37010521911E+03  0.46999998093E+01 0.  1.
       -5    1    3    3    0  502  0.72682393055E+02 -0.34823570854E+03  0.42570629249E+03  0.55479615755E+03  0.46999998093E+01 0. -1.
</event>
<event>
 5   0  0.2008770E-02  0.8955177E+03  0.7818609E-02  0.9431202E-01
       -2   -1    0    0    0  501  0.00000000000E+00  0.00000000000E+00  0.22315099371E+03  0.22315099373E+03  0.25500000920E-02 0. -1.
        2   -1    0    0  501    0  0.00000000000E+00  0.00000000000E+00 -0.89844084553E+03  0.89844084554E+03  0.25500000920E-02 0.  1.
    10030    2    1    2    0    0  0.00000000000E+00  0.00000000000E+00 -0.67528985182E+03  0.11215918393E+04  0.89551765473E+03 0.  0.
        1    1    3    3  502    0 -0.94078034829E+02  0.16824093477E+03 -0.84381527263E+03  0.86555179112E+03  0.50400001928E-02 0.  1.
       -1    1    3    3    0  502  0.94078034829E+02 -0.16824093477E+03  0.16852542081E+03  0.25604004814E+03  0.50400001928E-02 0. -1.
</event>
<event>
 5   0  0.1162839E-02  0.8972575E+03  0.7818609E-02  0.9429016E-01
       -1   -1    0    0    0  501  0.00000000000E+00  0.00000000000E+00  0.41376868305E+03  0.41376868308E+03  0.50400001928E-02 0. -1.
        1   -1    0    0  501    0  0.00000000000E+00  0.00000000000E+00 -0.48642574650E+03  0.48642574652E+03  0.50400001928E-02 0.  1.
    10030    2    1    2    0    0  0.00000000000E+00  0.00000000000E+00 -0.72657063453E+02  0.90019442960E+03  0.89725746707E+03 0.  0.
        2    1    3    3  502    0 -0.13970762852E+03  0.58102257639E+02 -0.46005401684E+03  0.48429721476E+03  0.25500000920E-02 0.  1.
       -2    1    3    3    0  502  0.13970762852E+03 -0.58102257639E+02  0.38739695339E+03  0.41589721484E+03  0.25500000920E-02 0. -1.
</event>
<event>
 5   0  0.1968763E-02  0.9008711E+03  0.7818609E-02  0.9424493E-01
        2   -1    0    0  501    0  0.00000000000E+00  0.00000000000E+00  0.92788509374E+03  0.92788509375E+03  0.25500000920E-02 0. -1.
       -2   -1    0    0    0  501  0.00000000000E+00  0.00000000000E+00 -0.21866090553E+03  0.21866090555E+03  0.25500000920E-02 0.  1.
    10030    2    1    2    0    0  0.00000000000E+00  0.00000000000E+00  0.70922418821E+03  0.11465459993E+04  0.90087112250E+03 0.  0.
        2    1    3    3  502    0 -0.21362450402E+03 -0.78935336758E+02 -0.13998851503E+03  0.26732564497E+03  0.25500000920E-02 0.  1.
       -2    1    3    3    0  502  0.21362450402E+03  0.78935336758E+02  0.84921270324E+03  0.87922035433E+03  0.25500000920E-02 0. -1.
</event>
<event>
 5   0  0.1226424E-02  0.8987093E+03  0.7818609E-02  0.9427196E-01
        1   -1    0    0  501    0  0.00000000000E+00  0.00000000000E+00  0.33841233245E+03  0.33841233248E+03  0.50400001928E-02 0.  1.
       -1   -1    0    0    0  501  0.00000000000E+00  0.00000000000E+00 -0.59666734907E+03  0.59666734909E+03  0.50400001928E-02 0. -1.
    10030    2    1    2    0    0  0.00000000000E+00  0.00000000000E+00 -0.25825501663E+03  0.93507968158E+03  0.89870927295E+03 0.  0.
        1    1    3    3  502    0 -0.93300882813E+02  0.12597458602E+03  0.30903861400E+03  0.34652491400E+03  0.50400001928E-02 0.  1.
       -1    1    3    3    0  502  0.93300882813E+02 -0.12597458602E+03 -0.56729363063E+03  0.58855476757E+03  0.50400001928E-02 0. -1.
</event>
<event>
 5   0  0.1924218E-02  0.9177318E+03  0.7818609E-02  0.9403683E-01
        2   -1    0    0  501    0  0.00000000000E+00  0.00000000000E+00  0.88500006575E+03  0.88500006575E+03  0.25500000920E-02 0. -1.
       -2   -1    0    0    0  501  0.00000000000E+00  0.00000000000E+00 -0.23791855204E+03  0.23791855205E+03  0.25500000920E-02 0.  1.
    10030    2    1    2    0    0  0.00000000000E+00  0.00000000000E+00  0.64708151371E+03  0.11229186178E+04  0.91773184363E+03 0.  0.
        4    1    3    3  502    0  0.14674598633E+03  0.25925521777E+03  0.75058372975E+03  0.80754269281E+03  0.12699999809E+01 0. -1.
       -4    1    3    3    0  502 -0.14674598633E+03 -0.25925521777E+03 -0.10350221603E+03  0.31537592500E+03  0.12699999809E+01 0.  1.
</event>
<event>
 5   0  0.1175993E-02  0.8948680E+03  0.7818609E-02  0.9432019E-01
       -1   -1    0    0    0  501  0.00000000000E+00  0.00000000000E+00  0.22666351606E+03  0.22666351612E+03  0.50400001928E-02 0.  1.
        1   -1    0    0  501    0  0.00000000000E+00  0.00000000000E+00 -0.88323521703E+03  0.88323521705E+03  0.50400001928E-02 0. -1.
    10030    2    1    2    0    0  0.00000000000E+00  0.00000000000E+00 -0.65657170097E+03  0.11098987332E+04  0.89486803461E+03 0.  0.
        4    1    3    3  502    0  0.13149877897E+03  0.46529708292E+02  0.19900455724E+03  0.24302544996E+03  0.12699999809E+01 0.  1.
       -4    1    3    3    0  502 -0.13149877897E+03 -0.46529708292E+02 -0.85557625821E+03  0.86687328321E+03  0.12699999809E+01 0. -1.
</event>
<event>
 5   0  0.2041861E-02  0.9289412E+03  0.7818609E-02  0.9390110E-01
        2   -1    0    0  501    0  0.00000000000E+00  0.00000000000E+00  0.33591376164E+03  0.33591376165E+03  0.25500000920E-02 0. -1.
       -2   -1    0    0    0  501  0.00000000000E+00  0.00000000000E+00 -0.64222713422E+03  0.64222713422E+03  0.25500000920E-02 0.  1.
    10030    2    1    2    0    0  0.00000000000E+00  0.00000000000E+00 -0.30631337258E+03  0.97814089587E+03  0.92894118756E+03 0.  0.
        5    1    3    3  502    0 -0.97758748061E+02 -0.45196130097E+03 -0.10743998601E+03  0.47475386358E+03  0.46999998093E+01 0.  1.
       -5    1    3    3    0  502  0.97758748061E+02  0.45196130097E+03 -0.19887338656E+03  0.50338703229E+03  0.46999998093E+01 0. -1.
</event>
<event>
 5   0  0.1162839E-02  0.7429262E+03  0.7818609E-02  0.9646514E-01
       -1   -1    0    0    0  501  0.00000000000E+00  0.00000000000E+00  0.17352821321E+03  0.17352821329E+03  0.50400001928E-02 0.  1.
        1   -1    0    0  501    0  0.00000000000E+00  0.00000000000E+00 -0.79517233480E+03  0.79517233482E+03  0.50400001928E-02 0. -1.
    10030    2    1    2    0    0  0.00000000000E+00  0.00000000000E+00 -0.62164412159E+03  0.96870054810E+03  0.74292619956E+03 0.  0.
        2    1    3    3  502    0 -0.13709384916E+03  0.24959780780E+03  0.18183426601E+00  0.28476977053E+03  0.25500000920E-02 0.  1.
       -2    1    3    3    0  502  0.13709384916E+03 -0.24959780780E+03 -0.62182595585E+03  0.68393077758E+03  0.25500000920E-02 0. -1.
</event>
<event>
 5   0  0.1206541E-02  0.1101551E+04  0.7818609E-02  0.9203681E-01
       -1   -1    0    0    0  501  0.00000000000E+00  0.00000000000E+00  0.22028492361E+03  0.22028492367E+03  0.50400001928E-02 0. -1.
        1   -1    0    0  501    0  0.00000000000E+00  0.00000000000E+00 -0.13770976565E+04  0.13770976565E+04  0.50400001928E-02 0.  1.
    10030    2    1    2    0    0  0.00000000000E+00  0.00000000000E+00 -0.11568127328E+04  0.15973825801E+04  0.11015513644E+04 0.  0.
        3    1    3    3  502    0 -0.10141015286E+03  0.17995236440E+03 -0.13188020068E+04  0.13348803751E+04  0.10100000352E+00 0.  1.
       -3    1    3    3    0  502  0.10141015286E+03 -0.17995236440E+03  0.16198927396E+03  0.26250220501E+03  0.10100000352E+00 0. -1.
</event>
<event>
 5   0  0.2008770E-02  0.8962626E+03  0.7818609E-02  0.9430265E-01
        2   -1    0    0  501    0  0.00000000000E+00  0.00000000000E+00  0.16094646517E+04  0.16094646517E+04  0.25500000920E-02 0.  1.
       -2   -1    0    0    0  501  0.00000000000E+00  0.00000000000E+00 -0.12477544738E+03  0.12477544741E+03  0.25500000920E-02 0. -1.
    10030    2    1    2    0    0  0.00000000000E+00  0.00000000000E+00  0.14846892043E+04  0.17342400991E+04  0.89626262219E+03 0.  0.
        1    1    3    3  502    0 -0.25780687624E+03  0.34857652665E+02  0.14483887425E+04  0.14715669848E+04  0.50400001928E-02 0.  1.
       -1    1    3    3    0  502  0.25780687624E+03 -0.34857652665E+02  0.36300461748E+02  0.26267311422E+03  0.50400001928E-02 0. -1.
</event>
<event>
 5   0  0.1206541E-02  0.9182940E+03  0.7818609E-02  0.9402998E-01
       -1   -1    0    0    0  501  0.00000000000E+00  0.00000000000E+00  0.24547686088E+03  0.24547686093E+03  0.50400001928E-02 0. -1.
        1   -1    0    0  501    0  0.00000000000E+00  0.00000000000E+00 -0.85880172195E+03  0.85880172197E+03  0.50400001928E-02 0.  1.
    10030    2    1    2    0    0  0.00000000000E+00  0.00000000000E+00 -0.61332486107E+03  0.11042785829E+04  0.91829396352E+03 0.  0.
        3    1    3    3  502    0 -0.41748208272E+03  0.18911971862E+03 -0.33977869168E+03  0.57053231888E+03  0.10100000352E+00 0.  1.
       -3    1    3    3    0  502  0.41748208272E+03 -0.18911971862E+03 -0.27354616939E+03  0.53374626402E+03  0.10100000352E+00 0. -1.
</event>
<event>
 5   0  0.2008770E-02  0.8996157E+03  0.7818609E-02  0.9426062E-01
        2   -1    0    0  501    0  0.00000000000E+00  0.00000000000E+00  0.19022363272E+04  0.19022363272E+04  0.25500000920E-02 0.  1.
       -2   -1    0    0    0  501  0.00000000000E+00  0.00000000000E+00 -0.10636276687E+03  0.10636276690E+03  0.25500000920E-02 0. -1.
    10030    2    1    2    0    0  0.00000000000E+00  0.00000000000E+00  0.17958735603E+04  0.20085990941E+04  0.89961573804E+03 0.  0.
        1    1    3    3  502    0  0.65736186327E+02 -0.30390606393E+03  0.17222402628E+03  0.35544515349E+03  0.50400001928E-02 0. -1.
       -1    1    3    3    0  502 -0.65736186327E+02  0.30390606393E+03  0.16236495341E+04  0.16531539406E+04  0.50400001928E-02 0.  1.
</event>
<event>
 5   0  0.1206541E-02  0.9384334E+03  0.7818609E-02  0.9378773E-01
       -1   -1    0    0    0  501  0.00000000000E+00  0.00000000000E+00  0.12726289401E+03  0.12726289411E+03  0.50400001928E-02 0.  1.
        1   -1    0    0  501    0  0.00000000000E+00  0.00000000000E+00 -0.17299962893E+04  0.17299962893E+04  0.50400001928E-02 0. -1.
    10030    2    1    2    0    0  0.00000000000E+00  0.00000000000E+00 -0.16027333953E+04  0.18572591834E+04  0.93843344888E+03 0.  0.
        3    1    3    3  502    0  0.31255107059E+03 -0.34975426239E+03 -0.77728101019E+03  0.90784469750E+03  0.10100000352E+00 0. -1.
       -3    1    3    3    0  502 -0.31255107059E+03  0.34975426239E+03 -0.82545238507E+03  0.94941448588E+03  0.10100000352E+00 0.  1.
</event>
<event>
 5   0  0.1177712E-02  0.9019314E+03  0.7818609E-02  0.9423170E-01
        1   -1    0    0  501    0  0.00000000000E+00  0.00000000000E+00  0.62235447022E+03  0.62235447024E+03  0.50400001928E-02 0.  1.
       -1   -1    0    0    0  501  0.00000000000E+00  0.00000000000E+00 -0.32677525420E+03  0.32677525423E+03  0.50400001928E-02 0. -1.
    10030    2    1    2    0    0  0.00000000000E+00  0.00000000000E+00  0.29557921603E+03  0.94912972448E+03  0.90193135046E+03 0.  0.
        5    1    3    3  502    0 -0.22258966878E+03  0.14078991026E+03 -0.23739778415E+03  0.35460930246E+03  0.46999998093E+01 0. -1.
       -5    1    3    3    0  502  0.22258966878E+03 -0.14078991026E+03  0.53297700017E+03  0.59452042201E+03  0.46999998093E+01 0.  1.
</event>
<event>
 5   0  0.1924218E-02  0.9138677E+03  0.7818609E-02  0.9408410E-01
        2   -1    0    0  501    0  0.00000000000E+00  0.00000000000E+00  0.11957460536E+04  0.11957460536E+04  0.25500000920E-02 0.  1.
       -2   -1    0    0    0  501  0.00000000000E+00  0.00000000000E+00 -0.17460943365E+03  0.17460943367E+03  0.25500000920E-02 0. -1.
    10030    2    1    2    0    0  0.00000000000E+00  0.00000000000E+00  0.10211366200E+04  0.13703554873E+04  0.91386769553E+03 0.  0.
        4    1    3    3  502    0  0.41687357980E+03 -0.17011410051E+03  0.62734303032E+03  0.77219380943E+03  0.12699999809E+01 0.  1.
       -4    1    3    3    0  502 -0.41687357980E+03  0.17011410051E+03  0.39379358965E+03  0.59816167788E+03  0.12699999809E+01 0. -1.
</event>
<event>
 5   0  0.1968763E-02  0.9033485E+03  0.7818609E-02  0.9421405E-01
       -2   -1    0    0    0  501  0.00000000000E+00  0.00000000000E+00  0.16324089117E+03  0.16324089119E+03  0.25500000920E-02 0. -1.
        2   -1    0    0  501    0  0.00000000000E+00  0.00000000000E+00 -0.12497459939E+04  0.12497459939E+04  0.25500000920E-02 0.  1.
    10030    2    1    2    0    0  0.00000000000E+00  0.00000000000E+00 -0.10865051027E+04  0.14129868851E+04  0.90334854801E+03 0.  0.
        2    1    3    3  502    0  0.38987895999E+03  0.19901787946E+03 -0.71740209376E+03  0.84040435739E+03  0.25500000920E-02 0.  1.
       -2    1    3    3    0  502 -0.38987895999E+03 -0.19901787946E+03 -0.36910300896E+03  0.57258252769E+03  0.25500000920E-02 0. -1.
</event>
<event>
 5   0  0.1175993E-02  0.8993661E+03  0.7818609E-02  0.9426374E-01
        1   -1    0    0  501    0  0.00000000000E+00  0.00000000000E+00  0.20996223309E+03  0.20996223315E+03  0.50400001928E-02 0. -1.
       -1   -1    0    0    0  501  0.00000000000E+00  0.00000000000E+00 -0.96310110746E+03  0.96310110748E+03  0.50400001928E-02 0.  1.
    10030    2    1    2    0    0  0.00000000000E+00  0.00000000000E+00 -0.75313887438E+03  0.11730633406E+04  0.89936613068E+03 0.  0.
        4    1    3    3  502    0  0.44323535645E+03 -0.75745489493E+02 -0.37099188192E+03  0.58295072668E+03  0.12699999809E+01 0.  1.
       -4    1    3    3    0  502 -0.44323535645E+03  0.75745489493E+02 -0.38214699245E+03  0.59011261394E+03  0.12699999809E+01 0. -1.
</event>
<event>
 5   0  0.7893875E-03  0.9072109E+03  0.7818609E-02  0.9416612E-01
        3   -1    0    0  501    0  0.00000000000E+00  0.00000000000E+00  0.64264377931E+03  0.64264378724E+03  0.10100000352E+00 0.  1.
       -3   -1    0    0    0  501  0.00000000000E+00  0.00000000000E+00 -0.32017407811E+03  0.32017409404E+03  0.10100000352E+00 0. -1.
    10030    2    1    2    0    0  0.00000000000E+00  0.00000000000E+00  0.32246970120E+03  0.96281788128E+03  0.90721087092E+03 0.  0.
        4    1    3    3  502    0  0.35548940139E+03  0.24040773625E+03  0.31716817150E+03  0.53363457165E+03  0.12699999809E+01 0.  1.
       -4    1    3    3    0  502 -0.35548940139E+03 -0.24040773625E+03  0.53015297021E+01  0.42918330963E+03  0.12699999809E+01 0. -1.
</event>
<event>
 5   0  0.2041861E-02  0.8921067E+03  0.7818609E-02  0.9435503E-01
        2   -1    0    0  501    0  0.00000000000E+00  0.00000000000E+00  0.20203001240E+03  0.20203001242E+03  0.25500000920E-02 0. -1.
       -2   -1    0    0    0  501  0.00000000000E+00  0.00000000000E+00 -0.98482193769E+03  0.98482193769E+03  0.25500000920E-02 0.  1.
    10030    2    1    2    0    0  0.00000000000E+00  0.00000000000E+00 -0.78279192529E+03  0.11868519501E+04  0.89210669383E+03 0.  0.
        5    1    3    3  502    0 -0.22865233160E+03  0.37876080324E+03 -0.31613920997E+03  0.54379014784E+03  0.46999998093E+01 0. -1.
       -5    1    3    3    0  502  0.22865233160E+03 -0.37876080324E+03 -0.46665271532E+03  0.64306180226E+03  0.46999998093E+01 0.  1.
</event>
<event>
 5   0  0.1175993E-02  0.8659786E+03  0.7818609E-02  0.9469138E-01
        1   -1    0    0  501    0  0.00000000000E+00  0.00000000000E+00  0.53845629550E+03  0.53845629552E+03  0.50400001928E-02 0. -1.
       -1   -1    0    0    0  501  0.00000000000E+00  0.00000000000E+00 -0.34818004591E+03  0.34818004595E+03  0.50400001928E-02 0.  1.
    10030    2    1    2    0    0  0.00000000000E+00  0.00000000000E+00  0.19027624959E+03  0.88663634147E+03  0.86597860878E+03 0.  0.
        4    1    3    3  502    0 -0.58691260200E+02 -0.75965150789E+02  0.52742163862E+03  0.53608820725E+03  0.12699999809E+01 0. -1.
       -4    1    3    3    0  502  0.58691260200E+02  0.75965150789E+02 -0.33714538904E+03  0.35054813422E+03  0.12699999809E+01 0.  1.
</event>
<event>
 5   0  0.1924218E-02  0.9139377E+03  0.7818609E-02  0.9408324E-01
       -2   -1    0    0    0  501  0.00000000000E+00  0.00000000000E+00  0.12634131598E+03  0.12634131601E+03  0.25500000920E-02 0. -1.
        2   -1    0    0  501    0  0.00000000000E+00  0.00000000000E+00 -0.16528285925E+04  0.16528285925E+04  0.25500000920E-02 0.  1.
    10030    2    1    2    0    0  0.00000000000E+00  0.00000000000E+00 -0.15264872765E+04  0.17791699085E+04  0.91393772105E+03 0.  0.
        4    1    3    3  502    0  0.28765835972E+03  0.33265977795E+03 -0.52159241866E+03  0.68225370933E+03  0.12699999809E+01 0. -1.
       -4    1    3    3    0  502 -0.28765835972E+03 -0.33265977795E+03 -0.10048948578E+04  0.10969161991E+04  0.12699999809E+01 0.  1.
</event>
<event>
 5   0  0.1162839E-02  0.8917086E+03  0.7818609E-02  0.9436006E-01
       -1   -1    0    0    0  501  0.00000000000E+00  0.00000000000E+00  0.13993816590E+03  0.13993816599E+03  0.50400001928E-02 0.  1.
        1   -1    0    0  501    0  0.00000000000E+00  0.00000000000E+00 -0.14205276570E+04  0.14205276570E+04  0.50400001928E-02 0. -1.
    10030    2    1    2    0    0  0.00000000000E+00  0.00000000000E+00 -0.12805894911E+04  0.15604658230E+04  0.89170855104E+03 0.  0.
        2    1    3    3  502    0 -0.64012253176E+02  0.46857020102E+02 -0.14080780639E+04  0.14103109526E+04  0.25500000920E-02 0. -1.
       -2    1    3    3    0  502  0.64012253176E+02 -0.46857020102E+02  0.12748857284E+03  0.15015487039E+03  0.25500000920E-02 0.  1.
</event>
<event>
 5   0  0.1162839E-02  0.8870365E+03  0.7818609E-02  0.9441933E-01
        1   -1    0    0  501    0  0.00000000000E+00  0.00000000000E+00  0.66146544204E+03  0.66146544206E+03  0.50400001928E-02 0. -1.
       -1   -1    0    0    0  501  0.00000000000E+00  0.00000000000E+00 -0.29738281300E+03  0.29738281304E+03  0.50400001928E-02 0.  1.
    10030    2    1    2    0    0  0.00000000000E+00  0.00000000000E+00  0.36408262904E+03  0.95884825510E+03  0.88703653563E+03 0.  0.
        2    1    3    3  502    0  0.64828161959E+02  0.22490307967E+03 -0.22518596097E+03  0.32479655610E+03  0.25500000920E-02 0.  1.
       -2    1    3    3    0  502 -0.64828161959E+02 -0.22490307967E+03  0.58926859001E+03  0.63405169901E+03  0.25500000920E-02 0. -1.
</event>
<event>
 5   0  0.1968763E-02  0.6256917E+03  0.7818609E-02  0.9853492E-01
       -2   -1    0    0    0  501  0.00000000000E+00  0.00000000000E+00  0.10471821818E+03  0.10471821821E+03  0.25500000920E-02 0. -1.
        2   -1    0    0  501    0  0.00000000000E+00  0.00000000000E+00 -0.93462739862E+03  0.93462739862E+03  0.25500000920E-02 0.  1.
    10030    2    1    2    0    0  0.00000000000E+00  0.00000000000E+00 -0.82990918044E+03  0.10393456168E+04  0.62569166804E+03 0.  0.
        2    1    3    3  502    0 -0.69310765388E+02  0.14918209068E+03 -0.85698977785E+03  0.87263437804E+03  0.25500000920E-02 0.  1.
       -2    1    3    3    0  502  0.69310765388E+02 -0.14918209068E+03  0.27080597413E+02  0.16671123880E+03  0.25500000920E-02 0. -1.
</event>
<event>
 5   0  0.1177712E-02  0.8993051E+03  0.7818609E-02  0.9426451E-01
        1   -1    0    0  501    0  0.00000000000E+00  0.00000000000E+00  0.11351368011E+04  0.11351368011E+04  0.50400001928E-02 0. -1.
       -1   -1    0    0    0  501  0.00000000000E+00  0.00000000000E+00 -0.17811720885E+03  0.17811720892E+03  0.50400001928E-02 0.  1.
    10030    2    1    2    0    0  0.00000000000E+00  0.00000000000E+00  0.95701959225E+03  0.13132540100E+04  0.89930506220E+03 0.  0.
        5    1    3    3  502    0  0.31414311295E+03  0.38317708137E+02  0.12102264861E+02  0.31673758378E+03  0.46999998093E+01 0.  1.
       -5    1    3    3    0  502 -0.31414311295E+03 -0.38317708137E+02  0.94491732739E+03  0.99651642624E+03  0.46999998093E+01 0. -1.
</event>
<event>
 5   0  0.1175993E-02  0.9013707E+03  0.7818609E-02  0.9423870E-01
       -1   -1    0    0    0  501  0.00000000000E+00  0.00000000000E+00  0.32088237746E+03  0.32088237750E+03  0.50400001928E-02 0. -1.
        1   -1    0    0  501    0  0.00000000000E+00  0.00000000000E+00 -0.63299607081E+03  0.63299607083E+03  0.50400001928E-02 0.  1.
    10030    2    1    2    0    0  0.00000000000E+00  0.00000000000E+00 -0.31211369336E+03  0.95387844833E+03  0.90137069877E+03 0.  0.
        4    1    3    3  502    0  0.15245183341E+03 -0.23123552259E+03  0.22018788385E+03  0.35383010826E+03  0.12699999809E+01 0. -1.
       -4    1    3    3    0  502 -0.15245183341E+03  0.23123552259E+03 -0.53230157720E+03  0.60004834006E+03  0.12699999809E+01 0.  1.
</event>
<event>
 5   0  0.1177712E-02  0.9103149E+03  0.7818609E-02  0.9412778E-01
        1   -1    0    0  501    0  0.00000000000E+00  0.00000000000E+00  0.10653079764E+04  0.10653079764E+04  0.50400001928E-02 0.  1.
       -1   -1    0    0    0  501  0.00000000000E+00  0.00000000000E+00 -0.19446801287E+03  0.19446801294E+03  0.50400001928E-02 0. -1.
    10030    2    1    2    0    0  0.00000000000E+00  0.00000000000E+00  0.87083996349E+03  0.12597759893E+04  0.91031494618E+03 0.  0.
        5    1    3    3  502    0  0.16002423814E+03  0.31427577374E+03  0.37279740239E+02  0.35466729168E+03  0.46999998093E+01 0. -1.
       -5    1    3    3    0  502 -0.16002423814E+03 -0.31427577374E+03  0.83356022325E+03  0.90510869764E+03  0.46999998093E+01 0.  1.
</event>
<event>
 5   0  0.1968763E-02  0.7135575E+03  0.7818609E-02  0.9694324E-01
       -2   -1    0    0    0  501  0.00000000000E+00  0.00000000000E+00  0.78051141557E+03  0.78051141558E+03  0.25500000920E-02 0.  1.
        2   -1    0    0  501    0  0.00000000000E+00  0.00000000000E+00 -0.16308676051E+03  0.16308676053E+03  0.25500000920E-02 0. -1.
    10030    2    1    2    0    0  0.00000000000E+00  0.00000000000E+00  0.61742465506E+03  0.94359817611E+03  0.71355750524E+03 0.  0.
        2    1    3    3  502    0 -0.20541155650E+03  0.19166319416E+03  0.17900547101E+02  0.28151219713E+03  0.25500000920E-02 0. -1.
       -2    1    3    3    0  502  0.20541155650E+03 -0.19166319416E+03  0.59952410796E+03  0.66208597899E+03  0.25500000920E-02 0.  1.
</event>
<event>
 5   0  0.1968763E-02  0.9095591E+03  0.7818609E-02  0.9413710E-01
        2   -1    0    0  501    0  0.00000000000E+00  0.00000000000E+00  0.14183888568E+04  0.14183888568E+04  0.25500000920E-02 0. -1.
       -2   -1    0    0    0  501  0.00000000000E+00  0.00000000000E+00 -0.14581644897E+03  0.14581644900E+03  0.25500000920E-02 0.  1.
    10030    2    1    2    0    0  0.00000000000E+00  0.00000000000E+00  0.12725724079E+04  0.15642053058E+04  0.90955907205E+03 0.  0.
        2    1    3    3  502    0 -0.32133947682E+03  0.15041619562E+03  0.11255525498E+04  0.11801494115E+04  0.25500000920E-02 0. -1.
       -2    1    3    3    0  502  0.32133947682E+03 -0.15041619562E+03  0.14701985811E+03  0.38405589431E+03  0.25500000920E-02 0.  1.
</event>
<event>
 5   0  0.1175993E-02  0.9039494E+03  0.7818609E-02  0.9420658E-01
        1   -1    0    0  501    0  0.00000000000E+00  0.00000000000E+00  0.25879605270E+04  0.25879605270E+04  0.50400001928E-02 0.  1.
       -1   -1    0    0    0  501  0.00000000000E+00  0.00000000000E+00 -0.78935186313E+02  0.78935186474E+02  0.50400001928E-02 0. -1.
    10030    2    1    2    0    0  0.00000000000E+00  0.00000000000E+00  0.25090253407E+04  0.26668957135E+04  0.90394943795E+03 0.  0.
        4    1    3    3  502    0 -0.23533140459E+03 -0.20945739631E+03  0.29839608812E+03  0.43392984360E+03  0.12699999809E+01 0. -1.
       -4    1    3    3    0  502  0.23533140459E+03  0.20945739631E+03  0.22106292526E+04  0.22329658699E+04  0.12699999809E+01 0.  1.
</event>
<event>
 5   0  0.2008643E-02  0.8868857E+03  0.7818609E-02  0.9442125E-01
       -2   -1    0    0    0  501  0.00000000000E+00  0.00000000000E+00  0.96390142256E+03  0.96390142257E+03  0.25500000920E-02 0. -1.
        2   -1    0    0  501    0  0.00000000000E+00  0.00000000000E+00 -0.20400587229E+03  0.20400587230E+03  0.25500000920E-02 0.  1.
    10030    2    1    2    0    0  0.00000000000E+00  0.00000000000E+00  0.75989555028E+03  0.11679072949E+04  0.88688567588E+03 0.  0.
        3    1    3    3  502    0 -0.43098722893E+03  0.10247918078E+03  0.40593928062E+03  0.60086494634E+03  0.10100000352E+00 0.  1.
       -3    1    3    3    0  502  0.43098722893E+03 -0.10247918078E+03  0.35395626966E+03  0.56704234853E+03  0.10100000352E+00 0. -1.
</event>
<event>
 5   0  0.2008643E-02  0.8847613E+03  0.7818609E-02  0.9444834E-01
        2   -1    0    0  501    0  0.00000000000E+00  0.00000000000E+00  0.79748852627E+03  0.79748852627E+03  0.25500000920E-02 0.  1.
       -2   -1    0    0    0  501  0.00000000000E+00  0.00000000000E+00 -0.24539618323E+03  0.24539618325E+03  0.25500000920E-02 0. -1.
    10030    2    1    2    0    0  0.00000000000E+00  0.00000000000E+00  0.55209234304E+03  0.10428847095E+04  0.88476130233E+03 0.  0.
        3    1    3    3  502    0  0.56594195812E+01 -0.16972782676E+03  0.75753663281E+03  0.77633840846E+03  0.10100000352E+00 0.  1.
       -3    1    3    3    0  502 -0.56594195812E+01  0.16972782676E+03 -0.20544428977E+03  0.26654630106E+03  0.10100000352E+00 0. -1.
</event>
<event>
 5   0  0.1924218E-02  0.9048486E+03  0.7818609E-02  0.9419541E-01
       -2   -1    0    0    0  501  0.00000000000E+00  0.00000000000E+00  0.11791552755E+03  0.11791552758E+03  0.25500000920E-02 0.  1.
        2   -1    0    0  501    0  0.00000000000E+00  0.00000000000E+00 -0.17358846945E+04  0.17358846945E+04  0.25500000920E-02 0. -1.
    10030    2    1    2    0    0  0.00000000000E+00  0.00000000000E+00 -0.16179691669E+04  0.18538002221E+04  0.90484862721E+03 0.  0.
        4    1    3    3  502    0 -0.16939096848E+03  0.36381060276E+03 -0.12369443621E+04  0.13004170188E+04  0.12699999809E+01 0. -1.
       -4    1    3    3    0  502  0.16939096848E+03 -0.36381060276E+03 -0.38102480483E+03  0.55338320328E+03  0.12699999809E+01 0.  1.
</event>
<event>
 5   0  0.1175993E-02  0.9040488E+03  0.7818609E-02  0.9420534E-01
       -1   -1    0    0    0  501  0.00000000000E+00  0.00000000000E+00  0.90982279253E+03  0.90982279254E+03  0.50400001928E-02 0.  1.
        1   -1    0    0  501    0  0.00000000000E+00  0.00000000000E+00 -0.22457787017E+03  0.22457787022E+03  0.50400001928E-02 0. -1.
    10030    2    1    2    0    0  0.00000000000E+00  0.00000000000E+00  0.68524492236E+03  0.11344006628E+04  0.90404881509E+03 0.  0.
        4    1    3    3  502    0  0.42369282225E+03 -0.47988188841E+02  0.15437742314E+03  0.45348922321E+03  0.12699999809E+01 0. -1.
       -4    1    3    3    0  502 -0.42369282225E+03  0.47988188841E+02  0.53086749922E+03  0.68091143956E+03  0.12699999809E+01 0.  1.
</event>
<event>
 5   0  0.1175993E-02  0.9115933E+03  0.7818609E-02  0.9411204E-01
       -1   -1    0    0    0  501  0.00000000000E+00  0.00000000000E+00  0.26225977249E+03  0.26225977254E+03  0.50400001928E-02 0.  1.
        1   -1    0    0  501    0  0.00000000000E+00  0.00000000000E+00 -0.79215581893E+03  0.79215581894E+03  0.50400001928E-02 0. -1.
    10030    2    1    2    0    0  0.00000000000E+00  0.00000000000E+00 -0.52989604643E+03  0.10544155915E+04  0.91159334110E+03 0.  0.
        4    1    3    3  502    0 -0.53346144250E+02  0.22260552382E+02 -0.78789691414E+03  0.79001550840E+03  0.12699999809E+01 0. -1.
       -4    1    3    3    0  502  0.53346144250E+02 -0.22260552382E+02  0.25800086771E+03  0.26440008309E+03  0.12699999809E+01 0.  1.
</event>
<event>
 5   0  0.2041861E-02  0.8983742E+03  0.7818609E-02  0.9427616E-01
        2   -1    0    0  501    0  0.00000000000E+00  0.00000000000E+00  0.52296917170E+03  0.52296917170E+03  0.25500000920E-02 0. -1.
       -2   -1    0    0    0  501  0.00000000000E+00  0.00000000000E+00 -0.38581442606E+03  0.38581442606E+03  0.25500000920E-02 0.  1.
    10030    2    1    2    0    0  0.00000000000E+00  0.00000000000E+00  0.13715474564E+03  0.90878359777E+03  0.89837420005E+03 0.  0.
        5    1    3    3  502    0  0.93454884454E+02 -0.24033515767E+02 -0.37518026931E+03  0.38741934617E+03  0.46999998093E+01 0.  1.
       -5    1    3    3    0  502 -0.93454884454E+02  0.24033515767E+02  0.51233501495E+03  0.52136425160E+03  0.46999998093E+01 0. -1.
</event>
<event>
 5   0  0.1175993E-02  0.9003350E+03  0.7818609E-02  0.9425163E-01
       -1   -1    0    0    0  501  0.00000000000E+00  0.00000000000E+00  0.24239894922E+03  0.24239894927E+03  0.50400001928E-02 0.  1.
        1   -1    0    0  501    0  0.00000000000E+00  0.00000000000E+00 -0.83602163036E+03  0.83602163037E+03  0.50400001928E-02 0. -1.
    10030    2    1    2    0    0  0.00000000000E+00  0.00000000000E+00 -0.59362268114E+03  0.10784205796E+04  0.90033497046E+03 0.  0.
        4    1    3    3  502    0 -0.16475148839E+03 -0.10746216141E+03  0.18819825516E+03  0.27223402654E+03  0.12699999809E+01 0.  1.
       -4    1    3    3    0  502  0.16475148839E+03  0.10746216141E+03 -0.78182093630E+03  0.80618655310E+03  0.12699999809E+01 0. -1.
</event>
<event>
 5   0  0.2008643E-02  0.8903523E+03  0.7818609E-02  0.9437723E-01
        2   -1    0    0  501    0  0.00000000000E+00  0.00000000000E+00  0.77370211462E+03  0.77370211462E+03  0.25500000920E-02 0.  1.
       -2   -1    0    0    0  501  0.00000000000E+00  0.00000000000E+00 -0.25614742091E+03  0.25614742092E+03  0.25500000920E-02 0. -1.
    10030    2    1    2    0    0  0.00000000000E+00  0.00000000000E+00  0.51755469371E+03  0.10298495355E+04  0.89035229256E+03 0.  0.
        3    1    3    3  502    0  0.29525645581E+03 -0.51730268209E+02 -0.12192456373E+03  0.32360161431E+03  0.10100000352E+00 0. -1.
       -3    1    3    3    0  502 -0.29525645581E+03  0.51730268209E+02  0.63947925744E+03  0.70624792123E+03  0.10100000352E+00 0.  1.
</event>
<event>
 5   0  0.2008643E-02  0.9171943E+03  0.7818609E-02  0.9404339E-01
        2   -1    0    0  501    0  0.00000000000E+00  0.00000000000E+00  0.53659251105E+03  0.53659251106E+03  0.25500000920E-02 0.  1.
       -2   -1    0    0    0  501  0.00000000000E+00  0.00000000000E+00 -0.39193861431E+03  0.39193861431E+03  0.25500000920E-02 0. -1.
    10030    2    1    2    0    0  0.00000000000E+00  0.00000000000E+00  0.14465389675E+03  0.92853112538E+03  0.91719425475E+03 0.  0.
        3    1    3    3  502    0  0.13026502006E+03 -0.37597211698E+03 -0.15849855989E+03  0.42830574580E+03  0.10100000352E+00 0. -1.
       -3    1    3    3    0  502 -0.13026502006E+03  0.37597211698E+03  0.30315245664E+03  0.50022537957E+03  0.10100000352E+00 0.  1.
</event>
<event>
 5   0  0.1175993E-02  0.9005016E+03  0.7818609E-02  0.9424955E-01
       -1   -1    0    0    0  501  0.00000000000E+00  0.00000000000E+00  0.91709637730E+03  0.91709637731E+03  0.50400001928E-02 0.  1.
        1   -1    0    0  501    0  0.00000000000E+00  0.00000000000E+00 -0.22105177870E+03  0.22105177876E+03  0.50400001928E-02 0. -1.
    10030    2    1    2    0    0  0.00000000000E+00  0.00000000000E+00  0.69604459860E+03  0.11381481561E+04  0.90050160573E+03 0.  0.
        4    1    3    3  502    0  0.24956531021E+03 -0.15119049518E+03 -0.85374936988E+02  0.30402615456E+03  0.12699999809E+01 0. -1.
       -4    1    3    3    0  502 -0.24956531021E+03  0.15119049518E+03  0.78141953559E+03  0.83412200150E+03  0.12699999809E+01 0.  1.
</event>
<event>
 5   0  0.1206541E-02  0.8938093E+03  0.7818609E-02  0.9433353E-01
        1   -1    0    0  501    0  0.00000000000E+00  0.00000000000E+00  0.54492261297E+03  0.54492261299E+03  0.50400001928E-02 0. -1.
       -1   -1    0    0    0  501  0.00000000000E+00  0.00000000000E+00 -0.36651767520E+03  0.36651767523E+03  0.50400001928E-02 0.  1.
    10030    2    1    2    0    0  0.00000000000E+00  0.00000000000E+00  0.17840493777E+03  0.91144028822E+03  0.89380930694E+03 0.  0.
        3    1    3    3  502    0 -0.70698325452E+02  0.37905433012E+03  0.31958673144E+03  0.50081546254E+03  0.10100000352E+00 0. -1.
       -3    1    3    3    0  502  0.70698325452E+02 -0.37905433012E+03 -0.14118179366E+03  0.41062482568E+03  0.10100000352E+00 0.  1.
</event>
<event>
 5   0  0.1175993E-02  0.8977432E+03  0.7818609E-02  0.9428407E-01
        1   -1    0    0  501    0  0.00000000000E+00  0.00000000000E+00  0.78881442618E+03  0.78881442619E+03  0.50400001928E-02 0.  1.
       -1   -1    0    0    0  501  0.00000000000E+00  0.00000000000E+00 -0.25542851294E+03  0.25542851299E+03  0.50400001928E-02 0. -1.
    10030    2    1    2    0    0  0.00000000000E+00  0.00000000000E+00  0.53338591323E+03  0.10442429392E+04  0.89774316127E+03 0.  0.
        4    1    3    3  502    0 -0.35056399598E+03 -0.66295383043E+02  0.58352822036E+03  0.68395686264E+03  0.12699999809E+01 0.  1.
       -4    1    3    3    0  502  0.35056399598E+03  0.66295383043E+02 -0.50142307129E+02  0.36028607655E+03  0.12699999809E+01 0. -1.
</event>
<event>
 5   0  0.2041861E-02  0.6956028E+03  0.7818609E-02  0.9724782E-01
       -2   -1    0    0    0  501  0.00000000000E+00  0.00000000000E+00  0.27349669265E+03  0.27349669266E+03  0.25500000920E-02 0.  1.
        2   -1    0    0  501    0  0.00000000000E+00  0.00000000000E+00 -0.44229353508E+03  0.44229353509E+03  0.25500000920E-02 0. -1.
    10030    2    1    2    0    0  0.00000000000E+00  0.00000000000E+00 -0.16879684244E+03  0.71579022775E+03  0.69560281492E+03 0.  0.
        5    1    3    3  502    0 -0.10121431968E+02 -0.12055105005E+03 -0.41991107108E+03  0.43701532773E+03  0.46999998093E+01 0. -1.
       -5    1    3    3    0  502  0.10121431968E+02  0.12055105005E+03  0.25111422865E+03  0.27877490002E+03  0.46999998093E+01 0.  1.
</event>
<event>
 5   0  0.1175993E-02  0.9054119E+03  0.7818609E-02  0.9418841E-01
        1   -1    0    0  501    0  0.00000000000E+00  0.00000000000E+00  0.23538878490E+04  0.23538878490E+04  0.50400001928E-02 0. -1.
       -1   -1    0    0    0  501  0.00000000000E+00  0.00000000000E+00 -0.87065614917E+02  0.87065615063E+02  0.50400001928E-02 0.  1.
    10030    2    1    2    0    0  0.00000000000E+00  0.00000000000E+00  0.22668222341E+04  0.24409534640E+04  0.90541193542E+03 0.  0.
        4    1    3    3  502    0 -0.27965777054E+03 -0.29219592162E+03  0.16816538207E+04  0.17296092365E+04  0.12699999809E+01 0.  1.
       -4    1    3    3    0  502  0.27965777054E+03  0.29219592162E+03  0.58516841334E+03  0.71134422757E+03  0.12699999809E+01 0. -1.
</event>
<event>
 5   0  0.7893875E-03  0.9021010E+03  0.7818609E-02  0.9422959E-01
        3   -1    0    0  501    0  0.00000000000E+00  0.00000000000E+00  0.30358250245E+03  0.30358251925E+03  0.10100000352E+00 0.  1.
       -3   -1    0    0    0  501  0.00000000000E+00  0.00000000000E+00 -0.67015245259E+03  0.67015246020E+03  0.10100000352E+00 0. -1.
    10030    2    1    2    0    0  0.00000000000E+00  0.00000000000E+00 -0.36656995014E+03  0.97373497945E+03  0.90210103750E+03 0.  0.
        2    1    3    3  502    0 -0.11727794639E+03 -0.13632869388E+03 -0.62978285663E+03  0.65495501830E+03  0.25500000920E-02 0. -1.
       -2    1    3    3    0  502  0.11727794639E+03  0.13632869388E+03  0.26321290648E+03  0.31877996115E+03  0.25500000920E-02 0.  1.
</event>
<event>
 5   0  0.1162839E-02  0.9791177E+03  0.7818609E-02  0.9331749E-01
       -1   -1    0    0    0  501  0.00000000000E+00  0.00000000000E+00  0.21328561984E+03  0.21328561990E+03  0.50400001928E-02 0. -1.
        1   -1    0    0  501    0  0.00000000000E+00  0.00000000000E+00 -0.11236945494E+04  0.11236945494E+04  0.50400001928E-02 0.  1.
    10030    2    1    2    0    0  0.00000000000E+00  0.00000000000E+00 -0.91040892955E+03  0.13369801693E+04  0.97911774271E+03 0.  0.
        2    1    3    3  502    0 -0.10347890101E+03  0.64549876974E+02 -0.11026179554E+04  0.11093425643E+04  0.25500000920E-02 0.  1.
       -2    1    3    3    0  502  0.10347890101E+03 -0.64549876974E+02  0.19220902582E+03  0.22763760494E+03  0.25500000920E-02 0. -1.
</event>
<event>
 5   0  0.1177712E-02  0.8327929E+03  0.7818609E-02  0.9513727E-01
       -1   -1    0    0    0  501  0.00000000000E+00  0.00000000000E+00  0.17180201614E+03  0.17180201621E+03  0.50400001928E-02 0.  1.
        1   -1    0    0  501    0  0.00000000000E+00  0.00000000000E+00 -0.10092198743E+04  0.10092198743E+04  0.50400001928E-02 0. -1.
    10030    2    1    2    0    0  0.00000000000E+00  0.00000000000E+00 -0.83741785818E+03  0.11810218905E+04  0.83279291347E+03 0.  0.
        5    1    3    3  502    0  0.24645694978E+03  0.33458656128E+03 -0.38187194736E+03  0.56439123776E+03  0.46999998093E+01 0. -1.
       -5    1    3    3    0  502 -0.24645694978E+03 -0.33458656128E+03 -0.45554591082E+03  0.61663065278E+03  0.46999998093E+01 0.  1.
</event>
<event>
 5   0  0.1968763E-02  0.6337498E+03  0.7818609E-02  0.9837759E-01
        2   -1    0    0  501    0  0.00000000000E+00  0.00000000000E+00  0.56476666704E+03  0.56476666705E+03  0.25500000920E-02 0.  1.
       -2   -1    0    0    0  501  0.00000000000E+00  0.00000000000E+00 -0.17778971564E+03  0.17778971566E+03  0.25500000920E-02 0. -1.
    10030    2    1    2    0    0  0.00000000000E+00  0.00000000000E+00  0.38697695140E+03  0.74255638271E+03  0.63374980914E+03 0.  0.
        2    1    3    3  502    0 -0.30405383744E+03 -0.84670910144E+02  0.16051831971E+03  0.35409607462E+03  0.25500000920E-02 0.  1.
       -2    1    3    3    0  502  0.30405383744E+03  0.84670910144E+02  0.22645863169E+03  0.38846030809E+03  0.25500000920E-02 0. -1.
</event>
<event>
 5   0  0.1924218E-02  0.8768471E+03  0.7818609E-02  0.9454996E-01
       -2   -1    0    0    0  501  0.00000000000E+00  0.00000000000E+00  0.24063884396E+03  0.24063884398E+03  0.25500000920E-02 0. -1.
        2   -1    0    0  501    0  0.00000000000E+00  0.00000000000E+00 -0.79877057386E+03  0.79877057386E+03  0.25500000920E-02 0.  1.
    10030    2    1    2    0    0  0.00000000000E+00  0.00000000000E+00 -0.55813172989E+03  0.10394094178E+04  0.87684714174E+03 0.  0.
        4    1    3    3  502    0 -0.23657388433E+03 -0.13568436061E+03  0.12784759796E+03  0.30120436529E+03  0.12699999809E+01 0. -1.
       -4    1    3    3    0  502  0.23657388433E+03  0.13568436061E+03 -0.68597932785E+03  0.73820505255E+03  0.12699999809E+01 0.  1.
</event>
<event>
 5   0  0.2008643E-02  0.9022477E+03  0.7818609E-02  0.9422776E-01
        2   -1    0    0  501    0  0.00000000000E+00  0.00000000000E+00  0.76133800793E+03  0.76133800794E+03  0.25500000920E-02 0.  1.
       -2   -1    0    0    0  501  0.00000000000E+00  0.00000000000E+00 -0.26730932467E+03  0.26730932469E+03  0.25500000920E-02 0. -1.
    10030    2    1    2    0    0  0.00000000000E+00  0.00000000000E+00  0.49402868326E+03  0.10286473326E+04  0.90224774593E+03 0.  0.
        3    1    3    3  502    0  0.11231131379E+03 -0.15569100247E+03  0.71244540993E+03  0.73785634902E+03  0.10100000352E+00 0.  1.
       -3    1    3    3    0  502 -0.11231131379E+03  0.15569100247E+03 -0.21841672667E+03  0.29079098361E+03  0.10100000352E+00 0. -1.
</event>
<event>
 5   0  0.1175993E-02  0.9075698E+03  0.7818609E-02  0.9416168E-01
       -1   -1    0    0    0  501  0.00000000000E+00  0.00000000000E+00  0.29956594697E+03  0.29956594701E+03  0.50400001928E-02 0.  1.
        1   -1    0    0  501    0  0.00000000000E+00  0.00000000000E+00 -0.68739695535E+03  0.68739695537E+03  0.50400001928E-02 0. -1.
    10030    2    1    2    0    0  0.00000000000E+00  0.00000000000E+00 -0.38783100839E+03  0.98696290238E+03  0.90756976570E+03 0.  0.
        4    1    3    3  502    0 -0.16147358944E+02 -0.12548797027E+03 -0.66782567418E+03  0.67970634239E+03  0.12699999809E+01 0. -1.
       -4    1    3    3    0  502  0.16147358944E+02  0.12548797027E+03  0.27999466580E+03  0.30725655999E+03  0.12699999809E+01 0.  1.
</event>
<event>
 5   0  0.1206541E-02  0.9035081E+03  0.7818609E-02  0.9421207E-01
        1   -1    0    0  501    0  0.00000000000E+00  0.00000000000E+00  0.63764638310E+03  0.63764638312E+03  0.50400001928E-02 0. -1.
       -1   -1    0    0    0  501  0.00000000000E+00  0.00000000000E+00 -0.32005471487E+03  0.32005471491E+03  0.50400001928E-02 0.  1.
    10030    2    1    2    0    0  0.00000000000E+00  0.00000000000E+00  0.31759166823E+03  0.95770109803E+03  0.90350812140E+03 0.  0.
        3    1    3    3  502    0  0.30468341160E+03  0.14309518095E+03 -0.16056193574E+03  0.37294551549E+03  0.10100000352E+00 0.  1.
       -3    1    3    3    0  502 -0.30468341160E+03 -0.14309518095E+03  0.47815360396E+03  0.58475558253E+03  0.10100000352E+00 0. -1.
</event>
<event>
 5   0  0.1177712E-02  0.9025664E+03  0.7818609E-02  0.9422379E-01
       -1   -1    0    0    0  501  0.00000000000E+00  0.00000000000E+00  0.88149329577E+03  0.88149329578E+03  0.50400001928E-02 0.  1.
        1   -1    0    0  501    0  0.00000000000E+00  0.00000000000E+00 -0.23103582835E+03  0.23103582841E+03  0.50400001928E-02 0. -1.
    10030    2    1    2    0    0  0.00000000000E+00  0.00000000000E+00  0.65045746742E+03  0.11125291242E+04  0.90256641598E+03 0.  0.
        5    1    3    3  502    0 -0.19450890357E+03 -0.19158241375E+03 -0.11765541966E+03  0.29732544896E+03  0.46999998093E+01 0. -1.
       -5    1    3    3    0  502  0.19450890357E+03  0.19158241375E+03  0.76811288707E+03  0.81520367523E+03  0.46999998093E+01 0.  1.
</event>
<event>
 5   0  0.1177712E-02  0.8985027E+03  0.7818609E-02  0.9427455E-01
        1   -1    0    0  501    0  0.00000000000E+00  0.00000000000E+00  0.32828958770E+03  0.32828958774E+03  0.50400001928E-02 0.  1.
       -1   -1    0    0    0  501  0.00000000000E+00  0.00000000000E+00 -0.61478275504E+03  0.61478275506E+03  0.50400001928E-02 0. -1.
    10030    2    1    2    0    0  0.00000000000E+00  0.00000000000E+00 -0.28649316734E+03  0.94307234279E+03  0.89850270384E+03 0.  0.
        5    1    3    3  502    0  0.23931022013E+03 -0.29031773790E+01 -0.54227142162E+03  0.59275475080E+03  0.46999998093E+01 0. -1.
       -5    1    3    3    0  502 -0.23931022013E+03  0.29031773790E+01  0.25577825428E+03  0.35031759199E+03  0.46999998093E+01 0.  1.
</event>
<event>
 5   0  0.1968763E-02  0.8975154E+03  0.7818609E-02  0.9428693E-01
       -2   -1    0    0    0  501  0.00000000000E+00  0.00000000000E+00  0.16041966307E+03  0.16041966309E+03  0.25500000920E-02 0.  1.
        2   -1    0    0  501    0  0.00000000000E+00  0.00000000000E+00 -0.12553541753E+04  0.12553541753E+04  0.25500000920E-02 0. -1.
    10030    2    1    2    0    0  0.00000000000E+00  0.00000000000E+00 -0.10949345122E+04  0.14157738384E+04  0.89751544576E+03 0.  0.
        2    1    3    3  502    0  0.28391602052E+03  0.33256375347E+02 -0.17808353913E+01  0.28586266736E+03  0.25500000920E-02 0.  1.
       -2    1    3    3    0  502 -0.28391602052E+03 -0.33256375347E+02 -0.10931536768E+04  0.11299111710E+04  0.25500000920E-02 0. -1.
</event>
<event>
 5   0  0.1968763E-02  0.8256094E+03  0.7818609E-02  0.9523671E-01
        2   -1    0    0  501    0  0.00000000000E+00  0.00000000000E+00  0.53837181292E+03  0.53837181293E+03  0.25500000920E-02 0.  1.
       -2   -1    0    0    0  501  0.00000000000E+00  0.00000000000E+00 -0.31652426228E+03  0.31652426229E+03  0.25500000920E-02 0. -1.
    10030    2    1    2    0    0  0.00000000000E+00  0.00000000000E+00  0.22184755063E+03  0.85489607522E+03  0.82560944986E+03 0.  0.
        2    1    3    3  502    0 -0.15723976030E+03  0.11868386109E+03 -0.26470819925E+03  0.32997065303E+03  0.25500000920E-02 0. -1.
       -2    1    3    3    0  502  0.15723976030E+03 -0.11868386109E+03  0.48655574989E+03  0.52492542219E+03  0.25500000920E-02 0.  1.
</event>
<event>
 5   0  0.1226424E-02  0.9129477E+03  0.7818609E-02  0.9409539E-01
        1   -1    0    0  501    0  0.00000000000E+00  0.00000000000E+00  0.71526103482E+03  0.71526103484E+03  0.50400001928E-02 0.  1.
       -1   -1    0    0    0  501  0.00000000000E+00  0.00000000000E+00 -0.29131794664E+03  0.29131794668E+03  0.50400001928E-02 0. -1.
    10030    2    1    2    0    0  0.00000000000E+00  0.00000000000E+00  0.42394308819E+03  0.10065789815E+04  0.91294770059E+03 0.  0.
        1    1    3    3  502    0  0.68539876913E+02 -0.13307676156E+03 -0.26348756411E+03  0.30303933022E+03  0.50400001928E-02 0. -1.
       -1    1    3    3    0  502 -0.68539876913E+02  0.13307676156E+03  0.68743065230E+03  0.70353965129E+03  0.50400001928E-02 0.  1.
</event>
<event>
 5   0  0.1175993E-02  0.9055190E+03  0.7818609E-02  0.9418709E-01
       -1   -1    0    0    0  501  0.00000000000E+00  0.00000000000E+00  0.26928920557E+03  0.26928920561E+03  0.50400001928E-02 0. -1.
        1   -1    0    0  501    0  0.00000000000E+00  0.00000000000E+00 -0.76123051879E+03  0.76123051880E+03  0.50400001928E-02 0.  1.
    10030    2    1    2    0    0  0.00000000000E+00  0.00000000000E+00 -0.49194131322E+03  0.10305197244E+04  0.90551899304E+03 0.  0.
        4    1    3    3  502    0 -0.34711294298E+03  0.28097838414E+03 -0.16116313701E+03  0.47477512274E+03  0.12699999809E+01 0. -1.
       -4    1    3    3    0  502  0.34711294298E+03 -0.28097838414E+03 -0.33077817621E+03  0.55574460168E+03  0.12699999809E+01 0.  1.
</event>
<event>
 5   0  0.2008770E-02  0.8991275E+03  0.7818609E-02  0.9426673E-01
       -2   -1    0    0    0  501  0.00000000000E+00  0.00000000000E+00  0.22616865497E+03  0.22616865498E+03  0.25500000920E-02 0.  1.
        2   -1    0    0  501    0  0.00000000000E+00  0.00000000000E+00 -0.89361437384E+03  0.89361437385E+03  0.25500000920E-02 0. -1.
    10030    2    1    2    0    0  0.00000000000E+00  0.00000000000E+00 -0.66744571888E+03  0.11197830288E+04  0.89912749040E+03 0.  0.
        1    1    3    3  502    0  0.28213261127E+03 -0.20396078800E+03 -0.68797325531E+03  0.77104216061E+03  0.50400001928E-02 0.  1.
       -1    1    3    3    0  502 -0.28213261127E+03  0.20396078800E+03  0.20527536436E+02  0.34874086822E+03  0.50400001928E-02 0. -1.
</event>
<event>
 5   0  0.2041861E-02  0.8982847E+03  0.7818609E-02  0.9427728E-01
       -2   -1    0    0    0  501  0.00000000000E+00  0.00000000000E+00  0.17612002615E+03  0.17612002617E+03  0.25500000920E-02 0.  1.
        2   -1    0    0  501    0  0.00000000000E+00  0.00000000000E+00 -0.11454055114E+04  0.11454055114E+04  0.25500000920E-02 0. -1.
    10030    2    1    2    0    0  0.00000000000E+00  0.00000000000E+00 -0.96928548529E+03  0.13215255376E+04  0.89828469572E+03 0.  0.
        5    1    3    3  502    0 -0.22950582248E+03 -0.20703606803E+03 -0.52822158488E+01  0.30917122735E+03  0.46999998093E+01 0.  1.
       -5    1    3    3    0  502  0.22950582248E+03  0.20703606803E+03 -0.96400326944E+03  0.10123543103E+04  0.46999998093E+01 0. -1.
</event>
<event>
 5   0  0.1162839E-02  0.9043662E+03  0.7818609E-02  0.9420140E-01
       -1   -1    0    0    0  501  0.00000000000E+00  0.00000000000E+00  0.26163979062E+03  0.26163979067E+03  0.50400001928E-02 0. -1.
        1   -1    0    0  501    0  0.00000000000E+00  0.00000000000E+00 -0.78149256179E+03  0.78149256181E+03  0.50400001928E-02 0.  1.
    10030    2    1    2    0    0  0.00000000000E+00  0.00000000000E+00 -0.51985277117E+03  0.10431323525E+04  0.90436618750E+03 0.  0.
        2    1    3    3  502    0 -0.38684329551E+03  0.91081921195E+02 -0.50872186420E+03  0.64555525462E+03  0.25500000920E-02 0.  1.
       -2    1    3    3    0  502  0.38684329551E+03 -0.91081921195E+02 -0.11130906974E+02  0.39757709786E+03  0.25500000920E-02 0. -1.
</event>
<event>
 5   0  0.1162839E-02  0.8946729E+03  0.7818609E-02  0.9432265E-01
       -1   -1    0    0    0  501  0.00000000000E+00  0.00000000000E+00  0.41337679615E+03  0.41337679618E+03  0.50400001928E-02 0. -1.
        1   -1    0    0  501    0  0.00000000000E+00  0.00000000000E+00 -0.48408592535E+03  0.48408592537E+03  0.50400001928E-02 0.  1.
    10030    2    1    2    0    0  0.00000000000E+00  0.00000000000E+00 -0.70709129197E+02  0.89746272155E+03  0.89467287632E+03 0.  0.
        2    1    3    3  502    0 -0.26895329463E+03  0.11942766538E+03 -0.37331916384E+03  0.47535885397E+03  0.25500000920E-02 0.  1.
       -2    1    3    3    0  502  0.26895329463E+03 -0.11942766538E+03  0.30261003464E+03  0.42210386758E+03  0.25500000920E-02 0. -1.
</event>
<event>
 5   0  0.1206541E-02  0.8838699E+03  0.7818609E-02  0.9445973E-01
        1   -1    0    0  501    0  0.00000000000E+00  0.00000000000E+00  0.11009432257E+04  0.11009432257E+04  0.50400001928E-02 0.  1.
       -1   -1    0    0    0  501  0.00000000000E+00  0.00000000000E+00 -0.17739924785E+03  0.17739924792E+03  0.50400001928E-02 0. -1.
    10030    2    1    2    0    0  0.00000000000E+00  0.00000000000E+00  0.92354397780E+03  0.12783424736E+04  0.88386990041E+03 0.  0.
        3    1    3    3  502    0  0.33538685392E+03  0.14048037939E+03  0.98501408639E+02  0.37672485514E+03  0.10100000352E+00 0. -1.
       -3    1    3    3    0  502 -0.33538685392E+03 -0.14048037939E+03  0.82504256916E+03  0.90161761845E+03  0.10100000352E+00 0.  1.
</event>
<event>
 5   0  0.2008643E-02  0.8560683E+03  0.7818609E-02  0.9482228E-01
        2   -1    0    0  501    0  0.00000000000E+00  0.00000000000E+00  0.16399417475E+04  0.16399417475E+04  0.25500000920E-02 0. -1.
       -2   -1    0    0    0  501  0.00000000000E+00  0.00000000000E+00 -0.11171936547E+03  0.11171936550E+03  0.25500000920E-02 0.  1.
    10030    2    1    2    0    0  0.00000000000E+00  0.00000000000E+00  0.15282223820E+04  0.17516611130E+04  0.85606834181E+03 0.  0.
        3    1    3    3  502    0  0.42523805885E+03  0.38462992746E+02  0.70250711496E+03  0.82208458523E+03  0.10100000352E+00 0.  1.
       -3    1    3    3    0  502 -0.42523805885E+03 -0.38462992746E+02  0.82571526707E+03  0.92957652777E+03  0.10100000352E+00 0. -1.
</event>
<event>
 5   0  0.1177712E-02  0.8979404E+03  0.7818609E-02  0.9428160E-01
       -1   -1    0    0    0  501  0.00000000000E+00  0.00000000000E+00  0.82584718777E+03  0.82584718779E+03  0.50400001928E-02 0.  1.
        1   -1    0    0  501    0  0.00000000000E+00  0.00000000000E+00 -0.24408179339E+03  0.24408179345E+03  0.50400001928E-02 0. -1.
    10030    2    1    2    0    0  0.00000000000E+00  0.00000000000E+00  0.58176539438E+03  0.10699289812E+04  0.89794044947E+03 0.  0.
        5    1    3    3  502    0  0.20084545214E+03 -0.24945213658E+03 -0.84000777362E+02  0.33112457578E+03  0.46999998093E+01 0. -1.
       -5    1    3    3    0  502 -0.20084545214E+03  0.24945213658E+03  0.66576617174E+03  0.73880440545E+03  0.46999998093E+01 0.  1.
</event>
<event>
 5   0  0.1162839E-02  0.8946453E+03  0.7818609E-02  0.9432300E-01
       -1   -1    0    0    0  501  0.00000000000E+00  0.00000000000E+00  0.27935789024E+03  0.27935789029E+03  0.50400001928E-02 0. -1.
        1   -1    0    0  501    0  0.00000000000E+00  0.00000000000E+00 -0.71627670552E+03  0.71627670554E+03  0.50400001928E-02 0.  1.
    10030    2    1    2    0    0  0.00000000000E+00  0.00000000000E+00 -0.43691881528E+03  0.99563459582E+03  0.89464529131E+03 0.  0.
        2    1    3    3  502    0 -0.37595327132E+03  0.25184777766E+01  0.51286153409E+02  0.37944363808E+03  0.25500000920E-02 0. -1.
       -2    1    3    3    0  502  0.37595327132E+03 -0.25184777766E+01 -0.48820496868E+03  0.61619095774E+03  0.25500000920E-02 0.  1.
</event>
<event>
 5   0  0.2008770E-02  0.8744884E+03  0.7818609E-02  0.9458046E-01
        2   -1    0    0  501    0  0.00000000000E+00  0.00000000000E+00  0.78646265041E+03  0.78646265042E+03  0.25500000920E-02 0. -1.
       -2   -1    0    0    0  501  0.00000000000E+00  0.00000000000E+00 -0.24309164398E+03  0.24309164400E+03  0.25500000920E-02 0.  1.
    10030    2    1    2    0    0  0.00000000000E+00  0.00000000000E+00  0.54337100643E+03  0.10295542944E+04  0.87448841874E+03 0.  0.
        1    1    3    3  502    0 -0.27592178679E+03 -0.13921702429E+03 -0.92463553647E+02  0.32258909011E+03  0.50400001928E-02 0.  1.
       -1    1    3    3    0  502  0.27592178679E+03  0.13921702429E+03  0.63583456008E+03  0.70696520430E+03  0.50400001928E-02 0. -1.
</event>
<event>
 5   0  0.2041861E-02  0.8997753E+03  0.7818609E-02  0.9425862E-01
        2   -1    0    0  501    0  0.00000000000E+00  0.00000000000E+00  0.63242863622E+03  0.63242863623E+03  0.25500000920E-02 0. -1.
       -2   -1    0    0    0  501  0.00000000000E+00  0.00000000000E+00 -0.32003437781E+03  0.32003437782E+03  0.25500000920E-02 0.  1.
    10030    2    1    2    0    0  0.00000000000E+00  0.00000000000E+00  0.31239425842E+03  0.95246301404E+03  0.89977531664E+03 0.  0.
        5    1    3    3  502    0 -0.14096745049E+03  0.34185133189E+03  0.42740802333E+03  0.56518480483E+03  0.46999998093E+01 0. -1.
       -5    1    3    3    0  502  0.14096745049E+03 -0.34185133189E+03 -0.11501376491E+03  0.38727820921E+03  0.46999998093E+01 0.  1.
</event>
<event>
 5   0  0.2041861E-02  0.9175366E+03  0.7818609E-02  0.9403922E-01
        2   -1    0    0  501    0  0.00000000000E+00  0.00000000000E+00  0.39389597740E+03  0.39389597741E+03  0.25500000920E-02 0. -1.
       -2   -1    0    0    0  501  0.00000000000E+00  0.00000000000E+00 -0.53432467689E+03  0.53432467690E+03  0.25500000920E-02 0.  1.
    10030    2    1    2    0    0  0.00000000000E+00  0.00000000000E+00 -0.14042869949E+03  0.92822065431E+03  0.91753657336E+03 0.  0.
        5    1    3    3  502    0 -0.50325058096E+02  0.31229731067E+03 -0.40632398658E+03  0.51495970113E+03  0.46999998093E+01 0.  1.
       -5    1    3    3    0  502  0.50325058096E+02 -0.31229731067E+03  0.26589528709E+03  0.41326095318E+03  0.46999998093E+01 0. -1.
</event>
<event>
 5   0  0.2041861E-02  0.9480373E+03  0.7818609E-02  0.9367448E-01
        2   -1    0    0  501    0  0.00000000000E+00  0.00000000000E+00  0.16763978195E+04  0.16763978195E+04  0.25500000920E-02 0.  1.
       -2   -1    0    0    0  501  0.00000000000E+00  0.00000000000E+00 -0.13403362806E+03  0.13403362808E+03  0.25500000920E-02 0. -1.
    10030    2    1    2    0    0  0.00000000000E+00  0.00000000000E+00  0.15423641914E+04  0.18104314475E+04  0.94803730272E+03 0.  0.
        5    1    3    3  502    0  0.46682844148E+01  0.47118791827E+03  0.86914880765E+03  0.98867668479E+03  0.46999998093E+01 0. -1.
       -5    1    3    3    0  502 -0.46682844148E+01 -0.47118791827E+03  0.67321538375E+03  0.82175476276E+03  0.46999998093E+01 0.  1.
</event>
<event>
 5   0  0.1968763E-02  0.8933643E+03  0.7818609E-02  0.9433915E-01
       -2   -1    0    0    0  501  0.00000000000E+00  0.00000000000E+00  0.16378768446E+03  0.16378768448E+03  0.25500000920E-02 0. -1.
        2   -1    0    0  501    0  0.00000000000E+00  0.00000000000E+00 -0.12181925681E+04  0.12181925681E+04  0.25500000920E-02 0.  1.
    10030    2    1    2    0    0  0.00000000000E+00  0.00000000000E+00 -0.10544048836E+04  0.13819802526E+04  0.89336429291E+03 0.  0.
        2    1    3    3  502    0 -0.25013108945E+03  0.26106078861E+03 -0.12142450358E+03  0.38139508037E+03  0.25500000920E-02 0. -1.
       -2    1    3    3    0  502  0.25013108945E+03 -0.26106078861E+03 -0.93298038004E+03  0.10005851722E+04  0.25500000920E-02 0.  1.
</event>
<event>
 5   0  0.1924218E-02  0.9038292E+03  0.7818609E-02  0.9420807E-01
        2   -1    0    0  501    0  0.00000000000E+00  0.00000000000E+00  0.89135349617E+03  0.89135349617E+03  0.25500000920E-02 0. -1.
       -2   -1    0    0    0  501  0.00000000000E+00  0.00000000000E+00 -0.22911988248E+03  0.22911988250E+03  0.25500000920E-02 0.  1.
    10030    2    1    2    0    0  0.00000000000E+00  0.00000000000E+00  0.66223361368E+03  0.11204733787E+04  0.90382920578E+03 0.  0.
        4    1    3    3  502    0 -0.11335322764E+03  0.33672420206E+03  0.67732961623E+03  0.76485891797E+03  0.12699999809E+01 0. -1.
       -4    1    3    3    0  502  0.11335322764E+03 -0.33672420206E+03 -0.15096002548E+02  0.35561446070E+03  0.12699999809E+01 0.  1.
</event>
<event>
 5   0  0.2008643E-02  0.9144530E+03  0.7818609E-02  0.9407693E-01
       -2   -1    0    0    0  501  0.00000000000E+00  0.00000000000E+00  0.19525580160E+03  0.19525580162E+03  0.25500000920E-02 0.  1.
        2   -1    0    0  501    0  0.00000000000E+00  0.00000000000E+00 -0.10706779885E+04  0.10706779885E+04  0.25500000920E-02 0. -1.
    10030    2    1    2    0    0  0.00000000000E+00  0.00000000000E+00 -0.87542218685E+03  0.12659337901E+04  0.91445303631E+03 0.  0.
        3    1    3    3  502    0  0.25118364545E+02  0.44960951069E+03 -0.32803648778E+03  0.55712439532E+03  0.10100000352E+00 0.  1.
       -3    1    3    3    0  502 -0.25118364545E+02 -0.44960951069E+03 -0.54738569907E+03  0.70880939475E+03  0.10100000352E+00 0. -1.
</event>
<event>
 5   0  0.2041861E-02  0.8942587E+03  0.7818609E-02  0.9432787E-01
       -2   -1    0    0    0  501  0.00000000000E+00  0.00000000000E+00  0.33901859939E+03  0.33901859940E+03  0.25500000920E-02 0.  1.
        2   -1    0    0  501    0  0.00000000000E+00  0.00000000000E+00 -0.58971592709E+03  0.58971592709E+03  0.25500000920E-02 0. -1.
    10030    2    1    2    0    0  0.00000000000E+00  0.00000000000E+00 -0.25069732769E+03  0.92873452649E+03  0.89425872687E+03 0.  0.
        5    1    3    3  502    0 -0.96293099462E+02 -0.41987131626E+03 -0.98968389687E+00  0.43079850591E+03  0.46999998093E+01 0.  1.
       -5    1    3    3    0  502  0.96293099462E+02  0.41987131626E+03 -0.24970764380E+03  0.49793602058E+03  0.46999998093E+01 0. -1.
</event>
<event>
 5   0  0.1924218E-02  0.8784898E+03  0.7818609E-02  0.9452877E-01
        2   -1    0    0  501    0  0.00000000000E+00  0.00000000000E+00  0.10303185733E+04  0.10303185733E+04  0.25500000920E-02 0. -1.
       -2   -1    0    0    0  501  0.00000000000E+00  0.00000000000E+00 -0.18725866763E+03  0.18725866765E+03  0.25500000920E-02 0.  1.
    10030    2    1    2    0    0  0.00000000000E+00  0.00000000000E+00  0.84305990567E+03  0.12175772410E+04  0.87848980253E+03 0.  0.
        4    1    3    3  502    0  0.22286355694E+03 -0.25006979472E+03  0.27725114680E+02  0.33611510250E+03  0.12699999809E+01 0.  1.
       -4    1    3    3    0  502 -0.22286355694E+03  0.25006979472E+03  0.81533479099E+03  0.88146213846E+03  0.12699999809E+01 0. -1.
</event>
<event>
 5   0  0.1177712E-02  0.8942311E+03  0.7818609E-02  0.9432822E-01
        1   -1    0    0  501    0  0.00000000000E+00  0.00000000000E+00  0.47044103016E+03  0.47044103019E+03  0.50400001928E-02 0. -1.
       -1   -1    0    0    0  501  0.00000000000E+00  0.00000000000E+00 -0.42494658143E+03  0.42494658146E+03  0.50400001928E-02 0.  1.
    10030    2    1    2    0    0  0.00000000000E+00  0.00000000000E+00  0.45494448731E+02  0.89538761165E+03  0.89423108324E+03 0.  0.
        5    1    3    3  502    0 -0.36933535600E+03  0.10417708761E+03  0.25245348595E+03  0.45936513074E+03  0.46999998093E+01 0. -1.
       -5    1    3    3    0  502  0.36933535600E+03 -0.10417708761E+03 -0.20695903722E+03  0.43602248091E+03  0.46999998093E+01 0.  1.
</event>
<event>
 5   0  0.2008770E-02  0.8392162E+03  0.7818609E-02  0.9504926E-01
        2   -1    0    0  501    0  0.00000000000E+00  0.00000000000E+00  0.99644354895E+03  0.99644354895E+03  0.25500000920E-02 0. -1.
       -2   -1    0    0    0  501  0.00000000000E+00  0.00000000000E+00 -0.17669937275E+03  0.17669937277E+03  0.25500000920E-02 0.  1.
    10030    2    1    2    0    0  0.00000000000E+00  0.00000000000E+00  0.81974417620E+03  0.11731429217E+04  0.83921618215E+03 0.  0.
        1    1    3    3  502    0 -0.31432447603E+03  0.16262775890E+03  0.72501565418E+03  0.80678086432E+03  0.50400001928E-02 0. -1.
       -1    1    3    3    0  502  0.31432447603E+03 -0.16262775890E+03  0.94728522013E+02  0.36636205740E+03  0.50400001928E-02 0.  1.
</event>
<event>
 5   0  0.1162839E-02  0.9180676E+03  0.7818609E-02  0.9403274E-01
        1   -1    0    0  501    0  0.00000000000E+00  0.00000000000E+00  0.33217081796E+03  0.33217081800E+03  0.50400001928E-02 0. -1.
       -1   -1    0    0    0  501  0.00000000000E+00  0.00000000000E+00 -0.63434842799E+03  0.63434842801E+03  0.50400001928E-02 0.  1.
    10030    2    1    2    0    0  0.00000000000E+00  0.00000000000E+00 -0.30217761002E+03  0.96651924601E+03  0.91806761456E+03 0.  0.
        2    1    3    3  502    0  0.19969795108E+03  0.39661328059E+02 -0.58421323273E+03  0.61867389949E+03  0.25500000920E-02 0.  1.
       -2    1    3    3    0  502 -0.19969795108E+03 -0.39661328059E+02  0.28203562271E+03  0.34784534651E+03  0.25500000920E-02 0. -1.
</event>
<event>
 5   0  0.2008643E-02  0.8672313E+03  0.7818609E-02  0.9467497E-01
        2   -1    0    0  501    0  0.00000000000E+00  0.00000000000E+00  0.10061997430E+04  0.10061997430E+04  0.25500000920E-02 0.  1.
       -2   -1    0    0    0  501  0.00000000000E+00  0.00000000000E+00 -0.18686403057E+03  0.18686403058E+03  0.25500000920E-02 0. -1.
    10030    2    1    2    0    0  0.00000000000E+00  0.00000000000E+00  0.81933571243E+03  0.11930637736E+04  0.86723131757E+03 0.  0.
        3    1    3    3  502    0 -0.21549382368E+03  0.11800784648E+03 -0.81867290854E+02  0.25897046818E+03  0.10100000352E+00 0. -1.
       -3    1    3    3    0  502  0.21549382368E+03 -0.11800784648E+03  0.90120300329E+03  0.93409330541E+03  0.10100000352E+00 0.  1.
</event>
<event>
 5   0  0.1175993E-02  0.8884663E+03  0.7818609E-02  0.9440115E-01
       -1   -1    0    0    0  501  0.00000000000E+00  0.00000000000E+00  0.86738218961E+03  0.86738218962E+03  0.50400001928E-02 0.  1.
        1   -1    0    0  501    0  0.00000000000E+00  0.00000000000E+00 -0.22751574962E+03  0.22751574967E+03  0.50400001928E-02 0. -1.
    10030    2    1    2    0    0  0.00000000000E+00  0.00000000000E+00  0.63986643999E+03  0.10948979393E+04  0.88846633951E+03 0.  0.
        4    1    3    3  502    0 -0.20080319565E+03  0.31227460238E+03  0.62054519109E+03  0.72312882515E+03  0.12699999809E+01 0.  1.
       -4    1    3    3    0  502  0.20080319565E+03 -0.31227460238E+03  0.19321248895E+02  0.37176911415E+03  0.12699999809E+01 0. -1.
</event>
<event>
 5   0  0.1226424E-02  0.9155043E+03  0.7818609E-02  0.9406405E-01
        1   -1    0    0  501    0  0.00000000000E+00  0.00000000000E+00  0.10653295266E+04  0.10653295266E+04  0.50400001928E-02 0.  1.
       -1   -1    0    0    0  501  0.00000000000E+00  0.00000000000E+00 -0.19668751289E+03  0.19668751296E+03  0.50400001928E-02 0. -1.
    10030    2    1    2    0    0  0.00000000000E+00  0.00000000000E+00  0.86864201371E+03  0.12620170396E+04  0.91550426552E+03 0.  0.
        1    1    3    3  502    0  0.29303852031E+03 -0.63326279671E+00  0.91908272613E+03  0.96466835384E+03  0.50400001928E-02 0.  1.
       -1    1    3    3    0  502 -0.29303852031E+03  0.63326279671E+00 -0.50440712426E+02  0.29734868573E+03  0.50400001928E-02 0. -1.
</event>
<event>
 5   0  0.1177712E-02  0.9181323E+03  0.7818609E-02  0.9403195E-01
        1   -1    0    0  501    0  0.00000000000E+00  0.00000000000E+00  0.26737468495E+03  0.26737468500E+03  0.50400001928E-02 0. -1.
       -1   -1    0    0    0  501  0.00000000000E+00  0.00000000000E+00 -0.78818871157E+03  0.78818871159E+03  0.50400001928E-02 0.  1.
    10030    2    1    2    0    0  0.00000000000E+00  0.00000000000E+00 -0.52081402662E+03  0.10555633966E+04  0.91813225294E+03 0.  0.
        5    1    3    3  502    0 -0.27417512772E+03 -0.34305443568E+03 -0.41405797037E+03  0.60359294175E+03  0.46999998093E+01 0.  1.
       -5    1    3    3    0  502  0.27417512772E+03  0.34305443568E+03 -0.10675605625E+03  0.45197045484E+03  0.46999998093E+01 0. -1.
</event>
<event>
 5   0  0.1924218E-02  0.9000266E+03  0.7818609E-02  0.9425548E-01
        2   -1    0    0  501    0  0.00000000000E+00  0.00000000000E+00  0.73406369570E+03  0.73406369571E+03  0.25500000920E-02 0. -1.
       -2   -1    0    0    0  501  0.00000000000E+00  0.00000000000E+00 -0.27587790002E+03  0.27587790003E+03  0.25500000920E-02 0.  1.
    10030    2    1    2    0    0  0.00000000000E+00  0.00000000000E+00  0.45818579568E+03  0.10099415957E+04  0.90002655707E+03 0.  0.
        4    1    3    3  502    0 -0.15691786255E+03 -0.39445305313E+03  0.61546895835E+02  0.42895927545E+03  0.12699999809E+01 0.  1.
       -4    1    3    3    0  502  0.15691786255E+03  0.39445305313E+03  0.39663889985E+03  0.58098232028E+03  0.12699999809E+01 0. -1.
</event>
<event>
 5   0  0.1162839E-02  0.8667578E+03  0.7818609E-02  0.9468117E-01
        1   -1    0    0  501    0  0.00000000000E+00  0.00000000000E+00  0.11192400243E+04  0.11192400243E+04  0.50400001928E-02 0.  1.
       -1   -1    0    0    0  501  0.00000000000E+00  0.00000000000E+00 -0.16780784624E+03  0.16780784632E+03  0.50400001928E-02 0. -1.
    10030    2    1    2    0    0  0.00000000000E+00  0.00000000000E+00  0.95143217806E+03  0.12870478706E+04  0.86675777000E+03 0.  0.
        2    1    3    3  502    0 -0.14148944601E+03 -0.86956041889E+01 -0.13240836332E+03  0.19397642008E+03  0.25500000920E-02 0. -1.
       -2    1    3    3    0  502  0.14148944601E+03  0.86956041889E+01  0.10838405414E+04  0.10930714505E+04  0.25500000920E-02 0.  1.
</event>
<event>
 5   0  0.1968763E-02  0.7603574E+03  0.7818609E-02  0.9619240E-01
        2   -1    0    0  501    0  0.00000000000E+00  0.00000000000E+00  0.20426487989E+03  0.20426487991E+03  0.25500000920E-02 0. -1.
       -2   -1    0    0    0  501  0.00000000000E+00  0.00000000000E+00 -0.70759024707E+03  0.70759024707E+03  0.25500000920E-02 0.  1.
    10030    2    1    2    0    0  0.00000000000E+00  0.00000000000E+00 -0.50332536718E+03  0.91185512698E+03  0.76035738134E+03 0.  0.
        2    1    3    3  502    0 -0.18129724156E+03 -0.15464521351E+03 -0.60691474121E+03  0.65201942836E+03  0.25500000920E-02 0.  1.
       -2    1    3    3    0  502  0.18129724156E+03  0.15464521351E+03  0.10358937403E+03  0.25983569862E+03  0.25500000920E-02 0. -1.
</event>
<event>
 5   0  0.7893875E-03  0.7620546E+03  0.7818609E-02  0.9616626E-01
       -3   -1    0    0    0  501  0.00000000000E+00  0.00000000000E+00  0.42002361152E+03  0.42002362366E+03  0.10100000352E+00 0.  1.
        3   -1    0    0  501    0  0.00000000000E+00  0.00000000000E+00 -0.34565146252E+03  0.34565147728E+03  0.10100000352E+00 0. -1.
    10030    2    1    2    0    0  0.00000000000E+00  0.00000000000E+00  0.74372148998E+02  0.76567510094E+03  0.76205455425E+03 0.  0.
        3    1    3    3  502    0  0.15486000823E+03  0.69446185806E+02  0.37994813980E+03  0.41613098180E+03  0.10100000352E+00 0.  1.
       -3    1    3    3    0  502 -0.15486000823E+03 -0.69446185806E+02 -0.30557599080E+03  0.34954411914E+03  0.10100000352E+00 0. -1.
</event>
<event>
 5   0  0.2008770E-02  0.9253178E+03  0.7818609E-02  0.9394475E-01
       -2   -1    0    0    0  501  0.00000000000E+00  0.00000000000E+00  0.63360135415E+03  0.63360135416E+03  0.25500000920E-02 0.  1.
        2   -1    0    0  501    0  0.00000000000E+00  0.00000000000E+00 -0.33783582661E+03  0.33783582661E+03  0.25500000920E-02 0. -1.
    10030    2    1    2    0    0  0.00000000000E+00  0.00000000000E+00  0.29576552755E+03  0.97143718077E+03  0.92531775564E+03 0.  0.
        1    1    3    3  502    0 -0.78719790753E+02 -0.13920282367E+03  0.60366281910E+03  0.62448621343E+03  0.50400001928E-02 0.  1.
       -1    1    3    3    0  502  0.78719790753E+02  0.13920282367E+03 -0.30789729155E+03  0.34695096735E+03  0.50400001928E-02 0. -1.
</event>
<event>
 5   0  0.2041861E-02  0.8955538E+03  0.7818609E-02  0.9431157E-01
        2   -1    0    0  501    0  0.00000000000E+00  0.00000000000E+00  0.44264300856E+03  0.44264300857E+03  0.25500000920E-02 0.  1.
       -2   -1    0    0    0  501  0.00000000000E+00  0.00000000000E+00 -0.45297029020E+03  0.45297029020E+03  0.25500000920E-02 0. -1.
    10030    2    1    2    0    0  0.00000000000E+00  0.00000000000E+00 -0.10327281634E+02  0.89561329877E+03  0.89555375505E+03 0.  0.
        5    1    3    3  502    0 -0.30662549151E+03  0.31879971138E+03  0.64336260411E+02  0.44700524876E+03  0.46999998093E+01 0.  1.
       -5    1    3    3    0  502  0.30662549151E+03 -0.31879971138E+03 -0.74663542045E+02  0.44860805001E+03  0.46999998093E+01 0. -1.
</event>
<event>
 5   0  0.1162839E-02  0.8966431E+03  0.7818609E-02  0.9429787E-01
        1   -1    0    0  501    0  0.00000000000E+00  0.00000000000E+00  0.29398827320E+03  0.29398827324E+03  0.50400001928E-02 0.  1.
       -1   -1    0    0    0  501  0.00000000000E+00  0.00000000000E+00 -0.68367422884E+03  0.68367422885E+03  0.50400001928E-02 0. -1.
    10030    2    1    2    0    0  0.00000000000E+00  0.00000000000E+00 -0.38968595564E+03  0.97766250210E+03  0.89664308618E+03 0.  0.
        2    1    3    3  502    0 -0.40186839389E+03  0.82425033319E+02  0.23284524008E+01  0.41024079980E+03  0.25500000920E-02 0.  1.
       -2    1    3    3    0  502  0.40186839389E+03 -0.82425033319E+02 -0.39201440804E+03  0.56742170230E+03  0.25500000920E-02 0. -1.
</event>
<event>
 5   0  0.1175993E-02  0.8835551E+03  0.7818609E-02  0.9446375E-01
       -1   -1    0    0    0  501  0.00000000000E+00  0.00000000000E+00  0.79018458644E+02  0.79018458804E+02  0.50400001928E-02 0. -1.
        1   -1    0    0  501    0  0.00000000000E+00  0.00000000000E+00 -0.24698960994E+04  0.24698960994E+04  0.50400001928E-02 0.  1.
    10030    2    1    2    0    0  0.00000000000E+00  0.00000000000E+00 -0.23908776408E+04  0.25489145582E+04  0.88355505317E+03 0.  0.
        4    1    3    3  502    0 -0.33082358837E+03 -0.28715057204E+03 -0.13603061373E+04  0.14291025497E+04  0.12699999809E+01 0. -1.
       -4    1    3    3    0  502  0.33082358837E+03  0.28715057204E+03 -0.10305715035E+04  0.11198120085E+04  0.12699999809E+01 0.  1.
</event>
<event>
 5   0  0.1924218E-02  0.8480159E+03  0.7818609E-02  0.9493004E-01
        2   -1    0    0  501    0  0.00000000000E+00  0.00000000000E+00  0.26610510540E+03  0.26610510541E+03  0.25500000920E-02 0.  1.
       -2   -1    0    0    0  501  0.00000000000E+00  0.00000000000E+00 -0.67560806608E+03  0.67560806609E+03  0.25500000920E-02 0. -1.
    10030    2    1    2    0    0  0.00000000000E+00  0.00000000000E+00 -0.40950296068E+03  0.94171317150E+03  0.84801593297E+03 0.  0.
        4    1    3    3  502    0 -0.23191452871E+03  0.47749207956E+02 -0.59534855340E+03  0.64070730324E+03  0.12699999809E+01 0. -1.
       -4    1    3    3    0  502  0.23191452871E+03 -0.47749207956E+02  0.18584559272E+03  0.30100586825E+03  0.12699999809E+01 0.  1.
</event>
<event>
 5   0  0.2008643E-02  0.9154143E+03  0.7818609E-02  0.9406515E-01
        2   -1    0    0  501    0  0.00000000000E+00  0.00000000000E+00  0.22747919053E+03  0.22747919055E+03  0.25500000920E-02 0. -1.
       -2   -1    0    0    0  501  0.00000000000E+00  0.00000000000E+00 -0.92094496325E+03  0.92094496325E+03  0.25500000920E-02 0.  1.
    10030    2    1    2    0    0  0.00000000000E+00  0.00000000000E+00 -0.69346577271E+03  0.11484241538E+04  0.91541425546E+03 0.  0.
        3    1    3    3  502    0 -0.18874718619E+03  0.20672664510E+03 -0.80103312089E+03  0.84853725731E+03  0.10100000352E+00 0.  1.
       -3    1    3    3    0  502  0.18874718619E+03 -0.20672664510E+03  0.10756734817E+03  0.29988689648E+03  0.10100000352E+00 0. -1.
</event>
<event>
 5   0  0.1226424E-02  0.9108793E+03  0.7818609E-02  0.9412083E-01
        1   -1    0    0  501    0  0.00000000000E+00  0.00000000000E+00  0.19949312095E+04  0.19949312095E+04  0.50400001928E-02 0. -1.
       -1   -1    0    0    0  501  0.00000000000E+00  0.00000000000E+00 -0.10397615326E+03  0.10397615338E+03  0.50400001928E-02 0.  1.
    10030    2    1    2    0    0  0.00000000000E+00  0.00000000000E+00  0.18909550562E+04  0.20989073629E+04  0.91087929675E+03 0.  0.
        1    1    3    3  502    0 -0.30521153071E+03  0.15332120960E+03  0.25127086382E+03  0.42402655438E+03  0.50400001928E-02 0.  1.
       -1    1    3    3    0  502  0.30521153071E+03 -0.15332120960E+03  0.16396841924E+04  0.16748808085E+04  0.50400001928E-02 0. -1.
</event>
<event>
 5   0  0.1226424E-02  0.9143481E+03  0.7818609E-02  0.9407821E-01
       -1   -1    0    0    0  501  0.00000000000E+00  0.00000000000E+00  0.94987193747E+03  0.94987193749E+03  0.50400001928E-02 0. -1.
        1   -1    0    0  501    0  0.00000000000E+00  0.00000000000E+00 -0.22003819104E+03  0.22003819110E+03  0.50400001928E-02 0.  1.
    10030    2    1    2    0    0  0.00000000000E+00  0.00000000000E+00  0.72983374644E+03  0.11699101286E+04  0.91434808007E+03 0.  0.
        1    1    3    3  502    0 -0.35636700213E+03  0.16782959115E+03  0.68017581355E+02  0.39973816839E+03  0.50400001928E-02 0.  1.
       -1    1    3    3    0  502  0.35636700213E+03 -0.16782959115E+03  0.66181616508E+03  0.77017196019E+03  0.50400001928E-02 0. -1.
</event>
<event>
 5   0  0.1162839E-02  0.8983663E+03  0.7818609E-02  0.9427626E-01
        1   -1    0    0  501    0  0.00000000000E+00  0.00000000000E+00  0.34906631771E+03  0.34906631775E+03  0.50400001928E-02 0.  1.
       -1   -1    0    0    0  501  0.00000000000E+00  0.00000000000E+00 -0.57801480308E+03  0.57801480310E+03  0.50400001928E-02 0. -1.
    10030    2    1    2    0    0  0.00000000000E+00  0.00000000000E+00 -0.22894848537E+03  0.92708112085E+03  0.89836629260E+03 0.  0.
        2    1    3    3  502    0  0.51410702173E+02  0.34560349329E+03 -0.40577442809E+03  0.53547896445E+03  0.25500000920E-02 0. -1.
       -2    1    3    3    0  502 -0.51410702173E+02 -0.34560349329E+03  0.17682594272E+03  0.39160215640E+03  0.25500000920E-02 0.  1.
</event>
<event>
 5   0  0.1162839E-02  0.9184447E+03  0.7818609E-02  0.9402814E-01
        1   -1    0    0  501    0  0.00000000000E+00  0.00000000000E+00  0.21408228261E+04  0.21408228261E+04  0.50400001928E-02 0.  1.
       -1   -1    0    0    0  501  0.00000000000E+00  0.00000000000E+00 -0.98506593452E+02  0.98506593580E+02  0.50400001928E-02 0. -1.
    10030    2    1    2    0    0  0.00000000000E+00  0.00000000000E+00  0.20423162327E+04  0.22393294197E+04  0.91844469389E+03 0.  0.
        2    1    3    3  502    0  0.12786363154E+03  0.22613401851E+03  0.19444494014E+04  0.19617260709E+04  0.25500000920E-02 0.  1.
       -2    1    3    3    0  502 -0.12786363154E+03 -0.22613401851E+03  0.97866831243E+02  0.27760334879E+03  0.25500000920E-02 0. -1.
</event>
<event>
 5   0  0.2041861E-02  0.8993516E+03  0.7818609E-02  0.9426392E-01
        2   -1    0    0  501    0  0.00000000000E+00  0.00000000000E+00  0.10001576826E+04  0.10001576826E+04  0.25500000920E-02 0. -1.
       -2   -1    0    0    0  501  0.00000000000E+00  0.00000000000E+00 -0.20217644379E+03  0.20217644380E+03  0.25500000920E-02 0.  1.
    10030    2    1    2    0    0  0.00000000000E+00  0.00000000000E+00  0.79798123884E+03  0.12023341264E+04  0.89935159645E+03 0.  0.
        5    1    3    3  502    0  0.14413886029E+03  0.25449922241E+03  0.85557400621E+03  0.90419844909E+03  0.46999998093E+01 0. -1.
       -5    1    3    3    0  502 -0.14413886029E+03 -0.25449922241E+03 -0.57592767363E+02  0.29813567734E+03  0.46999998093E+01 0.  1.
</event>
<event>
 5   0  0.1177712E-02  0.9115648E+03  0.7818609E-02  0.9411239E-01
       -1   -1    0    0    0  501  0.00000000000E+00  0.00000000000E+00  0.50426014776E+03  0.50426014779E+03  0.50400001928E-02 0.  1.
        1   -1    0    0  501    0  0.00000000000E+00  0.00000000000E+00 -0.41196511756E+03  0.41196511759E+03  0.50400001928E-02 0. -1.
    10030    2    1    2    0    0  0.00000000000E+00  0.00000000000E+00  0.92295030200E+02  0.91622526538E+03  0.91156478888E+03 0.  0.
        5    1    3    3  502    0 -0.10540028486E+03  0.20914657712E+03 -0.34682965261E+03  0.41852647311E+03  0.46999998093E+01 0. -1.
       -5    1    3    3    0  502  0.10540028486E+03 -0.20914657712E+03  0.43912468281E+03  0.49769879226E+03  0.46999998093E+01 0.  1.
</event>
<event>
 5   0  0.1206541E-02  0.9197015E+03  0.7818609E-02  0.9401283E-01
        1   -1    0    0  501    0  0.00000000000E+00  0.00000000000E+00  0.11124990731E+04  0.11124990731E+04  0.50400001928E-02 0. -1.
       -1   -1    0    0    0  501  0.00000000000E+00  0.00000000000E+00 -0.19007898690E+03  0.19007898697E+03  0.50400001928E-02 0.  1.
    10030    2    1    2    0    0  0.00000000000E+00  0.00000000000E+00  0.92242008620E+03  0.13025780601E+04  0.91970146634E+03 0.  0.
        3    1    3    3  502    0 -0.29186729794E+03  0.31992487060E+03  0.24214353133E+03  0.49615717510E+03  0.10100000352E+00 0.  1.
       -3    1    3    3    0  502  0.29186729794E+03 -0.31992487060E+03  0.68027655487E+03  0.80642088499E+03  0.10100000352E+00 0. -1.
</event>
<event>
 5   0  0.1206541E-02  0.9252121E+03  0.7818609E-02  0.9394603E-01
        1   -1    0    0  501    0  0.00000000000E+00  0.00000000000E+00  0.70549962101E+03  0.70549962102E+03  0.50400001928E-02 0.  1.
       -1   -1    0    0    0  501  0.00000000000E+00  0.00000000000E+00 -0.30333729928E+03  0.30333729932E+03  0.50400001928E-02 0. -1.
    10030    2    1    2    0    0  0.00000000000E+00  0.00000000000E+00  0.40216232172E+03  0.10088369203E+04  0.92521208317E+03 0.  0.
        3    1    3    3  502    0 -0.38720254071E+03  0.23978624471E+03  0.28953741576E+03  0.53968062408E+03  0.10100000352E+00 0. -1.
       -3    1    3    3    0  502  0.38720254071E+03 -0.23978624471E+03  0.11262490596E+03  0.46915629627E+03  0.10100000352E+00 0.  1.
</event>
<event>
 5   0  0.1175993E-02  0.8910773E+03  0.7818609E-02  0.9436804E-01
        1   -1    0    0  501    0  0.00000000000E+00  0.00000000000E+00  0.13987130298E+04  0.13987130298E+04  0.50400001928E-02 0. -1.
       -1   -1    0    0    0  501  0.00000000000E+00  0.00000000000E+00 -0.14191953041E+03  0.14191953050E+03  0.50400001928E-02 0.  1.
    10030    2    1    2    0    0  0.00000000000E+00  0.00000000000E+00  0.12567934994E+04  0.15406325603E+04  0.89107731750E+03 0.  0.
        4    1    3    3  502    0 -0.28303981143E+03 -0.24074235899E+03  0.10534337559E+04  0.11170464222E+04  0.12699999809E+01 0. -1.
       -4    1    3    3    0  502  0.28303981143E+03  0.24074235899E+03  0.20335974349E+03  0.42358613816E+03  0.12699999809E+01 0.  1.
</event>
<event>
 5   0  0.1968763E-02  0.8921951E+03  0.7818609E-02  0.9435391E-01
       -2   -1    0    0    0  501  0.00000000000E+00  0.00000000000E+00  0.11572875246E+04  0.11572875246E+04  0.25500000920E-02 0. -1.
        2   -1    0    0  501    0  0.00000000000E+00  0.00000000000E+00 -0.17195641336E+03  0.17195641338E+03  0.25500000920E-02 0.  1.
    10030    2    1    2    0    0  0.00000000000E+00  0.00000000000E+00  0.98533111124E+03  0.13292439380E+04  0.89219507277E+03 0.  0.
        2    1    3    3  502    0 -0.35178759098E+03 -0.21187588417E+02  0.90013446171E+03  0.96666719829E+03  0.25500000920E-02 0. -1.
       -2    1    3    3    0  502  0.35178759098E+03  0.21187588417E+02  0.85196649527E+02  0.36257673969E+03  0.25500000920E-02 0.  1.
</event>
<event>
 5   0  0.2008770E-02  0.8857058E+03  0.7818609E-02  0.9443628E-01
       -2   -1    0    0    0  501  0.00000000000E+00  0.00000000000E+00  0.91748580627E+02  0.91748580663E+02  0.25500000920E-02 0. -1.
        2   -1    0    0  501    0  0.00000000000E+00  0.00000000000E+00 -0.21375662951E+04  0.21375662951E+04  0.25500000920E-02 0.  1.
    10030    2    1    2    0    0  0.00000000000E+00  0.00000000000E+00 -0.20458177145E+04  0.22293148757E+04  0.88570576065E+03 0.  0.
        1    1    3    3  502    0  0.30696889905E+03  0.26943046708E+02 -0.18234662142E+04  0.18493201094E+04  0.50400001928E-02 0.  1.
       -1    1    3    3    0  502 -0.30696889905E+03 -0.26943046708E+02 -0.22235150028E+03  0.37999476635E+03  0.50400001928E-02 0. -1.
</event>
<event>
 5   0  0.1177712E-02  0.9069221E+03  0.7818609E-02  0.9416970E-01
       -1   -1    0    0    0  501  0.00000000000E+00  0.00000000000E+00  0.55179394520E+03  0.55179394522E+03  0.50400001928E-02 0. -1.
        1   -1    0    0  501    0  0.00000000000E+00  0.00000000000E+00 -0.37265162536E+03  0.37265162540E+03  0.50400001928E-02 0.  1.
    10030    2    1    2    0    0  0.00000000000E+00  0.00000000000E+00  0.17914231983E+03  0.92444557062E+03  0.90692207067E+03 0.  0.
        5    1    3    3  502    0  0.34087835825E+03 -0.22111691368E+03 -0.11559906939E+03  0.42246417538E+03  0.46999998093E+01 0.  1.
       -5    1    3    3    0  502 -0.34087835825E+03  0.22111691368E+03  0.29474138922E+03  0.50198139523E+03  0.46999998093E+01 0. -1.
</event>
<event>
 5   0  0.1162839E-02  0.8765604E+03  0.7818609E-02  0.9455366E-01
        1   -1    0    0  501    0  0.00000000000E+00  0.00000000000E+00  0.17439095264E+03  0.17439095271E+03  0.50400001928E-02 0.  1.
       -1   -1    0    0    0  501  0.00000000000E+00  0.00000000000E+00 -0.11014879787E+04  0.11014879787E+04  0.50400001928E-02 0. -1.
    10030    2    1    2    0    0  0.00000000000E+00  0.00000000000E+00 -0.92709702609E+03  0.12758789314E+04  0.87656040974E+03 0.  0.
        2    1    3    3  502    0 -0.17488426632E+03  0.11414393248E+03  0.97313501569E+02  0.23039805017E+03  0.25500000920E-02 0.  1.
       -2    1    3    3    0  502  0.17488426632E+03 -0.11414393248E+03 -0.10244105277E+04  0.10454808813E+04  0.25500000920E-02 0. -1.
</event>
<event>
 5   0  0.1206541E-02  0.9137012E+03  0.7818609E-02  0.9408614E-01
       -1   -1    0    0    0  501  0.00000000000E+00  0.00000000000E+00  0.15618900100E+03  0.15618900109E+03  0.50400001928E-02 0.  1.
        1   -1    0    0  501    0  0.00000000000E+00  0.00000000000E+00 -0.13362815112E+04  0.13362815112E+04  0.50400001928E-02 0. -1.
    10030    2    1    2    0    0  0.00000000000E+00  0.00000000000E+00 -0.11800925102E+04  0.14924705123E+04  0.91370120796E+03 0.  0.
        3    1    3    3  502    0  0.11070504119E+03 -0.35437997158E+03 -0.10248947449E+04  0.10900688138E+04  0.10100000352E+00 0. -1.
       -3    1    3    3    0  502 -0.11070504119E+03  0.35437997158E+03 -0.15519776524E+03  0.40240169849E+03  0.10100000352E+00 0.  1.
</event>
<event>
 5   0  0.1968763E-02  0.9223227E+03  0.7818609E-02  0.9398099E-01
        2   -1    0    0  501    0  0.00000000000E+00  0.00000000000E+00  0.94910654533E+03  0.94910654533E+03  0.25500000920E-02 0.  1.
       -2   -1    0    0    0  501  0.00000000000E+00  0.00000000000E+00 -0.22407368204E+03  0.22407368205E+03  0.25500000920E-02 0. -1.
    10030    2    1    2    0    0  0.00000000000E+00  0.00000000000E+00  0.72503286329E+03  0.11731802274E+04  0.92232271634E+03 0.  0.
        2    1    3    3  502    0  0.30275884251E+03 -0.21672398256E+03  0.16411341314E+02  0.37269496035E+03  0.25500000920E-02 0.  1.
       -2    1    3    3    0  502 -0.30275884251E+03  0.21672398256E+03  0.70862152197E+03  0.80048526704E+03  0.25500000920E-02 0. -1.
</event>
<event>
 5   0  0.2008770E-02  0.9012554E+03  0.7818609E-02  0.9424013E-01
        2   -1    0    0  501    0  0.00000000000E+00  0.00000000000E+00  0.73405049530E+03  0.73405049530E+03  0.25500000920E-02 0. -1.
       -2   -1    0    0    0  501  0.00000000000E+00  0.00000000000E+00 -0.27663673126E+03  0.27663673127E+03  0.25500000920E-02 0.  1.
    10030    2    1    2    0    0  0.00000000000E+00  0.00000000000E+00  0.45741376404E+03  0.10106872266E+04  0.90125541243E+03 0.  0.
        1    1    3    3  502    0  0.22179766574E+03  0.28323841944E+03 -0.75624531735E+02  0.36761022375E+03  0.50400001928E-02 0.  1.
       -1    1    3    3    0  502 -0.22179766574E+03 -0.28323841944E+03  0.53303829577E+03  0.64307700283E+03  0.50400001928E-02 0. -1.
</event>
<event>
 5   0  0.1226424E-02  0.9106760E+03  0.7818609E-02  0.9412333E-01
        1   -1    0    0  501    0  0.00000000000E+00  0.00000000000E+00  0.34537343624E+03  0.34537343628E+03  0.50400001928E-02 0.  1.
       -1   -1    0    0    0  501  0.00000000000E+00  0.00000000000E+00 -0.60031451859E+03  0.60031451861E+03  0.50400001928E-02 0. -1.
    10030    2    1    2    0    0  0.00000000000E+00  0.00000000000E+00 -0.25494108235E+03  0.94568795489E+03  0.91067598659E+03 0.  0.
        1    1    3    3  502    0 -0.41717191236E+03  0.42204541870E+01 -0.31691929656E+03  0.52391607845E+03  0.50400001928E-02 0. -1.
       -1    1    3    3    0  502  0.41717191236E+03 -0.42204541870E+01  0.61978214212E+02  0.42177187644E+03  0.50400001928E-02 0.  1.
</event>
<event>
 5   0  0.1968763E-02  0.8885351E+03  0.7818609E-02  0.9440028E-01
       -2   -1    0    0    0  501  0.00000000000E+00  0.00000000000E+00  0.55856446116E+03  0.55856446117E+03  0.25500000920E-02 0. -1.
        2   -1    0    0  501    0  0.00000000000E+00  0.00000000000E+00 -0.35335874592E+03  0.35335874593E+03  0.25500000920E-02 0.  1.
    10030    2    1    2    0    0  0.00000000000E+00  0.00000000000E+00  0.20520571524E+03  0.91192320710E+03  0.88853505844E+03 0.  0.
        2    1    3    3  502    0  0.15685313225E+03 -0.25702170557E+03  0.43786724992E+03  0.53140454532E+03  0.25500000920E-02 0. -1.
       -2    1    3    3    0  502 -0.15685313225E+03  0.25702170557E+03 -0.23266153468E+03  0.38051866177E+03  0.25500000920E-02 0.  1.
</event>
<event>
 5   0  0.1162839E-02  0.9190599E+03  0.7818609E-02  0.9402064E-01
        1   -1    0    0  501    0  0.00000000000E+00  0.00000000000E+00  0.25742300764E+03  0.25742300769E+03  0.50400001928E-02 0. -1.
       -1   -1    0    0    0  501  0.00000000000E+00  0.00000000000E+00 -0.82031422023E+03  0.82031422025E+03  0.50400001928E-02 0.  1.
    10030    2    1    2    0    0  0.00000000000E+00  0.00000000000E+00 -0.56289121260E+03  0.10777372279E+04  0.91905985401E+03 0.  0.
        2    1    3    3  502    0  0.82483726920E+02 -0.42838321767E+03 -0.11211205197E+03  0.45042741767E+03  0.25500000920E-02 0. -1.
       -2    1    3    3    0  502 -0.82483726920E+02  0.42838321767E+03 -0.45077916062E+03  0.62730981026E+03  0.25500000920E-02 0.  1.
</event>
<event>
 5   0  0.7893875E-03  0.8949834E+03  0.7818609E-02  0.9431874E-01
        3   -1    0    0  501    0  0.00000000000E+00  0.00000000000E+00  0.24950968832E+03  0.24950970876E+03  0.10100000352E+00 0. -1.
       -3   -1    0    0    0  501  0.00000000000E+00  0.00000000000E+00 -0.80256929372E+03  0.80256930008E+03  0.10100000352E+00 0.  1.
    10030    2    1    2    0    0  0.00000000000E+00  0.00000000000E+00 -0.55305960540E+03  0.10520790088E+04  0.89498341533E+03 0.  0.
        4    1    3    3  502    0  0.35170555483E+03  0.26575571378E+03 -0.18604980535E+03  0.47847574618E+03  0.12699999809E+01 0. -1.
       -4    1    3    3    0  502 -0.35170555483E+03 -0.26575571378E+03 -0.36700980005E+03  0.57360326266E+03  0.12699999809E+01 0.  1.
</event>
<event>
 5   0  0.1206541E-02  0.9578040E+03  0.7818609E-02  0.9356075E-01
        1   -1    0    0  501    0  0.00000000000E+00  0.00000000000E+00  0.12387072945E+04  0.12387072945E+04  0.50400001928E-02 0.  1.
       -1   -1    0    0    0  501  0.00000000000E+00  0.00000000000E+00 -0.18515037375E+03  0.18515037382E+03  0.50400001928E-02 0. -1.
    10030    2    1    2    0    0  0.00000000000E+00  0.00000000000E+00  0.10535569208E+04  0.14238576683E+04  0.95780398539E+03 0.  0.
        3    1    3    3  502    0  0.97034869772E+02 -0.46714019053E+02  0.12204728240E+04  0.12252150382E+04  0.10100000352E+00 0.  1.
       -3    1    3    3    0  502 -0.97034869772E+02  0.46714019053E+02 -0.16691590328E+03  0.19864263010E+03  0.10100000352E+00 0. -1.
</event>
<event>
 5   0  0.2041861E-02  0.8472107E+03  0.7818609E-02  0.9494088E-01
        2   -1    0    0  501    0  0.00000000000E+00  0.00000000000E+00  0.12931013709E+04  0.12931013709E+04  0.25500000920E-02 0. -1.
       -2   -1    0    0    0  501  0.00000000000E+00  0.00000000000E+00 -0.13876829476E+03  0.13876829478E+03  0.25500000920E-02 0.  1.
    10030    2    1    2    0    0  0.00000000000E+00  0.00000000000E+00  0.11543330762E+04  0.14318696657E+04  0.84721065199E+03 0.  0.
        5    1    3    3  502    0  0.39022055550E+03  0.11806650613E+03  0.77139999586E+03  0.87252038682E+03  0.46999998093E+01 0. -1.
       -5    1    3    3    0  502 -0.39022055550E+03 -0.11806650613E+03  0.38293308032E+03  0.55934927890E+03  0.46999998093E+01 0.  1.
</event>
<event>
 5   0  0.1968763E-02  0.8920918E+03  0.7818609E-02  0.9435521E-01
       -2   -1    0    0    0  501  0.00000000000E+00  0.00000000000E+00  0.15662489976E+03  0.15662489979E+03  0.25500000920E-02 0.  1.
        2   -1    0    0  501    0  0.00000000000E+00  0.00000000000E+00 -0.12702765622E+04  0.12702765622E+04  0.25500000920E-02 0. -1.
    10030    2    1    2    0    0  0.00000000000E+00  0.00000000000E+00 -0.11136516625E+04  0.14269014620E+04  0.89209178731E+03 0.  0.
        2    1    3    3  502    0  0.29895862305E+03  0.13008805799E+03 -0.69941966160E+02  0.33345320476E+03  0.25500000920E-02 0.  1.
       -2    1    3    3    0  502 -0.29895862305E+03 -0.13008805799E+03 -0.10437096963E+04  0.10934482573E+04  0.25500000920E-02 0. -1.
</event>
<event>
 5   0  0.1177712E-02  0.8864860E+03  0.7818609E-02  0.9442634E-01
        1   -1    0    0  501    0  0.00000000000E+00  0.00000000000E+00  0.54175002357E+03  0.54175002359E+03  0.50400001928E-02 0. -1.
       -1   -1    0    0    0  501  0.00000000000E+00  0.00000000000E+00 -0.36264760265E+03  0.36264760268E+03  0.50400001928E-02 0.  1.
    10030    2    1    2    0    0  0.00000000000E+00  0.00000000000E+00  0.17910242092E+03  0.90439762627E+03  0.88648597802E+03 0.  0.
        5    1    3    3  502    0 -0.76833114994E+02  0.29378657580E+03  0.41891855026E+03  0.51742508775E+03  0.46999998093E+01 0. -1.
       -5    1    3    3    0  502  0.76833114994E+02 -0.29378657580E+03 -0.23981612934E+03  0.38697253852E+03  0.46999998093E+01 0.  1.
</event>
<event>
 5   0  0.1177712E-02  0.8943807E+03  0.7818609E-02  0.9432633E-01
       -1   -1    0    0    0  501  0.00000000000E+00  0.00000000000E+00  0.25084971694E+03  0.25084971699E+03  0.50400001928E-02 0. -1.
        1   -1    0    0  501    0  0.00000000000E+00  0.00000000000E+00 -0.79720719945E+03  0.79720719946E+03  0.50400001928E-02 0.  1.
    10030    2    1    2    0    0  0.00000000000E+00  0.00000000000E+00 -0.54635748250E+03  0.10480569165E+04  0.89438068038E+03 0.  0.
        5    1    3    3  502    0  0.40973287208E+03 -0.10205123695E+03 -0.10071094462E+03  0.43412010525E+03  0.46999998093E+01 0.  1.
       -5    1    3    3    0  502 -0.40973287208E+03  0.10205123695E+03 -0.44564653789E+03  0.61393681120E+03  0.46999998093E+01 0. -1.
</event>
<event>
 5   0  0.1162839E-02  0.9220787E+03  0.7818609E-02  0.9398395E-01
       -1   -1    0    0    0  501  0.00000000000E+00  0.00000000000E+00  0.12225979955E+03  0.12225979966E+03  0.50400001928E-02 0.  1.
        1   -1    0    0  501    0  0.00000000000E+00  0.00000000000E+00 -0.17385705899E+04  0.17385705899E+04  0.50400001928E-02 0. -1.
    10030    2    1    2    0    0  0.00000000000E+00  0.00000000000E+00 -0.16163107903E+04  0.18608303896E+04  0.92207872101E+03 0.  0.
        2    1    3    3  502    0 -0.28911288475E+03 -0.32387583037E+03 -0.11212865301E+04  0.12023998072E+04  0.25500000920E-02 0. -1.
       -2    1    3    3    0  502  0.28911288475E+03  0.32387583037E+03 -0.49502426022E+03  0.65843058240E+03  0.25500000920E-02 0.  1.
</event>
<event>
 5   0  0.1226424E-02  0.1021564E+04  0.7818609E-02  0.9285205E-01
        1   -1    0    0  501    0  0.00000000000E+00  0.00000000000E+00  0.13136075737E+04  0.13136075737E+04  0.50400001928E-02 0. -1.
       -1   -1    0    0    0  501  0.00000000000E+00  0.00000000000E+00 -0.19861192281E+03  0.19861192288E+03  0.50400001928E-02 0.  1.
    10030    2    1    2    0    0  0.00000000000E+00  0.00000000000E+00  0.11149956508E+04  0.15122194965E+04  0.10215637544E+04 0.  0.
        1    1    3    3  502    0  0.47884145490E+03  0.14875252996E+03  0.70164024910E+03  0.86238940931E+03  0.50400001928E-02 0. -1.
       -1    1    3    3    0  502 -0.47884145490E+03 -0.14875252996E+03  0.41335540175E+03  0.64983008724E+03  0.50400001928E-02 0.  1.
</event>
<event>
 5   0  0.1968763E-02  0.9186871E+03  0.7818609E-02  0.9402518E-01
        2   -1    0    0  501    0  0.00000000000E+00  0.00000000000E+00  0.55352916477E+03  0.55352916477E+03  0.25500000920E-02 0.  1.
       -2   -1    0    0    0  501  0.00000000000E+00  0.00000000000E+00 -0.38118405655E+03  0.38118405655E+03  0.25500000920E-02 0. -1.
    10030    2    1    2    0    0  0.00000000000E+00  0.00000000000E+00  0.17234510822E+03  0.93471322133E+03  0.91868709025E+03 0.  0.
        2    1    3    3  502    0  0.43568026408E+03 -0.14468652904E+03  0.10209834934E+03  0.47029305453E+03  0.25500000920E-02 0.  1.
       -2    1    3    3    0  502 -0.43568026408E+03  0.14468652904E+03  0.70246758885E+02  0.46442016680E+03  0.25500000920E-02 0. -1.
</event>
<event>
 5   0  0.1226424E-02  0.7926203E+03  0.7818609E-02  0.9570761E-01
        1   -1    0    0  501    0  0.00000000000E+00  0.00000000000E+00  0.62236414348E+03  0.62236414351E+03  0.50400001928E-02 0.  1.
       -1   -1    0    0    0  501  0.00000000000E+00  0.00000000000E+00 -0.25236308752E+03  0.25236308757E+03  0.50400001928E-02 0. -1.
    10030    2    1    2    0    0  0.00000000000E+00  0.00000000000E+00  0.37000105596E+03  0.87472723108E+03  0.79262030467E+03 0.  0.
        1    1    3    3  502    0 -0.35554406520E+03  0.43366851677E+01  0.37814865700E+03  0.51906338337E+03  0.50400001928E-02 0.  1.
       -1    1    3    3    0  502  0.35554406520E+03 -0.43366851677E+01 -0.81476010385E+01  0.35566384771E+03  0.50400001928E-02 0. -1.
</event>
<event>
 5   0  0.7893875E-03  0.9338031E+03  0.7818609E-02  0.9384285E-01
        3   -1    0    0  501    0  0.00000000000E+00  0.00000000000E+00  0.37731777762E+03  0.37731779114E+03  0.10100000352E+00 0. -1.
       -3   -1    0    0    0  501  0.00000000000E+00  0.00000000000E+00 -0.57775444580E+03  0.57775445463E+03  0.10100000352E+00 0.  1.
    10030    2    1    2    0    0  0.00000000000E+00  0.00000000000E+00 -0.20043666818E+03  0.95507224576E+03  0.93380305026E+03 0.  0.
        3    1    3    3  502    0  0.38403633753E+03  0.22658991105E+03 -0.24182817627E+03  0.50725513636E+03  0.10100000352E+00 0.  1.
       -3    1    3    3    0  502 -0.38403633753E+03 -0.22658991105E+03  0.41391508087E+02  0.44781710940E+03  0.10100000352E+00 0. -1.
</event>
<event>
 5   0  0.2041861E-02  0.8809720E+03  0.7818609E-02  0.9449685E-01
       -2   -1    0    0    0  501  0.00000000000E+00  0.00000000000E+00  0.80186763062E+02  0.80186763103E+02  0.25500000920E-02 0.  1.
        2   -1    0    0  501    0  0.00000000000E+00  0.00000000000E+00 -0.24197003220E+04  0.24197003220E+04  0.25500000920E-02 0. -1.
    10030    2    1    2    0    0  0.00000000000E+00  0.00000000000E+00 -0.23395135590E+04  0.24998870852E+04  0.88097204600E+03 0.  0.
        5    1    3    3  502    0 -0.93981201290E+02  0.39341773936E+03 -0.16644836524E+04  0.17129325448E+04  0.46999998093E+01 0. -1.
       -5    1    3    3    0  502  0.93981201290E+02 -0.39341773936E+03 -0.67502990658E+03  0.78695454038E+03  0.46999998093E+01 0.  1.
</event>
<event>
 5   0  0.1206541E-02  0.8933189E+03  0.7818609E-02  0.9433972E-01
       -1   -1    0    0    0  501  0.00000000000E+00  0.00000000000E+00  0.18209333475E+03  0.18209333481E+03  0.50400001928E-02 0. -1.
        1   -1    0    0  501    0  0.00000000000E+00  0.00000000000E+00 -0.10956176954E+04  0.10956176954E+04  0.50400001928E-02 0.  1.
    10030    2    1    2    0    0  0.00000000000E+00  0.00000000000E+00 -0.91352436063E+03  0.12777110302E+04  0.89331893478E+03 0.  0.
        3    1    3    3  502    0  0.46085343674E+02 -0.78498738342E+02 -0.10822103875E+04  0.10860318798E+04  0.10100000352E+00 0.  1.
       -3    1    3    3    0  502 -0.46085343674E+02  0.78498738342E+02  0.16868602691E+03  0.19167915041E+03  0.10100000352E+00 0. -1.
</event>
<event>
 5   0  0.1177712E-02  0.8755136E+03  0.7818609E-02  0.9456719E-01
       -1   -1    0    0    0  501  0.00000000000E+00  0.00000000000E+00  0.48431263067E+03  0.48431263070E+03  0.50400001928E-02 0.  1.
        1   -1    0    0  501    0  0.00000000000E+00  0.00000000000E+00 -0.39567628942E+03  0.39567628945E+03  0.50400001928E-02 0. -1.
    10030    2    1    2    0    0  0.00000000000E+00  0.00000000000E+00  0.88636341255E+02  0.87998892015E+03  0.87551361988E+03 0.  0.
        5    1    3    3  502    0 -0.29506419317E+03  0.18927220235E+03  0.30780716312E+03  0.46653422634E+03  0.46999998093E+01 0.  1.
       -5    1    3    3    0  502  0.29506419317E+03 -0.18927220235E+03 -0.21917082187E+03  0.41345469381E+03  0.46999998093E+01 0. -1.
</event>
<event>
 5   0  0.1177712E-02  0.8962337E+03  0.7818609E-02  0.9430302E-01
       -1   -1    0    0    0  501  0.00000000000E+00  0.00000000000E+00  0.15572929695E+03  0.15572929703E+03  0.50400001928E-02 0.  1.
        1   -1    0    0  501    0  0.00000000000E+00  0.00000000000E+00 -0.12894729416E+04  0.12894729416E+04  0.50400001928E-02 0. -1.
    10030    2    1    2    0    0  0.00000000000E+00  0.00000000000E+00 -0.11337436446E+04  0.14452022386E+04  0.89623370768E+03 0.  0.
        5    1    3    3  502    0  0.33090033440E+03 -0.20841953570E+03 -0.91961728800E+03  0.99932566291E+03  0.46999998093E+01 0. -1.
       -5    1    3    3    0  502 -0.33090033440E+03  0.20841953570E+03 -0.21412635663E+03  0.44587657571E+03  0.46999998093E+01 0.  1.
</event>
<event>
 5   0  0.1968763E-02  0.8986761E+03  0.7818609E-02  0.9427238E-01
        2   -1    0    0  501    0  0.00000000000E+00  0.00000000000E+00  0.34817208700E+03  0.34817208701E+03  0.25500000920E-02 0. -1.
       -2   -1    0    0    0  501  0.00000000000E+00  0.00000000000E+00 -0.57989907909E+03  0.57989907910E+03  0.25500000920E-02 0.  1.
    10030    2    1    2    0    0  0.00000000000E+00  0.00000000000E+00 -0.23172699209E+03  0.92807116610E+03  0.89867607651E+03 0.  0.
        2    1    3    3  502    0  0.74112345831E+02 -0.28598890316E+03 -0.46549681308E+03  0.55133435911E+03  0.25500000920E-02 0.  1.
       -2    1    3    3    0  502 -0.74112345831E+02  0.28598890316E+03  0.23376982099E+03  0.37673680700E+03  0.25500000920E-02 0. -1.
</event>
<event>
 5   0  0.1177712E-02  0.8981410E+03  0.7818609E-02  0.9427908E-01
        1   -1    0    0  501    0  0.00000000000E+00  0.00000000000E+00  0.36239696852E+03  0.36239696855E+03  0.50400001928E-02 0. -1.
       -1   -1    0    0    0  501  0.00000000000E+00  0.00000000000E+00 -0.55647357059E+03  0.55647357061E+03  0.50400001928E-02 0.  1.
    10030    2    1    2    0    0  0.00000000000E+00  0.00000000000E+00 -0.19407660207E+03  0.91887053917E+03  0.89814104698E+03 0.  0.
        5    1    3    3  502    0 -0.16035745190E+03 -0.12766848471E+03 -0.50579509678E+03  0.54576966231E+03  0.46999998093E+01 0.  1.
       -5    1    3    3    0  502  0.16035745190E+03  0.12766848471E+03  0.31171849471E+03  0.37310087686E+03  0.46999998093E+01 0. -1.
</event>
<event>
 5   0  0.1226424E-02  0.9027294E+03  0.7818609E-02  0.9422176E-01
       -1   -1    0    0    0  501  0.00000000000E+00  0.00000000000E+00  0.15646704338E+03  0.15646704346E+03  0.50400001928E-02 0. -1.
        1   -1    0    0  501    0  0.00000000000E+00  0.00000000000E+00 -0.13020640372E+04  0.13020640372E+04  0.50400001928E-02 0.  1.
    10030    2    1    2    0    0  0.00000000000E+00  0.00000000000E+00 -0.11455969938E+04  0.14585310807E+04  0.90272943957E+03 0.  0.
        1    1    3    3  502    0 -0.94923580178E+02  0.35941663380E+03 -0.15917137646E+03  0.40438388919E+03  0.50400001928E-02 0. -1.
       -1    1    3    3    0  502  0.94923580178E+02 -0.35941663380E+03 -0.98642561738E+03  0.10541471915E+04  0.50400001928E-02 0.  1.
</event>
<event>
 5   0  0.1968763E-02  0.9031119E+03  0.7818609E-02  0.9421700E-01
       -2   -1    0    0    0  501  0.00000000000E+00  0.00000000000E+00  0.60559199560E+03  0.60559199561E+03  0.25500000920E-02 0.  1.
        2   -1    0    0  501    0  0.00000000000E+00  0.00000000000E+00 -0.33669992513E+03  0.33669992514E+03  0.25500000920E-02 0. -1.
    10030    2    1    2    0    0  0.00000000000E+00  0.00000000000E+00  0.26889207047E+03  0.94229192075E+03  0.90311190798E+03 0.  0.
        2    1    3    3  502    0  0.12221079758E+03  0.30854791661E+03 -0.18504994463E+03  0.37997470692E+03  0.25500000920E-02 0. -1.
       -2    1    3    3    0  502 -0.12221079758E+03 -0.30854791661E+03  0.45394201510E+03  0.56231721383E+03  0.25500000920E-02 0.  1.
</event>
<event>
 5   0  0.7893875E-03  0.8981451E+03  0.7818609E-02  0.9427903E-01
        4   -1    0    0  501    0  0.00000000000E+00  0.00000000000E+00  0.46756972602E+03  0.46757145079E+03  0.12699999809E+01 0. -1.
       -4   -1    0    0    0  501  0.00000000000E+00  0.00000000000E+00 -0.43130368727E+03  0.43130555706E+03  0.12699999809E+01 0.  1.
    10030    2    1    2    0    0  0.00000000000E+00  0.00000000000E+00  0.36266038753E+02  0.89887700785E+03  0.89814511616E+03 0.  0.
        1    1    3    3  502    0 -0.34408829812E+03  0.13988626560E+03  0.27072973315E+03  0.45962975604E+03  0.50400001928E-02 0. -1.
       -1    1    3    3    0  502  0.34408829812E+03 -0.13988626560E+03 -0.23446369440E+03  0.43924725181E+03  0.50400001928E-02 0.  1.
</event>
<event>
 5   0  0.1162839E-02  0.8967965E+03  0.7818609E-02  0.9429595E-01
       -1   -1    0    0    0  501  0.00000000000E+00  0.00000000000E+00  0.14817674698E+04  0.14817674698E+04  0.50400001928E-02 0.  1.
        1   -1    0    0  501    0  0.00000000000E+00  0.00000000000E+00 -0.13568997882E+03  0.13568997891E+03  0.50400001928E-02 0. -1.
    10030    2    1    2    0    0  0.00000000000E+00  0.00000000000E+00  0.13460774910E+04  0.16174574487E+04  0.89679651353E+03 0.  0.
        2    1    3    3  502    0  0.32435181510E+03  0.30600512064E+03  0.58810182616E+03  0.73804267611E+03  0.25500000920E-02 0. -1.
       -2    1    3    3    0  502 -0.32435181510E+03 -0.30600512064E+03  0.75797566482E+03  0.87941477260E+03  0.25500000920E-02 0.  1.
</event>
<event>
 5   0  0.1162839E-02  0.8934677E+03  0.7818609E-02  0.9433784E-01
       -1   -1    0    0    0  501  0.00000000000E+00  0.00000000000E+00  0.12536007779E+03  0.12536007790E+03  0.50400001928E-02 0. -1.
        1   -1    0    0  501    0  0.00000000000E+00  0.00000000000E+00 -0.15919831814E+04  0.15919831814E+04  0.50400001928E-02 0.  1.
    10030    2    1    2    0    0  0.00000000000E+00  0.00000000000E+00 -0.14666231036E+04  0.17173432593E+04  0.89346770631E+03 0.  0.
        2    1    3    3  502    0  0.16385552703E+03 -0.38629600734E+03 -0.43867084789E+03  0.60704641653E+03  0.25500000920E-02 0. -1.
       -2    1    3    3    0  502 -0.16385552703E+03  0.38629600734E+03 -0.10279522557E+04  0.11102968427E+04  0.25500000920E-02 0.  1.
</event>
<event>
 5   0  0.1175993E-02  0.8688874E+03  0.7818609E-02  0.9465332E-01
       -1   -1    0    0    0  501  0.00000000000E+00  0.00000000000E+00  0.32090195903E+03  0.32090195907E+03  0.50400001928E-02 0. -1.
        1   -1    0    0  501    0  0.00000000000E+00  0.00000000000E+00 -0.58815879312E+03  0.58815879315E+03  0.50400001928E-02 0.  1.
    10030    2    1    2    0    0  0.00000000000E+00  0.00000000000E+00 -0.26725683410E+03  0.90906075221E+03  0.86888735509E+03 0.  0.
        4    1    3    3  502    0  0.21054702372E+03 -0.24950478279E+03 -0.43351134618E+03  0.54269363917E+03  0.12699999809E+01 0.  1.
       -4    1    3    3    0  502 -0.21054702372E+03  0.24950478279E+03  0.16625451208E+03  0.36636711304E+03  0.12699999809E+01 0. -1.
</event>
<event>
 5   0  0.1177712E-02  0.9056423E+03  0.7818609E-02  0.9418556E-01
       -1   -1    0    0    0  501  0.00000000000E+00  0.00000000000E+00  0.88648312066E+03  0.88648312067E+03  0.50400001928E-02 0. -1.
        1   -1    0    0  501    0  0.00000000000E+00  0.00000000000E+00 -0.23130389096E+03  0.23130389102E+03  0.50400001928E-02 0.  1.
    10030    2    1    2    0    0  0.00000000000E+00  0.00000000000E+00  0.65517922970E+03  0.11177870117E+04  0.90564230272E+03 0.  0.
        5    1    3    3  502    0 -0.29019363876E+02 -0.32785988878E+03 -0.56201268879E+02  0.33393847154E+03  0.46999998093E+01 0.  1.
       -5    1    3    3    0  502  0.29019363876E+02  0.32785988878E+03  0.71138049858E+03  0.78384854016E+03  0.46999998093E+01 0. -1.
</event>
<event>
 5   0  0.1206541E-02  0.9007198E+03  0.7818609E-02  0.9424682E-01
        1   -1    0    0  501    0  0.00000000000E+00  0.00000000000E+00  0.52647171499E+03  0.52647171502E+03  0.50400001928E-02 0.  1.
       -1   -1    0    0    0  501  0.00000000000E+00  0.00000000000E+00 -0.38525151702E+03  0.38525151706E+03  0.50400001928E-02 0. -1.
    10030    2    1    2    0    0  0.00000000000E+00  0.00000000000E+00  0.14122019797E+03  0.91172323208E+03  0.90071977196E+03 0.  0.
        3    1    3    3  502    0  0.16955250492E+03  0.38028075783E+03 -0.10313325329E+03  0.42894986284E+03  0.10100000352E+00 0. -1.
       -3    1    3    3    0  502 -0.16955250492E+03 -0.38028075783E+03  0.24435345126E+03  0.48277336923E+03  0.10100000352E+00 0.  1.
</event>
<event>
 5   0  0.2041861E-02  0.8552516E+03  0.7818609E-02  0.9483315E-01
        2   -1    0    0  501    0  0.00000000000E+00  0.00000000000E+00  0.99581100987E+03  0.99581100988E+03  0.25500000920E-02 0. -1.
       -2   -1    0    0    0  501  0.00000000000E+00  0.00000000000E+00 -0.18363308028E+03  0.18363308030E+03  0.25500000920E-02 0.  1.
    10030    2    1    2    0    0  0.00000000000E+00  0.00000000000E+00  0.81217792959E+03  0.11794440902E+04  0.85525164281E+03 0.  0.
        5    1    3    3  502    0  0.24927344642E+03  0.30126259752E+03  0.64473165371E+03  0.75405397621E+03  0.46999998093E+01 0. -1.
       -5    1    3    3    0  502 -0.24927344642E+03 -0.30126259752E+03  0.16744627589E+03  0.42539011397E+03  0.46999998093E+01 0.  1.
</event>
<event>
 5   0  0.1177712E-02  0.9114568E+03  0.7818609E-02  0.9411372E-01
       -1   -1    0    0    0  501  0.00000000000E+00  0.00000000000E+00  0.20418503840E+03  0.20418503846E+03  0.50400001928E-02 0.  1.
        1   -1    0    0  501    0  0.00000000000E+00  0.00000000000E+00 -0.10171575774E+04  0.10171575774E+04  0.50400001928E-02 0. -1.
    10030    2    1    2    0    0  0.00000000000E+00  0.00000000000E+00 -0.81297253902E+03  0.12213426159E+04  0.91145676596E+03 0.  0.
        5    1    3    3  502    0  0.23964592393E+03 -0.31005099779E+03 -0.71817280917E+03  0.81814183606E+03  0.46999998093E+01 0.  1.
       -5    1    3    3    0  502 -0.23964592393E+03  0.31005099779E+03 -0.94799729855E+02  0.40320077984E+03  0.46999998093E+01 0. -1.
</event>
<event>
 5   0  0.1924218E-02  0.8700543E+03  0.7818609E-02  0.9463809E-01
       -2   -1    0    0    0  501  0.00000000000E+00  0.00000000000E+00  0.18723884376E+03  0.18723884378E+03  0.25500000920E-02 0. -1.
        2   -1    0    0  501    0  0.00000000000E+00  0.00000000000E+00 -0.10107338002E+04  0.10107338002E+04  0.25500000920E-02 0.  1.
    10030    2    1    2    0    0  0.00000000000E+00  0.00000000000E+00 -0.82349495647E+03  0.11979726440E+04  0.87005431582E+03 0.  0.
        4    1    3    3  502    0  0.25003618937E+03  0.41827500463E+02 -0.89851289717E+03  0.93359234952E+03  0.12699999809E+01 0.  1.
       -4    1    3    3    0  502 -0.25003618937E+03 -0.41827500463E+02  0.75017940699E+02  0.26438029450E+03  0.12699999809E+01 0. -1.
</event>
<event>
 5   0  0.1206541E-02  0.6377162E+03  0.7818609E-02  0.9830106E-01
       -1   -1    0    0    0  501  0.00000000000E+00  0.00000000000E+00  0.31804739770E+03  0.31804739774E+03  0.50400001928E-02 0.  1.
        1   -1    0    0  501    0  0.00000000000E+00  0.00000000000E+00 -0.31967082213E+03  0.31967082217E+03  0.50400001928E-02 0. -1.
    10030    2    1    2    0    0  0.00000000000E+00  0.00000000000E+00 -0.16234244292E+01  0.63771821991E+03  0.63771615355E+03 0.  0.
        3    1    3    3  502    0  0.28205420858E+01  0.14691545030E+03 -0.28379382628E+03  0.31957949094E+03  0.10100000352E+00 0. -1.
       -3    1    3    3    0  502 -0.28205420858E+01 -0.14691545030E+03  0.28217040185E+03  0.31813872897E+03  0.10100000352E+00 0.  1.
</event>
<event>
 5   0  0.1162839E-02  0.8824428E+03  0.7818609E-02  0.9447799E-01
        1   -1    0    0  501    0  0.00000000000E+00  0.00000000000E+00  0.25345555403E+03  0.25345555408E+03  0.50400001928E-02 0. -1.
       -1   -1    0    0    0  501  0.00000000000E+00  0.00000000000E+00 -0.76808868680E+03  0.76808868681E+03  0.50400001928E-02 0.  1.
    10030    2    1    2    0    0  0.00000000000E+00  0.00000000000E+00 -0.51463313276E+03  0.10215442409E+04  0.88244284504E+03 0.  0.
        2    1    3    3  502    0  0.28935742420E+03 -0.94704614661E+02  0.11236464188E+03  0.32453427512E+03  0.25500000920E-02 0. -1.
       -2    1    3    3    0  502 -0.28935742420E+03  0.94704614661E+02 -0.62699777464E+03  0.69700996577E+03  0.25500000920E-02 0.  1.
</event>
<event>
 5   0  0.7893875E-03  0.8907030E+03  0.7818609E-02  0.9437278E-01
        3   -1    0    0  501    0  0.00000000000E+00  0.00000000000E+00  0.13122489000E+03  0.13122492887E+03  0.10100000352E+00 0. -1.
       -3   -1    0    0    0  501  0.00000000000E+00  0.00000000000E+00 -0.15114353485E+04  0.15114353519E+04  0.10100000352E+00 0.  1.
    10030    2    1    2    0    0  0.00000000000E+00  0.00000000000E+00 -0.13802104585E+04  0.16426602807E+04  0.89070303030E+03 0.  0.
        4    1    3    3  502    0  0.91578312116E+02 -0.34095271757E+03 -0.18943523490E+03  0.40065279731E+03  0.12699999809E+01 0. -1.
       -4    1    3    3    0  502 -0.91578312116E+02  0.34095271757E+03 -0.11907752236E+04  0.12420074834E+04  0.12699999809E+01 0.  1.
</event>
<event>
 5   0  0.2008770E-02  0.8886272E+03  0.7818609E-02  0.9439911E-01
       -2   -1    0    0    0  501  0.00000000000E+00  0.00000000000E+00  0.13138891828E+03  0.13138891830E+03  0.25500000920E-02 0. -1.
        2   -1    0    0  501    0  0.00000000000E+00  0.00000000000E+00 -0.15025207971E+04  0.15025207971E+04  0.25500000920E-02 0.  1.
    10030    2    1    2    0    0  0.00000000000E+00  0.00000000000E+00 -0.13711318789E+04  0.16339097154E+04  0.88862721598E+03 0.  0.
        1    1    3    3  502    0 -0.33155641975E+03  0.27447147356E+03 -0.88824203731E+03  0.98703503796E+03  0.50400001928E-02 0. -1.
       -1    1    3    3    0  502  0.33155641975E+03 -0.27447147356E+03 -0.48288984154E+03  0.64687467748E+03  0.50400001928E-02 0.  1.
</event>
<event>
 5   0  0.2008643E-02  0.8822028E+03  0.7818609E-02  0.9448106E-01
       -2   -1    0    0    0  501  0.00000000000E+00  0.00000000000E+00  0.27634863022E+03  0.27634863024E+03  0.25500000920E-02 0.  1.
        2   -1    0    0  501    0  0.00000000000E+00  0.00000000000E+00 -0.70407596521E+03  0.70407596521E+03  0.25500000920E-02 0. -1.
    10030    2    1    2    0    0  0.00000000000E+00  0.00000000000E+00 -0.42772733498E+03  0.98042459545E+03  0.88220276256E+03 0.  0.
        3    1    3    3  502    0 -0.30102999165E+03 -0.31224419776E+03 -0.12457602985E+03  0.45125900802E+03  0.10100000352E+00 0. -1.
       -3    1    3    3    0  502  0.30102999165E+03  0.31224419776E+03 -0.30315130514E+03  0.52916558743E+03  0.10100000352E+00 0.  1.
</event>
<event>
 5   0  0.2008770E-02  0.9797701E+03  0.7818609E-02  0.9331015E-01
        2   -1    0    0  501    0  0.00000000000E+00  0.00000000000E+00  0.58013720576E+03  0.58013720577E+03  0.25500000920E-02 0. -1.
       -2   -1    0    0    0  501  0.00000000000E+00  0.00000000000E+00 -0.41367349363E+03  0.41367349364E+03  0.25500000920E-02 0.  1.
    10030    2    1    2    0    0  0.00000000000E+00  0.00000000000E+00  0.16646371213E+03  0.99381069940E+03  0.97977014590E+03 0.  0.
        1    1    3    3  502    0 -0.21674325597E+03 -0.42405351951E+03  0.19971815156E+03  0.51641685342E+03  0.50400001928E-02 0. -1.
       -1    1    3    3    0  502  0.21674325597E+03  0.42405351951E+03 -0.33254439431E+02  0.47739384598E+03  0.50400001928E-02 0.  1.
</event>
<event>
 5   0  0.2008643E-02  0.9097833E+03  0.7818609E-02  0.9413434E-01
       -2   -1    0    0    0  501  0.00000000000E+00  0.00000000000E+00  0.82205516684E+02  0.82205516724E+02  0.25500000920E-02 0. -1.
        2   -1    0    0  501    0  0.00000000000E+00  0.00000000000E+00 -0.25171839079E+04  0.25171839079E+04  0.25500000920E-02 0.  1.
    10030    2    1    2    0    0  0.00000000000E+00  0.00000000000E+00 -0.24349783912E+04  0.25993894246E+04  0.90978327922E+03 0.  0.
        3    1    3    3  502    0 -0.17628029805E+03 -0.29576336027E+03 -0.36811357170E+03  0.50404198300E+03  0.10100000352E+00 0. -1.
       -3    1    3    3    0  502  0.17628029805E+03  0.29576336027E+03 -0.20668648195E+04  0.20953474416E+04  0.10100000352E+00 0.  1.
</event>
<event>
 5   0  0.1968763E-02  0.9104419E+03  0.7818609E-02  0.9412622E-01
       -2   -1    0    0    0  501  0.00000000000E+00  0.00000000000E+00  0.36435889866E+03  0.36435889866E+03  0.25500000920E-02 0. -1.
        2   -1    0    0  501    0  0.00000000000E+00  0.00000000000E+00 -0.56874171523E+03  0.56874171523E+03  0.25500000920E-02 0.  1.
    10030    2    1    2    0    0  0.00000000000E+00  0.00000000000E+00 -0.20438281657E+03  0.93310061390E+03  0.91044188170E+03 0.  0.
        2    1    3    3  502    0 -0.34551113121E+03  0.29360483680E+03 -0.60631450744E+02  0.45744717160E+03  0.25500000920E-02 0. -1.
       -2    1    3    3    0  502  0.34551113121E+03 -0.29360483680E+03 -0.14375136583E+03  0.47565344229E+03  0.25500000920E-02 0.  1.
</event>
<event>
 5   0  0.2008770E-02  0.9040310E+03  0.7818609E-02  0.9420556E-01
       -2   -1    0    0    0  501  0.00000000000E+00  0.00000000000E+00  0.70068149202E+02  0.70068149248E+02  0.25500000920E-02 0. -1.
        2   -1    0    0  501    0  0.00000000000E+00  0.00000000000E+00 -0.29159897257E+04  0.29159897257E+04  0.25500000920E-02 0.  1.
    10030    2    1    2    0    0  0.00000000000E+00  0.00000000000E+00 -0.28459215765E+04  0.29860578750E+04  0.90403098010E+03 0.  0.
        1    1    3    3  502    0  0.42816435621E+02  0.44147241888E+03 -0.17106648055E+04  0.17672309472E+04  0.50400001928E-02 0.  1.
       -1    1    3    3    0  502 -0.42816435621E+02 -0.44147241888E+03 -0.11352567710E+04  0.12188269278E+04  0.50400001928E-02 0. -1.
</event>
<event>
 5   0  0.1177712E-02  0.9006015E+03  0.7818609E-02  0.9424830E-01
       -1   -1    0    0    0  501  0.00000000000E+00  0.00000000000E+00  0.15452070055E+03  0.15452070063E+03  0.50400001928E-02 0. -1.
        1   -1    0    0  501    0  0.00000000000E+00  0.00000000000E+00 -0.13122562745E+04  0.13122562745E+04  0.50400001928E-02 0.  1.
    10030    2    1    2    0    0  0.00000000000E+00  0.00000000000E+00 -0.11577355740E+04  0.14667769752E+04  0.90060148547E+03 0.  0.
        5    1    3    3  502    0  0.14908005862E+03 -0.54364788863E+02 -0.12651679666E+04  0.12750892000E+04  0.46999998093E+01 0.  1.
       -5    1    3    3    0  502 -0.14908005862E+03  0.54364788863E+02  0.10743239268E+03  0.19168777515E+03  0.46999998093E+01 0. -1.
</event>
<event>
 5   0  0.1206541E-02  0.8798021E+03  0.7818609E-02  0.9451188E-01
        1   -1    0    0  501    0  0.00000000000E+00  0.00000000000E+00  0.11738782954E+04  0.11738782955E+04  0.50400001928E-02 0.  1.
       -1   -1    0    0    0  501  0.00000000000E+00  0.00000000000E+00 -0.16484923524E+03  0.16484923532E+03  0.50400001928E-02 0. -1.
    10030    2    1    2    0    0  0.00000000000E+00  0.00000000000E+00  0.10090290602E+04  0.13387275308E+04  0.87980211259E+03 0.  0.
        3    1    3    3  502    0 -0.40656300170E+03  0.78821301165E+02  0.73024190661E+03  0.83949956774E+03  0.10100000352E+00 0.  1.
       -3    1    3    3    0  502  0.40656300170E+03 -0.78821301165E+02  0.27878715359E+03  0.49922796303E+03  0.10100000352E+00 0. -1.
</event>
<event>
 5   0  0.1968763E-02  0.9083563E+03  0.7818609E-02  0.9415195E-01
        2   -1    0    0  501    0  0.00000000000E+00  0.00000000000E+00  0.43874598617E+03  0.43874598618E+03  0.25500000920E-02 0. -1.
       -2   -1    0    0    0  501  0.00000000000E+00  0.00000000000E+00 -0.47015313523E+03  0.47015313524E+03  0.25500000920E-02 0.  1.
    10030    2    1    2    0    0  0.00000000000E+00  0.00000000000E+00 -0.31407149056E+02  0.90889912142E+03  0.90835631990E+03 0.  0.
        2    1    3    3  502    0 -0.35220276406E+02  0.17428947218E+03 -0.43387736281E+03  0.46889962034E+03  0.25500000920E-02 0.  1.
       -2    1    3    3    0  502  0.35220276406E+02 -0.17428947218E+03  0.40247021376E+03  0.43999950108E+03  0.25500000920E-02 0. -1.
</event>
<event>
 5   0  0.1206541E-02  0.8604197E+03  0.7818609E-02  0.9476458E-01
       -1   -1    0    0    0  501  0.00000000000E+00  0.00000000000E+00  0.96303411355E+02  0.96303411487E+02  0.50400001928E-02 0. -1.
        1   -1    0    0  501    0  0.00000000000E+00  0.00000000000E+00 -0.19218480463E+04  0.19218480463E+04  0.50400001928E-02 0.  1.
    10030    2    1    2    0    0  0.00000000000E+00  0.00000000000E+00 -0.18255446349E+04  0.20181514578E+04  0.86041971875E+03 0.  0.
        3    1    3    3  502    0 -0.31826857211E+03  0.25850973696E+03 -0.12182188026E+04  0.12853712418E+04  0.10100000352E+00 0.  1.
       -3    1    3    3    0  502  0.31826857211E+03 -0.25850973696E+03 -0.60732583238E+03  0.73278021601E+03  0.10100000352E+00 0. -1.
</event>
<event>
 5   0  0.1206541E-02  0.9061729E+03  0.7818609E-02  0.9417898E-01
       -1   -1    0    0    0  501  0.00000000000E+00  0.00000000000E+00  0.12414688331E+03  0.12414688341E+03  0.50400001928E-02 0.  1.
        1   -1    0    0  501    0  0.00000000000E+00  0.00000000000E+00 -0.16535843433E+04  0.16535843433E+04  0.50400001928E-02 0. -1.
    10030    2    1    2    0    0  0.00000000000E+00  0.00000000000E+00 -0.15294374600E+04  0.17777312267E+04  0.90617292525E+03 0.  0.
        3    1    3    3  502    0  0.26606159010E+03  0.35751919919E+03 -0.60439520822E+03  0.75093430168E+03  0.10100000352E+00 0.  1.
       -3    1    3    3    0  502 -0.26606159010E+03 -0.35751919919E+03 -0.92504225179E+03  0.10267969251E+04  0.10100000352E+00 0. -1.
</event>
<event>
 5   0  0.2041861E-02  0.9532103E+03  0.7818609E-02  0.9361406E-01
       -2   -1    0    0    0  501  0.00000000000E+00  0.00000000000E+00  0.60488548871E+03  0.60488548871E+03  0.25500000920E-02 0.  1.
        2   -1    0    0  501    0  0.00000000000E+00  0.00000000000E+00 -0.37552967955E+03  0.37552967956E+03  0.25500000920E-02 0. -1.
    10030    2    1    2    0    0  0.00000000000E+00  0.00000000000E+00  0.22935580915E+03  0.98041516828E+03  0.95321026799E+03 0.  0.
        5    1    3    3  502    0 -0.24997902824E+03 -0.32575486315E+03  0.36350095206E+03  0.54841660950E+03  0.46999998093E+01 0.  1.
       -5    1    3    3    0  502  0.24997902824E+03  0.32575486315E+03 -0.13414514291E+03  0.43199855878E+03  0.46999998093E+01 0. -1.
</event>
<event>
 5   0  0.2008643E-02  0.9124671E+03  0.7818609E-02  0.9410130E-01
        2   -1    0    0  501    0  0.00000000000E+00  0.00000000000E+00  0.85354618698E+03  0.85354618699E+03  0.25500000920E-02 0.  1.
       -2   -1    0    0    0  501  0.00000000000E+00  0.00000000000E+00 -0.24386381590E+03  0.24386381591E+03  0.25500000920E-02 0. -1.
    10030    2    1    2    0    0  0.00000000000E+00  0.00000000000E+00  0.60968237109E+03  0.10974100029E+04  0.91246705193E+03 0.  0.
        3    1    3    3  502    0 -0.14876148962E+03  0.42406830630E+03  0.39942688184E+03  0.60125348509E+03  0.10100000352E+00 0. -1.
       -3    1    3    3    0  502  0.14876148962E+03 -0.42406830630E+03  0.21025548925E+03  0.49615651780E+03  0.10100000352E+00 0.  1.
</event>
<event>
 5   0  0.1177712E-02  0.9097602E+03  0.7818609E-02  0.9413462E-01
        1   -1    0    0  501    0  0.00000000000E+00  0.00000000000E+00  0.12676770281E+03  0.12676770291E+03  0.50400001928E-02 0. -1.
       -1   -1    0    0    0  501  0.00000000000E+00  0.00000000000E+00 -0.16322447312E+04  0.16322447312E+04  0.50400001928E-02 0.  1.
    10030    2    1    2    0    0  0.00000000000E+00  0.00000000000E+00 -0.15054770284E+04  0.17590124341E+04  0.90976022134E+03 0.  0.
        5    1    3    3  502    0 -0.24303803665E+03  0.38405111707E+03 -0.71755763648E+03  0.84939613812E+03  0.46999998093E+01 0. -1.
       -5    1    3    3    0  502  0.24303803665E+03 -0.38405111707E+03 -0.78791939188E+03  0.90961629597E+03  0.46999998093E+01 0.  1.
</event>
<event>
 5   0  0.1968763E-02  0.9451686E+03  0.7818609E-02  0.9370816E-01
        2   -1    0    0  501    0  0.00000000000E+00  0.00000000000E+00  0.46845033770E+03  0.46845033770E+03  0.25500000920E-02 0.  1.
       -2   -1    0    0    0  501  0.00000000000E+00  0.00000000000E+00 -0.47675473547E+03  0.47675473548E+03  0.25500000920E-02 0. -1.
    10030    2    1    2    0    0  0.00000000000E+00  0.00000000000E+00 -0.83043977780E+01  0.94520507318E+03  0.94516859202E+03 0.  0.
        2    1    3    3  502    0 -0.45241100183E+03  0.10448688941E+03  0.83843766364E+02  0.47182942024E+03  0.25500000920E-02 0. -1.
       -2    1    3    3    0  502  0.45241100183E+03 -0.10448688941E+03 -0.92148164142E+02  0.47337565294E+03  0.25500000920E-02 0.  1.
</event>
<event>
 5   0  0.1226424E-02  0.9205178E+03  0.7818609E-02  0.9400291E-01
       -1   -1    0    0    0  501  0.00000000000E+00  0.00000000000E+00  0.33811799691E+03  0.33811799694E+03  0.50400001928E-02 0. -1.
        1   -1    0    0  501    0  0.00000000000E+00  0.00000000000E+00 -0.62652162681E+03  0.62652162683E+03  0.50400001928E-02 0.  1.
    10030    2    1    2    0    0  0.00000000000E+00  0.00000000000E+00 -0.28840362990E+03  0.96463962377E+03  0.92051776192E+03 0.  0.
        1    1    3    3  502    0  0.27122706883E+03 -0.32264931527E+03  0.49514037328E+02  0.42440351487E+03  0.50400001928E-02 0. -1.
       -1    1    3    3    0  502 -0.27122706883E+03  0.32264931527E+03 -0.33791766723E+03  0.54023610891E+03  0.50400001928E-02 0.  1.
</event>
<event>
 5   0  0.7893875E-03  0.1023647E+04  0.7818609E-02  0.9282983E-01
       -3   -1    0    0    0  501  0.00000000000E+00  0.00000000000E+00  0.75675537788E+03  0.75675538462E+03  0.10100000352E+00 0.  1.
        3   -1    0    0  501    0  0.00000000000E+00  0.00000000000E+00 -0.34616631327E+03  0.34616632801E+03  0.10100000352E+00 0. -1.
    10030    2    1    2    0    0  0.00000000000E+00  0.00000000000E+00  0.41058906461E+03  0.11029217126E+04  0.10236468748E+04 0.  0.
        2    1    3    3  502    0 -0.23588748326E+03 -0.39181494596E+03  0.45287543116E+03  0.64362878493E+03  0.25500000920E-02 0. -1.
       -2    1    3    3    0  502  0.23588748326E+03  0.39181494596E+03 -0.42286366551E+02  0.45929292770E+03  0.25500000920E-02 0.  1.
</event>
<event>
 5   0  0.2008770E-02  0.9026363E+03  0.7818609E-02  0.9422292E-01
        2   -1    0    0  501    0  0.00000000000E+00  0.00000000000E+00  0.22316004885E+04  0.22316004885E+04  0.25500000920E-02 0. -1.
       -2   -1    0    0    0  501  0.00000000000E+00  0.00000000000E+00 -0.91274443114E+02  0.91274443150E+02  0.25500000920E-02 0.  1.
    10030    2    1    2    0    0  0.00000000000E+00  0.00000000000E+00  0.21403260454E+04  0.23228749317E+04  0.90263634291E+03 0.  0.
        1    1    3    3  502    0  0.40739563928E+03 -0.15386820129E+03  0.13751063746E+04  0.14424160883E+04  0.50400001928E-02 0. -1.
       -1    1    3    3    0  502 -0.40739563928E+03  0.15386820129E+03  0.76521967082E+03  0.88045884339E+03  0.50400001928E-02 0.  1.
</event>
<event>
 5   0  0.1162839E-02  0.9056778E+03  0.7818609E-02  0.9418512E-01
        1   -1    0    0  501    0  0.00000000000E+00  0.00000000000E+00  0.56828168567E+03  0.56828168569E+03  0.50400001928E-02 0. -1.
       -1   -1    0    0    0  501  0.00000000000E+00  0.00000000000E+00 -0.36084759034E+03  0.36084759038E+03  0.50400001928E-02 0.  1.
    10030    2    1    2    0    0  0.00000000000E+00  0.00000000000E+00  0.20743409533E+03  0.92912927607E+03  0.90567781675E+03 0.  0.
        2    1    3    3  502    0  0.27861834555E+03 -0.34139878942E+03 -0.32997635855E+01  0.44067244564E+03  0.25500000920E-02 0. -1.
       -2    1    3    3    0  502 -0.27861834555E+03  0.34139878942E+03  0.21073385891E+03  0.48845683043E+03  0.25500000920E-02 0.  1.
</event>
<event>
 5   0  0.1206541E-02  0.9395372E+03  0.7818609E-02  0.9377464E-01
       -1   -1    0    0    0  501  0.00000000000E+00  0.00000000000E+00  0.85806212704E+03  0.85806212705E+03  0.50400001928E-02 0.  1.
        1   -1    0    0  501    0  0.00000000000E+00  0.00000000000E+00 -0.25718711354E+03  0.25718711359E+03  0.50400001928E-02 0. -1.
    10030    2    1    2    0    0  0.00000000000E+00  0.00000000000E+00  0.60087501350E+03  0.11152492406E+04  0.93953716632E+03 0.  0.
        3    1    3    3  502    0 -0.33200732664E+03 -0.33044554192E+03  0.25831267672E+03  0.53492856558E+03  0.10100000352E+00 0.  1.
       -3    1    3    3    0  502  0.33200732664E+03  0.33044554192E+03  0.34256233678E+03  0.58032067506E+03  0.10100000352E+00 0. -1.
</event>
<event>
 5   0  0.1177712E-02  0.8810530E+03  0.7818609E-02  0.9449581E-01
        1   -1    0    0  501    0  0.00000000000E+00  0.00000000000E+00  0.64643217536E+03  0.64643217538E+03  0.50400001928E-02 0. -1.
       -1   -1    0    0    0  501  0.00000000000E+00  0.00000000000E+00 -0.30020722540E+03  0.30020722545E+03  0.50400001928E-02 0.  1.
    10030    2    1    2    0    0  0.00000000000E+00  0.00000000000E+00  0.34622494995E+03  0.94663940082E+03  0.88105302861E+03 0.  0.
        5    1    3    3  502    0 -0.36928337193E+03  0.16861179446E+03 -0.10618091652E+02  0.40612187811E+03  0.46999998093E+01 0. -1.
       -5    1    3    3    0  502  0.36928337193E+03 -0.16861179446E+03  0.35684304160E+03  0.54051752271E+03  0.46999998093E+01 0.  1.
</event>
<event>
 5   0  0.1162839E-02  0.8941718E+03  0.7818609E-02  0.9432896E-01
        1   -1    0    0  501    0  0.00000000000E+00  0.00000000000E+00  0.73906354060E+03  0.73906354062E+03  0.50400001928E-02 0.  1.
       -1   -1    0    0    0  501  0.00000000000E+00  0.00000000000E+00 -0.27045820568E+03  0.27045820573E+03  0.50400001928E-02 0. -1.
    10030    2    1    2    0    0  0.00000000000E+00  0.00000000000E+00  0.46860533492E+03  0.10095217464E+04  0.89417179358E+03 0.  0.
        2    1    3    3  502    0  0.13124690589E+03 -0.10757969335E+03  0.70128751011E+03  0.72152845583E+03  0.25500000920E-02 0.  1.
       -2    1    3    3    0  502 -0.13124690589E+03  0.10757969335E+03 -0.23268217519E+03  0.28799329052E+03  0.25500000920E-02 0. -1.
</event>
<event>
 5   0  0.7893875E-03  0.8686394E+03  0.7818609E-02  0.9465656E-01
        3   -1    0    0  501    0  0.00000000000E+00  0.00000000000E+00  0.43472343805E+03  0.43472344978E+03  0.10100000352E+00 0. -1.
       -3   -1    0    0    0  501  0.00000000000E+00  0.00000000000E+00 -0.43391635803E+03  0.43391636978E+03  0.10100000352E+00 0.  1.
    10030    2    1    2    0    0  0.00000000000E+00  0.00000000000E+00  0.80708001737E+00  0.86863981956E+03  0.86863944462E+03 0.  0.
        5    1    3    3  502    0  0.26516528189E+03  0.27146169671E+03 -0.21080131363E+03  0.43412367285E+03  0.46999998093E+01 0.  1.
       -5    1    3    3    0  502 -0.26516528189E+03 -0.27146169671E+03  0.21160839365E+03  0.43451614672E+03  0.46999998093E+01 0. -1.
</event>
<event>
 5   0  0.1924218E-02  0.1107509E+04  0.7818609E-02  0.9197903E-01
        2   -1    0    0  501    0  0.00000000000E+00  0.00000000000E+00  0.16234645991E+04  0.16234645991E+04  0.25500000920E-02 0.  1.
       -2   -1    0    0    0  501  0.00000000000E+00  0.00000000000E+00 -0.18888266226E+03  0.18888266227E+03  0.25500000920E-02 0. -1.
    10030    2    1    2    0    0  0.00000000000E+00  0.00000000000E+00  0.14345819368E+04  0.18123472614E+04  0.11075094863E+04 0.  0.
        4    1    3    3  502    0 -0.52756801505E+03 -0.44761677682E+02  0.98272911407E+03  0.11162838988E+04  0.12699999809E+01 0.  1.
       -4    1    3    3    0  502  0.52756801505E+03  0.44761677682E+02  0.45185282277E+03  0.69606336252E+03  0.12699999809E+01 0. -1.
</event>
<event>
 5   0  0.1175993E-02  0.8893712E+03  0.7818609E-02  0.9438966E-01
        1   -1    0    0  501    0  0.00000000000E+00  0.00000000000E+00  0.63373862295E+03  0.63373862297E+03  0.50400001928E-02 0. -1.
       -1   -1    0    0    0  501  0.00000000000E+00  0.00000000000E+00 -0.31202968402E+03  0.31202968406E+03  0.50400001928E-02 0.  1.
    10030    2    1    2    0    0  0.00000000000E+00  0.00000000000E+00  0.32170893893E+03  0.94576830702E+03  0.88937115378E+03 0.  0.
        4    1    3    3  502    0 -0.10740855538E+03 -0.44506861384E+01  0.61971074732E+03  0.62896695431E+03  0.12699999809E+01 0. -1.
       -4    1    3    3    0  502  0.10740855538E+03  0.44506861384E+01 -0.29800180839E+03  0.31680135271E+03  0.12699999809E+01 0.  1.
</event>
<event>
 5   0  0.1206541E-02  0.9162878E+03  0.7818609E-02  0.9405447E-01
        1   -1    0    0  501    0  0.00000000000E+00  0.00000000000E+00  0.14568712459E+04  0.14568712459E+04  0.50400001928E-02 0.  1.
       -1   -1    0    0    0  501  0.00000000000E+00  0.00000000000E+00 -0.14407302492E+03  0.14407302501E+03  0.50400001928E-02 0. -1.
    10030    2    1    2    0    0  0.00000000000E+00  0.00000000000E+00  0.13127982209E+04  0.16009442709E+04  0.91628783117E+03 0.  0.
        3    1    3    3  502    0  0.13046256434E+03  0.10624357104E+03  0.14009381276E+04  0.14110052532E+04  0.10100000352E+00 0.  1.
       -3    1    3    3    0  502 -0.13046256434E+03 -0.10624357104E+03 -0.88139906650E+02  0.18993901766E+03  0.10100000352E+00 0. -1.
</event>
<event>
 5   0  0.7893875E-03  0.8945039E+03  0.7818609E-02  0.9432478E-01
       -4   -1    0    0    0  501  0.00000000000E+00  0.00000000000E+00  0.48040532193E+03  0.48040700061E+03  0.12699999809E+01 0.  1.
        4   -1    0    0  501    0  0.00000000000E+00  0.00000000000E+00 -0.41638315814E+03  0.41638509493E+03  0.12699999809E+01 0. -1.
    10030    2    1    2    0    0  0.00000000000E+00  0.00000000000E+00  0.64022163789E+02  0.89679209554E+03  0.89450389892E+03 0.  0.
        2    1    3    3  502    0  0.29804951879E+03  0.30692905878E+03 -0.98688593013E+02  0.43906537232E+03  0.25500000920E-02 0.  1.
       -2    1    3    3    0  502 -0.29804951879E+03 -0.30692905878E+03  0.16271075680E+03  0.45772672323E+03  0.25500000920E-02 0. -1.
</event>
<event>
 5   0  0.2008770E-02  0.9082569E+03  0.7818609E-02  0.9415318E-01
        2   -1    0    0  501    0  0.00000000000E+00  0.00000000000E+00  0.11649100550E+04  0.11649100550E+04  0.25500000920E-02 0.  1.
       -2   -1    0    0    0  501  0.00000000000E+00  0.00000000000E+00 -0.17703741915E+03  0.17703741917E+03  0.25500000920E-02 0. -1.
    10030    2    1    2    0    0  0.00000000000E+00  0.00000000000E+00  0.98787263586E+03  0.13419474742E+04  0.90825694535E+03 0.  0.
        1    1    3    3  502    0  0.10656809613E+03 -0.37323328045E+02 -0.15596596273E+03  0.19254914045E+03  0.50400001928E-02 0. -1.
       -1    1    3    3    0  502 -0.10656809613E+03  0.37323328045E+02  0.11438385986E+04  0.11493983337E+04  0.50400001928E-02 0.  1.
</event>
<event>
 5   0  0.2008643E-02  0.8560490E+03  0.7818609E-02  0.9482254E-01
        2   -1    0    0  501    0  0.00000000000E+00  0.00000000000E+00  0.78139016897E+03  0.78139016897E+03  0.25500000920E-02 0.  1.
       -2   -1    0    0    0  501  0.00000000000E+00  0.00000000000E+00 -0.23446032258E+03  0.23446032259E+03  0.25500000920E-02 0. -1.
    10030    2    1    2    0    0  0.00000000000E+00  0.00000000000E+00  0.54692984639E+03  0.10158504916E+04  0.85604904318E+03 0.  0.
        3    1    3    3  502    0 -0.12032336838E+03  0.41029510842E+03  0.29675493613E+03  0.52046449570E+03  0.10100000352E+00 0.  1.
       -3    1    3    3    0  502  0.12032336838E+03 -0.41029510842E+03  0.25017491026E+03  0.49538599586E+03  0.10100000352E+00 0. -1.
</event>
<event>
 5   0  0.2008643E-02  0.8472597E+03  0.7818609E-02  0.9494022E-01
       -2   -1    0    0    0  501  0.00000000000E+00  0.00000000000E+00  0.10349011029E+03  0.10349011032E+03  0.25500000920E-02 0.  1.
        2   -1    0    0  501    0  0.00000000000E+00  0.00000000000E+00 -0.17341005812E+04  0.17341005812E+04  0.25500000920E-02 0. -1.
    10030    2    1    2    0    0  0.00000000000E+00  0.00000000000E+00 -0.16306104709E+04  0.18375906915E+04  0.84725972506E+03 0.  0.
        3    1    3    3  502    0 -0.11858831011E+02  0.22529134690E+03 -0.15929733965E+04  0.16088695022E+04  0.10100000352E+00 0. -1.
       -3    1    3    3    0  502  0.11858831011E+02 -0.22529134690E+03 -0.37637074350E+02  0.22872118929E+03  0.10100000352E+00 0.  1.
</event>
<event>
 5   0  0.1175993E-02  0.9016452E+03  0.7818609E-02  0.9423527E-01
        1   -1    0    0  501    0  0.00000000000E+00  0.00000000000E+00  0.20462716001E+03  0.20462716007E+03  0.50400001928E-02 0.  1.
       -1   -1    0    0    0  501  0.00000000000E+00  0.00000000000E+00 -0.99322595249E+03  0.99322595250E+03  0.50400001928E-02 0. -1.
    10030    2    1    2    0    0  0.00000000000E+00  0.00000000000E+00 -0.78859879249E+03  0.11978531126E+04  0.90164517621E+03 0.  0.
        4    1    3    3  502    0  0.28990699103E+03  0.27998214511E+03 -0.66265810620E+03  0.77559876459E+03  0.12699999809E+01 0. -1.
       -4    1    3    3    0  502 -0.28990699103E+03 -0.27998214511E+03 -0.12594068629E+03  0.42225434798E+03  0.12699999809E+01 0.  1.
</event>
<event>
 5   0  0.2008770E-02  0.8882306E+03  0.7818609E-02  0.9440415E-01
       -2   -1    0    0    0  501  0.00000000000E+00  0.00000000000E+00  0.38865314353E+03  0.38865314354E+03  0.25500000920E-02 0. -1.
        2   -1    0    0  501    0  0.00000000000E+00  0.00000000000E+00 -0.50749208357E+03  0.50749208357E+03  0.25500000920E-02 0.  1.
    10030    2    1    2    0    0  0.00000000000E+00  0.00000000000E+00 -0.11883894004E+03  0.89614522711E+03  0.88823058628E+03 0.  0.
        1    1    3    3  502    0  0.43412812225E+03  0.83923810293E+02 -0.17480317157E+02  0.44251101001E+03  0.50400001928E-02 0. -1.
       -1    1    3    3    0  502 -0.43412812225E+03 -0.83923810293E+02 -0.10135862288E+03  0.45363421710E+03  0.50400001928E-02 0.  1.
</event>
<event>
 5   0  0.1162839E-02  0.8902963E+03  0.7818609E-02  0.9437794E-01
        1   -1    0    0  501    0  0.00000000000E+00  0.00000000000E+00  0.23374617183E+04  0.23374617183E+04  0.50400001928E-02 0.  1.
       -1   -1    0    0    0  501  0.00000000000E+00  0.00000000000E+00 -0.84774375380E+02  0.84774375530E+02  0.50400001928E-02 0. -1.
    10030    2    1    2    0    0  0.00000000000E+00  0.00000000000E+00  0.22526873429E+04  0.24222360939E+04  0.89029625931E+03 0.  0.
        2    1    3    3  502    0 -0.29241180744E+03  0.33411483135E+03  0.12132136079E+04  0.12919073667E+04  0.25500000920E-02 0.  1.
       -2    1    3    3    0  502  0.29241180744E+03 -0.33411483135E+03  0.10394737350E+04  0.11303287272E+04  0.25500000920E-02 0. -1.
</event>
<event>
 5   0  0.1226424E-02  0.8889408E+03  0.7818609E-02  0.9439512E-01
        1   -1    0    0  501    0  0.00000000000E+00  0.00000000000E+00  0.19544955912E+04  0.19544955912E+04  0.50400001928E-02 0. -1.
       -1   -1    0    0    0  501  0.00000000000E+00  0.00000000000E+00 -0.10107669107E+03  0.10107669120E+03  0.50400001928E-02 0.  1.
    10030    2    1    2    0    0  0.00000000000E+00  0.00000000000E+00  0.18534189002E+04  0.20555722824E+04  0.88894082415E+03 0.  0.
        1    1    3    3  502    0 -0.15548224027E+03  0.34328136624E+03  0.14716530966E+04  0.15191378016E+04  0.50400001928E-02 0. -1.
       -1    1    3    3    0  502  0.15548224027E+03 -0.34328136624E+03  0.38176580353E+03  0.53643448082E+03  0.50400001928E-02 0.  1.
</event>
<event>
 5   0  0.1177712E-02  0.9142833E+03  0.7818609E-02  0.9407901E-01
        1   -1    0    0  501    0  0.00000000000E+00  0.00000000000E+00  0.83378936335E+03  0.83378936337E+03  0.50400001928E-02 0.  1.
       -1   -1    0    0    0  501  0.00000000000E+00  0.00000000000E+00 -0.25063702708E+03  0.25063702713E+03  0.50400001928E-02 0. -1.
    10030    2    1    2    0    0  0.00000000000E+00  0.00000000000E+00  0.58315233627E+03  0.10844263905E+04  0.91428329807E+03 0.  0.
        5    1    3    3  502    0 -0.26775371648E+03  0.20346840940E+03 -0.75663189432E+02  0.34472953826E+03  0.46999998093E+01 0. -1.
       -5    1    3    3    0  502  0.26775371648E+03 -0.20346840940E+03  0.65881552570E+03  0.73969685224E+03  0.46999998093E+01 0.  1.
</event>
<event>
 5   0  0.1968763E-02  0.9126161E+03  0.7818609E-02  0.9409947E-01
       -2   -1    0    0    0  501  0.00000000000E+00  0.00000000000E+00  0.25849290965E+03  0.25849290966E+03  0.25500000920E-02 0. -1.
        2   -1    0    0  501    0  0.00000000000E+00  0.00000000000E+00 -0.80550378947E+03  0.80550378947E+03  0.25500000920E-02 0.  1.
    10030    2    1    2    0    0  0.00000000000E+00  0.00000000000E+00 -0.54701087981E+03  0.10639966991E+04  0.91261606009E+03 0.  0.
        2    1    3    3  502    0 -0.31067816134E+03 -0.16669885605E+03 -0.61122234178E+03  0.70562183897E+03  0.25500000920E-02 0.  1.
       -2    1    3    3    0  502  0.31067816134E+03  0.16669885605E+03  0.64211461966E+02  0.35837486016E+03  0.25500000920E-02 0. -1.
</event>
<event>
 5   0  0.1924218E-02  0.9108991E+03  0.7818609E-02  0.9412059E-01
       -2   -1    0    0    0  501  0.00000000000E+00  0.00000000000E+00  0.25086175502E+03  0.25086175504E+03  0.25500000920E-02 0.  1.
        2   -1    0    0  501    0  0.00000000000E+00  0.00000000000E+00 -0.82688688908E+03  0.82688688908E+03  0.25500000920E-02 0. -1.
    10030    2    1    2    0    0  0.00000000000E+00  0.00000000000E+00 -0.57602513405E+03  0.10777486441E+04  0.91089910793E+03 0.  0.
        4    1    3    3  502    0  0.38018765405E+03  0.23137766248E+03 -0.40244664374E+03  0.60003598970E+03  0.12699999809E+01 0.  1.
       -4    1    3    3    0  502 -0.38018765405E+03 -0.23137766248E+03 -0.17357849032E+03  0.47771265441E+03  0.12699999809E+01 0. -1.
</event>
<event>
 5   0  0.2008643E-02  0.8602839E+03  0.7818609E-02  0.9476637E-01
        2   -1    0    0  501    0  0.00000000000E+00  0.00000000000E+00  0.22623033981E+03  0.22623033982E+03  0.25500000920E-02 0.  1.
       -2   -1    0    0    0  501  0.00000000000E+00  0.00000000000E+00 -0.81784825533E+03  0.81784825533E+03  0.25500000920E-02 0. -1.
    10030    2    1    2    0    0  0.00000000000E+00  0.00000000000E+00 -0.59161791552E+03  0.10440785952E+04  0.86028388041E+03 0.  0.
        3    1    3    3  502    0 -0.30322570714E+03  0.24028928681E+03 -0.67665438806E+02  0.39276378733E+03  0.10100000352E+00 0.  1.
       -3    1    3    3    0  502  0.30322570714E+03 -0.24028928681E+03 -0.52395247671E+03  0.65131480782E+03  0.10100000352E+00 0. -1.
</event>
<event>
 5   0  0.1177712E-02  0.9030468E+03  0.7818609E-02  0.9421781E-01
       -1   -1    0    0    0  501  0.00000000000E+00  0.00000000000E+00  0.16771050118E+03  0.16771050126E+03  0.50400001928E-02 0. -1.
        1   -1    0    0  501    0  0.00000000000E+00  0.00000000000E+00 -0.12156268415E+04  0.12156268415E+04  0.50400001928E-02 0.  1.
    10030    2    1    2    0    0  0.00000000000E+00  0.00000000000E+00 -0.10479163404E+04  0.13833373428E+04  0.90304681363E+03 0.  0.
        5    1    3    3  502    0  0.14574906004E+03  0.17917166992E+03  0.70326836425E+02  0.24148132376E+03  0.46999998093E+01 0. -1.
       -5    1    3    3    0  502 -0.14574906004E+03 -0.17917166992E+03 -0.11182431768E+04  0.11418560190E+04  0.46999998093E+01 0.  1.
</event>
<event>
 5   0  0.7893875E-03  0.8994010E+03  0.7818609E-02  0.9426330E-01
       -4   -1    0    0    0  501  0.00000000000E+00  0.00000000000E+00  0.71686158544E+03  0.71686271041E+03  0.12699999809E+01 0.  1.
        4   -1    0    0  501    0  0.00000000000E+00  0.00000000000E+00 -0.28210267628E+03  0.28210553497E+03  0.12699999809E+01 0. -1.
    10030    2    1    2    0    0  0.00000000000E+00  0.00000000000E+00  0.43475890916E+03  0.99896824539E+03  0.89940104859E+03 0.  0.
        2    1    3    3  502    0 -0.21885675529E+03  0.40881440796E+00 -0.21896197266E+03  0.30958487034E+03  0.25500000920E-02 0. -1.
       -2    1    3    3    0  502  0.21885675529E+03 -0.40881440796E+00  0.65372088182E+03  0.68938337505E+03  0.25500000920E-02 0.  1.
</event>
<event>
 5   0  0.1924218E-02  0.9061827E+03  0.7818609E-02  0.9417886E-01
       -2   -1    0    0    0  501  0.00000000000E+00  0.00000000000E+00  0.36520677041E+03  0.36520677041E+03  0.25500000920E-02 0. -1.
        2   -1    0    0  501    0  0.00000000000E+00  0.00000000000E+00 -0.56212474102E+03  0.56212474103E+03  0.25500000920E-02 0.  1.
    10030    2    1    2    0    0  0.00000000000E+00  0.00000000000E+00 -0.19691797062E+03  0.92733151145E+03  0.90618267748E+03 0.  0.
        4    1    3    3  502    0  0.96033729420E+02 -0.37174241222E+03  0.14772834690E+03  0.41138810825E+03  0.12699999809E+01 0. -1.
       -4    1    3    3    0  502 -0.96033729420E+02  0.37174241222E+03 -0.34464631751E+03  0.51594340320E+03  0.12699999809E+01 0.  1.
</event>
<event>
 5   0  0.2008770E-02  0.9096409E+03  0.7818609E-02  0.9413609E-01
        2   -1    0    0  501    0  0.00000000000E+00  0.00000000000E+00  0.13537853480E+04  0.13537853480E+04  0.25500000920E-02 0.  1.
       -2   -1    0    0    0  501  0.00000000000E+00  0.00000000000E+00 -0.15280238480E+03  0.15280238482E+03  0.25500000920E-02 0. -1.
    10030    2    1    2    0    0  0.00000000000E+00  0.00000000000E+00  0.12009829632E+04  0.15065877329E+04  0.90964087355E+03 0.  0.
        1    1    3    3  502    0  0.19534899920E+03 -0.91812621929E+02  0.12635497846E+04  0.12818536762E+04  0.50400001928E-02 0.  1.
       -1    1    3    3    0  502 -0.19534899920E+03  0.91812621929E+02 -0.62566821403E+02  0.22473405661E+03  0.50400001928E-02 0. -1.
</event>
<event>
 5   0  0.1175993E-02  0.8828843E+03  0.7818609E-02  0.9447233E-01
        1   -1    0    0  501    0  0.00000000000E+00  0.00000000000E+00  0.62065593701E+03  0.62065593703E+03  0.50400001928E-02 0. -1.
       -1   -1    0    0    0  501  0.00000000000E+00  0.00000000000E+00 -0.31397613947E+03  0.31397613951E+03  0.50400001928E-02 0.  1.
    10030    2    1    2    0    0  0.00000000000E+00  0.00000000000E+00  0.30667979753E+03  0.93463207654E+03  0.88288426211E+03 0.  0.
        4    1    3    3  502    0  0.38515274298E+03 -0.11462732854E+03 -0.40092288169E+02  0.40384534706E+03  0.12699999809E+01 0. -1.
       -4    1    3    3    0  502 -0.38515274298E+03  0.11462732854E+03  0.34677208570E+03  0.53078672948E+03  0.12699999809E+01 0.  1.
</event>
<event>
 5   0  0.1177712E-02  0.9099091E+03  0.7818609E-02  0.9413279E-01
        1   -1    0    0  501    0  0.00000000000E+00  0.00000000000E+00  0.29330596653E+03  0.29330596658E+03  0.50400001928E-02 0.  1.
       -1   -1    0    0    0  501  0.00000000000E+00  0.00000000000E+00 -0.70569196563E+03  0.70569196564E+03  0.50400001928E-02 0. -1.
    10030    2    1    2    0    0  0.00000000000E+00  0.00000000000E+00 -0.41238599909E+03  0.99899793222E+03  0.90990914730E+03 0.  0.
        5    1    3    3  502    0  0.28693043601E+03 -0.34726423344E+03 -0.13640833583E+03  0.47069188119E+03  0.46999998093E+01 0. -1.
       -5    1    3    3    0  502 -0.28693043601E+03  0.34726423344E+03 -0.27597766327E+03  0.52830605103E+03  0.46999998093E+01 0.  1.
</event>
<event>
 5   0  0.2041861E-02  0.7893938E+03  0.7818609E-02  0.9575497E-01
       -2   -1    0    0    0  501  0.00000000000E+00  0.00000000000E+00  0.68528028133E+02  0.68528028181E+02  0.25500000920E-02 0. -1.
        2   -1    0    0  501    0  0.00000000000E+00  0.00000000000E+00 -0.22733125826E+04  0.22733125826E+04  0.25500000920E-02 0.  1.
    10030    2    1    2    0    0  0.00000000000E+00  0.00000000000E+00 -0.22047845545E+04  0.23418406108E+04  0.78939376403E+03 0.  0.
        5    1    3    3  502    0  0.26901448096E+03  0.15223518424E+03 -0.37439271269E+03  0.48552686394E+03  0.46999998093E+01 0. -1.
       -5    1    3    3    0  502 -0.26901448096E+03 -0.15223518424E+03 -0.18303918418E+04  0.18563137469E+04  0.46999998093E+01 0.  1.
</event>
<event>
 5   0  0.2041861E-02  0.9033356E+03  0.7818609E-02  0.9421421E-01
       -2   -1    0    0    0  501  0.00000000000E+00  0.00000000000E+00  0.20174708114E+04  0.20174708114E+04  0.25500000920E-02 0. -1.
        2   -1    0    0  501    0  0.00000000000E+00  0.00000000000E+00 -0.10111857768E+03  0.10111857771E+03  0.25500000920E-02 0.  1.
    10030    2    1    2    0    0  0.00000000000E+00  0.00000000000E+00  0.19163522337E+04  0.21185893891E+04  0.90333555005E+03 0.  0.
        5    1    3    3  502    0 -0.19881860485E+03 -0.96531595875E+02  0.18819206674E+04  0.18948600674E+04  0.46999998093E+01 0. -1.
       -5    1    3    3    0  502  0.19881860485E+03  0.96531595875E+02  0.34431566320E+02  0.22372932171E+03  0.46999998093E+01 0.  1.
</event>
<event>
 5   0  0.2041861E-02  0.9093516E+03  0.7818609E-02  0.9413966E-01
        2   -1    0    0  501    0  0.00000000000E+00  0.00000000000E+00  0.13521822883E+04  0.13521822883E+04  0.25500000920E-02 0.  1.
       -2   -1    0    0    0  501  0.00000000000E+00  0.00000000000E+00 -0.15288623647E+03  0.15288623649E+03  0.25500000920E-02 0. -1.
    10030    2    1    2    0    0  0.00000000000E+00  0.00000000000E+00  0.11992960518E+04  0.15050685248E+04  0.90935155158E+03 0.  0.
        5    1    3    3  502    0  0.21983315601E+03  0.14899755969E+02 -0.58573225222E+02  0.22803844395E+03  0.46999998093E+01 0. -1.
       -5    1    3    3    0  502 -0.21983315601E+03 -0.14899755969E+02  0.12578692771E+04  0.12770300808E+04  0.46999998093E+01 0.  1.
</event>
<event>
 5   0  0.1924218E-02  0.9342552E+03  0.7818609E-02  0.9383746E-01
       -2   -1    0    0    0  501  0.00000000000E+00  0.00000000000E+00  0.48784581454E+03  0.48784581454E+03  0.25500000920E-02 0. -1.
        2   -1    0    0  501    0  0.00000000000E+00  0.00000000000E+00 -0.44728922275E+03  0.44728922276E+03  0.25500000920E-02 0.  1.
    10030    2    1    2    0    0  0.00000000000E+00  0.00000000000E+00  0.40556591787E+02  0.93513503730E+03  0.93425515832E+03 0.  0.
        4    1    3    3  502    0  0.37101782748E+02  0.37858353183E+03 -0.25109422923E+03  0.45579815457E+03  0.12699999809E+01 0.  1.
       -4    1    3    3    0  502 -0.37101782748E+02 -0.37858353183E+03  0.29165082101E+03  0.47933688274E+03  0.12699999809E+01 0. -1.
</event>
<event>
 5   0  0.1924218E-02  0.8919132E+03  0.7818609E-02  0.9435747E-01
        2   -1    0    0  501    0  0.00000000000E+00  0.00000000000E+00  0.11746440336E+04  0.11746440336E+04  0.25500000920E-02 0.  1.
       -2   -1    0    0    0  501  0.00000000000E+00  0.00000000000E+00 -0.16930855005E+03  0.16930855007E+03  0.25500000920E-02 0. -1.
    10030    2    1    2    0    0  0.00000000000E+00  0.00000000000E+00  0.10053354836E+04  0.13439525837E+04  0.89191317554E+03 0.  0.
        4    1    3    3  502    0 -0.18873636570E+03 -0.40394069648E+03  0.51665467301E+03  0.68243912992E+03  0.12699999809E+01 0. -1.
       -4    1    3    3    0  502  0.18873636570E+03  0.40394069648E+03  0.48868081057E+03  0.66151345378E+03  0.12699999809E+01 0.  1.
</event>
<event>
 5   0  0.1177712E-02  0.8912286E+03  0.7818609E-02  0.9436613E-01
        1   -1    0    0  501    0  0.00000000000E+00  0.00000000000E+00  0.17100464636E+03  0.17100464644E+03  0.50400001928E-02 0. -1.
       -1   -1    0    0    0  501  0.00000000000E+00  0.00000000000E+00 -0.11612087351E+04  0.11612087351E+04  0.50400001928E-02 0.  1.
    10030    2    1    2    0    0  0.00000000000E+00  0.00000000000E+00 -0.99020408872E+03  0.13322133815E+04  0.89122856587E+03 0.  0.
        5    1    3    3  502    0 -0.17213537005E+03 -0.37255550752E+03 -0.23566905090E+03  0.47327601181E+03  0.46999998093E+01 0.  1.
       -5    1    3    3    0  502  0.17213537005E+03  0.37255550752E+03 -0.75453503782E+03  0.85893736972E+03  0.46999998093E+01 0. -1.
</event>
<event>
 5   0  0.2008643E-02  0.8952449E+03  0.7818609E-02  0.9431545E-01
       -2   -1    0    0    0  501  0.00000000000E+00  0.00000000000E+00  0.24566641560E+03  0.24566641562E+03  0.25500000920E-02 0.  1.
        2   -1    0    0  501    0  0.00000000000E+00  0.00000000000E+00 -0.81560138761E+03  0.81560138761E+03  0.25500000920E-02 0. -1.
    10030    2    1    2    0    0  0.00000000000E+00  0.00000000000E+00 -0.56993497200E+03  0.10612678032E+04  0.89524492619E+03 0.  0.
        3    1    3    3  502    0  0.36288687839E+03  0.14449814193E+03 -0.54414284325E+03  0.66981941118E+03  0.10100000352E+00 0. -1.
       -3    1    3    3    0  502 -0.36288687839E+03 -0.14449814193E+03 -0.25792128752E+02  0.39144839205E+03  0.10100000352E+00 0.  1.
</event>
<event>
 5   0  0.1968763E-02  0.9018176E+03  0.7818609E-02  0.9423312E-01
       -2   -1    0    0    0  501  0.00000000000E+00  0.00000000000E+00  0.56243397669E+03  0.56243397670E+03  0.25500000920E-02 0. -1.
        2   -1    0    0  501    0  0.00000000000E+00  0.00000000000E+00 -0.36149794828E+03  0.36149794829E+03  0.25500000920E-02 0.  1.
    10030    2    1    2    0    0  0.00000000000E+00  0.00000000000E+00  0.20093602841E+03  0.92393192499E+03  0.90181756165E+03 0.  0.
        2    1    3    3  502    0  0.82383009960E+01 -0.37198851398E+03  0.36142043177E+03  0.51871770034E+03  0.25500000920E-02 0. -1.
       -2    1    3    3    0  502 -0.82383009960E+01  0.37198851398E+03 -0.16048440336E+03  0.40521422466E+03  0.25500000920E-02 0.  1.
</event>
<event>
 5   0  0.1226424E-02  0.8887374E+03  0.7818609E-02  0.9439771E-01
        1   -1    0    0  501    0  0.00000000000E+00  0.00000000000E+00  0.20481331100E+04  0.20481331100E+04  0.50400001928E-02 0.  1.
       -1   -1    0    0    0  501  0.00000000000E+00  0.00000000000E+00 -0.96411477330E+02  0.96411477462E+02  0.50400001928E-02 0. -1.
    10030    2    1    2    0    0  0.00000000000E+00  0.00000000000E+00  0.19517216327E+04  0.21445445875E+04  0.88873739441E+03 0.  0.
        1    1    3    3  502    0 -0.17444594909E+03  0.40166143129E+03  0.11580440339E+04  0.12380748277E+04  0.50400001928E-02 0.  1.
       -1    1    3    3    0  502  0.17444594909E+03 -0.40166143129E+03  0.79367759878E+03  0.90646975977E+03  0.50400001928E-02 0. -1.
</event>
<event>
 5   0  0.2041861E-02  0.1152405E+04  0.7818609E-02  0.9155568E-01
        2   -1    0    0  501    0  0.00000000000E+00  0.00000000000E+00  0.17856226300E+04  0.17856226300E+04  0.25500000920E-02 0. -1.
       -2   -1    0    0    0  501  0.00000000000E+00  0.00000000000E+00 -0.18593468007E+03  0.18593468009E+03  0.25500000920E-02 0.  1.
    10030    2    1    2    0    0  0.00000000000E+00  0.00000000000E+00  0.15996879499E+04  0.19715573101E+04  0.11524047422E+04 0.  0.
        5    1    3    3  502    0  0.32769708700E+03 -0.25016102181E+03  0.14884808018E+04  0.15445268223E+04  0.46999998093E+01 0. -1.
       -5    1    3    3    0  502 -0.32769708700E+03  0.25016102181E+03  0.11120714813E+03  0.42703048774E+03  0.46999998093E+01 0.  1.
</event>
<event>
 5   0  0.1968763E-02  0.8353591E+03  0.7818609E-02  0.9510201E-01
        2   -1    0    0  501    0  0.00000000000E+00  0.00000000000E+00  0.95454754426E+03  0.95454754427E+03  0.25500000920E-02 0.  1.
       -2   -1    0    0    0  501  0.00000000000E+00  0.00000000000E+00 -0.18276326619E+03  0.18276326621E+03  0.25500000920E-02 0. -1.
    10030    2    1    2    0    0  0.00000000000E+00  0.00000000000E+00  0.77178427807E+03  0.11373108105E+04  0.83535914895E+03 0.  0.
        2    1    3    3  502    0 -0.38996445778E+03 -0.98840464573E+02  0.53880399039E+03  0.67242208161E+03  0.25500000920E-02 0.  1.
       -2    1    3    3    0  502  0.38996445778E+03  0.98840464573E+02  0.23298028769E+03  0.46488872887E+03  0.25500000920E-02 0. -1.
</event>
<event>
 5   0  0.1226424E-02  0.8902853E+03  0.7818609E-02  0.9437807E-01
       -1   -1    0    0    0  501  0.00000000000E+00  0.00000000000E+00  0.98141827747E+03  0.98141827748E+03  0.50400001928E-02 0. -1.
        1   -1    0    0  501    0  0.00000000000E+00  0.00000000000E+00 -0.20190371575E+03  0.20190371581E+03  0.50400001928E-02 0.  1.
    10030    2    1    2    0    0  0.00000000000E+00  0.00000000000E+00  0.77951456172E+03  0.11833219933E+04  0.89028534071E+03 0.  0.
        1    1    3    3  502    0  0.19853542076E+03 -0.38968472132E+03  0.27949795767E+03  0.51902755581E+03  0.50400001928E-02 0.  1.
       -1    1    3    3    0  502 -0.19853542076E+03  0.38968472132E+03  0.50001660405E+03  0.66429443748E+03  0.50400001928E-02 0. -1.
</event>
<event>
 5   0  0.2041861E-02  0.8925887E+03  0.7818609E-02  0.9434894E-01
        2   -1    0    0  501    0  0.00000000000E+00  0.00000000000E+00  0.18782420671E+04  0.18782420671E+04  0.25500000920E-02 0.  1.
       -2   -1    0    0    0  501  0.00000000000E+00  0.00000000000E+00 -0.10604525258E+03  0.10604525261E+03  0.25500000920E-02 0. -1.
    10030    2    1    2    0    0  0.00000000000E+00  0.00000000000E+00  0.17721968145E+04  0.19842873197E+04  0.89258871703E+03 0.  0.
        5    1    3    3  502    0  0.28408468897E+03 -0.22132704861E+03  0.30017373670E+03  0.46884553443E+03  0.46999998093E+01 0. -1.
       -5    1    3    3    0  502 -0.28408468897E+03  0.22132704861E+03  0.14720230778E+04  0.15154417853E+04  0.46999998093E+01 0.  1.
</event>
<event>
 5   0  0.2041861E-02  0.8965720E+03  0.7818609E-02  0.9429877E-01
       -2   -1    0    0    0  501  0.00000000000E+00  0.00000000000E+00  0.13018103909E+03  0.13018103912E+03  0.25500000920E-02 0.  1.
        2   -1    0    0  501    0  0.00000000000E+00  0.00000000000E+00 -0.15436991326E+04  0.15436991326E+04  0.25500000920E-02 0. -1.
    10030    2    1    2    0    0  0.00000000000E+00  0.00000000000E+00 -0.14135180935E+04  0.16738801718E+04  0.89657204319E+03 0.  0.
        5    1    3    3  502    0 -0.33438056809E+03 -0.29643569052E+03 -0.64065157122E+03  0.78111523390E+03  0.46999998093E+01 0.  1.
       -5    1    3    3    0  502  0.33438056809E+03  0.29643569052E+03 -0.77286652233E+03  0.89276493786E+03  0.46999998093E+01 0. -1.
</event>
<event>
 5   0  0.2008643E-02  0.8995412E+03  0.7818609E-02  0.9426155E-01
       -2   -1    0    0    0  501  0.00000000000E+00  0.00000000000E+00  0.95877595568E+03  0.95877595568E+03  0.25500000920E-02 0. -1.
        2   -1    0    0  501    0  0.00000000000E+00  0.00000000000E+00 -0.21099149322E+03  0.21099149324E+03  0.25500000920E-02 0.  1.
    10030    2    1    2    0    0  0.00000000000E+00  0.00000000000E+00  0.74778446246E+03  0.11697674489E+04  0.89954115095E+03 0.  0.
        3    1    3    3  502    0  0.13533476051E+02 -0.39569782854E+03  0.96403946706E+02  0.40749681916E+03  0.10100000352E+00 0.  1.
       -3    1    3    3    0  502 -0.13533476051E+02  0.39569782854E+03  0.65138051575E+03  0.76227062976E+03  0.10100000352E+00 0. -1.
</event>
<event>
 5   0  0.7893875E-03  0.9030699E+03  0.7818609E-02  0.9421752E-01
        4   -1    0    0  501    0  0.00000000000E+00  0.00000000000E+00  0.20905725622E+03  0.20906111374E+03  0.12699999809E+01 0.  1.
       -4   -1    0    0    0  501  0.00000000000E+00  0.00000000000E+00 -0.97524013312E+03  0.97524096004E+03  0.12699999809E+01 0. -1.
    10030    2    1    2    0    0  0.00000000000E+00  0.00000000000E+00 -0.76618287690E+03  0.11843020738E+04  0.90306987609E+03 0.  0.
        1    1    3    3  502    0  0.18249897284E+03 -0.18114506590E+03  0.10366266486E+03  0.27724602450E+03  0.50400001928E-02 0.  1.
       -1    1    3    3    0  502 -0.18249897284E+03  0.18114506590E+03 -0.86984554177E+03  0.90705604928E+03  0.50400001928E-02 0. -1.
</event>
<event>
 5   0  0.1177712E-02  0.9171830E+03  0.7818609E-02  0.9404353E-01
        1   -1    0    0  501    0  0.00000000000E+00  0.00000000000E+00  0.55705879436E+03  0.55705879438E+03  0.50400001928E-02 0. -1.
       -1   -1    0    0    0  501  0.00000000000E+00  0.00000000000E+00 -0.37752955051E+03  0.37752955055E+03  0.50400001928E-02 0.  1.
    10030    2    1    2    0    0  0.00000000000E+00  0.00000000000E+00  0.17952924384E+03  0.93458834493E+03  0.91718298342E+03 0.  0.
        5    1    3    3  502    0 -0.45479034618E+03  0.43238210697E+02  0.13027154491E+03  0.47507532798E+03  0.46999998093E+01 0. -1.
       -5    1    3    3    0  502  0.45479034618E+03 -0.43238210697E+02  0.49257698936E+02  0.45951301695E+03  0.46999998093E+01 0.  1.
</event>
<event>
 5   0  0.1968763E-02  0.9074020E+03  0.7818609E-02  0.9416376E-01
        2   -1    0    0  501    0  0.00000000000E+00  0.00000000000E+00  0.19970525726E+04  0.19970525726E+04  0.25500000920E-02 0.  1.
       -2   -1    0    0    0  501  0.00000000000E+00  0.00000000000E+00 -0.10307419080E+03  0.10307419083E+03  0.25500000920E-02 0. -1.
    10030    2    1    2    0    0  0.00000000000E+00  0.00000000000E+00  0.18939783818E+04  0.21001267634E+04  0.90740195710E+03 0.  0.
        2    1    3    3  502    0  0.22370757407E+03 -0.11385667501E+03  0.18217007709E+04  0.18389132986E+04  0.25500000920E-02 0.  1.
       -2    1    3    3    0  502 -0.22370757407E+03  0.11385667501E+03  0.72277610858E+02  0.26121346477E+03  0.25500000920E-02 0. -1.
</event>
<event>
 5   0  0.2008770E-02  0.9421317E+03  0.7818609E-02  0.9374395E-01
       -2   -1    0    0    0  501  0.00000000000E+00  0.00000000000E+00  0.16547115888E+03  0.16547115890E+03  0.25500000920E-02 0.  1.
        2   -1    0    0  501    0  0.00000000000E+00  0.00000000000E+00 -0.13410374293E+04  0.13410374293E+04  0.25500000920E-02 0. -1.
    10030    2    1    2    0    0  0.00000000000E+00  0.00000000000E+00 -0.11755662704E+04  0.15065085882E+04  0.94213166289E+03 0.  0.
        1    1    3    3  502    0  0.30989998511E+03  0.27430785167E+03 -0.94755071380E+03  0.10339899194E+04  0.50400001928E-02 0. -1.
       -1    1    3    3    0  502 -0.30989998511E+03 -0.27430785167E+03 -0.22801555665E+03  0.47251866879E+03  0.50400001928E-02 0.  1.
</event>
<event>
 5   0  0.1162839E-02  0.9239243E+03  0.7818609E-02  0.9396159E-01
       -1   -1    0    0    0  501  0.00000000000E+00  0.00000000000E+00  0.51303090673E+03  0.51303090675E+03  0.50400001928E-02 0.  1.
        1   -1    0    0  501    0  0.00000000000E+00  0.00000000000E+00 -0.41597694303E+03  0.41597694306E+03  0.50400001928E-02 0. -1.
    10030    2    1    2    0    0  0.00000000000E+00  0.00000000000E+00  0.97053963694E+02  0.92900784981E+03  0.92392430055E+03 0.  0.
        2    1    3    3  502    0  0.24281947410E+03  0.22076526233E+03  0.37544730083E+03  0.49865747138E+03  0.25500000920E-02 0.  1.
       -2    1    3    3    0  502 -0.24281947410E+03 -0.22076526233E+03 -0.27839333713E+03  0.43035037844E+03  0.25500000920E-02 0. -1.
</event>
<event>
 5   0  0.1206541E-02  0.8966328E+03  0.7818609E-02  0.9429800E-01
        1   -1    0    0  501    0  0.00000000000E+00  0.00000000000E+00  0.32084140473E+03  0.32084140477E+03  0.50400001928E-02 0. -1.
       -1   -1    0    0    0  501  0.00000000000E+00  0.00000000000E+00 -0.62643908517E+03  0.62643908519E+03  0.50400001928E-02 0.  1.
    10030    2    1    2    0    0  0.00000000000E+00  0.00000000000E+00 -0.30559768044E+03  0.94728048995E+03  0.89663280352E+03 0.  0.
        3    1    3    3  502    0 -0.38469661802E+03 -0.20209330359E+03 -0.26927328136E+03  0.51121551378E+03  0.10100000352E+00 0.  1.
       -3    1    3    3    0  502  0.38469661802E+03  0.20209330359E+03 -0.36324399077E+02  0.43606497617E+03  0.10100000352E+00 0. -1.
</event>
<event>
 5   0  0.1968763E-02  0.8745078E+03  0.7818609E-02  0.9458021E-01
       -2   -1    0    0    0  501  0.00000000000E+00  0.00000000000E+00  0.96964949629E+02  0.96964949663E+02  0.25500000920E-02 0.  1.
        2   -1    0    0  501    0  0.00000000000E+00  0.00000000000E+00 -0.19717536289E+04  0.19717536289E+04  0.25500000920E-02 0. -1.
    10030    2    1    2    0    0  0.00000000000E+00  0.00000000000E+00 -0.18747886792E+04  0.20687185785E+04  0.87450784179E+03 0.  0.
        2    1    3    3  502    0 -0.29801425837E+03  0.25850909204E+03 -0.13834272772E+04  0.14385793270E+04  0.25500000920E-02 0. -1.
       -2    1    3    3    0  502  0.29801425837E+03 -0.25850909204E+03 -0.49136140204E+03  0.63013925150E+03  0.25500000920E-02 0.  1.
</event>
<event>
 5   0  0.1226424E-02  0.8936003E+03  0.7818609E-02  0.9433617E-01
       -1   -1    0    0    0  501  0.00000000000E+00  0.00000000000E+00  0.19406732062E+03  0.19406732068E+03  0.50400001928E-02 0.  1.
        1   -1    0    0  501    0  0.00000000000E+00  0.00000000000E+00 -0.10286656000E+04  0.10286656000E+04  0.50400001928E-02 0. -1.
    10030    2    1    2    0    0  0.00000000000E+00  0.00000000000E+00 -0.83459827934E+03  0.12227329207E+04  0.89360030627E+03 0.  0.
        1    1    3    3  502    0 -0.25736398367E+03 -0.30996370543E+03 -0.15297327127E+03  0.43094609933E+03  0.50400001928E-02 0.  1.
       -1    1    3    3    0  502  0.25736398367E+03  0.30996370543E+03 -0.68162500807E+03  0.79178682132E+03  0.50400001928E-02 0. -1.
</event>
<event>
 5   0  0.1226424E-02  0.9104567E+03  0.7818609E-02  0.9412604E-01
       -1   -1    0    0    0  501  0.00000000000E+00  0.00000000000E+00  0.52416753386E+03  0.52416753389E+03  0.50400001928E-02 0.  1.
        1   -1    0    0  501    0  0.00000000000E+00  0.00000000000E+00 -0.39535617109E+03  0.39535617112E+03  0.50400001928E-02 0. -1.
    10030    2    1    2    0    0  0.00000000000E+00  0.00000000000E+00  0.12881136277E+03  0.91952370501E+03  0.91045674081E+03 0.  0.
        1    1    3    3  502    0 -0.29200273063E+03  0.24076998211E+03  0.31990145949E+03  0.49555294650E+03  0.50400001928E-02 0.  1.
       -1    1    3    3    0  502  0.29200273063E+03 -0.24076998211E+03 -0.19109009671E+03  0.42397075850E+03  0.50400001928E-02 0. -1.
</event>
<event>
 5   0  0.1162839E-02  0.9124521E+03  0.7818609E-02  0.9410148E-01
        1   -1    0    0  501    0  0.00000000000E+00  0.00000000000E+00  0.67612244529E+03  0.67612244530E+03  0.50400001928E-02 0.  1.
       -1   -1    0    0    0  501  0.00000000000E+00  0.00000000000E+00 -0.30784690412E+03  0.30784690416E+03  0.50400001928E-02 0. -1.
    10030    2    1    2    0    0  0.00000000000E+00  0.00000000000E+00  0.36827554117E+03  0.98396934946E+03  0.91245208447E+03 0.  0.
        2    1    3    3  502    0 -0.42012890450E+03 -0.16743563549E+03  0.11944208969E+03  0.46777067162E+03  0.25500000920E-02 0. -1.
       -2    1    3    3    0  502  0.42012890450E+03  0.16743563549E+03  0.24883345148E+03  0.51619867785E+03  0.25500000920E-02 0.  1.
</event>
<event>
 5   0  0.1924218E-02  0.9844018E+03  0.7818609E-02  0.9325820E-01
       -2   -1    0    0    0  501  0.00000000000E+00  0.00000000000E+00  0.35740606957E+03  0.35740606958E+03  0.25500000920E-02 0.  1.
        2   -1    0    0  501    0  0.00000000000E+00  0.00000000000E+00 -0.67783322088E+03  0.67783322088E+03  0.25500000920E-02 0. -1.
    10030    2    1    2    0    0  0.00000000000E+00  0.00000000000E+00 -0.32042715131E+03  0.10352392905E+04  0.98440176209E+03 0.  0.
        4    1    3    3  502    0  0.47951916165E+03  0.43833613624E+02 -0.26746097080E+03  0.55081484718E+03  0.12699999809E+01 0. -1.
       -4    1    3    3    0  502 -0.47951916165E+03 -0.43833613624E+02 -0.52966180513E+02  0.48442444328E+03  0.12699999809E+01 0.  1.
</event>
<event>
 5   0  0.2041861E-02  0.9519653E+03  0.7818609E-02  0.9362856E-01
        2   -1    0    0  501    0  0.00000000000E+00  0.00000000000E+00  0.90577461922E+03  0.90577461922E+03  0.25500000920E-02 0.  1.
       -2   -1    0    0    0  501  0.00000000000E+00  0.00000000000E+00 -0.25012788292E+03  0.25012788293E+03  0.25500000920E-02 0. -1.
    10030    2    1    2    0    0  0.00000000000E+00  0.00000000000E+00  0.65564673630E+03  0.11559025022E+04  0.95196531012E+03 0.  0.
        5    1    3    3  502    0  0.38894570691E+03 -0.32052252392E+02 -0.29980197949E+01  0.39030396863E+03  0.46999998093E+01 0. -1.
       -5    1    3    3    0  502 -0.38894570691E+03  0.32052252392E+02  0.65864475609E+03  0.76559853352E+03  0.46999998093E+01 0.  1.
</event>
<event>
 5   0  0.1924218E-02  0.9142476E+03  0.7818609E-02  0.9407944E-01
        2   -1    0    0  501    0  0.00000000000E+00  0.00000000000E+00  0.73574715994E+03  0.73574715995E+03  0.25500000920E-02 0. -1.
       -2   -1    0    0    0  501  0.00000000000E+00  0.00000000000E+00 -0.28401353067E+03  0.28401353069E+03  0.25500000920E-02 0.  1.
    10030    2    1    2    0    0  0.00000000000E+00  0.00000000000E+00  0.45173362927E+03  0.10197606906E+04  0.91424755638E+03 0.  0.
        4    1    3    3  502    0 -0.11425350907E+03  0.34724092068E+03  0.53200650376E+03  0.64549411637E+03  0.12699999809E+01 0. -1.
       -4    1    3    3    0  502  0.11425350907E+03 -0.34724092068E+03 -0.80272874490E+02  0.37426657426E+03  0.12699999809E+01 0.  1.
</event>
<event>
 5   0  0.2008770E-02  0.9034537E+03  0.7818609E-02  0.9421274E-01
       -2   -1    0    0    0  501  0.00000000000E+00  0.00000000000E+00  0.17882738074E+03  0.17882738076E+03  0.25500000920E-02 0. -1.
        2   -1    0    0  501    0  0.00000000000E+00  0.00000000000E+00 -0.11410844983E+04  0.11410844983E+04  0.25500000920E-02 0.  1.
    10030    2    1    2    0    0  0.00000000000E+00  0.00000000000E+00 -0.96225711754E+03  0.13199118790E+04  0.90345371114E+03 0.  0.
        1    1    3    3  502    0 -0.87035349497E+02  0.35248735236E+03 -0.87378422320E+03  0.94621422224E+03  0.50400001928E-02 0.  1.
       -1    1    3    3    0  502  0.87035349497E+02 -0.35248735236E+03 -0.88472894333E+02  0.37369765679E+03  0.50400001928E-02 0. -1.
</event>
<event>
 5   0  0.2041861E-02  0.8798897E+03  0.7818609E-02  0.9451075E-01
       -2   -1    0    0    0  501  0.00000000000E+00  0.00000000000E+00  0.82330796335E+02  0.82330796374E+02  0.25500000920E-02 0. -1.
        2   -1    0    0  501    0  0.00000000000E+00  0.00000000000E+00 -0.23508999645E+04  0.23508999645E+04  0.25500000920E-02 0.  1.
    10030    2    1    2    0    0  0.00000000000E+00  0.00000000000E+00 -0.22685691682E+04  0.24332307609E+04  0.87988968907E+03 0.  0.
        5    1    3    3  502    0 -0.13512564001E+03  0.61613036007E+02  0.10844784219E+02  0.14897920706E+03  0.46999998093E+01 0. -1.
       -5    1    3    3    0  502  0.13512564001E+03 -0.61613036007E+02 -0.22794139524E+04  0.22842515539E+04  0.46999998093E+01 0.  1.
</event>
<event>
 5   0  0.2008643E-02  0.8689899E+03  0.7818609E-02  0.9465198E-01
       -2   -1    0    0    0  501  0.00000000000E+00  0.00000000000E+00  0.54820250846E+03  0.54820250847E+03  0.25500000920E-02 0.  1.
        2   -1    0    0  501    0  0.00000000000E+00  0.00000000000E+00 -0.34437248518E+03  0.34437248519E+03  0.25500000920E-02 0. -1.
    10030    2    1    2    0    0  0.00000000000E+00  0.00000000000E+00  0.20383002328E+03  0.89257499365E+03  0.86898989689E+03 0.  0.
        3    1    3    3  502    0  0.23121797714E+03 -0.34178636729E+03 -0.37814562267E+02  0.41437860121E+03  0.10100000352E+00 0. -1.
       -3    1    3    3    0  502 -0.23121797714E+03  0.34178636729E+03  0.24164458555E+03  0.47819639244E+03  0.10100000352E+00 0.  1.
</event>
<event>
 5   0  0.1924218E-02  0.8976538E+03  0.7818609E-02  0.9428519E-01
        2   -1    0    0  501    0  0.00000000000E+00  0.00000000000E+00  0.12649707718E+04  0.12649707718E+04  0.25500000920E-02 0. -1.
       -2   -1    0    0    0  501  0.00000000000E+00  0.00000000000E+00 -0.15924920722E+03  0.15924920724E+03  0.25500000920E-02 0.  1.
    10030    2    1    2    0    0  0.00000000000E+00  0.00000000000E+00  0.11057215646E+04  0.14242199791E+04  0.89765381431E+03 0.  0.
        4    1    3    3  502    0 -0.36809117719E+03  0.16333071049E+03  0.86729623653E+03  0.95622822094E+03  0.12699999809E+01 0. -1.
       -4    1    3    3    0  502  0.36809117719E+03 -0.16333071049E+03  0.23842532809E+03  0.46799175814E+03  0.12699999809E+01 0.  1.
</event>
<event>
 5   0  0.1206541E-02  0.1089689E+04  0.7818609E-02  0.9215300E-01
       -1   -1    0    0    0  501  0.00000000000E+00  0.00000000000E+00  0.33279310235E+03  0.33279310238E+03  0.50400001928E-02 0. -1.
        1   -1    0    0  501    0  0.00000000000E+00  0.00000000000E+00 -0.89201283258E+03  0.89201283259E+03  0.50400001928E-02 0.  1.
    10030    2    1    2    0    0  0.00000000000E+00  0.00000000000E+00 -0.55921973023E+03  0.12248059350E+04  0.10896893464E+04 0.  0.
        3    1    3    3  502    0  0.49861183130E+03  0.14138895420E+03 -0.90687941637E+02  0.52614532939E+03  0.10100000352E+00 0.  1.
       -3    1    3    3    0  502 -0.49861183130E+03 -0.14138895420E+03 -0.46853178860E+03  0.69866060559E+03  0.10100000352E+00 0. -1.
</event>
<event>
 5   0  0.1162839E-02  0.9120322E+03  0.7818609E-02  0.9410664E-01
       -1   -1    0    0    0  501  0.00000000000E+00  0.00000000000E+00  0.56888747366E+03  0.56888747368E+03  0.50400001928E-02 0.  1.
        1   -1    0    0  501    0  0.00000000000E+00  0.00000000000E+00 -0.36553921560E+03  0.36553921564E+03  0.50400001928E-02 0. -1.
    10030    2    1    2    0    0  0.00000000000E+00  0.00000000000E+00  0.20334825806E+03  0.93442668932E+03  0.91203219442E+03 0.  0.
        2    1    3    3  502    0  0.27988236389E+03  0.50576231032E+02  0.46687943439E+03  0.54668866737E+03  0.25500000920E-02 0.  1.
       -2    1    3    3    0  502 -0.27988236389E+03 -0.50576231032E+02 -0.26353117633E+03  0.38773802195E+03  0.25500000920E-02 0. -1.
</event>
<event>
 5   0  0.1206541E-02  0.9180265E+03  0.7818609E-02  0.9403324E-01
       -1   -1    0    0    0  501  0.00000000000E+00  0.00000000000E+00  0.89216511460E+03  0.89216511461E+03  0.50400001928E-02 0.  1.
        1   -1    0    0  501    0  0.00000000000E+00  0.00000000000E+00 -0.23615940306E+03  0.23615940311E+03  0.50400001928E-02 0. -1.
    10030    2    1    2    0    0  0.00000000000E+00  0.00000000000E+00  0.65600571154E+03  0.11283245177E+04  0.91802653759E+03 0.  0.
        3    1    3    3  502    0  0.34043908682E+03 -0.29131179924E+03  0.20551486047E+03  0.49294797321E+03  0.10100000352E+00 0. -1.
       -3    1    3    3    0  502 -0.34043908682E+03  0.29131179924E+03  0.45049085107E+03  0.63537654451E+03  0.10100000352E+00 0.  1.
</event>
<event>
 5   0  0.1924218E-02  0.9305509E+03  0.7818609E-02  0.9388177E-01
       -2   -1    0    0    0  501  0.00000000000E+00  0.00000000000E+00  0.23115424514E+03  0.23115424516E+03  0.25500000920E-02 0.  1.
        2   -1    0    0  501    0  0.00000000000E+00  0.00000000000E+00 -0.93652289890E+03  0.93652289890E+03  0.25500000920E-02 0. -1.
    10030    2    1    2    0    0  0.00000000000E+00  0.00000000000E+00 -0.70536865375E+03  0.11676771441E+04  0.93055089869E+03 0.  0.
        4    1    3    3  502    0 -0.14532554717E+03  0.36179823699E+03 -0.67127645891E+03  0.77629322819E+03  0.12699999809E+01 0. -1.
       -4    1    3    3    0  502  0.14532554717E+03 -0.36179823699E+03 -0.34092194847E+02  0.39138391587E+03  0.12699999809E+01 0.  1.
</event>
<event>
 5   0  0.1226424E-02  0.8561254E+03  0.7818609E-02  0.9482152E-01
       -1   -1    0    0    0  501  0.00000000000E+00  0.00000000000E+00  0.20484847141E+03  0.20484847147E+03  0.50400001928E-02 0. -1.
        1   -1    0    0  501    0  0.00000000000E+00  0.00000000000E+00 -0.89450343928E+03  0.89450343929E+03  0.50400001928E-02 0.  1.
    10030    2    1    2    0    0  0.00000000000E+00  0.00000000000E+00 -0.68965496787E+03  0.10993519108E+04  0.85612536990E+03 0.  0.
        1    1    3    3  502    0  0.20227705484E+03 -0.44959402224E+02 -0.82580932470E+03  0.85140965201E+03  0.50400001928E-02 0.  1.
       -1    1    3    3    0  502 -0.20227705484E+03  0.44959402224E+02  0.13615435683E+03  0.24794225875E+03  0.50400001928E-02 0. -1.
</event>
<event>
 5   0  0.1177712E-02  0.9012614E+03  0.7818609E-02  0.9424006E-01
       -1   -1    0    0    0  501  0.00000000000E+00  0.00000000000E+00  0.65496819144E+03  0.65496819146E+03  0.50400001928E-02 0. -1.
        1   -1    0    0  501    0  0.00000000000E+00  0.00000000000E+00 -0.31004259647E+03  0.31004259651E+03  0.50400001928E-02 0.  1.
    10030    2    1    2    0    0  0.00000000000E+00  0.00000000000E+00  0.34492559497E+03  0.96501078797E+03  0.90126142424E+03 0.  0.
        5    1    3    3  502    0  0.14078488667E+03  0.36809274876E+03  0.40639611640E+03  0.56612061385E+03  0.46999998093E+01 0. -1.
       -5    1    3    3    0  502 -0.14078488667E+03 -0.36809274876E+03 -0.61470521433E+02  0.39889017411E+03  0.46999998093E+01 0.  1.
</event>
<event>
 5   0  0.1226424E-02  0.8976377E+03  0.7818609E-02  0.9428539E-01
       -1   -1    0    0    0  501  0.00000000000E+00  0.00000000000E+00  0.25210734545E+03  0.25210734551E+03  0.50400001928E-02 0.  1.
        1   -1    0    0  501    0  0.00000000000E+00  0.00000000000E+00 -0.79901818108E+03  0.79901818109E+03  0.50400001928E-02 0. -1.
    10030    2    1    2    0    0  0.00000000000E+00  0.00000000000E+00 -0.54691083562E+03  0.10511255266E+04  0.89763768334E+03 0.  0.
        1    1    3    3  502    0 -0.36529750457E+02  0.12266790545E+03 -0.77719455778E+03  0.78766313761E+03  0.50400001928E-02 0. -1.
       -1    1    3    3    0  502  0.36529750457E+02 -0.12266790545E+03  0.23028372215E+03  0.26346238898E+03  0.50400001928E-02 0.  1.
</event>
<event>
 5   0  0.1162839E-02  0.9423321E+03  0.7818609E-02  0.9374158E-01
       -1   -1    0    0    0  501  0.00000000000E+00  0.00000000000E+00  0.18026522318E+03  0.18026522325E+03  0.50400001928E-02 0.  1.
        1   -1    0    0  501    0  0.00000000000E+00  0.00000000000E+00 -0.12315047008E+04  0.12315047008E+04  0.50400001928E-02 0. -1.
    10030    2    1    2    0    0  0.00000000000E+00  0.00000000000E+00 -0.10512394776E+04  0.14117699240E+04  0.94233214907E+03 0.  0.
        2    1    3    3  502    0  0.11365252510E+03  0.45570137731E+03 -0.46922761002E+03  0.66389396123E+03  0.25500000920E-02 0. -1.
       -2    1    3    3    0  502 -0.11365252510E+03 -0.45570137731E+03 -0.58201186758E+03  0.74787596281E+03  0.25500000920E-02 0.  1.
</event>
<event>
 5   0  0.2041861E-02  0.9060047E+03  0.7818609E-02  0.9418106E-01
       -2   -1    0    0    0  501  0.00000000000E+00  0.00000000000E+00  0.37751535168E+03  0.37751535169E+03  0.25500000920E-02 0.  1.
        2   -1    0    0  501    0  0.00000000000E+00  0.00000000000E+00 -0.54358355941E+03  0.54358355942E+03  0.25500000920E-02 0. -1.
    10030    2    1    2    0    0  0.00000000000E+00  0.00000000000E+00 -0.16606820774E+03  0.92109891110E+03  0.90600472097E+03 0.  0.
        5    1    3    3  502    0 -0.24036679742E+03  0.26238293555E+03 -0.36800386973E+03  0.51192767097E+03  0.46999998093E+01 0. -1.
       -5    1    3    3    0  502  0.24036679742E+03 -0.26238293555E+03  0.20193566199E+03  0.40917124014E+03  0.46999998093E+01 0.  1.
</event>
<event>
 5   0  0.1924218E-02  0.8900050E+03  0.7818609E-02  0.9438163E-01
       -2   -1    0    0    0  501  0.00000000000E+00  0.00000000000E+00  0.11844026853E+03  0.11844026856E+03  0.25500000920E-02 0. -1.
        2   -1    0    0  501    0  0.00000000000E+00  0.00000000000E+00 -0.16719586892E+04  0.16719586892E+04  0.25500000920E-02 0.  1.
    10030    2    1    2    0    0  0.00000000000E+00  0.00000000000E+00 -0.15535184206E+04  0.17903989577E+04  0.89000502502E+03 0.  0.
        4    1    3    3  502    0 -0.31557859738E+03 -0.20021211573E+03 -0.29082098217E+03  0.47355379735E+03  0.12699999809E+01 0. -1.
       -4    1    3    3    0  502  0.31557859738E+03  0.20021211573E+03 -0.12626974385E+04  0.13168451604E+04  0.12699999809E+01 0.  1.
</event>
<event>
 5   0  0.1206541E-02  0.9015226E+03  0.7818609E-02  0.9423680E-01
       -1   -1    0    0    0  501  0.00000000000E+00  0.00000000000E+00  0.75335645857E+03  0.75335645859E+03  0.50400001928E-02 0.  1.
        1   -1    0    0  501    0  0.00000000000E+00  0.00000000000E+00 -0.26970733892E+03  0.26970733896E+03  0.50400001928E-02 0. -1.
    10030    2    1    2    0    0  0.00000000000E+00  0.00000000000E+00  0.48364911966E+03  0.10230637976E+04  0.90152263584E+03 0.  0.
        3    1    3    3  502    0  0.28208657149E+03  0.34949010746E+03  0.28532800577E+03  0.53209797040E+03  0.10100000352E+00 0. -1.
       -3    1    3    3    0  502 -0.28208657149E+03 -0.34949010746E+03  0.19832111389E+03  0.49096582716E+03  0.10100000352E+00 0.  1.
</event>
<event>
 5   0  0.7893875E-03  0.8882231E+03  0.7818609E-02  0.9440424E-01
       -4   -1    0    0    0  501  0.00000000000E+00  0.00000000000E+00  0.54076413054E+03  0.54076562186E+03  0.12699999809E+01 0. -1.
        4   -1    0    0  501    0  0.00000000000E+00  0.00000000000E+00 -0.36473094693E+03  0.36473315801E+03  0.12699999809E+01 0.  1.
    10030    2    1    2    0    0  0.00000000000E+00  0.00000000000E+00  0.17603318361E+03  0.90549877986E+03  0.88822314685E+03 0.  0.
        5    1    3    3  502    0 -0.15357783665E+02  0.44008032099E+03  0.29396470781E+02  0.44135336516E+03  0.46999998093E+01 0. -1.
       -5    1    3    3    0  502  0.15357783665E+02 -0.44008032099E+03  0.14663671283E+03  0.46414541470E+03  0.46999998093E+01 0.  1.
</event>
<event>
 5   0  0.1924218E-02  0.9481174E+03  0.7818609E-02  0.9367354E-01
       -2   -1    0    0    0  501  0.00000000000E+00  0.00000000000E+00  0.20462478734E+03  0.20462478736E+03  0.25500000920E-02 0.  1.
        2   -1    0    0  501    0  0.00000000000E+00  0.00000000000E+00 -0.10982621769E+04  0.10982621769E+04  0.25500000920E-02 0. -1.
    10030    2    1    2    0    0  0.00000000000E+00  0.00000000000E+00 -0.89363738954E+03  0.13028869642E+04  0.94811742818E+03 0.  0.
        4    1    3    3  502    0  0.27179964586E+03 -0.34934647100E+03 -0.21356331559E+03  0.49145590541E+03  0.12699999809E+01 0.  1.
       -4    1    3    3    0  502 -0.27179964586E+03  0.34934647100E+03 -0.68007407394E+03  0.81143105883E+03  0.12699999809E+01 0. -1.
</event>
<event>
 5   0  0.1175993E-02  0.8831560E+03  0.7818609E-02  0.9446886E-01
        1   -1    0    0  501    0  0.00000000000E+00  0.00000000000E+00  0.32464226069E+03  0.32464226073E+03  0.50400001928E-02 0. -1.
       -1   -1    0    0    0  501  0.00000000000E+00  0.00000000000E+00 -0.60063386575E+03  0.60063386577E+03  0.50400001928E-02 0.  1.
    10030    2    1    2    0    0  0.00000000000E+00  0.00000000000E+00 -0.27599160506E+03  0.92527612650E+03  0.88315601352E+03 0.  0.
        4    1    3    3  502    0  0.35338659450E+03 -0.32938567811E+02  0.13725540549E+03  0.38053606092E+03  0.12699999809E+01 0. -1.
       -4    1    3    3    0  502 -0.35338659450E+03  0.32938567811E+02 -0.41324701055E+03  0.54474006558E+03  0.12699999809E+01 0.  1.
</event>
<event>
 5   0  0.1924218E-02  0.8950733E+03  0.7818609E-02  0.9431761E-01
        2   -1    0    0  501    0  0.00000000000E+00  0.00000000000E+00  0.99143830433E+03  0.99143830433E+03  0.25500000920E-02 0.  1.
       -2   -1    0    0    0  501  0.00000000000E+00  0.00000000000E+00 -0.20201869762E+03  0.20201869763E+03  0.25500000920E-02 0. -1.
    10030    2    1    2    0    0  0.00000000000E+00  0.00000000000E+00  0.78941960671E+03  0.11934570020E+04  0.89507334900E+03 0.  0.
        4    1    3    3  502    0 -0.36411734713E+03  0.24353705468E+03  0.51688335300E+03  0.67754096037E+03  0.12699999809E+01 0.  1.
       -4    1    3    3    0  502  0.36411734713E+03 -0.24353705468E+03  0.27253625372E+03  0.51591604159E+03  0.12699999809E+01 0. -1.
</event>
<event>
 5   0  0.1175993E-02  0.9177969E+03  0.7818609E-02  0.9403604E-01
       -1   -1    0    0    0  501  0.00000000000E+00  0.00000000000E+00  0.27972424044E+03  0.27972424049E+03  0.50400001928E-02 0.  1.
        1   -1    0    0  501    0  0.00000000000E+00  0.00000000000E+00 -0.75284061390E+03  0.75284061392E+03  0.50400001928E-02 0. -1.
    10030    2    1    2    0    0  0.00000000000E+00  0.00000000000E+00 -0.47311637346E+03  0.10325648544E+04  0.91779685973E+03 0.  0.
        4    1    3    3  502    0  0.81525723814E+02  0.38321445446E+03 -0.50536302276E+03  0.63944754235E+03  0.12699999809E+01 0. -1.
       -4    1    3    3    0  502 -0.81525723814E+02 -0.38321445446E+03  0.32246649293E+02  0.39311731206E+03  0.12699999809E+01 0.  1.
</event>
<event>
 5   0  0.1226424E-02  0.9056062E+03  0.7818609E-02  0.9418600E-01
       -1   -1    0    0    0  501  0.00000000000E+00  0.00000000000E+00  0.72775183855E+03  0.72775183857E+03  0.50400001928E-02 0. -1.
        1   -1    0    0  501    0  0.00000000000E+00  0.00000000000E+00 -0.28173153014E+03  0.28173153018E+03  0.50400001928E-02 0.  1.
    10030    2    1    2    0    0  0.00000000000E+00  0.00000000000E+00  0.44602030841E+03  0.10094833687E+04  0.90560618166E+03 0.  0.
        1    1    3    3  502    0 -0.27698766418E+03  0.10072262234E+03  0.60618882596E+03  0.67404162001E+03  0.50400001928E-02 0. -1.
       -1    1    3    3    0  502  0.27698766418E+03 -0.10072262234E+03 -0.16016851755E+03  0.33544174874E+03  0.50400001928E-02 0.  1.
</event>
<event>
 5   0  0.2008643E-02  0.8925224E+03  0.7818609E-02  0.9434977E-01
        2   -1    0    0  501    0  0.00000000000E+00  0.00000000000E+00  0.54009238649E+03  0.54009238650E+03  0.25500000920E-02 0. -1.
       -2   -1    0    0    0  501  0.00000000000E+00  0.00000000000E+00 -0.36873145904E+03  0.36873145905E+03  0.25500000920E-02 0.  1.
    10030    2    1    2    0    0  0.00000000000E+00  0.00000000000E+00  0.17136092745E+03  0.90882384554E+03  0.89252238895E+03 0.  0.
        3    1    3    3  502    0 -0.31507083148E+02  0.37714955071E+03  0.32646193514E+03  0.49981184978E+03  0.10100000352E+00 0. -1.
       -3    1    3    3    0  502  0.31507083148E+02 -0.37714955071E+03 -0.15510100769E+03  0.40901199576E+03  0.10100000352E+00 0.  1.
</event>
<event>
 5   0  0.1177712E-02  0.9006978E+03  0.7818609E-02  0.9424710E-01
       -1   -1    0    0    0  501  0.00000000000E+00  0.00000000000E+00  0.17882783655E+03  0.17882783662E+03  0.50400001928E-02 0.  1.
        1   -1    0    0  501    0  0.00000000000E+00  0.00000000000E+00 -0.11341305504E+04  0.11341305504E+04  0.50400001928E-02 0. -1.
    10030    2    1    2    0    0  0.00000000000E+00  0.00000000000E+00 -0.95530271386E+03  0.13129583870E+04  0.90069775786E+03 0.  0.
        5    1    3    3  502    0 -0.44279325567E+03 -0.68102195315E+02 -0.54426493462E+03  0.70494693795E+03  0.46999998093E+01 0. -1.
       -5    1    3    3    0  502  0.44279325567E+03  0.68102195315E+02 -0.41103777923E+03  0.60801144909E+03  0.46999998093E+01 0.  1.
</event>
<event>
 5   0  0.2008643E-02  0.9154944E+03  0.7818609E-02  0.9406417E-01
        2   -1    0    0  501    0  0.00000000000E+00  0.00000000000E+00  0.51433902150E+03  0.51433902150E+03  0.25500000920E-02 0.  1.
       -2   -1    0    0    0  501  0.00000000000E+00  0.00000000000E+00 -0.40738208670E+03  0.40738208671E+03  0.25500000920E-02 0. -1.
    10030    2    1    2    0    0  0.00000000000E+00  0.00000000000E+00  0.10695693479E+03  0.92172110821E+03  0.91549441037E+03 0.  0.
        3    1    3    3  502    0 -0.33859415858E+03  0.47790375950E+02  0.35985489985E+03  0.49641261407E+03  0.10100000352E+00 0.  1.
       -3    1    3    3    0  502  0.33859415858E+03 -0.47790375950E+02 -0.25289796506E+03  0.42530849414E+03  0.10100000352E+00 0. -1.
</event>
<event>
 5   0  0.1924218E-02  0.9172158E+03  0.7818609E-02  0.9404313E-01
       -2   -1    0    0    0  501  0.00000000000E+00  0.00000000000E+00  0.37578022178E+03  0.37578022178E+03  0.25500000920E-02 0.  1.
        2   -1    0    0  501    0  0.00000000000E+00  0.00000000000E+00 -0.55969201786E+03  0.55969201787E+03  0.25500000920E-02 0. -1.
    10030    2    1    2    0    0  0.00000000000E+00  0.00000000000E+00 -0.18391179608E+03  0.93547223965E+03  0.91721576655E+03 0.  0.
        4    1    3    3  502    0 -0.31831738889E+03 -0.28373245802E+03 -0.26410385857E+03  0.50158003231E+03  0.12699999809E+01 0. -1.
       -4    1    3    3    0  502  0.31831738889E+03  0.28373245802E+03  0.80192062490E+02  0.43389220734E+03  0.12699999809E+01 0.  1.
</event>
<event>
 5   0  0.2008643E-02  0.8836025E+03  0.7818609E-02  0.9446314E-01
       -2   -1    0    0    0  501  0.00000000000E+00  0.00000000000E+00  0.24233798739E+03  0.24233798740E+03  0.25500000920E-02 0. -1.
        2   -1    0    0  501    0  0.00000000000E+00  0.00000000000E+00 -0.80543855828E+03  0.80543855828E+03  0.25500000920E-02 0.  1.
    10030    2    1    2    0    0  0.00000000000E+00  0.00000000000E+00 -0.56310057089E+03  0.10477765457E+04  0.88360253324E+03 0.  0.
        3    1    3    3  502    0  0.78521662588E+02 -0.43296533922E+03 -0.32844135915E+03  0.54908867505E+03  0.10100000352E+00 0. -1.
       -3    1    3    3    0  502 -0.78521662588E+02  0.43296533922E+03 -0.23465921174E+03  0.49868787064E+03  0.10100000352E+00 0.  1.
</event>
<event>
 5   0  0.2008770E-02  0.8899906E+03  0.7818609E-02  0.9438181E-01
        2   -1    0    0  501    0  0.00000000000E+00  0.00000000000E+00  0.17547147456E+04  0.17547147456E+04  0.25500000920E-02 0. -1.
       -2   -1    0    0    0  501  0.00000000000E+00  0.00000000000E+00 -0.11285071748E+03  0.11285071751E+03  0.25500000920E-02 0.  1.
    10030    2    1    2    0    0  0.00000000000E+00  0.00000000000E+00  0.16418640281E+04  0.18675654631E+04  0.88999060231E+03 0.  0.
        1    1    3    3  502    0 -0.31880868683E+03  0.15438603475E+03  0.25573544349E+03  0.43689202740E+03  0.50400001928E-02 0.  1.
       -1    1    3    3    0  502  0.31880868683E+03 -0.15438603475E+03  0.13861285846E+04  0.14306734357E+04  0.50400001928E-02 0. -1.
</event>
<event>
 5   0  0.7893875E-03  0.9054569E+03  0.7818609E-02  0.9418786E-01
        4   -1    0    0  501    0  0.00000000000E+00  0.00000000000E+00  0.12415853238E+04  0.12415859734E+04  0.12699999809E+01 0.  1.
       -4   -1    0    0    0  501  0.00000000000E+00  0.00000000000E+00 -0.16507859275E+03  0.16508347793E+03  0.12699999809E+01 0. -1.
    10030    2    1    2    0    0  0.00000000000E+00  0.00000000000E+00  0.10765067311E+04  0.14066694513E+04  0.90545690297E+03 0.  0.
        5    1    3    3  502    0 -0.26027737413E+03 -0.51007518613E+02  0.11082057114E+04  0.11395122059E+04  0.46999998093E+01 0.  1.
       -5    1    3    3    0  502  0.26027737413E+03  0.51007518613E+02 -0.31698980344E+02  0.26715724544E+03  0.46999998093E+01 0. -1.
</event>
<event>
 5   0  0.1175993E-02  0.9261622E+03  0.7818609E-02  0.9393456E-01
       -1   -1    0    0    0  501  0.00000000000E+00  0.00000000000E+00  0.66379858725E+03  0.66379858727E+03  0.50400001928E-02 0.  1.
        1   -1    0    0  501    0  0.00000000000E+00  0.00000000000E+00 -0.32305599757E+03  0.32305599760E+03  0.50400001928E-02 0. -1.
    10030    2    1    2    0    0  0.00000000000E+00  0.00000000000E+00  0.34074258969E+03  0.98685458488E+03  0.92616222082E+03 0.  0.
        4    1    3    3  502    0 -0.20354145348E+03 -0.39640287622E+03  0.36105343782E+02  0.44706774912E+03  0.12699999809E+01 0. -1.
       -4    1    3    3    0  502  0.20354145348E+03  0.39640287622E+03  0.30463724590E+03  0.53978683575E+03  0.12699999809E+01 0.  1.
</event>
<event>
 5   0  0.2041861E-02  0.9253298E+03  0.7818609E-02  0.9394460E-01
       -2   -1    0    0    0  501  0.00000000000E+00  0.00000000000E+00  0.17634509465E+03  0.17634509467E+03  0.25500000920E-02 0. -1.
        2   -1    0    0  501    0  0.00000000000E+00  0.00000000000E+00 -0.12138632345E+04  0.12138632345E+04  0.25500000920E-02 0.  1.
    10030    2    1    2    0    0  0.00000000000E+00  0.00000000000E+00 -0.10375181398E+04  0.13902083291E+04  0.92532983738E+03 0.  0.
        5    1    3    3  502    0  0.20428649352E+03 -0.38633650847E+03 -0.29067303425E+03  0.52488262693E+03  0.46999998093E+01 0. -1.
       -5    1    3    3    0  502 -0.20428649352E+03  0.38633650847E+03 -0.74684510555E+03  0.86532570220E+03  0.46999998093E+01 0.  1.
</event>
<event>
 5   0  0.1226424E-02  0.8912138E+03  0.7818609E-02  0.9436632E-01
       -1   -1    0    0    0  501  0.00000000000E+00  0.00000000000E+00  0.26402564676E+03  0.26402564681E+03  0.50400001928E-02 0. -1.
        1   -1    0    0  501    0  0.00000000000E+00  0.00000000000E+00 -0.75206897078E+03  0.75206897079E+03  0.50400001928E-02 0.  1.
    10030    2    1    2    0    0  0.00000000000E+00  0.00000000000E+00 -0.48804332402E+03  0.10160946176E+04  0.89121377110E+03 0.  0.
        1    1    3    3  502    0  0.37573716813E+03  0.35564187609E+02 -0.51411872335E+03  0.63777840406E+03  0.50400001928E-02 0.  1.
       -1    1    3    3    0  502 -0.37573716813E+03 -0.35564187609E+02  0.26075399335E+02  0.37831621354E+03  0.50400001928E-02 0. -1.
</event>
<event>
 5   0  0.1175993E-02  0.8693392E+03  0.7818609E-02  0.9464742E-01
       -1   -1    0    0    0  501  0.00000000000E+00  0.00000000000E+00  0.42042128755E+03  0.42042128758E+03  0.50400001928E-02 0. -1.
        1   -1    0    0  501    0  0.00000000000E+00  0.00000000000E+00 -0.44940083070E+03  0.44940083073E+03  0.50400001928E-02 0.  1.
    10030    2    1    2    0    0  0.00000000000E+00  0.00000000000E+00 -0.28979543152E+02  0.86982211830E+03  0.86933923388E+03 0.  0.
        4    1    3    3  502    0 -0.25832220272E+03 -0.17164052242E+03  0.29022041049E+03  0.42475914224E+03  0.12699999809E+01 0. -1.
       -4    1    3    3    0  502  0.25832220272E+03  0.17164052242E+03 -0.31919995364E+03  0.44506297606E+03  0.12699999809E+01 0.  1.
</event>
<event>
 5   0  0.1177712E-02  0.8847103E+03  0.7818609E-02  0.9444899E-01
       -1   -1    0    0    0  501  0.00000000000E+00  0.00000000000E+00  0.13081290611E+03  0.13081290621E+03  0.50400001928E-02 0.  1.
        1   -1    0    0  501    0  0.00000000000E+00  0.00000000000E+00 -0.14958620471E+04  0.14958620471E+04  0.50400001928E-02 0. -1.
    10030    2    1    2    0    0  0.00000000000E+00  0.00000000000E+00 -0.13650491410E+04  0.16266749533E+04  0.88471026128E+03 0.  0.
        5    1    3    3  502    0  0.19410971912E+03 -0.26003505952E+03 -0.12982923545E+03  0.34953474164E+03  0.46999998093E+01 0.  1.
       -5    1    3    3    0  502 -0.19410971912E+03  0.26003505952E+03 -0.12352199055E+04  0.12771402116E+04  0.46999998093E+01 0. -1.
</event>
<event>
 5   0  0.1924218E-02  0.8958860E+03  0.7818609E-02  0.9430739E-01
       -2   -1    0    0    0  501  0.00000000000E+00  0.00000000000E+00  0.95392222317E+02  0.95392222352E+02  0.25500000920E-02 0.  1.
        2   -1    0    0  501    0  0.00000000000E+00  0.00000000000E+00 -0.21034518258E+04  0.21034518258E+04  0.25500000920E-02 0. -1.
    10030    2    1    2    0    0  0.00000000000E+00  0.00000000000E+00 -0.20080596034E+04  0.21988440481E+04  0.89588602899E+03 0.  0.
        4    1    3    3  502    0 -0.34987280115E+03  0.52698640386E+02 -0.32979790390E+03  0.48369039064E+03  0.12699999809E+01 0.  1.
       -4    1    3    3    0  502  0.34987280115E+03 -0.52698640386E+02 -0.16782616995E+04  0.17151536575E+04  0.12699999809E+01 0. -1.
</event>
<event>
 5   0  0.1226424E-02  0.9328529E+03  0.7818609E-02  0.9385420E-01
        1   -1    0    0  501    0  0.00000000000E+00  0.00000000000E+00  0.33750508552E+03  0.33750508556E+03  0.50400001928E-02 0. -1.
       -1   -1    0    0    0  501  0.00000000000E+00  0.00000000000E+00 -0.64459367831E+03  0.64459367833E+03  0.50400001928E-02 0.  1.
    10030    2    1    2    0    0  0.00000000000E+00  0.00000000000E+00 -0.30708859279E+03  0.98209876389E+03  0.93285292421E+03 0.  0.
        1    1    3    3  502    0  0.12726285761E+03  0.39330616257E+03  0.73887885156E+02  0.41993450923E+03  0.50400001928E-02 0. -1.
       -1    1    3    3    0  502 -0.12726285761E+03 -0.39330616257E+03 -0.38097647795E+03  0.56216425466E+03  0.50400001928E-02 0.  1.
</event>
<event>
 5   0  0.1968763E-02  0.8791467E+03  0.7818609E-02  0.9452031E-01
       -2   -1    0    0    0  501  0.00000000000E+00  0.00000000000E+00  0.16368231315E+04  0.16368231315E+04  0.25500000920E-02 0. -1.
        2   -1    0    0  501    0  0.00000000000E+00  0.00000000000E+00 -0.11804864360E+03  0.11804864363E+03  0.25500000920E-02 0.  1.
    10030    2    1    2    0    0  0.00000000000E+00  0.00000000000E+00  0.15187744879E+04  0.17548717751E+04  0.87914674658E+03 0.  0.
        2    1    3    3  502    0 -0.41685235218E+01 -0.20930281018E+03 -0.12153542482E+02  0.20969680861E+03  0.25500000920E-02 0.  1.
       -2    1    3    3    0  502  0.41685235218E+01  0.20930281018E+03  0.15309280303E+04  0.15451749665E+04  0.25500000920E-02 0. -1.
</event>
<event>
 5   0  0.2041861E-02  0.9122768E+03  0.7818609E-02  0.9410364E-01
        2   -1    0    0  501    0  0.00000000000E+00  0.00000000000E+00  0.10711508299E+04  0.10711508299E+04  0.25500000920E-02 0. -1.
       -2   -1    0    0    0  501  0.00000000000E+00  0.00000000000E+00 -0.19424175886E+03  0.19424175888E+03  0.25500000920E-02 0.  1.
    10030    2    1    2    0    0  0.00000000000E+00  0.00000000000E+00  0.87690907107E+03  0.12653925888E+04  0.91227675894E+03 0.  0.
        5    1    3    3  502    0 -0.97472546535E+02  0.26470501002E+03 -0.58710260049E+02  0.28816423146E+03  0.46999998093E+01 0.  1.
       -5    1    3    3    0  502  0.97472546535E+02 -0.26470501002E+03  0.93561933112E+03  0.97722835736E+03  0.46999998093E+01 0. -1.
</event>
<event>
 5   0  0.1206541E-02  0.1014114E+04  0.7818609E-02  0.9293199E-01
       -1   -1    0    0    0  501  0.00000000000E+00  0.00000000000E+00  0.10234799329E+04  0.10234799329E+04  0.50400001928E-02 0. -1.
        1   -1    0    0  501    0  0.00000000000E+00  0.00000000000E+00 -0.25120833904E+03  0.25120833909E+03  0.50400001928E-02 0.  1.
    10030    2    1    2    0    0  0.00000000000E+00  0.00000000000E+00  0.77227159388E+03  0.12746882720E+04  0.10141137885E+04 0.  0.
        3    1    3    3  502    0  0.50197406435E+03 -0.65890230600E+02  0.35086949984E+03  0.61597800276E+03  0.10100000352E+00 0.  1.
       -3    1    3    3    0  502 -0.50197406435E+03  0.65890230600E+02  0.42140209404E+03  0.65871026926E+03  0.10100000352E+00 0. -1.
</event>
<event>
 5   0  0.7893875E-03  0.8857389E+03  0.7818609E-02  0.9443586E-01
       -3   -1    0    0    0  501  0.00000000000E+00  0.00000000000E+00  0.57018785477E+03  0.57018786371E+03  0.10100000352E+00 0. -1.
        3   -1    0    0  501    0  0.00000000000E+00  0.00000000000E+00 -0.34398017323E+03  0.34398018806E+03  0.10100000352E+00 0.  1.
    10030    2    1    2    0    0  0.00000000000E+00  0.00000000000E+00  0.22620768154E+03  0.91416805177E+03  0.88573885073E+03 0.  0.
        4    1    3    3  502    0  0.36231555910E+03 -0.16116489249E+03 -0.90418249173E+02  0.40672319779E+03  0.12699999809E+01 0.  1.
       -4    1    3    3    0  502 -0.36231555910E+03  0.16116489249E+03  0.31662593071E+03  0.50744485398E+03  0.12699999809E+01 0. -1.
</event>
<event>
 5   0  0.1177712E-02  0.7895210E+03  0.7818609E-02  0.9575310E-01
        1   -1    0    0  501    0  0.00000000000E+00  0.00000000000E+00  0.58427595295E+03  0.58427595298E+03  0.50400001928E-02 0.  1.
       -1   -1    0    0    0  501  0.00000000000E+00  0.00000000000E+00 -0.26671618477E+03  0.26671618482E+03  0.50400001928E-02 0. -1.
    10030    2    1    2    0    0  0.00000000000E+00  0.00000000000E+00  0.31755976818E+03  0.85099213779E+03  0.78952100176E+03 0.  0.
        5    1    3    3  502    0 -0.18630275033E+03 -0.20375530228E+03 -0.14530015151E+03  0.31202429715E+03  0.46999998093E+01 0. -1.
       -5    1    3    3    0  502  0.18630275033E+03  0.20375530228E+03  0.46285991970E+03  0.53896784064E+03  0.46999998093E+01 0.  1.
</event>
<event>
 5   0  0.1968763E-02  0.8997929E+03  0.7818609E-02  0.9425840E-01
       -2   -1    0    0    0  501  0.00000000000E+00  0.00000000000E+00  0.13538666838E+03  0.13538666840E+03  0.25500000920E-02 0.  1.
        2   -1    0    0  501    0  0.00000000000E+00  0.00000000000E+00 -0.14950278284E+04  0.14950278284E+04  0.25500000920E-02 0. -1.
    10030    2    1    2    0    0  0.00000000000E+00  0.00000000000E+00 -0.13596411600E+04  0.16304144968E+04  0.89979294693E+03 0.  0.
        2    1    3    3  502    0  0.60803859938E+02  0.43754094112E+03 -0.83429355618E+03  0.94402591195E+03  0.25500000920E-02 0.  1.
       -2    1    3    3    0  502 -0.60803859938E+02 -0.43754094112E+03 -0.52534760382E+03  0.68638858483E+03  0.25500000920E-02 0. -1.
</event>
<event>
 5   0  0.1175993E-02  0.8980142E+03  0.7818609E-02  0.9428067E-01
       -1   -1    0    0    0  501  0.00000000000E+00  0.00000000000E+00  0.10609443335E+04  0.10609443335E+04  0.50400001928E-02 0. -1.
        1   -1    0    0  501    0  0.00000000000E+00  0.00000000000E+00 -0.19002634181E+03  0.19002634187E+03  0.50400001928E-02 0.  1.
    10030    2    1    2    0    0  0.00000000000E+00  0.00000000000E+00  0.87091799167E+03  0.12509706754E+04  0.89801418831E+03 0.  0.
        4    1    3    3  502    0 -0.12093684498E+03 -0.38207136017E+03  0.15338446649E+03  0.42910680744E+03  0.12699999809E+01 0.  1.
       -4    1    3    3    0  502  0.12093684498E+03  0.38207136017E+03  0.71753352519E+03  0.82186386793E+03  0.12699999809E+01 0. -1.
</event>
<event>
 5   0  0.2008643E-02  0.9015656E+03  0.7818609E-02  0.9423626E-01
        2   -1    0    0  501    0  0.00000000000E+00  0.00000000000E+00  0.23323338399E+03  0.23323338400E+03  0.25500000920E-02 0.  1.
       -2   -1    0    0    0  501  0.00000000000E+00  0.00000000000E+00 -0.87125240845E+03  0.87125240845E+03  0.25500000920E-02 0. -1.
    10030    2    1    2    0    0  0.00000000000E+00  0.00000000000E+00 -0.63801902446E+03  0.11044857925E+04  0.90156563275E+03 0.  0.
        3    1    3    3  502    0  0.20546600457E+03  0.97550361138E+02 -0.79580275427E+03  0.82766804088E+03  0.10100000352E+00 0. -1.
       -3    1    3    3    0  502 -0.20546600457E+03 -0.97550361138E+02  0.15778372981E+03  0.27681775157E+03  0.10100000352E+00 0.  1.
</event>
<event>
 5   0  0.2041861E-02  0.8943729E+03  0.7818609E-02  0.9432643E-01
        2   -1    0    0  501    0  0.00000000000E+00  0.00000000000E+00  0.19852981304E+04  0.19852981305E+04  0.25500000920E-02 0.  1.
       -2   -1    0    0    0  501  0.00000000000E+00  0.00000000000E+00 -0.10072831818E+03  0.10072831822E+03  0.25500000920E-02 0. -1.
    10030    2    1    2    0    0  0.00000000000E+00  0.00000000000E+00  0.18845698123E+04  0.20860264487E+04  0.89437294639E+03 0.  0.
        5    1    3    3  502    0  0.40939378650E+03  0.16107395118E+03  0.75561265533E+03  0.87436872374E+03  0.46999998093E+01 0. -1.
       -5    1    3    3    0  502 -0.40939378650E+03 -0.16107395118E+03  0.11289571569E+04  0.12116577249E+04  0.46999998093E+01 0.  1.
</event>
<event>
 5   0  0.1924218E-02  0.8914910E+03  0.7818609E-02  0.9436281E-01
       -2   -1    0    0    0  501  0.00000000000E+00  0.00000000000E+00  0.24741027466E+03  0.24741027468E+03  0.25500000920E-02 0. -1.
        2   -1    0    0  501    0  0.00000000000E+00  0.00000000000E+00 -0.80307514617E+03  0.80307514617E+03  0.25500000920E-02 0.  1.
    10030    2    1    2    0    0  0.00000000000E+00  0.00000000000E+00 -0.55566487150E+03  0.10504854208E+04  0.89149098144E+03 0.  0.
        4    1    3    3  502    0  0.80008111512E+02  0.36853852747E+02  0.23704967397E+03  0.25289061904E+03  0.12699999809E+01 0. -1.
       -4    1    3    3    0  502 -0.80008111512E+02 -0.36853852747E+02 -0.79271454547E+03  0.79759480181E+03  0.12699999809E+01 0.  1.
</event>
<event>
 5   0  0.1175993E-02  0.9029572E+03  0.7818609E-02  0.9421892E-01
       -1   -1    0    0    0  501  0.00000000000E+00  0.00000000000E+00  0.16763275558E+03  0.16763275566E+03  0.50400001928E-02 0.  1.
        1   -1    0    0  501    0  0.00000000000E+00  0.00000000000E+00 -0.12159493858E+04  0.12159493858E+04  0.50400001928E-02 0. -1.
    10030    2    1    2    0    0  0.00000000000E+00  0.00000000000E+00 -0.10483166302E+04  0.13835821414E+04  0.90295724426E+03 0.  0.
        4    1    3    3  502    0 -0.18019862078E+03  0.69478293852E+02  0.10114011230E+03  0.21801309929E+03  0.12699999809E+01 0.  1.
       -4    1    3    3    0  502  0.18019862078E+03 -0.69478293852E+02 -0.11494567425E+04  0.11655690421E+04  0.12699999809E+01 0. -1.
</event>
<event>
 5   0  0.2008770E-02  0.9029660E+03  0.7818609E-02  0.9421881E-01
       -2   -1    0    0    0  501  0.00000000000E+00  0.00000000000E+00  0.18415165590E+03  0.18415165592E+03  0.25500000920E-02 0. -1.
        2   -1    0    0  501    0  0.00000000000E+00  0.00000000000E+00 -0.11068970276E+04  0.11068970276E+04  0.25500000920E-02 0.  1.
    10030    2    1    2    0    0  0.00000000000E+00  0.00000000000E+00 -0.92274537167E+03  0.12910486835E+04  0.90296604709E+03 0.  0.
        1    1    3    3  502    0 -0.76518222918E+02  0.18856378488E+03 -0.10376060670E+04  0.10573730135E+04  0.50400001928E-02 0.  1.
       -1    1    3    3    0  502  0.76518222918E+02 -0.18856378488E+03  0.11486069529E+03  0.23367567001E+03  0.50400001928E-02 0. -1.
</event>
<event>
 5   0  0.1175993E-02  0.8979013E+03  0.7818609E-02  0.9428209E-01
        1   -1    0    0  501    0  0.00000000000E+00  0.00000000000E+00  0.29214441298E+03  0.29214441303E+03  0.50400001928E-02 0.  1.
       -1   -1    0    0    0  501  0.00000000000E+00  0.00000000000E+00 -0.68992134015E+03  0.68992134017E+03  0.50400001928E-02 0. -1.
    10030    2    1    2    0    0  0.00000000000E+00  0.00000000000E+00 -0.39777692717E+03  0.98206575320E+03  0.89790125282E+03 0.  0.
        4    1    3    3  502    0 -0.32038877001E+03 -0.17439020669E+03 -0.48513399126E+03  0.60697406082E+03  0.12699999809E+01 0.  1.
       -4    1    3    3    0  502  0.32038877001E+03  0.17439020669E+03  0.87357064094E+02  0.37509169237E+03  0.12699999809E+01 0. -1.
</event>
<event>
 5   0  0.1924218E-02  0.6706622E+03  0.7818609E-02  0.9768762E-01
       -2   -1    0    0    0  501  0.00000000000E+00  0.00000000000E+00  0.11926706592E+04  0.11926706592E+04  0.25500000920E-02 0. -1.
        2   -1    0    0  501    0  0.00000000000E+00  0.00000000000E+00 -0.94281641253E+02  0.94281641288E+02  0.25500000920E-02 0.  1.
    10030    2    1    2    0    0  0.00000000000E+00  0.00000000000E+00  0.10983890179E+04  0.12869523005E+04  0.67066220184E+03 0.  0.
        4    1    3    3  502    0  0.78098178805E+02  0.32391161376E+03  0.62169024989E+03  0.70534986976E+03  0.12699999809E+01 0. -1.
       -4    1    3    3    0  502 -0.78098178805E+02 -0.32391161376E+03  0.47669876803E+03  0.58160243071E+03  0.12699999809E+01 0.  1.
</event>
<event>
 5   0  0.1226424E-02  0.8954363E+03  0.7818609E-02  0.9431304E-01
       -1   -1    0    0    0  501  0.00000000000E+00  0.00000000000E+00  0.25117679154E+03  0.25117679159E+03  0.50400001928E-02 0.  1.
        1   -1    0    0  501    0  0.00000000000E+00  0.00000000000E+00 -0.79804961097E+03  0.79804961099E+03  0.50400001928E-02 0. -1.
    10030    2    1    2    0    0  0.00000000000E+00  0.00000000000E+00 -0.54687281944E+03  0.10492264026E+04  0.89543629770E+03 0.  0.
        1    1    3    3  502    0 -0.20929849622E+03 -0.13487709881E+03 -0.70943695402E+03  0.75186334135E+03  0.50400001928E-02 0. -1.
       -1    1    3    3    0  502  0.20929849622E+03  0.13487709881E+03  0.16256413459E+03  0.29736306123E+03  0.50400001928E-02 0.  1.
</event>
<event>
 5   0  0.2041861E-02  0.8845779E+03  0.7818609E-02  0.9445068E-01
       -2   -1    0    0    0  501  0.00000000000E+00  0.00000000000E+00  0.42752965628E+03  0.42752965629E+03  0.25500000920E-02 0.  1.
        2   -1    0    0  501    0  0.00000000000E+00  0.00000000000E+00 -0.45755774023E+03  0.45755774023E+03  0.25500000920E-02 0. -1.
    10030    2    1    2    0    0  0.00000000000E+00  0.00000000000E+00 -0.30028083948E+02  0.88508739652E+03  0.88457787314E+03 0.  0.
        5    1    3    3  502    0  0.35024269428E+03  0.26976437285E+03 -0.27457107357E+02  0.44296585026E+03  0.46999998093E+01 0. -1.
       -5    1    3    3    0  502 -0.35024269428E+03 -0.26976437285E+03 -0.25709765910E+01  0.44212154626E+03  0.46999998093E+01 0.  1.
</event>
<event>
 5   0  0.2041861E-02  0.1050113E+04  0.7818609E-02  0.9255227E-01
        2   -1    0    0  501    0  0.00000000000E+00  0.00000000000E+00  0.16188654682E+04  0.16188654682E+04  0.25500000920E-02 0. -1.
       -2   -1    0    0    0  501  0.00000000000E+00  0.00000000000E+00 -0.17029491179E+03  0.17029491181E+03  0.25500000920E-02 0.  1.
    10030    2    1    2    0    0  0.00000000000E+00  0.00000000000E+00  0.14485705564E+04  0.17891603800E+04  0.10501134265E+04 0.  0.
        5    1    3    3  502    0  0.45363504436E+03  0.12010760776E+03  0.32307581869E+03  0.56974614130E+03  0.46999998093E+01 0.  1.
       -5    1    3    3    0  502 -0.45363504436E+03 -0.12010760776E+03  0.11254947377E+04  0.12194142387E+04  0.46999998093E+01 0. -1.
</event>
<event>
 5   0  0.1968763E-02  0.9554870E+03  0.7818609E-02  0.9358760E-01
       -2   -1    0    0    0  501  0.00000000000E+00  0.00000000000E+00  0.22607821586E+03  0.22607821587E+03  0.25500000920E-02 0.  1.
        2   -1    0    0  501    0  0.00000000000E+00  0.00000000000E+00 -0.10095569726E+04  0.10095569726E+04  0.25500000920E-02 0. -1.
    10030    2    1    2    0    0  0.00000000000E+00  0.00000000000E+00 -0.78347875677E+03  0.12356351885E+04  0.95548697363E+03 0.  0.
        2    1    3    3  502    0  0.32874878602E+03  0.13767890694E+03  0.19667971489E+02  0.35695668482E+03  0.25500000920E-02 0.  1.
       -2    1    3    3    0  502 -0.32874878602E+03 -0.13767890694E+03 -0.80314672826E+03  0.87867850369E+03  0.25500000920E-02 0. -1.
</event>
<event>
 5   0  0.1968763E-02  0.8999523E+03  0.7818609E-02  0.9425641E-01
        2   -1    0    0  501    0  0.00000000000E+00  0.00000000000E+00  0.14664543599E+04  0.14664543599E+04  0.25500000920E-02 0. -1.
       -2   -1    0    0    0  501  0.00000000000E+00  0.00000000000E+00 -0.13807353377E+03  0.13807353379E+03  0.25500000920E-02 0.  1.
    10030    2    1    2    0    0  0.00000000000E+00  0.00000000000E+00  0.13283808262E+04  0.16045278937E+04  0.89995230008E+03 0.  0.
        2    1    3    3  502    0  0.21196187869E+03  0.27962339271E+03  0.16192578605E+03  0.38644150911E+03  0.25500000920E-02 0.  1.
       -2    1    3    3    0  502 -0.21196187869E+03 -0.27962339271E+03  0.11664550401E+04  0.12180863846E+04  0.25500000920E-02 0. -1.
</event>
<event>
 5   0  0.2008770E-02  0.9208097E+03  0.7818609E-02  0.9399936E-01
       -2   -1    0    0    0  501  0.00000000000E+00  0.00000000000E+00  0.12214241871E+03  0.12214241874E+03  0.25500000920E-02 0.  1.
        2   -1    0    0  501    0  0.00000000000E+00  0.00000000000E+00 -0.17354544485E+04  0.17354544485E+04  0.25500000920E-02 0. -1.
    10030    2    1    2    0    0  0.00000000000E+00  0.00000000000E+00 -0.16133120298E+04  0.18575968673E+04  0.92080965228E+03 0.  0.
        1    1    3    3  502    0  0.13532961803E+03  0.40980141795E+03 -0.11301960532E+04  0.12097910672E+04  0.50400001928E-02 0.  1.
       -1    1    3    3    0  502 -0.13532961803E+03 -0.40980141795E+03 -0.48311597667E+03  0.64780580008E+03  0.50400001928E-02 0. -1.
</event>
<event>
 5   0  0.1206541E-02  0.8976937E+03  0.7818609E-02  0.9428469E-01
       -1   -1    0    0    0  501  0.00000000000E+00  0.00000000000E+00  0.30959029534E+03  0.30959029538E+03  0.50400001928E-02 0.  1.
        1   -1    0    0  501    0  0.00000000000E+00  0.00000000000E+00 -0.65074231794E+03  0.65074231796E+03  0.50400001928E-02 0. -1.
    10030    2    1    2    0    0  0.00000000000E+00  0.00000000000E+00 -0.34115202260E+03  0.96033261334E+03  0.89769372601E+03 0.  0.
        3    1    3    3  502    0 -0.26812779063E+03 -0.82283295728E+02  0.20430501089E+03  0.34699221971E+03  0.10100000352E+00 0.  1.
       -3    1    3    3    0  502  0.26812779063E+03  0.82283295728E+02 -0.54545703350E+03  0.61334039363E+03  0.10100000352E+00 0. -1.
</event>
<event>
 5   0  0.1206541E-02  0.8983471E+03  0.7818609E-02  0.9427650E-01
       -1   -1    0    0    0  501  0.00000000000E+00  0.00000000000E+00  0.38301161842E+03  0.38301161845E+03  0.50400001928E-02 0. -1.
        1   -1    0    0  501    0  0.00000000000E+00  0.00000000000E+00 -0.52676435387E+03  0.52676435390E+03  0.50400001928E-02 0.  1.
    10030    2    1    2    0    0  0.00000000000E+00  0.00000000000E+00 -0.14375273545E+03  0.90977597235E+03  0.89834707709E+03 0.  0.
        3    1    3    3  502    0 -0.32051889098E+03 -0.30620992158E+03  0.15720478398E+01  0.44328248001E+03  0.10100000352E+00 0. -1.
       -3    1    3    3    0  502  0.32051889098E+03  0.30620992158E+03 -0.14532478329E+03  0.46649349234E+03  0.10100000352E+00 0.  1.
</event>
<event>
 5   0  0.7893875E-03  0.8857995E+03  0.7818609E-02  0.9443509E-01
       -3   -1    0    0    0  501  0.00000000000E+00  0.00000000000E+00  0.10938657315E+04  0.10938657361E+04  0.10100000352E+00 0.  1.
        3   -1    0    0  501    0  0.00000000000E+00  0.00000000000E+00 -0.17932746225E+03  0.17932749069E+03  0.10100000352E+00 0. -1.
    10030    2    1    2    0    0  0.00000000000E+00  0.00000000000E+00  0.91453826921E+03  0.12731932268E+04  0.88579949591E+03 0.  0.
        2    1    3    3  502    0 -0.13170309940E+03  0.32740765671E+03  0.84192479509E+03  0.91289585423E+03  0.25500000920E-02 0.  1.
       -2    1    3    3    0  502  0.13170309940E+03 -0.32740765671E+03  0.72613474112E+02  0.36029737258E+03  0.25500000920E-02 0. -1.
</event>
<event>
 5   0  0.2008643E-02  0.7998541E+03  0.7818609E-02  0.9560228E-01
       -2   -1    0    0    0  501  0.00000000000E+00  0.00000000000E+00  0.29717708188E+03  0.29717708189E+03  0.25500000920E-02 0. -1.
        2   -1    0    0  501    0  0.00000000000E+00  0.00000000000E+00 -0.53820310309E+03  0.53820310310E+03  0.25500000920E-02 0.  1.
    10030    2    1    2    0    0  0.00000000000E+00  0.00000000000E+00 -0.24102602121E+03  0.83538018499E+03  0.79985405580E+03 0.  0.
        3    1    3    3  502    0  0.12563410417E+03 -0.31545204584E+03 -0.34119807664E+03  0.48136271050E+03  0.10100000352E+00 0.  1.
       -3    1    3    3    0  502 -0.12563410417E+03  0.31545204584E+03  0.10017205544E+03  0.35401747449E+03  0.10100000352E+00 0. -1.
</event>
<event>
 5   0  0.1175993E-02  0.6772081E+03  0.7818609E-02  0.9757023E-01
       -1   -1    0    0    0  501  0.00000000000E+00  0.00000000000E+00  0.95982131558E+02  0.95982131691E+02  0.50400001928E-02 0.  1.
        1   -1    0    0  501    0  0.00000000000E+00  0.00000000000E+00 -0.11945211586E+04  0.11945211586E+04  0.50400001928E-02 0. -1.
    10030    2    1    2    0    0  0.00000000000E+00  0.00000000000E+00 -0.10985390270E+04  0.12905032903E+04  0.67720805395E+03 0.  0.
        4    1    3    3  502    0 -0.91741551065E+02 -0.17346884120E+03 -0.10751079703E+04  0.10928708578E+04  0.12699999809E+01 0. -1.
       -4    1    3    3    0  502  0.91741551065E+02  0.17346884120E+03 -0.23431056719E+02  0.19763243251E+03  0.12699999809E+01 0.  1.
</event>
<event>
 5   0  0.1968763E-02  0.8914524E+03  0.7818609E-02  0.9436330E-01
       -2   -1    0    0    0  501  0.00000000000E+00  0.00000000000E+00  0.21293604907E+03  0.21293604909E+03  0.25500000920E-02 0. -1.
        2   -1    0    0  501    0  0.00000000000E+00  0.00000000000E+00 -0.93301171223E+03  0.93301171224E+03  0.25500000920E-02 0.  1.
    10030    2    1    2    0    0  0.00000000000E+00  0.00000000000E+00 -0.72007566316E+03  0.11459477613E+04  0.89145236048E+03 0.  0.
        2    1    3    3  502    0 -0.20086914741E+03 -0.21137776868E+03  0.73311113738E+02  0.30067173940E+03  0.25500000920E-02 0. -1.
       -2    1    3    3    0  502  0.20086914741E+03  0.21137776868E+03 -0.79338677690E+03  0.84527602192E+03  0.25500000920E-02 0.  1.
</event>
<event>
 5   0  0.1175993E-02  0.7938977E+03  0.7818609E-02  0.9568892E-01
       -1   -1    0    0    0  501  0.00000000000E+00  0.00000000000E+00  0.19601546919E+03  0.19601546925E+03  0.50400001928E-02 0.  1.
        1   -1    0    0  501    0  0.00000000000E+00  0.00000000000E+00 -0.80385698648E+03  0.80385698649E+03  0.50400001928E-02 0. -1.
    10030    2    1    2    0    0  0.00000000000E+00  0.00000000000E+00 -0.60784151729E+03  0.99987245574E+03  0.79389773750E+03 0.  0.
        4    1    3    3  502    0  0.23946774919E+03  0.30091093329E+03 -0.42779942554E+03  0.57524442985E+03  0.12699999809E+01 0.  1.
       -4    1    3    3    0  502 -0.23946774919E+03 -0.30091093329E+03 -0.18004209175E+03  0.42462802590E+03  0.12699999809E+01 0. -1.
</event>
<event>
 5   0  0.1226424E-02  0.8495816E+03  0.7818609E-02  0.9490899E-01
       -1   -1    0    0    0  501  0.00000000000E+00  0.00000000000E+00  0.15490813059E+03  0.15490813067E+03  0.50400001928E-02 0.  1.
        1   -1    0    0  501    0  0.00000000000E+00  0.00000000000E+00 -0.11648659564E+04  0.11648659564E+04  0.50400001928E-02 0. -1.
    10030    2    1    2    0    0  0.00000000000E+00  0.00000000000E+00 -0.10099578258E+04  0.13197740871E+04  0.84958156233E+03 0.  0.
        1    1    3    3  502    0  0.18603261224E+03  0.37502602931E+03 -0.61694037936E+03  0.74556561561E+03  0.50400001928E-02 0. -1.
       -1    1    3    3    0  502 -0.18603261224E+03 -0.37502602931E+03 -0.39301744648E+03  0.57420847150E+03  0.50400001928E-02 0.  1.
</event>
<event>
 5   0  0.1162839E-02  0.8952208E+03  0.7818609E-02  0.9431576E-01
        1   -1    0    0  501    0  0.00000000000E+00  0.00000000000E+00  0.33672602422E+03  0.33672602426E+03  0.50400001928E-02 0. -1.
       -1   -1    0    0    0  501  0.00000000000E+00  0.00000000000E+00 -0.59500909896E+03  0.59500909898E+03  0.50400001928E-02 0.  1.
    10030    2    1    2    0    0  0.00000000000E+00  0.00000000000E+00 -0.25828307474E+03  0.93173512324E+03  0.89522075109E+03 0.  0.
        2    1    3    3  502    0 -0.25044514665E+03  0.37068797790E+03 -0.11360971957E+03  0.46156204006E+03  0.25500000920E-02 0.  1.
       -2    1    3    3    0  502  0.25044514665E+03 -0.37068797790E+03 -0.14467335516E+03  0.47017308317E+03  0.25500000920E-02 0. -1.
</event>
<event>
 5   0  0.1206541E-02  0.9106619E+03  0.7818609E-02  0.9412351E-01
        1   -1    0    0  501    0  0.00000000000E+00  0.00000000000E+00  0.24009602253E+04  0.24009602253E+04  0.50400001928E-02 0.  1.
       -1   -1    0    0    0  501  0.00000000000E+00  0.00000000000E+00 -0.86351391875E+02  0.86351392022E+02  0.50400001928E-02 0. -1.
    10030    2    1    2    0    0  0.00000000000E+00  0.00000000000E+00  0.23146088334E+04  0.24873116173E+04  0.91066186366E+03 0.  0.
        3    1    3    3  502    0 -0.43523738341E+03  0.12921703147E+03  0.12518265864E+04  0.13316149721E+04  0.10100000352E+00 0. -1.
       -3    1    3    3    0  502  0.43523738341E+03 -0.12921703147E+03  0.10627822470E+04  0.11556966453E+04  0.10100000352E+00 0.  1.
</event>
<event>
 5   0  0.1924218E-02  0.8914409E+03  0.7818609E-02  0.9436344E-01
       -2   -1    0    0    0  501  0.00000000000E+00  0.00000000000E+00  0.47584883243E+03  0.47584883243E+03  0.25500000920E-02 0. -1.
        2   -1    0    0  501    0  0.00000000000E+00  0.00000000000E+00 -0.41749961505E+03  0.41749961506E+03  0.25500000920E-02 0.  1.
    10030    2    1    2    0    0  0.00000000000E+00  0.00000000000E+00  0.58349217372E+02  0.89334844749E+03  0.89144086594E+03 0.  0.
        4    1    3    3  502    0  0.16691278550E+03  0.16445904758E+03  0.40914085284E+03  0.47149178854E+03  0.12699999809E+01 0. -1.
       -4    1    3    3    0  502 -0.16691278550E+03 -0.16445904758E+03 -0.35079163547E+03  0.42185665896E+03  0.12699999809E+01 0.  1.
</event>
<event>
 5   0  0.1924218E-02  0.8474556E+03  0.7818609E-02  0.9493758E-01
        2   -1    0    0  501    0  0.00000000000E+00  0.00000000000E+00  0.18290612231E+04  0.18290612231E+04  0.25500000920E-02 0. -1.
       -2   -1    0    0    0  501  0.00000000000E+00  0.00000000000E+00 -0.98162524274E+02  0.98162524307E+02  0.25500000920E-02 0.  1.
    10030    2    1    2    0    0  0.00000000000E+00  0.00000000000E+00  0.17308986988E+04  0.19272237474E+04  0.84745564308E+03 0.  0.
        4    1    3    3  502    0 -0.10844683218E+03  0.38730665777E+03  0.11686556242E+04  0.12359307195E+04  0.12699999809E+01 0. -1.
       -4    1    3    3    0  502  0.10844683218E+03 -0.38730665777E+03  0.56224307464E+03  0.69129302791E+03  0.12699999809E+01 0.  1.
</event>
<event>
 5   0  0.1162839E-02  0.7509950E+03  0.7818609E-02  0.9633791E-01
        1   -1    0    0  501    0  0.00000000000E+00  0.00000000000E+00  0.79145318643E+02  0.79145318804E+02  0.50400001928E-02 0.  1.
       -1   -1    0    0    0  501  0.00000000000E+00  0.00000000000E+00 -0.17815122539E+04  0.17815122539E+04  0.50400001928E-02 0. -1.
    10030    2    1    2    0    0  0.00000000000E+00  0.00000000000E+00 -0.17023669353E+04  0.18606575727E+04  0.75099495381E+03 0.  0.
        2    1    3    3  502    0 -0.23835469430E+03  0.90810794203E+02 -0.15339328019E+04  0.15549949844E+04  0.25500000920E-02 0. -1.
       -2    1    3    3    0  502  0.23835469430E+03 -0.90810794203E+02 -0.16843413338E+03  0.30566258838E+03  0.25500000920E-02 0.  1.
</event>
<event>
 5   0  0.1924218E-02  0.9100045E+03  0.7818609E-02  0.9413161E-01
       -2   -1    0    0    0  501  0.00000000000E+00  0.00000000000E+00  0.10302329344E+03  0.10302329347E+03  0.25500000920E-02 0. -1.
        2   -1    0    0  501    0  0.00000000000E+00  0.00000000000E+00 -0.20095167986E+04  0.20095167986E+04  0.25500000920E-02 0.  1.
    10030    2    1    2    0    0  0.00000000000E+00  0.00000000000E+00 -0.19064935052E+04  0.21125400921E+04  0.91000448100E+03 0.  0.
        4    1    3    3  502    0  0.36663975713E+03  0.26881949150E+03 -0.99585017928E+03  0.10947181477E+04  0.12699999809E+01 0. -1.
       -4    1    3    3    0  502 -0.36663975713E+03 -0.26881949150E+03 -0.91064332591E+03  0.10178219444E+04  0.12699999809E+01 0.  1.
</event>
<event>
 5   0  0.2008770E-02  0.9012688E+03  0.7818609E-02  0.9423997E-01
       -2   -1    0    0    0  501  0.00000000000E+00  0.00000000000E+00  0.16660338668E+03  0.16660338670E+03  0.25500000920E-02 0.  1.
        2   -1    0    0  501    0  0.00000000000E+00  0.00000000000E+00 -0.12188909644E+04  0.12188909644E+04  0.25500000920E-02 0. -1.
    10030    2    1    2    0    0  0.00000000000E+00  0.00000000000E+00 -0.10522875777E+04  0.13854943511E+04  0.90126880047E+03 0.  0.
        1    1    3    3  502    0 -0.45974371149E+02  0.20015519664E+03 -0.11427707776E+04  0.11610774288E+04  0.50400001928E-02 0. -1.
       -1    1    3    3    0  502  0.45974371149E+02 -0.20015519664E+03  0.90483199841E+02  0.22441692232E+03  0.50400001928E-02 0.  1.
</event>
<event>
 5   0  0.7893875E-03  0.8950431E+03  0.7818609E-02  0.9431799E-01
       -3   -1    0    0    0  501  0.00000000000E+00  0.00000000000E+00  0.82642545522E+03  0.82642546139E+03  0.10100000352E+00 0. -1.
        3   -1    0    0  501    0  0.00000000000E+00  0.00000000000E+00 -0.24233950047E+03  0.24233952152E+03  0.10100000352E+00 0.  1.
    10030    2    1    2    0    0  0.00000000000E+00  0.00000000000E+00  0.58408595475E+03  0.10687649829E+04  0.89504311973E+03 0.  0.
        3    1    3    3  502    0  0.48715996698E+02 -0.63204724817E+02  0.81786104656E+03  0.82174496485E+03  0.10100000352E+00 0. -1.
       -3    1    3    3    0  502 -0.48715996698E+02  0.63204724817E+02 -0.23377509181E+03  0.24702001807E+03  0.10100000352E+00 0.  1.
</event>
<event>
 5   0  0.1924218E-02  0.9114821E+03  0.7818609E-02  0.9411341E-01
        2   -1    0    0  501    0  0.00000000000E+00  0.00000000000E+00  0.52024923509E+03  0.52024923510E+03  0.25500000920E-02 0. -1.
       -2   -1    0    0    0  501  0.00000000000E+00  0.00000000000E+00 -0.39923153655E+03  0.39923153655E+03  0.25500000920E-02 0.  1.
    10030    2    1    2    0    0  0.00000000000E+00  0.00000000000E+00  0.12101769855E+03  0.91948077165E+03  0.91148209312E+03 0.  0.
        4    1    3    3  502    0  0.36412880442E+03  0.16620123365E+03 -0.15931545887E+03  0.43080815290E+03  0.12699999809E+01 0.  1.
       -4    1    3    3    0  502 -0.36412880442E+03 -0.16620123365E+03  0.28033315741E+03  0.48867261875E+03  0.12699999809E+01 0. -1.
</event>
<event>
 5   0  0.1206541E-02  0.9108254E+03  0.7818609E-02  0.9412149E-01
        1   -1    0    0  501    0  0.00000000000E+00  0.00000000000E+00  0.12283397232E+04  0.12283397232E+04  0.50400001928E-02 0. -1.
       -1   -1    0    0    0  501  0.00000000000E+00  0.00000000000E+00 -0.16884639322E+03  0.16884639329E+03  0.50400001928E-02 0.  1.
    10030    2    1    2    0    0  0.00000000000E+00  0.00000000000E+00  0.10594933300E+04  0.13971861165E+04  0.91082541020E+03 0.  0.
        3    1    3    3  502    0 -0.29826275477E+03  0.99323834464E+02  0.24290269435E+02  0.31530290573E+03  0.10100000352E+00 0.  1.
       -3    1    3    3    0  502  0.29826275477E+03 -0.99323834464E+02  0.10352030605E+04  0.10818832108E+04  0.10100000352E+00 0. -1.
</event>
<event>
 5   0  0.2041861E-02  0.9046407E+03  0.7818609E-02  0.9419799E-01
        2   -1    0    0  501    0  0.00000000000E+00  0.00000000000E+00  0.87451813733E+03  0.87451813734E+03  0.25500000920E-02 0. -1.
       -2   -1    0    0    0  501  0.00000000000E+00  0.00000000000E+00 -0.23395018320E+03  0.23395018322E+03  0.25500000920E-02 0.  1.
    10030    2    1    2    0    0  0.00000000000E+00  0.00000000000E+00  0.64056795413E+03  0.11084683206E+04  0.90464065452E+03 0.  0.
        5    1    3    3  502    0  0.30484724236E+03  0.79212235980E+02  0.71802072517E+03  0.78408052601E+03  0.46999998093E+01 0. -1.
       -5    1    3    3    0  502 -0.30484724236E+03 -0.79212235980E+02 -0.77452771041E+02  0.32438779454E+03  0.46999998093E+01 0.  1.
</event>
<event>
 5   0  0.1206541E-02  0.9131225E+03  0.7818609E-02  0.9409325E-01
       -1   -1    0    0    0  501  0.00000000000E+00  0.00000000000E+00  0.19638129370E+03  0.19638129376E+03  0.50400001928E-02 0.  1.
        1   -1    0    0  501    0  0.00000000000E+00  0.00000000000E+00 -0.10614462722E+04  0.10614462722E+04  0.50400001928E-02 0. -1.
    10030    2    1    2    0    0  0.00000000000E+00  0.00000000000E+00 -0.86506497851E+03  0.12578275660E+04  0.91312253761E+03 0.  0.
        3    1    3    3  502    0  0.33322632537E+03  0.80552536821E+02 -0.17175988672E+02  0.34325430790E+03  0.10100000352E+00 0.  1.
       -3    1    3    3    0  502 -0.33322632537E+03 -0.80552536821E+02 -0.84788898984E+03  0.91457325808E+03  0.10100000352E+00 0. -1.
</event>
<event>
 5   0  0.1206541E-02  0.9202057E+03  0.7818609E-02  0.9400670E-01
        1   -1    0    0  501    0  0.00000000000E+00  0.00000000000E+00  0.49191143280E+03  0.49191143283E+03  0.50400001928E-02 0.  1.
       -1   -1    0    0    0  501  0.00000000000E+00  0.00000000000E+00 -0.43035110819E+03  0.43035110822E+03  0.50400001928E-02 0. -1.
    10030    2    1    2    0    0  0.00000000000E+00  0.00000000000E+00  0.61560324618E+02  0.92226254105E+03  0.92020569497E+03 0.  0.
        3    1    3    3  502    0 -0.30742944296E+03  0.14817396366E+03  0.34005740000E+03  0.48177529140E+03  0.10100000352E+00 0.  1.
       -3    1    3    3    0  502  0.30742944296E+03 -0.14817396366E+03 -0.27849707538E+03  0.44048724965E+03  0.10100000352E+00 0. -1.
</event>
<event>
 5   0  0.2008643E-02  0.9131684E+03  0.7818609E-02  0.9409268E-01
       -2   -1    0    0    0  501  0.00000000000E+00  0.00000000000E+00  0.12972855889E+03  0.12972855892E+03  0.25500000920E-02 0.  1.
        2   -1    0    0  501    0  0.00000000000E+00  0.00000000000E+00 -0.16069640460E+04  0.16069640460E+04  0.25500000920E-02 0. -1.
    10030    2    1    2    0    0  0.00000000000E+00  0.00000000000E+00 -0.14772354871E+04  0.17366926049E+04  0.91316839607E+03 0.  0.
        3    1    3    3  502    0  0.60107179929E+01  0.21268542139E+03  0.29679665830E+02  0.21483042142E+03  0.10100000352E+00 0.  1.
       -3    1    3    3    0  502 -0.60107179929E+01 -0.21268542139E+03 -0.15069151529E+04  0.15218621835E+04  0.10100000352E+00 0. -1.
</event>
<event>
 5   0  0.1226424E-02  0.8763405E+03  0.7818609E-02  0.9455650E-01
       -1   -1    0    0    0  501  0.00000000000E+00  0.00000000000E+00  0.14226331716E+03  0.14226331725E+03  0.50400001928E-02 0.  1.
        1   -1    0    0  501    0  0.00000000000E+00  0.00000000000E+00 -0.13495619590E+04  0.13495619590E+04  0.50400001928E-02 0. -1.
    10030    2    1    2    0    0  0.00000000000E+00  0.00000000000E+00 -0.12072986418E+04  0.14918252762E+04  0.87634048422E+03 0.  0.
        1    1    3    3  502    0  0.93810504542E+02  0.36573809137E+03 -0.22517766790E+03  0.43962454934E+03  0.50400001928E-02 0.  1.
       -1    1    3    3    0  502 -0.93810504542E+02 -0.36573809137E+03 -0.98212097391E+03  0.10522007269E+04  0.50400001928E-02 0. -1.
</event>
<event>
 5   0  0.1175993E-02  0.7669774E+03  0.7818609E-02  0.9609086E-01
        1   -1    0    0  501    0  0.00000000000E+00  0.00000000000E+00  0.15535213717E+04  0.15535213717E+04  0.50400001928E-02 0.  1.
       -1   -1    0    0    0  501  0.00000000000E+00  0.00000000000E+00 -0.94664668407E+02  0.94664668541E+02  0.50400001928E-02 0. -1.
    10030    2    1    2    0    0  0.00000000000E+00  0.00000000000E+00  0.14588567033E+04  0.16481860402E+04  0.76697740679E+03 0.  0.
        4    1    3    3  502    0 -0.20487049067E+03 -0.23656856187E+03  0.12057239622E+04  0.12456759162E+04  0.12699999809E+01 0.  1.
       -4    1    3    3    0  502  0.20487049067E+03  0.23656856187E+03  0.25313274112E+03  0.40251012402E+03  0.12699999809E+01 0. -1.
</event>
<event>
 5   0  0.1177712E-02  0.9031686E+03  0.7818609E-02  0.9421629E-01
       -1   -1    0    0    0  501  0.00000000000E+00  0.00000000000E+00  0.25335884599E+03  0.25335884604E+03  0.50400001928E-02 0. -1.
        1   -1    0    0  501    0  0.00000000000E+00  0.00000000000E+00 -0.80489944784E+03  0.80489944786E+03  0.50400001928E-02 0.  1.
    10030    2    1    2    0    0  0.00000000000E+00  0.00000000000E+00 -0.55154060185E+03  0.10582582939E+04  0.90316863382E+03 0.  0.
        5    1    3    3  502    0  0.48536614837E+02  0.34413759346E+03 -0.61358234455E+03  0.70518924393E+03  0.46999998093E+01 0.  1.
       -5    1    3    3    0  502 -0.48536614837E+02 -0.34413759346E+03  0.62041742703E+02  0.35306904997E+03  0.46999998093E+01 0. -1.
</event>
<event>
 5   0  0.1175993E-02  0.9165442E+03  0.7818609E-02  0.9405133E-01
        1   -1    0    0  501    0  0.00000000000E+00  0.00000000000E+00  0.91659600780E+03  0.91659600782E+03  0.50400001928E-02 0. -1.
       -1   -1    0    0    0  501  0.00000000000E+00  0.00000000000E+00 -0.22912311707E+03  0.22912311712E+03  0.50400001928E-02 0.  1.
    10030    2    1    2    0    0  0.00000000000E+00  0.00000000000E+00  0.68747289073E+03  0.11457191249E+04  0.91654423666E+03 0.  0.
        4    1    3    3  502    0 -0.11070908633E+03  0.22948816533E+03  0.81988675747E+03  0.85856696174E+03  0.12699999809E+01 0. -1.
       -4    1    3    3    0  502  0.11070908633E+03 -0.22948816533E+03 -0.13241386674E+03  0.28715216320E+03  0.12699999809E+01 0.  1.
</event>
<event>
 5   0  0.1226424E-02  0.8430648E+03  0.7818609E-02  0.9499693E-01
        1   -1    0    0  501    0  0.00000000000E+00  0.00000000000E+00  0.30553963190E+03  0.30553963195E+03  0.50400001928E-02 0. -1.
       -1   -1    0    0    0  501  0.00000000000E+00  0.00000000000E+00 -0.58155976682E+03  0.58155976684E+03  0.50400001928E-02 0.  1.
    10030    2    1    2    0    0  0.00000000000E+00  0.00000000000E+00 -0.27602013492E+03  0.88709939879E+03  0.84306478307E+03 0.  0.
        1    1    3    3  502    0  0.31091746382E+03 -0.46095485722E+01  0.16145777925E+03  0.35037056348E+03  0.50400001928E-02 0. -1.
       -1    1    3    3    0  502 -0.31091746382E+03  0.46095485722E+01 -0.43747791417E+03  0.53672883531E+03  0.50400001928E-02 0.  1.
</event>
<event>
 5   0  0.1924218E-02  0.9133728E+03  0.7818609E-02  0.9409017E-01
       -2   -1    0    0    0  501  0.00000000000E+00  0.00000000000E+00  0.29629964878E+03  0.29629964879E+03  0.25500000920E-02 0. -1.
        2   -1    0    0  501    0  0.00000000000E+00  0.00000000000E+00 -0.70389040179E+03  0.70389040179E+03  0.25500000920E-02 0.  1.
    10030    2    1    2    0    0  0.00000000000E+00  0.00000000000E+00 -0.40759075301E+03  0.10001900506E+04  0.91337282386E+03 0.  0.
        4    1    3    3  502    0  0.13192470853E+03  0.10501276718E+02  0.27483906062E+03  0.30504512400E+03  0.12699999809E+01 0. -1.
       -4    1    3    3    0  502 -0.13192470853E+03 -0.10501276718E+02 -0.68242981363E+03  0.69514492659E+03  0.12699999809E+01 0.  1.
</event>
<event>
 5   0  0.1175993E-02  0.8928199E+03  0.7818609E-02  0.9434602E-01
        1   -1    0    0  501    0  0.00000000000E+00  0.00000000000E+00  0.74021514644E+03  0.74021514646E+03  0.50400001928E-02 0.  1.
       -1   -1    0    0    0  501  0.00000000000E+00  0.00000000000E+00 -0.26922149198E+03  0.26922149203E+03  0.50400001928E-02 0. -1.
    10030    2    1    2    0    0  0.00000000000E+00  0.00000000000E+00  0.47099365446E+03  0.10094366385E+04  0.89281986122E+03 0.  0.
        4    1    3    3  502    0  0.24501914664E+03  0.37288980430E+03  0.21954652545E+03  0.49727605825E+03  0.12699999809E+01 0. -1.
       -4    1    3    3    0  502 -0.24501914664E+03 -0.37288980430E+03  0.25144712901E+03  0.51216058025E+03  0.12699999809E+01 0.  1.
</event>
<event>
 5   0  0.1175993E-02  0.9070736E+03  0.7818609E-02  0.9416782E-01
        1   -1    0    0  501    0  0.00000000000E+00  0.00000000000E+00  0.34610334429E+03  0.34610334432E+03  0.50400001928E-02 0.  1.
       -1   -1    0    0    0  501  0.00000000000E+00  0.00000000000E+00 -0.59431846170E+03  0.59431846172E+03  0.50400001928E-02 0. -1.
    10030    2    1    2    0    0  0.00000000000E+00  0.00000000000E+00 -0.24821511742E+03  0.94042180605E+03  0.90707355202E+03 0.  0.
        4    1    3    3  502    0 -0.88928621532E+02  0.18000295827E+03 -0.54573392256E+03  0.58149504886E+03  0.12699999809E+01 0. -1.
       -4    1    3    3    0  502  0.88928621532E+02 -0.18000295827E+03  0.29751880514E+03  0.35892675719E+03  0.12699999809E+01 0.  1.
</event>
<event>
 5   0  0.1206541E-02  0.9013008E+03  0.7818609E-02  0.9423957E-01
        1   -1    0    0  501    0  0.00000000000E+00  0.00000000000E+00  0.10461954229E+04  0.10461954229E+04  0.50400001928E-02 0. -1.
       -1   -1    0    0    0  501  0.00000000000E+00  0.00000000000E+00 -0.19411839051E+03  0.19411839057E+03  0.50400001928E-02 0.  1.
    10030    2    1    2    0    0  0.00000000000E+00  0.00000000000E+00  0.85207703239E+03  0.12403138135E+04  0.90130077487E+03 0.  0.
        3    1    3    3  502    0  0.24481153819E+03 -0.23973745607E+03  0.82884744847E+03  0.89688061642E+03  0.10100000352E+00 0. -1.
       -3    1    3    3    0  502 -0.24481153819E+03  0.23973745607E+03  0.23229583920E+02  0.34343319706E+03  0.10100000352E+00 0.  1.
</event>
<event>
 5   0  0.1206541E-02  0.8900567E+03  0.7818609E-02  0.9438097E-01
       -1   -1    0    0    0  501  0.00000000000E+00  0.00000000000E+00  0.89981393129E+03  0.89981393130E+03  0.50400001928E-02 0. -1.
        1   -1    0    0  501    0  0.00000000000E+00  0.00000000000E+00 -0.22010130903E+03  0.22010130909E+03  0.50400001928E-02 0.  1.
    10030    2    1    2    0    0  0.00000000000E+00  0.00000000000E+00  0.67971262226E+03  0.11199152404E+04  0.89005668179E+03 0.  0.
        3    1    3    3  502    0  0.19758406600E+02  0.44325742416E+03  0.29658498037E+03  0.53369485616E+03  0.10100000352E+00 0.  1.
       -3    1    3    3    0  502 -0.19758406600E+02 -0.44325742416E+03  0.38312764189E+03  0.58622038423E+03  0.10100000352E+00 0. -1.
</event>
<event>
 5   0  0.7893875E-03  0.8528611E+03  0.7818609E-02  0.9486505E-01
       -3   -1    0    0    0  501  0.00000000000E+00  0.00000000000E+00  0.29374334541E+03  0.29374336277E+03  0.10100000352E+00 0. -1.
        3   -1    0    0  501    0  0.00000000000E+00  0.00000000000E+00 -0.61905400143E+03  0.61905400967E+03  0.10100000352E+00 0.  1.
    10030    2    1    2    0    0  0.00000000000E+00  0.00000000000E+00 -0.32531065603E+03  0.91279737244E+03  0.85286107908E+03 0.  0.
        5    1    3    3  502    0 -0.50067460076E+02 -0.41021681423E+03 -0.27509211358E+03  0.49646988447E+03  0.46999998093E+01 0. -1.
       -5    1    3    3    0  502  0.50067460076E+02  0.41021681423E+03 -0.50218542449E+02  0.41632748797E+03  0.46999998093E+01 0.  1.
</event>
<event>
 5   0  0.1924218E-02  0.8960566E+03  0.7818609E-02  0.9430524E-01
       -2   -1    0    0    0  501  0.00000000000E+00  0.00000000000E+00  0.23337064276E+03  0.23337064277E+03  0.25500000920E-02 0. -1.
        2   -1    0    0  501    0  0.00000000000E+00  0.00000000000E+00 -0.86013112888E+03  0.86013112888E+03  0.25500000920E-02 0.  1.
    10030    2    1    2    0    0  0.00000000000E+00  0.00000000000E+00 -0.62676048612E+03  0.10935017717E+04  0.89605659289E+03 0.  0.
        4    1    3    3  502    0 -0.10065652201E+03  0.27310774198E+02 -0.84510820390E+03  0.85152046541E+03  0.12699999809E+01 0.  1.
       -4    1    3    3    0  502  0.10065652201E+03 -0.27310774198E+02  0.21834771779E+03  0.24198130624E+03  0.12699999809E+01 0. -1.
</event>
<event>
 5   0  0.1162839E-02  0.7922541E+03  0.7818609E-02  0.9571297E-01
        1   -1    0    0  501    0  0.00000000000E+00  0.00000000000E+00  0.53173073435E+03  0.53173073438E+03  0.50400001928E-02 0.  1.
       -1   -1    0    0    0  501  0.00000000000E+00  0.00000000000E+00 -0.29510544206E+03  0.29510544211E+03  0.50400001928E-02 0. -1.
    10030    2    1    2    0    0  0.00000000000E+00  0.00000000000E+00  0.23662529229E+03  0.82683617648E+03  0.79225408411E+03 0.  0.
        2    1    3    3  502    0 -0.54210783995E+02 -0.13822536616E+03 -0.26496650310E+03  0.30373065160E+03  0.25500000920E-02 0. -1.
       -2    1    3    3    0  502  0.54210783995E+02  0.13822536616E+03  0.50159179539E+03  0.52310552488E+03  0.25500000920E-02 0.  1.
</event>
<event>
 5   0  0.1175993E-02  0.8956377E+03  0.7818609E-02  0.9431051E-01
       -1   -1    0    0    0  501  0.00000000000E+00  0.00000000000E+00  0.25623479510E+03  0.25623479515E+03  0.50400001928E-02 0.  1.
        1   -1    0    0  501    0  0.00000000000E+00  0.00000000000E+00 -0.78264834846E+03  0.78264834848E+03  0.50400001928E-02 0. -1.
    10030    2    1    2    0    0  0.00000000000E+00  0.00000000000E+00 -0.52641355336E+03  0.10388831436E+04  0.89563773757E+03 0.  0.
        4    1    3    3  502    0  0.11597610261E+03 -0.23664370874E+03  0.15676310399E+03  0.30663819875E+03  0.12699999809E+01 0.  1.
       -4    1    3    3    0  502 -0.11597610261E+03  0.23664370874E+03 -0.68317665735E+03  0.73224494488E+03  0.12699999809E+01 0. -1.
</event>
<event>
 5   0  0.1924218E-02  0.8964677E+03  0.7818609E-02  0.9430008E-01
       -2   -1    0    0    0  501  0.00000000000E+00  0.00000000000E+00  0.37909712994E+03  0.37909712994E+03  0.25500000920E-02 0. -1.
        2   -1    0    0  501    0  0.00000000000E+00  0.00000000000E+00 -0.52997911896E+03  0.52997911896E+03  0.25500000920E-02 0.  1.
    10030    2    1    2    0    0  0.00000000000E+00  0.00000000000E+00 -0.15088198902E+03  0.90907624891E+03  0.89646765235E+03 0.  0.
        4    1    3    3  502    0 -0.12514912630E+03 -0.40679234575E+03 -0.21802309184E+03  0.47820288356E+03  0.12699999809E+01 0. -1.
       -4    1    3    3    0  502  0.12514912630E+03  0.40679234575E+03  0.67141102818E+02  0.43087336534E+03  0.12699999809E+01 0.  1.
</event>
<event>
 5   0  0.2041861E-02  0.9191401E+03  0.7818609E-02  0.9401967E-01
        2   -1    0    0  501    0  0.00000000000E+00  0.00000000000E+00  0.33006249089E+03  0.33006249090E+03  0.25500000920E-02 0.  1.
       -2   -1    0    0    0  501  0.00000000000E+00  0.00000000000E+00 -0.63989292793E+03  0.63989292794E+03  0.25500000920E-02 0. -1.
    10030    2    1    2    0    0  0.00000000000E+00  0.00000000000E+00 -0.30983043704E+03  0.96995541884E+03  0.91914014971E+03 0.  0.
        5    1    3    3  502    0 -0.41040901516E+03  0.11971462670E+03 -0.33280336748E+03  0.54180007658E+03  0.46999998093E+01 0. -1.
       -5    1    3    3    0  502  0.41040901516E+03 -0.11971462670E+03  0.22972930442E+02  0.42815534226E+03  0.46999998093E+01 0.  1.
</event>
<event>
 5   0  0.1175993E-02  0.8920231E+03  0.7818609E-02  0.9435608E-01
       -1   -1    0    0    0  501  0.00000000000E+00  0.00000000000E+00  0.75878885028E+03  0.75878885030E+03  0.50400001928E-02 0. -1.
        1   -1    0    0  501    0  0.00000000000E+00  0.00000000000E+00 -0.26216291874E+03  0.26216291879E+03  0.50400001928E-02 0.  1.
    10030    2    1    2    0    0  0.00000000000E+00  0.00000000000E+00  0.49662593155E+03  0.10209517691E+04  0.89202309327E+03 0.  0.
        4    1    3    3  502    0  0.88741647011E+02  0.40338559518E+03  0.55671455389E+02  0.41676845149E+03  0.12699999809E+01 0.  1.
       -4    1    3    3    0  502 -0.88741647011E+02 -0.40338559518E+03  0.44095447616E+03  0.60418331759E+03  0.12699999809E+01 0. -1.
</event>
<event>
 5   0  0.1924218E-02  0.9101721E+03  0.7818609E-02  0.9412954E-01
        2   -1    0    0  501    0  0.00000000000E+00  0.00000000000E+00  0.15147288231E+04  0.15147288231E+04  0.25500000920E-02 0. -1.
       -2   -1    0    0    0  501  0.00000000000E+00  0.00000000000E+00 -0.13672632826E+03  0.13672632829E+03  0.25500000920E-02 0.  1.
    10030    2    1    2    0    0  0.00000000000E+00  0.00000000000E+00  0.13780024949E+04  0.16514551514E+04  0.91017209433E+03 0.  0.
        4    1    3    3  502    0 -0.41495315754E+02 -0.35500679884E+03  0.12001140484E+04  0.12522088606E+04  0.12699999809E+01 0. -1.
       -4    1    3    3    0  502  0.41495315754E+02  0.35500679884E+03  0.17788844644E+03  0.39924629082E+03  0.12699999809E+01 0.  1.
</event>
<event>
 5   0  0.2008643E-02  0.8799598E+03  0.7818609E-02  0.9450985E-01
        2   -1    0    0  501    0  0.00000000000E+00  0.00000000000E+00  0.38630166974E+03  0.38630166975E+03  0.25500000920E-02 0.  1.
       -2   -1    0    0    0  501  0.00000000000E+00  0.00000000000E+00 -0.50111691828E+03  0.50111691829E+03  0.25500000920E-02 0. -1.
    10030    2    1    2    0    0  0.00000000000E+00  0.00000000000E+00 -0.11481524854E+03  0.88741858804E+03  0.87995977698E+03 0.  0.
        3    1    3    3  502    0 -0.32215964935E+03  0.20475312544E+02 -0.35890023827E+03  0.48271675890E+03  0.10100000352E+00 0. -1.
       -3    1    3    3    0  502  0.32215964935E+03 -0.20475312544E+02  0.24408498973E+03  0.40470182914E+03  0.10100000352E+00 0.  1.
</event>
<event>
 5   0  0.1177712E-02  0.8813110E+03  0.7818609E-02  0.9449250E-01
        1   -1    0    0  501    0  0.00000000000E+00  0.00000000000E+00  0.16777823140E+04  0.16777823140E+04  0.50400001928E-02 0. -1.
       -1   -1    0    0    0  501  0.00000000000E+00  0.00000000000E+00 -0.11573447911E+03  0.11573447922E+03  0.50400001928E-02 0.  1.
    10030    2    1    2    0    0  0.00000000000E+00  0.00000000000E+00  0.15620478349E+04  0.17935167932E+04  0.88131098320E+03 0.  0.
        5    1    3    3  502    0 -0.31057870486E+03  0.28274332307E+03  0.10521697988E+04  0.11329105411E+04  0.46999998093E+01 0. -1.
       -5    1    3    3    0  502  0.31057870486E+03 -0.28274332307E+03  0.50987803610E+03  0.66060625213E+03  0.46999998093E+01 0.  1.
</event>
<event>
 5   0  0.1968763E-02  0.9015619E+03  0.7818609E-02  0.9423631E-01
       -2   -1    0    0    0  501  0.00000000000E+00  0.00000000000E+00  0.16600433419E+03  0.16600433421E+03  0.25500000920E-02 0.  1.
        2   -1    0    0  501    0  0.00000000000E+00  0.00000000000E+00 -0.12240851747E+04  0.12240851748E+04  0.25500000920E-02 0. -1.
    10030    2    1    2    0    0  0.00000000000E+00  0.00000000000E+00 -0.10580808406E+04  0.13900895090E+04  0.90156185465E+03 0.  0.
        2    1    3    3  502    0  0.37863934081E+03 -0.22432843316E+03 -0.37865927517E+03  0.58058060854E+03  0.25500000920E-02 0. -1.
       -2    1    3    3    0  502 -0.37863934081E+03  0.22432843316E+03 -0.67942156539E+03  0.80950890042E+03  0.25500000920E-02 0.  1.
</event>
<event>
 5   0  0.1177712E-02  0.7256600E+03  0.7818609E-02  0.9674329E-01
       -1   -1    0    0    0  501  0.00000000000E+00  0.00000000000E+00  0.15852051735E+03  0.15852051743E+03  0.50400001928E-02 0. -1.
        1   -1    0    0  501    0  0.00000000000E+00  0.00000000000E+00 -0.83046421614E+03  0.83046421616E+03  0.50400001928E-02 0.  1.
    10030    2    1    2    0    0  0.00000000000E+00  0.00000000000E+00 -0.67194369879E+03  0.98898473359E+03  0.72566002296E+03 0.  0.
        5    1    3    3  502    0 -0.29457085513E+02  0.14753443807E+03 -0.78590554031E+03  0.80018981410E+03  0.46999998093E+01 0.  1.
       -5    1    3    3    0  502  0.29457085513E+02 -0.14753443807E+03  0.11396184152E+03  0.18879491949E+03  0.46999998093E+01 0. -1.
</event>
<event>
 5   0  0.1968763E-02  0.9071697E+03  0.7818609E-02  0.9416663E-01
       -2   -1    0    0    0  501  0.00000000000E+00  0.00000000000E+00  0.22025262152E+03  0.22025262153E+03  0.25500000920E-02 0. -1.
        2   -1    0    0  501    0  0.00000000000E+00  0.00000000000E+00 -0.93410567083E+03  0.93410567083E+03  0.25500000920E-02 0.  1.
    10030    2    1    2    0    0  0.00000000000E+00  0.00000000000E+00 -0.71385304931E+03  0.11543582924E+04  0.90716971463E+03 0.  0.
        2    1    3    3  502    0  0.10840464568E+03  0.38230874691E+03 -0.78640286215E+02  0.40508744709E+03  0.25500000920E-02 0. -1.
       -2    1    3    3    0  502 -0.10840464568E+03 -0.38230874691E+03 -0.63521276309E+03  0.74927084527E+03  0.25500000920E-02 0.  1.
</event>
<event>
 5   0  0.1206541E-02  0.8385709E+03  0.7818609E-02  0.9505806E-01
       -1   -1    0    0    0  501  0.00000000000E+00  0.00000000000E+00  0.11696966258E+03  0.11696966268E+03  0.50400001928E-02 0. -1.
        1   -1    0    0  501    0  0.00000000000E+00  0.00000000000E+00 -0.15029561199E+04  0.15029561199E+04  0.50400001928E-02 0.  1.
    10030    2    1    2    0    0  0.00000000000E+00  0.00000000000E+00 -0.13859864573E+04  0.16199257825E+04  0.83857085640E+03 0.  0.
        3    1    3    3  502    0 -0.30945851184E+03 -0.13558377054E+03 -0.11726510287E+04  0.12203515784E+04  0.10100000352E+00 0.  1.
       -3    1    3    3    0  502  0.30945851184E+03  0.13558377054E+03 -0.21333542853E+03  0.39957420419E+03  0.10100000352E+00 0. -1.
</event>
<event>
 5   0  0.2008643E-02  0.9015504E+03  0.7818609E-02  0.9423645E-01
       -2   -1    0    0    0  501  0.00000000000E+00  0.00000000000E+00  0.76954884931E+03  0.76954884932E+03  0.25500000920E-02 0.  1.
        2   -1    0    0  501    0  0.00000000000E+00  0.00000000000E+00 -0.26404855227E+03  0.26404855228E+03  0.25500000920E-02 0. -1.
    10030    2    1    2    0    0  0.00000000000E+00  0.00000000000E+00  0.50550029705E+03  0.10335974016E+04  0.90155035260E+03 0.  0.
        3    1    3    3  502    0 -0.42825256820E+03 -0.98904871740E+02  0.13801287206E+03  0.46068427245E+03  0.10100000352E+00 0.  1.
       -3    1    3    3    0  502  0.42825256820E+03  0.98904871740E+02  0.36748742499E+03  0.57291312915E+03  0.10100000352E+00 0. -1.
</event>
<event>
 5   0  0.1162839E-02  0.8953531E+03  0.7818609E-02  0.9431409E-01
       -1   -1    0    0    0  501  0.00000000000E+00  0.00000000000E+00  0.13813861072E+03  0.13813861081E+03  0.50400001928E-02 0.  1.
        1   -1    0    0  501    0  0.00000000000E+00  0.00000000000E+00 -0.14508203540E+04  0.14508203540E+04  0.50400001928E-02 0. -1.
    10030    2    1    2    0    0  0.00000000000E+00  0.00000000000E+00 -0.13126817433E+04  0.15889589649E+04  0.89535313299E+03 0.  0.
        2    1    3    3  502    0 -0.29774004657E+03 -0.30168326447E+03 -0.91199469257E+03  0.10056819809E+04  0.25500000920E-02 0. -1.
       -2    1    3    3    0  502  0.29774004657E+03  0.30168326447E+03 -0.40068705076E+03  0.58327698398E+03  0.25500000920E-02 0.  1.
</event>
<event>
 5   0  0.1226424E-02  0.5882568E+03  0.7818609E-02  0.9930073E-01
        1   -1    0    0  501    0  0.00000000000E+00  0.00000000000E+00  0.69311855538E+03  0.69311855540E+03  0.50400001928E-02 0.  1.
       -1   -1    0    0    0  501  0.00000000000E+00  0.00000000000E+00 -0.12481489509E+03  0.12481489519E+03  0.50400001928E-02 0. -1.
    10030    2    1    2    0    0  0.00000000000E+00  0.00000000000E+00  0.56830366029E+03  0.81793345059E+03  0.58825681407E+03 0.  0.
        1    1    3    3  502    0  0.15287125866E+03 -0.16312212219E+03  0.18389088404E+02  0.22431363550E+03  0.50400001928E-02 0. -1.
       -1    1    3    3    0  502 -0.15287125866E+03  0.16312212219E+03  0.54991457188E+03  0.59361981509E+03  0.50400001928E-02 0.  1.
</event>
<event>
 5   0  0.1968763E-02  0.9096318E+03  0.7818609E-02  0.9413621E-01
       -2   -1    0    0    0  501  0.00000000000E+00  0.00000000000E+00  0.17833587738E+03  0.17833587740E+03  0.25500000920E-02 0. -1.
        2   -1    0    0  501    0  0.00000000000E+00  0.00000000000E+00 -0.11599319982E+04  0.11599319982E+04  0.25500000920E-02 0.  1.
    10030    2    1    2    0    0  0.00000000000E+00  0.00000000000E+00 -0.98159612086E+03  0.13382678756E+04  0.90963177303E+03 0.  0.
        2    1    3    3  502    0 -0.18979533818E+03 -0.35252737900E+03 -0.17334291879E+03  0.43628613414E+03  0.25500000920E-02 0. -1.
       -2    1    3    3    0  502  0.18979533818E+03  0.35252737900E+03 -0.80825320207E+03  0.90198174151E+03  0.25500000920E-02 0.  1.
</event>
<event>
 5   0  0.1206541E-02  0.9538433E+03  0.7818609E-02  0.9360670E-01
       -1   -1    0    0    0  501  0.00000000000E+00  0.00000000000E+00  0.21956084361E+03  0.21956084366E+03  0.50400001928E-02 0.  1.
        1   -1    0    0  501    0  0.00000000000E+00  0.00000000000E+00 -0.10359508457E+04  0.10359508457E+04  0.50400001928E-02 0. -1.
    10030    2    1    2    0    0  0.00000000000E+00  0.00000000000E+00 -0.81639000208E+03  0.12555116894E+04  0.95384326104E+03 0.  0.
        3    1    3    3  502    0  0.37010948414E+03  0.61194843436E+02 -0.79583125935E+03  0.87981432284E+03  0.10100000352E+00 0. -1.
       -3    1    3    3    0  502 -0.37010948414E+03 -0.61194843436E+02 -0.20558742733E+02  0.37569736653E+03  0.10100000352E+00 0.  1.
</event>
<event>
 5   0  0.1924218E-02  0.8931805E+03  0.7818609E-02  0.9434146E-01
       -2   -1    0    0    0  501  0.00000000000E+00  0.00000000000E+00  0.10184818253E+03  0.10184818256E+03  0.25500000920E-02 0. -1.
        2   -1    0    0  501    0  0.00000000000E+00  0.00000000000E+00 -0.19582367995E+04  0.19582367995E+04  0.25500000920E-02 0.  1.
    10030    2    1    2    0    0  0.00000000000E+00  0.00000000000E+00 -0.18563886170E+04  0.20600849821E+04  0.89318051711E+03 0.  0.
        4    1    3    3  502    0 -0.56920299295E+02  0.28871259313E+03 -0.17029944306E+04  0.17282321966E+04  0.12699999809E+01 0.  1.
       -4    1    3    3    0  502  0.56920299295E+02 -0.28871259313E+03 -0.15339418640E+03  0.33185278547E+03  0.12699999809E+01 0. -1.
</event>
<event>
 5   0  0.2008643E-02  0.8781005E+03  0.7818609E-02  0.9453379E-01
       -2   -1    0    0    0  501  0.00000000000E+00  0.00000000000E+00  0.52933771984E+03  0.52933771984E+03  0.25500000920E-02 0.  1.
        2   -1    0    0  501    0  0.00000000000E+00  0.00000000000E+00 -0.36416279528E+03  0.36416279529E+03  0.25500000920E-02 0. -1.
    10030    2    1    2    0    0  0.00000000000E+00  0.00000000000E+00  0.16517492456E+03  0.89350051513E+03  0.87810045828E+03 0.  0.
        3    1    3    3  502    0 -0.23221088553E+03 -0.18267350492E+03 -0.24787525151E+03  0.38566002550E+03  0.10100000352E+00 0. -1.
       -3    1    3    3    0  502  0.23221088553E+03  0.18267350492E+03  0.41305017607E+03  0.50784048963E+03  0.10100000352E+00 0.  1.
</event>
<event>
 5   0  0.2041861E-02  0.9011355E+03  0.7818609E-02  0.9424163E-01
        2   -1    0    0  501    0  0.00000000000E+00  0.00000000000E+00  0.65386483453E+03  0.65386483453E+03  0.25500000920E-02 0.  1.
       -2   -1    0    0    0  501  0.00000000000E+00  0.00000000000E+00 -0.31047901895E+03  0.31047901896E+03  0.25500000920E-02 0. -1.
    10030    2    1    2    0    0  0.00000000000E+00  0.00000000000E+00  0.34338581558E+03  0.96434385349E+03  0.90113553333E+03 0.  0.
        5    1    3    3  502    0  0.90251566232E+02  0.29795257423E+03 -0.17683236810E+03  0.35806823108E+03  0.46999998093E+01 0. -1.
       -5    1    3    3    0  502 -0.90251566232E+02 -0.29795257423E+03  0.52021818368E+03  0.60627562241E+03  0.46999998093E+01 0.  1.
</event>
<event>
 5   0  0.1175993E-02  0.8992208E+03  0.7818609E-02  0.9426556E-01
        1   -1    0    0  501    0  0.00000000000E+00  0.00000000000E+00  0.24881014195E+03  0.24881014200E+03  0.50400001928E-02 0.  1.
       -1   -1    0    0    0  501  0.00000000000E+00  0.00000000000E+00 -0.81246497423E+03  0.81246497425E+03  0.50400001928E-02 0. -1.
    10030    2    1    2    0    0  0.00000000000E+00  0.00000000000E+00 -0.56365483228E+03  0.10612751162E+04  0.89922083072E+03 0.  0.
        4    1    3    3  502    0  0.28821227555E+02 -0.37861059593E+03  0.23359021981E+01  0.37971530894E+03  0.12699999809E+01 0.  1.
       -4    1    3    3    0  502 -0.28821227555E+02  0.37861059593E+03 -0.56599073448E+03  0.68155980730E+03  0.12699999809E+01 0. -1.
</event>
<event>
 5   0  0.1226424E-02  0.9218403E+03  0.7818609E-02  0.9398684E-01
        1   -1    0    0  501    0  0.00000000000E+00  0.00000000000E+00  0.23669808035E+03  0.23669808040E+03  0.50400001928E-02 0. -1.
       -1   -1    0    0    0  501  0.00000000000E+00  0.00000000000E+00 -0.89754585600E+03  0.89754585601E+03  0.50400001928E-02 0.  1.
    10030    2    1    2    0    0  0.00000000000E+00  0.00000000000E+00 -0.66084777565E+03  0.11342439364E+04  0.92184029241E+03 0.  0.
        1    1    3    3  502    0 -0.79296216863E+01  0.31337136806E+03  0.85344333090E+02  0.32488174531E+03  0.50400001928E-02 0. -1.
       -1    1    3    3    0  502  0.79296216863E+01 -0.31337136806E+03 -0.74619210874E+03  0.80936219111E+03  0.50400001928E-02 0.  1.
</event>
<event>
 5   0  0.1177712E-02  0.7921028E+03  0.7818609E-02  0.9571519E-01
       -1   -1    0    0    0  501  0.00000000000E+00  0.00000000000E+00  0.18122577349E+03  0.18122577356E+03  0.50400001928E-02 0. -1.
        1   -1    0    0  501    0  0.00000000000E+00  0.00000000000E+00 -0.86553198627E+03  0.86553198629E+03  0.50400001928E-02 0.  1.
    10030    2    1    2    0    0  0.00000000000E+00  0.00000000000E+00 -0.68430621279E+03  0.10467577598E+04  0.79210278054E+03 0.  0.
        5    1    3    3  502    0  0.23356103791E+03 -0.20241097622E+03 -0.66937567065E+03  0.73729698235E+03  0.46999998093E+01 0.  1.
       -5    1    3    3    0  502 -0.23356103791E+03  0.20241097622E+03 -0.14930542136E+02  0.30946077750E+03  0.46999998093E+01 0. -1.
</event>
<event>
 5   0  0.1924218E-02  0.9042821E+03  0.7818609E-02  0.9420244E-01
       -2   -1    0    0    0  501  0.00000000000E+00  0.00000000000E+00  0.94564824334E+02  0.94564824368E+02  0.25500000920E-02 0.  1.
        2   -1    0    0  501    0  0.00000000000E+00  0.00000000000E+00 -0.21618137735E+04  0.21618137735E+04  0.25500000920E-02 0. -1.
    10030    2    1    2    0    0  0.00000000000E+00  0.00000000000E+00 -0.20672489491E+04  0.22563785978E+04  0.90428212361E+03 0.  0.
        4    1    3    3  502    0 -0.58876308442E+02 -0.20259013053E+03 -0.35785576039E+02  0.21398925449E+03  0.12699999809E+01 0.  1.
       -4    1    3    3    0  502  0.58876308442E+02  0.20259013053E+03 -0.20314633731E+04  0.20423893433E+04  0.12699999809E+01 0. -1.
</event>
<event>
 5   0  0.1924218E-02  0.8394067E+03  0.7818609E-02  0.9504666E-01
       -2   -1    0    0    0  501  0.00000000000E+00  0.00000000000E+00  0.10652908103E+03  0.10652908107E+03  0.25500000920E-02 0.  1.
        2   -1    0    0  501    0  0.00000000000E+00  0.00000000000E+00 -0.16535474073E+04  0.16535474073E+04  0.25500000920E-02 0. -1.
    10030    2    1    2    0    0  0.00000000000E+00  0.00000000000E+00 -0.15470183263E+04  0.17600764884E+04  0.83940666135E+03 0.  0.
        4    1    3    3  502    0  0.36822898910E+03 -0.51446446295E+02 -0.36525020547E+03  0.52119924285E+03  0.12699999809E+01 0.  1.
       -4    1    3    3    0  502 -0.36822898910E+03  0.51446446295E+02 -0.11817681208E+04  0.12388772456E+04  0.12699999809E+01 0. -1.
</event>
<event>
 5   0  0.2041861E-02  0.9112411E+03  0.7818609E-02  0.9411638E-01
        2   -1    0    0  501    0  0.00000000000E+00  0.00000000000E+00  0.92794149441E+03  0.92794149442E+03  0.25500000920E-02 0. -1.
       -2   -1    0    0    0  501  0.00000000000E+00  0.00000000000E+00 -0.22371034106E+03  0.22371034107E+03  0.25500000920E-02 0.  1.
    10030    2    1    2    0    0  0.00000000000E+00  0.00000000000E+00  0.70423115336E+03  0.11516518355E+04  0.91124114966E+03 0.  0.
        5    1    3    3  502    0  0.16631141787E+03 -0.14490628135E+03 -0.15169171791E+03  0.26774948248E+03  0.46999998093E+01 0.  1.
       -5    1    3    3    0  502 -0.16631141787E+03  0.14490628135E+03  0.85592287127E+03  0.88390235301E+03  0.46999998093E+01 0. -1.
</event>
<event>
 5   0  0.1924218E-02  0.8919800E+03  0.7818609E-02  0.9435663E-01
       -2   -1    0    0    0  501  0.00000000000E+00  0.00000000000E+00  0.31369429337E+03  0.31369429338E+03  0.25500000920E-02 0. -1.
        2   -1    0    0  501    0  0.00000000000E+00  0.00000000000E+00 -0.63407941299E+03  0.63407941299E+03  0.25500000920E-02 0.  1.
    10030    2    1    2    0    0  0.00000000000E+00  0.00000000000E+00 -0.32038511962E+03  0.94777370637E+03  0.89198002982E+03 0.  0.
        4    1    3    3  502    0 -0.23475394308E+03  0.26592992309E+03  0.12704478156E+03  0.37678923446E+03  0.12699999809E+01 0. -1.
       -4    1    3    3    0  502  0.23475394308E+03 -0.26592992309E+03 -0.44742990118E+03  0.57098447191E+03  0.12699999809E+01 0.  1.
</event>
<event>
 5   0  0.1968763E-02  0.9028879E+03  0.7818609E-02  0.9421979E-01
       -2   -1    0    0    0  501  0.00000000000E+00  0.00000000000E+00  0.20244861532E+03  0.20244861533E+03  0.25500000920E-02 0. -1.
        2   -1    0    0  501    0  0.00000000000E+00  0.00000000000E+00 -0.10066832295E+04  0.10066832295E+04  0.25500000920E-02 0.  1.
    10030    2    1    2    0    0  0.00000000000E+00  0.00000000000E+00 -0.80423461422E+03  0.12091318449E+04  0.90288786878E+03 0.  0.
        2    1    3    3  502    0  0.36740366770E+03  0.16969964065E+03 -0.67001478927E+03  0.78275362722E+03  0.25500000920E-02 0.  1.
       -2    1    3    3    0  502 -0.36740366770E+03 -0.16969964065E+03 -0.13421982495E+03  0.42637821766E+03  0.25500000920E-02 0. -1.
</event>
<event>
 5   0  0.2041861E-02  0.8857783E+03  0.7818609E-02  0.9443536E-01
        2   -1    0    0  501    0  0.00000000000E+00  0.00000000000E+00  0.77511673565E+03  0.77511673566E+03  0.25500000920E-02 0. -1.
       -2   -1    0    0    0  501  0.00000000000E+00  0.00000000000E+00 -0.25305967194E+03  0.25305967195E+03  0.25500000920E-02 0.  1.
    10030    2    1    2    0    0  0.00000000000E+00  0.00000000000E+00  0.52205706372E+03  0.10281764076E+04  0.88577827214E+03 0.  0.
        5    1    3    3  502    0 -0.38773211448E+03  0.15176766194E+03  0.85914893097E+02  0.42517416980E+03  0.46999998093E+01 0.  1.
       -5    1    3    3    0  502  0.38773211448E+03 -0.15176766194E+03  0.43614217062E+03  0.60300223781E+03  0.46999998093E+01 0. -1.
</event>
<event>
 5   0  0.2041861E-02  0.9386341E+03  0.7818609E-02  0.9378535E-01
        2   -1    0    0  501    0  0.00000000000E+00  0.00000000000E+00  0.14418565713E+04  0.14418565713E+04  0.25500000920E-02 0. -1.
       -2   -1    0    0    0  501  0.00000000000E+00  0.00000000000E+00 -0.15276033428E+03  0.15276033430E+03  0.25500000920E-02 0.  1.
    10030    2    1    2    0    0  0.00000000000E+00  0.00000000000E+00  0.12890962370E+04  0.15946169056E+04  0.93863409661E+03 0.  0.
        5    1    3    3  502    0  0.30640860935E+03 -0.26495486937E+03  0.24198742063E+03  0.47187638257E+03  0.46999998093E+01 0.  1.
       -5    1    3    3    0  502 -0.30640860935E+03  0.26495486937E+03  0.10471088164E+04  0.11227405230E+04  0.46999998093E+01 0. -1.
</event>
<event>
 5   0  0.7893875E-03  0.8494571E+03  0.7818609E-02  0.9491066E-01
       -4   -1    0    0    0  501  0.00000000000E+00  0.00000000000E+00  0.28825691025E+03  0.28825970792E+03  0.12699999809E+01 0. -1.
        4   -1    0    0  501    0  0.00000000000E+00  0.00000000000E+00 -0.62580444803E+03  0.62580573669E+03  0.12699999809E+01 0.  1.
    10030    2    1    2    0    0  0.00000000000E+00  0.00000000000E+00 -0.33754753778E+03  0.91406544461E+03  0.84945705999E+03 0.  0.
        5    1    3    3  502    0 -0.16608664859E+03 -0.31515448325E+02 -0.58801453033E+03  0.61185061592E+03  0.46999998093E+01 0.  1.
       -5    1    3    3    0  502  0.16608664859E+03  0.31515448325E+02  0.25046699255E+03  0.30221482869E+03  0.46999998093E+01 0. -1.
</event>
<event>
 5   0  0.1162839E-02  0.8716066E+03  0.7818609E-02  0.9461788E-01
       -1   -1    0    0    0  501  0.00000000000E+00  0.00000000000E+00  0.24106071061E+03  0.24106071067E+03  0.50400001928E-02 0. -1.
        1   -1    0    0  501    0  0.00000000000E+00  0.00000000000E+00 -0.78787000933E+03  0.78787000934E+03  0.50400001928E-02 0.  1.
    10030    2    1    2    0    0  0.00000000000E+00  0.00000000000E+00 -0.54680929871E+03  0.10289307200E+04  0.87160657261E+03 0.  0.
        2    1    3    3  502    0  0.10282684221E+03  0.33416219654E+03 -0.58053132323E+03  0.67768307514E+03  0.25500000920E-02 0.  1.
       -2    1    3    3    0  502 -0.10282684221E+03 -0.33416219654E+03  0.33722024518E+02  0.35124764487E+03  0.25500000920E-02 0. -1.
</event>
<event>
 5   0  0.7893875E-03  0.9499725E+03  0.7818609E-02  0.9365183E-01
       -4   -1    0    0    0  501  0.00000000000E+00  0.00000000000E+00  0.29768213594E+03  0.29768484503E+03  0.12699999809E+01 0. -1.
        4   -1    0    0  501    0  0.00000000000E+00  0.00000000000E+00 -0.75788870222E+03  0.75788976629E+03  0.12699999809E+01 0.  1.
    10030    2    1    2    0    0  0.00000000000E+00  0.00000000000E+00 -0.46020656628E+03  0.10555746113E+04  0.94997246087E+03 0.  0.
        2    1    3    3  502    0  0.19021469093E+03  0.27688001507E+03 -0.60324205149E+03  0.69046733745E+03  0.25500000920E-02 0.  1.
       -2    1    3    3    0  502 -0.19021469093E+03 -0.27688001507E+03  0.14303548521E+03  0.36510727387E+03  0.25500000920E-02 0. -1.
</event>
<event>
 5   0  0.1206541E-02  0.8845935E+03  0.7818609E-02  0.9445048E-01
       -1   -1    0    0    0  501  0.00000000000E+00  0.00000000000E+00  0.50709677676E+03  0.50709677678E+03  0.50400001928E-02 0.  1.
        1   -1    0    0  501    0  0.00000000000E+00  0.00000000000E+00 -0.38577725828E+03  0.38577725831E+03  0.50400001928E-02 0. -1.
    10030    2    1    2    0    0  0.00000000000E+00  0.00000000000E+00  0.12131951848E+03  0.89287403509E+03  0.88459347554E+03 0.  0.
        3    1    3    3  502    0  0.57929561615E+02 -0.33650951731E+02  0.50194578785E+03  0.50639688467E+03  0.10100000352E+00 0.  1.
       -3    1    3    3    0  502 -0.57929561615E+02  0.33650951731E+02 -0.38062626937E+03  0.38647715042E+03  0.10100000352E+00 0. -1.
</event>
<event>
 5   0  0.2008643E-02  0.8892304E+03  0.7818609E-02  0.9439145E-01
        2   -1    0    0  501    0  0.00000000000E+00  0.00000000000E+00  0.54514960489E+03  0.54514960489E+03  0.25500000920E-02 0. -1.
       -2   -1    0    0    0  501  0.00000000000E+00  0.00000000000E+00 -0.36262095612E+03  0.36262095612E+03  0.25500000920E-02 0.  1.
    10030    2    1    2    0    0  0.00000000000E+00  0.00000000000E+00  0.18252864877E+03  0.90777056102E+03  0.88923038850E+03 0.  0.
        3    1    3    3  502    0  0.27266863823E+02 -0.18124044214E+01 -0.36176283400E+03  0.36279350178E+03  0.10100000352E+00 0.  1.
       -3    1    3    3    0  502 -0.27266863823E+02  0.18124044214E+01  0.54429148277E+03  0.54497705923E+03  0.10100000352E+00 0. -1.
</event>
<event>
 5   0  0.1226424E-02  0.8882889E+03  0.7818609E-02  0.9440340E-01
       -1   -1    0    0    0  501  0.00000000000E+00  0.00000000000E+00  0.45172841720E+03  0.45172841723E+03  0.50400001928E-02 0. -1.
        1   -1    0    0  501    0  0.00000000000E+00  0.00000000000E+00 -0.43668779157E+03  0.43668779160E+03  0.50400001928E-02 0.  1.
    10030    2    1    2    0    0  0.00000000000E+00  0.00000000000E+00  0.15040625632E+02  0.88841620882E+03  0.88828888301E+03 0.  0.
        1    1    3    3  502    0 -0.24442218715E+03  0.18742494069E+03  0.32755675916E+03  0.44962622751E+03  0.50400001928E-02 0. -1.
       -1    1    3    3    0  502  0.24442218715E+03 -0.18742494069E+03 -0.31251613352E+03  0.43878998132E+03  0.50400001928E-02 0.  1.
</event>
<event>
 5   0  0.1162839E-02  0.8762569E+03  0.7818609E-02  0.9455758E-01
       -1   -1    0    0    0  501  0.00000000000E+00  0.00000000000E+00  0.58612877854E+03  0.58612877856E+03  0.50400001928E-02 0. -1.
        1   -1    0    0  501    0  0.00000000000E+00  0.00000000000E+00 -0.32749889052E+03  0.32749889056E+03  0.50400001928E-02 0.  1.
    10030    2    1    2    0    0  0.00000000000E+00  0.00000000000E+00  0.25862988802E+03  0.91362766913E+03  0.87625686806E+03 0.  0.
        2    1    3    3  502    0 -0.40736462779E+03  0.12221508563E+03  0.19593580226E+02  0.42575389079E+03  0.25500000920E-02 0.  1.
       -2    1    3    3    0  502  0.40736462779E+03 -0.12221508563E+03  0.23903630779E+03  0.48787377833E+03  0.25500000920E-02 0. -1.
</event>
<event>
 5   0  0.1177712E-02  0.9079134E+03  0.7818609E-02  0.9415743E-01
        1   -1    0    0  501    0  0.00000000000E+00  0.00000000000E+00  0.54695729853E+03  0.54695729855E+03  0.50400001928E-02 0.  1.
       -1   -1    0    0    0  501  0.00000000000E+00  0.00000000000E+00 -0.37676920407E+03  0.37676920410E+03  0.50400001928E-02 0. -1.
    10030    2    1    2    0    0  0.00000000000E+00  0.00000000000E+00  0.17018809446E+03  0.92372650265E+03  0.90791335721E+03 0.  0.
        5    1    3    3  502    0 -0.15586421165E+03  0.38618024613E+03  0.26886598355E+03  0.49572153683E+03  0.46999998093E+01 0.  1.
       -5    1    3    3    0  502  0.15586421165E+03 -0.38618024613E+03 -0.98677889085E+02  0.42800496582E+03  0.46999998093E+01 0. -1.
</event>
<event>
 5   0  0.1968763E-02  0.9031040E+03  0.7818609E-02  0.9421710E-01
       -2   -1    0    0    0  501  0.00000000000E+00  0.00000000000E+00  0.22160936057E+03  0.22160936059E+03  0.25500000920E-02 0.  1.
        2   -1    0    0  501    0  0.00000000000E+00  0.00000000000E+00 -0.92008395840E+03  0.92008395841E+03  0.25500000920E-02 0. -1.
    10030    2    1    2    0    0  0.00000000000E+00  0.00000000000E+00 -0.69847459783E+03  0.11416933190E+04  0.90310401993E+03 0.  0.
        2    1    3    3  502    0 -0.25795501215E+03 -0.33198143327E+03 -0.14094622225E+03  0.44341661889E+03  0.25500000920E-02 0.  1.
       -2    1    3    3    0  502  0.25795501215E+03  0.33198143327E+03 -0.55752837558E+03  0.69827670011E+03  0.25500000920E-02 0. -1.
</event>
<event>
 5   0  0.1924218E-02  0.9175616E+03  0.7818609E-02  0.9403891E-01
        2   -1    0    0  501    0  0.00000000000E+00  0.00000000000E+00  0.79078362901E+03  0.79078362901E+03  0.25500000920E-02 0. -1.
       -2   -1    0    0    0  501  0.00000000000E+00  0.00000000000E+00 -0.26616616039E+03  0.26616616040E+03  0.25500000920E-02 0.  1.
    10030    2    1    2    0    0  0.00000000000E+00  0.00000000000E+00  0.52461746862E+03  0.10569497894E+04  0.91756164314E+03 0.  0.
        4    1    3    3  502    0 -0.12661523598E+03  0.14936817001E+03  0.74022840997E+03  0.76569052497E+03  0.12699999809E+01 0. -1.
       -4    1    3    3    0  502  0.12661523598E+03 -0.14936817001E+03 -0.21561094135E+03  0.29125926445E+03  0.12699999809E+01 0.  1.
</event>
<event>
 5   0  0.1206541E-02  0.9263224E+03  0.7818609E-02  0.9393262E-01
        1   -1    0    0  501    0  0.00000000000E+00  0.00000000000E+00  0.54056377513E+03  0.54056377515E+03  0.50400001928E-02 0. -1.
       -1   -1    0    0    0  501  0.00000000000E+00  0.00000000000E+00 -0.39684180638E+03  0.39684180641E+03  0.50400001928E-02 0.  1.
    10030    2    1    2    0    0  0.00000000000E+00  0.00000000000E+00  0.14372196875E+03  0.93740558156E+03  0.92632241689E+03 0.  0.
        3    1    3    3  502    0 -0.22372990721E+03  0.40094284934E+03  0.13348336104E+03  0.47815066422E+03  0.10100000352E+00 0. -1.
       -3    1    3    3    0  502  0.22372990721E+03 -0.40094284934E+03  0.10238607716E+02  0.45925491734E+03  0.10100000352E+00 0.  1.
</event>
<event>
 5   0  0.1968763E-02  0.8953514E+03  0.7818609E-02  0.9431411E-01
       -2   -1    0    0    0  501  0.00000000000E+00  0.00000000000E+00  0.24317920660E+03  0.24317920661E+03  0.25500000920E-02 0.  1.
        2   -1    0    0  501    0  0.00000000000E+00  0.00000000000E+00 -0.82413917412E+03  0.82413917413E+03  0.25500000920E-02 0. -1.
    10030    2    1    2    0    0  0.00000000000E+00  0.00000000000E+00 -0.58095996752E+03  0.10673183807E+04  0.89535135115E+03 0.  0.
        2    1    3    3  502    0 -0.57447506488E+02  0.22043012341E+03  0.16892806754E+03  0.28359539368E+03  0.25500000920E-02 0.  1.
       -2    1    3    3    0  502  0.57447506488E+02 -0.22043012341E+03 -0.74988803506E+03  0.78372298706E+03  0.25500000920E-02 0. -1.
</event>
<event>
 5   0  0.1177712E-02  0.8456383E+03  0.7818609E-02  0.9496210E-01
        1   -1    0    0  501    0  0.00000000000E+00  0.00000000000E+00  0.17347360512E+04  0.17347360512E+04  0.50400001928E-02 0.  1.
       -1   -1    0    0    0  501  0.00000000000E+00  0.00000000000E+00 -0.10305661156E+03  0.10305661168E+03  0.50400001928E-02 0. -1.
    10030    2    1    2    0    0  0.00000000000E+00  0.00000000000E+00  0.16316794396E+04  0.18377926629E+04  0.84563826665E+03 0.  0.
        5    1    3    3  502    0 -0.24167071030E+02 -0.28970730636E+03  0.14829974280E+04  0.15112305689E+04  0.46999998093E+01 0.  1.
       -5    1    3    3    0  502  0.24167071030E+02  0.28970730636E+03  0.14868201158E+03  0.32656209401E+03  0.46999998093E+01 0. -1.
</event>
<event>
 5   0  0.7893875E-03  0.8945819E+03  0.7818609E-02  0.9432380E-01
       -3   -1    0    0    0  501  0.00000000000E+00  0.00000000000E+00  0.13991874805E+04  0.13991874841E+04  0.10100000352E+00 0. -1.
        3   -1    0    0  501    0  0.00000000000E+00  0.00000000000E+00 -0.14298954709E+03  0.14298958276E+03  0.10100000352E+00 0.  1.
    10030    2    1    2    0    0  0.00000000000E+00  0.00000000000E+00  0.12561979334E+04  0.15421770669E+04  0.89458194580E+03 0.  0.
        2    1    3    3  502    0 -0.13874039249E+03 -0.13435887512E+03 -0.67403443301E+02  0.20455910639E+03  0.25500000920E-02 0.  1.
       -2    1    3    3    0  502  0.13874039249E+03  0.13435887512E+03  0.13236013767E+04  0.13376179605E+04  0.25500000920E-02 0. -1.
</event>
<event>
 5   0  0.1175993E-02  0.8958783E+03  0.7818609E-02  0.9430749E-01
        1   -1    0    0  501    0  0.00000000000E+00  0.00000000000E+00  0.20038987669E+03  0.20038987675E+03  0.50400001928E-02 0.  1.
       -1   -1    0    0    0  501  0.00000000000E+00  0.00000000000E+00 -0.10012954084E+04  0.10012954085E+04  0.50400001928E-02 0. -1.
    10030    2    1    2    0    0  0.00000000000E+00  0.00000000000E+00 -0.80090553176E+03  0.12016852852E+04  0.89587825842E+03 0.  0.
        4    1    3    3  502    0 -0.25676434675E+03 -0.35318648808E+03 -0.53444825035E+03  0.69014865814E+03  0.12699999809E+01 0. -1.
       -4    1    3    3    0  502  0.25676434675E+03  0.35318648808E+03 -0.26645728141E+03  0.51153662708E+03  0.12699999809E+01 0.  1.
</event>
<event>
 5   0  0.1162839E-02  0.8796767E+03  0.7818609E-02  0.9451349E-01
        1   -1    0    0  501    0  0.00000000000E+00  0.00000000000E+00  0.29336738619E+03  0.29336738624E+03  0.50400001928E-02 0.  1.
       -1   -1    0    0    0  501  0.00000000000E+00  0.00000000000E+00 -0.65943859312E+03  0.65943859314E+03  0.50400001928E-02 0. -1.
    10030    2    1    2    0    0  0.00000000000E+00  0.00000000000E+00 -0.36607120692E+03  0.95280597938E+03  0.87967670527E+03 0.  0.
        2    1    3    3  502    0  0.42696532485E+03 -0.49760761837E+02 -0.82110864236E+02  0.43762737125E+03  0.25500000920E-02 0.  1.
       -2    1    3    3    0  502 -0.42696532485E+03  0.49760761837E+02 -0.28396034269E+03  0.51517860812E+03  0.25500000920E-02 0. -1.
</event>
<event>
 5   0  0.1177712E-02  0.1009083E+04  0.7818609E-02  0.9298638E-01
       -1   -1    0    0    0  501  0.00000000000E+00  0.00000000000E+00  0.95023690597E+03  0.95023690598E+03  0.50400001928E-02 0. -1.
        1   -1    0    0  501    0  0.00000000000E+00  0.00000000000E+00 -0.26789352958E+03  0.26789352963E+03  0.50400001928E-02 0.  1.
    10030    2    1    2    0    0  0.00000000000E+00  0.00000000000E+00  0.68234337639E+03  0.12181304356E+04  0.10090833835E+04 0.  0.
        5    1    3    3  502    0 -0.36248457128E+01  0.49839695512E+03  0.24667628563E+03  0.55613302749E+03  0.46999998093E+01 0. -1.
       -5    1    3    3    0  502  0.36248457128E+01 -0.49839695512E+03  0.43566709076E+03  0.66199740811E+03  0.46999998093E+01 0.  1.
</event>
<event>
 5   0  0.1226424E-02  0.8918389E+03  0.7818609E-02  0.9435841E-01
       -1   -1    0    0    0  501  0.00000000000E+00  0.00000000000E+00  0.24655586281E+03  0.24655586287E+03  0.50400001928E-02 0. -1.
        1   -1    0    0  501    0  0.00000000000E+00  0.00000000000E+00 -0.80648723389E+03  0.80648723391E+03  0.50400001928E-02 0.  1.
    10030    2    1    2    0    0  0.00000000000E+00  0.00000000000E+00 -0.55993137108E+03  0.10530430968E+04  0.89183889988E+03 0.  0.
        1    1    3    3  502    0 -0.42184886038E+03 -0.74023084841E+02 -0.42653288275E+03  0.60445527393E+03  0.50400001928E-02 0.  1.
       -1    1    3    3    0  502  0.42184886038E+03  0.74023084841E+02 -0.13339848833E+03  0.44858782284E+03  0.50400001928E-02 0. -1.
</event>
<event>
 5   0  0.2008643E-02  0.8991517E+03  0.7818609E-02  0.9426642E-01
       -2   -1    0    0    0  501  0.00000000000E+00  0.00000000000E+00  0.87793255997E+02  0.87793256034E+02  0.25500000920E-02 0.  1.
        2   -1    0    0  501    0  0.00000000000E+00  0.00000000000E+00 -0.23022093005E+04  0.23022093005E+04  0.25500000920E-02 0. -1.
    10030    2    1    2    0    0  0.00000000000E+00  0.00000000000E+00 -0.22144160445E+04  0.23900025565E+04  0.89915171250E+03 0.  0.
        3    1    3    3  502    0  0.11662659876E+03  0.43147346347E+03 -0.97842690260E+03  0.10756813316E+04  0.10100000352E+00 0. -1.
       -3    1    3    3    0  502 -0.11662659876E+03 -0.43147346347E+03 -0.12359891419E+04  0.13143212249E+04  0.10100000352E+00 0.  1.
</event>
<event>
 5   0  0.2008643E-02  0.8950075E+03  0.7818609E-02  0.9431844E-01
        2   -1    0    0  501    0  0.00000000000E+00  0.00000000000E+00  0.76937289037E+03  0.76937289037E+03  0.25500000920E-02 0.  1.
       -2   -1    0    0    0  501  0.00000000000E+00  0.00000000000E+00 -0.26028938063E+03  0.26028938064E+03  0.25500000920E-02 0. -1.
    10030    2    1    2    0    0  0.00000000000E+00  0.00000000000E+00  0.50908350974E+03  0.10296622710E+04  0.89500747062E+03 0.  0.
        3    1    3    3  502    0  0.18422472985E+02 -0.14027975790E+03  0.74296449861E+03  0.75631610744E+03  0.10100000352E+00 0.  1.
       -3    1    3    3    0  502 -0.18422472985E+02  0.14027975790E+03 -0.23388098886E+03  0.27334616357E+03  0.10100000352E+00 0. -1.
</event>
<event>
 5   0  0.1177712E-02  0.8863149E+03  0.7818609E-02  0.9442852E-01
       -1   -1    0    0    0  501  0.00000000000E+00  0.00000000000E+00  0.92395119414E+02  0.92395119551E+02  0.50400001928E-02 0.  1.
        1   -1    0    0  501    0  0.00000000000E+00  0.00000000000E+00 -0.21255293857E+04  0.21255293857E+04  0.50400001928E-02 0. -1.
    10030    2    1    2    0    0  0.00000000000E+00  0.00000000000E+00 -0.20331342663E+04  0.22179245053E+04  0.88631493629E+03 0.  0.
        5    1    3    3  502    0  0.28213511314E+03  0.26179813878E+02 -0.18691546607E+04  0.18905149670E+04  0.46999998093E+01 0. -1.
       -5    1    3    3    0  502 -0.28213511314E+03 -0.26179813878E+02 -0.16397960560E+03  0.32740953830E+03  0.46999998093E+01 0.  1.
</event>
<event>
 5   0  0.1226424E-02  0.8799959E+03  0.7818609E-02  0.9450939E-01
        1   -1    0    0  501    0  0.00000000000E+00  0.00000000000E+00  0.59556796823E+03  0.59556796825E+03  0.50400001928E-02 0. -1.
       -1   -1    0    0    0  501  0.00000000000E+00  0.00000000000E+00 -0.32506484819E+03  0.32506484823E+03  0.50400001928E-02 0.  1.
    10030    2    1    2    0    0  0.00000000000E+00  0.00000000000E+00  0.27050312004E+03  0.92063281648E+03  0.87999593455E+03 0.  0.
        1    1    3    3  502    0  0.11511745474E+03  0.42162243310E+03  0.82105005942E+02  0.44470072690E+03  0.50400001928E-02 0.  1.
       -1    1    3    3    0  502 -0.11511745474E+03 -0.42162243310E+03  0.18839811410E+03  0.47593208958E+03  0.50400001928E-02 0. -1.
</event>
<event>
 5   0  0.1206541E-02  0.9038180E+03  0.7818609E-02  0.9420821E-01
        1   -1    0    0  501    0  0.00000000000E+00  0.00000000000E+00  0.85636802630E+03  0.85636802631E+03  0.50400001928E-02 0. -1.
       -1   -1    0    0    0  501  0.00000000000E+00  0.00000000000E+00 -0.23847427305E+03  0.23847427310E+03  0.50400001928E-02 0.  1.
    10030    2    1    2    0    0  0.00000000000E+00  0.00000000000E+00  0.61789375325E+03  0.10948422994E+04  0.90381799622E+03 0.  0.
        3    1    3    3  502    0  0.17764188853E+03 -0.41385188841E+03  0.35413708835E+03  0.57292505063E+03  0.10100000352E+00 0. -1.
       -3    1    3    3    0  502 -0.17764188853E+03  0.41385188841E+03  0.26375666490E+03  0.52191724878E+03  0.10100000352E+00 0.  1.
</event>
<event>
 5   0  0.1968763E-02  0.8972765E+03  0.7818609E-02  0.9428992E-01
        2   -1    0    0  501    0  0.00000000000E+00  0.00000000000E+00  0.41171915839E+03  0.41171915839E+03  0.25500000920E-02 0.  1.
       -2   -1    0    0    0  501  0.00000000000E+00  0.00000000000E+00 -0.48886795145E+03  0.48886795145E+03  0.25500000920E-02 0. -1.
    10030    2    1    2    0    0  0.00000000000E+00  0.00000000000E+00 -0.77148793058E+02  0.90058710985E+03  0.89727654943E+03 0.  0.
        2    1    3    3  502    0 -0.11460979999E+03 -0.43061412326E+03  0.13698196677E+02  0.44581562333E+03  0.25500000920E-02 0.  1.
       -2    1    3    3    0  502  0.11460979999E+03  0.43061412326E+03 -0.90846989735E+02  0.45477148652E+03  0.25500000920E-02 0. -1.
</event>
<event>
 5   0  0.1968763E-02  0.8734553E+03  0.7818609E-02  0.9459386E-01
       -2   -1    0    0    0  501  0.00000000000E+00  0.00000000000E+00  0.92823129010E+02  0.92823129045E+02  0.25500000920E-02 0.  1.
        2   -1    0    0  501    0  0.00000000000E+00  0.00000000000E+00 -0.20547792033E+04  0.20547792033E+04  0.25500000920E-02 0. -1.
    10030    2    1    2    0    0  0.00000000000E+00  0.00000000000E+00 -0.19619560743E+04  0.21476023323E+04  0.87345528818E+03 0.  0.
        2    1    3    3  502    0 -0.21345368217E+03 -0.21480689060E+03 -0.17547073237E+04  0.17806465866E+04  0.25500000920E-02 0. -1.
       -2    1    3    3    0  502  0.21345368217E+03  0.21480689060E+03 -0.20724875061E+03  0.36695574572E+03  0.25500000920E-02 0.  1.
</event>
<event>
 5   0  0.1175993E-02  0.8995847E+03  0.7818609E-02  0.9426101E-01
        1   -1    0    0  501    0  0.00000000000E+00  0.00000000000E+00  0.11303791484E+04  0.11303791484E+04  0.50400001928E-02 0.  1.
       -1   -1    0    0    0  501  0.00000000000E+00  0.00000000000E+00 -0.17897815387E+03  0.17897815394E+03  0.50400001928E-02 0. -1.
    10030    2    1    2    0    0  0.00000000000E+00  0.00000000000E+00  0.95140099455E+03  0.13093573024E+04  0.89958473355E+03 0.  0.
        4    1    3    3  502    0 -0.20769292604E+03  0.38272918419E+03  0.63968702353E+03  0.77383401381E+03  0.12699999809E+01 0.  1.
       -4    1    3    3    0  502  0.20769292604E+03 -0.38272918419E+03  0.31171397102E+03  0.53552328855E+03  0.12699999809E+01 0. -1.
</event>
<event>
 5   0  0.2008770E-02  0.8879933E+03  0.7818609E-02  0.9440716E-01
        2   -1    0    0  501    0  0.00000000000E+00  0.00000000000E+00  0.59391759888E+03  0.59391759889E+03  0.25500000920E-02 0.  1.
       -2   -1    0    0    0  501  0.00000000000E+00  0.00000000000E+00 -0.33191985372E+03  0.33191985373E+03  0.25500000920E-02 0. -1.
    10030    2    1    2    0    0  0.00000000000E+00  0.00000000000E+00  0.26199774516E+03  0.92583745261E+03  0.88799333905E+03 0.  0.
        1    1    3    3  502    0 -0.29926027457E+03  0.10093451451E+03  0.45636998843E+03  0.55499374277E+03  0.50400001928E-02 0.  1.
       -1    1    3    3    0  502  0.29926027457E+03 -0.10093451451E+03 -0.19437224326E+03  0.37084370984E+03  0.50400001928E-02 0. -1.
</event>
<event>
 5   0  0.1177712E-02  0.7398715E+03  0.7818609E-02  0.9651376E-01
       -1   -1    0    0    0  501  0.00000000000E+00  0.00000000000E+00  0.15163322970E+03  0.15163322978E+03  0.50400001928E-02 0. -1.
        1   -1    0    0  501    0  0.00000000000E+00  0.00000000000E+00 -0.90252284581E+03  0.90252284582E+03  0.50400001928E-02 0.  1.
    10030    2    1    2    0    0  0.00000000000E+00  0.00000000000E+00 -0.75088961611E+03  0.10541560756E+04  0.73987148624E+03 0.  0.
        5    1    3    3  502    0  0.14137858533E+03  0.12226526979E+03  0.79357033143E+02  0.20311654116E+03  0.46999998093E+01 0. -1.
       -5    1    3    3    0  502 -0.14137858533E+03 -0.12226526979E+03 -0.83024664926E+03  0.85103953444E+03  0.46999998093E+01 0.  1.
</event>
<event>
 5   0  0.2041861E-02  0.9320979E+03  0.7818609E-02  0.9386324E-01
        2   -1    0    0  501    0  0.00000000000E+00  0.00000000000E+00  0.42733036474E+03  0.42733036475E+03  0.25500000920E-02 0.  1.
       -2   -1    0    0    0  501  0.00000000000E+00  0.00000000000E+00 -0.50827560922E+03  0.50827560923E+03  0.25500000920E-02 0. -1.
    10030    2    1    2    0    0  0.00000000000E+00  0.00000000000E+00 -0.80945244476E+02  0.93560597398E+03  0.93209785212E+03 0.  0.
        5    1    3    3  502    0 -0.33702681365E+03  0.29383449024E+03 -0.17232045233E+03  0.47920998431E+03  0.46999998093E+01 0. -1.
       -5    1    3    3    0  502  0.33702681365E+03 -0.29383449024E+03  0.91375207855E+02  0.45639598966E+03  0.46999998093E+01 0.  1.
</event>
<event>
 5   0  0.2041861E-02  0.8876174E+03  0.7818609E-02  0.9441194E-01
       -2   -1    0    0    0  501  0.00000000000E+00  0.00000000000E+00  0.12364012175E+03  0.12364012178E+03  0.25500000920E-02 0. -1.
        2   -1    0    0  501    0  0.00000000000E+00  0.00000000000E+00 -0.15930601704E+04  0.15930601704E+04  0.25500000920E-02 0.  1.
    10030    2    1    2    0    0  0.00000000000E+00  0.00000000000E+00 -0.14694200487E+04  0.17167002922E+04  0.88761738030E+03 0.  0.
        5    1    3    3  502    0  0.16809817770E+03 -0.97344257341E+02 -0.15064223542E+04  0.15189020051E+04  0.46999998093E+01 0.  1.
       -5    1    3    3    0  502 -0.16809817770E+03  0.97344257341E+02  0.37002305517E+02  0.19779828714E+03  0.46999998093E+01 0. -1.
</event>
<event>
 5   0  0.7893875E-03  0.8848971E+03  0.7818609E-02  0.9444660E-01
        3   -1    0    0  501    0  0.00000000000E+00  0.00000000000E+00  0.80084216894E+03  0.80084217531E+03  0.10100000352E+00 0.  1.
       -3   -1    0    0    0  501  0.00000000000E+00  0.00000000000E+00 -0.24444355804E+03  0.24444357890E+03  0.10100000352E+00 0. -1.
    10030    2    1    2    0    0  0.00000000000E+00  0.00000000000E+00  0.55639861090E+03  0.10452857542E+04  0.88489710913E+03 0.  0.
        3    1    3    3  502    0 -0.37757083775E+03  0.22037095458E+03  0.19775602992E+03  0.47982345995E+03  0.10100000352E+00 0. -1.
       -3    1    3    3    0  502  0.37757083775E+03 -0.22037095458E+03  0.35864258098E+03  0.56546229426E+03  0.10100000352E+00 0.  1.
</event>
<event>
 5   0  0.1968763E-02  0.8659861E+03  0.7818609E-02  0.9469129E-01
        2   -1    0    0  501    0  0.00000000000E+00  0.00000000000E+00  0.11616775589E+04  0.11616775589E+04  0.25500000920E-02 0. -1.
       -2   -1    0    0    0  501  0.00000000000E+00  0.00000000000E+00 -0.16138987339E+03  0.16138987341E+03  0.25500000920E-02 0.  1.
    10030    2    1    2    0    0  0.00000000000E+00  0.00000000000E+00  0.10002876855E+04  0.13230674323E+04  0.86598612959E+03 0.  0.
        2    1    3    3  502    0  0.33510788230E+03 -0.24478291378E+03  0.68892049189E+03  0.80425581242E+03  0.25500000920E-02 0. -1.
       -2    1    3    3    0  502 -0.33510788230E+03  0.24478291378E+03  0.31136719362E+03  0.51881161989E+03  0.25500000920E-02 0.  1.
</event>
<event>
 5   0  0.1177712E-02  0.9210630E+03  0.7818609E-02  0.9399628E-01
       -1   -1    0    0    0  501  0.00000000000E+00  0.00000000000E+00  0.45248963860E+03  0.45248963863E+03  0.50400001928E-02 0. -1.
        1   -1    0    0  501    0  0.00000000000E+00  0.00000000000E+00 -0.46871630198E+03  0.46871630201E+03  0.50400001928E-02 0.  1.
    10030    2    1    2    0    0  0.00000000000E+00  0.00000000000E+00 -0.16226663383E+02  0.92120594064E+03  0.92106301655E+03 0.  0.
        5    1    3    3  502    0  0.30378094887E+03 -0.30165259391E+03  0.16158924156E+03  0.45761372936E+03  0.46999998093E+01 0. -1.
       -5    1    3    3    0  502 -0.30378094887E+03  0.30165259391E+03 -0.17781590494E+03  0.46359221128E+03  0.46999998093E+01 0.  1.
</event>
<event>
 5   0  0.2008643E-02  0.8767103E+03  0.7818609E-02  0.9455172E-01
       -2   -1    0    0    0  501  0.00000000000E+00  0.00000000000E+00  0.15566546260E+03  0.15566546262E+03  0.25500000920E-02 0.  1.
        2   -1    0    0  501    0  0.00000000000E+00  0.00000000000E+00 -0.12344115348E+04  0.12344115348E+04  0.25500000920E-02 0. -1.
    10030    2    1    2    0    0  0.00000000000E+00  0.00000000000E+00 -0.10787460722E+04  0.13900769974E+04  0.87671031158E+03 0.  0.
        3    1    3    3  502    0  0.13637222845E+03 -0.23972442642E+03  0.85887727153E+00  0.27580053152E+03  0.10100000352E+00 0.  1.
       -3    1    3    3    0  502 -0.13637222845E+03  0.23972442642E+03 -0.10796049494E+04  0.11142764659E+04  0.10100000352E+00 0. -1.
</event>
<event>
 5   0  0.1206541E-02  0.9473330E+03  0.7818609E-02  0.9368273E-01
        1   -1    0    0  501    0  0.00000000000E+00  0.00000000000E+00  0.60887630219E+03  0.60887630221E+03  0.50400001928E-02 0.  1.
       -1   -1    0    0    0  501  0.00000000000E+00  0.00000000000E+00 -0.36848201399E+03  0.36848201403E+03  0.50400001928E-02 0. -1.
    10030    2    1    2    0    0  0.00000000000E+00  0.00000000000E+00  0.24039428820E+03  0.97735831624E+03  0.94733302725E+03 0.  0.
        3    1    3    3  502    0  0.29318536685E+02 -0.46415055432E+03  0.27547514410E+02  0.46589074837E+03  0.10100000352E+00 0. -1.
       -3    1    3    3    0  502 -0.29318536685E+02  0.46415055432E+03  0.21284677379E+03  0.51146756787E+03  0.10100000352E+00 0.  1.
</event>
<event>
 5   0  0.1924218E-02  0.8870008E+03  0.7818609E-02  0.9441979E-01
       -2   -1    0    0    0  501  0.00000000000E+00  0.00000000000E+00  0.15306339725E+03  0.15306339727E+03  0.25500000920E-02 0. -1.
        2   -1    0    0  501    0  0.00000000000E+00  0.00000000000E+00 -0.12850400538E+04  0.12850400538E+04  0.25500000920E-02 0.  1.
    10030    2    1    2    0    0  0.00000000000E+00  0.00000000000E+00 -0.11319766566E+04  0.14381034511E+04  0.88700078075E+03 0.  0.
        4    1    3    3  502    0 -0.13951916865E+02  0.30416683983E+03 -0.43184626354E+02  0.30753641620E+03  0.12699999809E+01 0. -1.
       -4    1    3    3    0  502  0.13951916865E+02 -0.30416683983E+03 -0.10887920302E+04  0.11305670349E+04  0.12699999809E+01 0.  1.
</event>
<event>
 5   0  0.1162839E-02  0.8769667E+03  0.7818609E-02  0.9454841E-01
        1   -1    0    0  501    0  0.00000000000E+00  0.00000000000E+00  0.80186573918E+03  0.80186573920E+03  0.50400001928E-02 0. -1.
       -1   -1    0    0    0  501  0.00000000000E+00  0.00000000000E+00 -0.23977535966E+03  0.23977535972E+03  0.50400001928E-02 0.  1.
    10030    2    1    2    0    0  0.00000000000E+00  0.00000000000E+00  0.56209037952E+03  0.10416410989E+04  0.87696669504E+03 0.  0.
        2    1    3    3  502    0  0.39382243201E+03 -0.18055060361E+03  0.36136754683E+03  0.56416410053E+03  0.25500000920E-02 0. -1.
       -2    1    3    3    0  502 -0.39382243201E+03  0.18055060361E+03  0.20072283269E+03  0.47747699839E+03  0.25500000920E-02 0.  1.
</event>
<event>
 5   0  0.1226424E-02  0.8882980E+03  0.7818609E-02  0.9440329E-01
        1   -1    0    0  501    0  0.00000000000E+00  0.00000000000E+00  0.25071515938E+03  0.25071515943E+03  0.50400001928E-02 0.  1.
       -1   -1    0    0    0  501  0.00000000000E+00  0.00000000000E+00 -0.78682243951E+03  0.78682243953E+03  0.50400001928E-02 0. -1.
    10030    2    1    2    0    0  0.00000000000E+00  0.00000000000E+00 -0.53610728013E+03  0.10375375990E+04  0.88829795308E+03 0.  0.
        1    1    3    3  502    0  0.16528694364E+03 -0.26806695902E+02  0.21243572942E+03  0.27049456897E+03  0.50400001928E-02 0.  1.
       -1    1    3    3    0  502 -0.16528694364E+03  0.26806695902E+02 -0.74854300955E+03  0.76704302999E+03  0.50400001928E-02 0. -1.
</event>
<event>
 5   0  0.2041861E-02  0.9058980E+03  0.7818609E-02  0.9418239E-01
        2   -1    0    0  501    0  0.00000000000E+00  0.00000000000E+00  0.67740869294E+03  0.67740869294E+03  0.25500000920E-02 0.  1.
       -2   -1    0    0    0  501  0.00000000000E+00  0.00000000000E+00 -0.30286412223E+03  0.30286412224E+03  0.25500000920E-02 0. -1.
    10030    2    1    2    0    0  0.00000000000E+00  0.00000000000E+00  0.37454457071E+03  0.98027281518E+03  0.90589798363E+03 0.  0.
        5    1    3    3  502    0 -0.32923898333E+03  0.26718364530E+03  0.14965665371E+02  0.42430115437E+03  0.46999998093E+01 0. -1.
       -5    1    3    3    0  502  0.32923898333E+03 -0.26718364530E+03  0.35957890534E+03  0.55597166081E+03  0.46999998093E+01 0.  1.
</event>
<event>
 5   0  0.1177712E-02  0.9070919E+03  0.7818609E-02  0.9416759E-01
       -1   -1    0    0    0  501  0.00000000000E+00  0.00000000000E+00  0.63020289107E+03  0.63020289109E+03  0.50400001928E-02 0.  1.
        1   -1    0    0  501    0  0.00000000000E+00  0.00000000000E+00 -0.32640908721E+03  0.32640908725E+03  0.50400001928E-02 0. -1.
    10030    2    1    2    0    0  0.00000000000E+00  0.00000000000E+00  0.30379380386E+03  0.95661197834E+03  0.90709194784E+03 0.  0.
        5    1    3    3  502    0 -0.17024108903E+02  0.87829147230E+02  0.62077911819E+03  0.62721015854E+03  0.46999998093E+01 0.  1.
       -5    1    3    3    0  502  0.17024108903E+02 -0.87829147230E+02 -0.31698531433E+03  0.32940181980E+03  0.46999998093E+01 0. -1.
</event>
<event>
 5   0  0.2008643E-02  0.6150260E+03  0.7818609E-02  0.9874713E-01
        2   -1    0    0  501    0  0.00000000000E+00  0.00000000000E+00  0.13324846547E+04  0.13324846547E+04  0.25500000920E-02 0.  1.
       -2   -1    0    0    0  501  0.00000000000E+00  0.00000000000E+00 -0.70968355778E+02  0.70968355824E+02  0.25500000920E-02 0. -1.
    10030    2    1    2    0    0  0.00000000000E+00  0.00000000000E+00  0.12615162990E+04  0.14034530106E+04  0.61502599971E+03 0.  0.
        3    1    3    3  502    0 -0.40385017562E+02  0.70630183806E+02  0.13074783550E+04  0.13100073402E+04  0.10100000352E+00 0.  1.
       -3    1    3    3    0  502  0.40385017562E+02 -0.70630183806E+02 -0.45962056028E+02  0.93445670329E+02  0.10100000352E+00 0. -1.
</event>
<event>
 5   0  0.2008770E-02  0.9013114E+03  0.7818609E-02  0.9423944E-01
       -2   -1    0    0    0  501  0.00000000000E+00  0.00000000000E+00  0.29242192101E+03  0.29242192102E+03  0.25500000920E-02 0.  1.
        2   -1    0    0  501    0  0.00000000000E+00  0.00000000000E+00 -0.69451208558E+03  0.69451208559E+03  0.25500000920E-02 0. -1.
    10030    2    1    2    0    0  0.00000000000E+00  0.00000000000E+00 -0.40209016457E+03  0.98693400661E+03  0.90131139622E+03 0.  0.
        1    1    3    3  502    0 -0.35170610993E+03  0.11485863622E+03 -0.48278285731E+03  0.60825075537E+03  0.50400001928E-02 0. -1.
       -1    1    3    3    0  502  0.35170610993E+03 -0.11485863622E+03  0.80692692736E+02  0.37868325123E+03  0.50400001928E-02 0.  1.
</event>
<event>
 5   0  0.1162839E-02  0.9013448E+03  0.7818609E-02  0.9423902E-01
        1   -1    0    0  501    0  0.00000000000E+00  0.00000000000E+00  0.21998468219E+04  0.21998468220E+04  0.50400001928E-02 0.  1.
       -1   -1    0    0    0  501  0.00000000000E+00  0.00000000000E+00 -0.92327169850E+02  0.92327169988E+02  0.50400001928E-02 0. -1.
    10030    2    1    2    0    0  0.00000000000E+00  0.00000000000E+00  0.21075196521E+04  0.22921739919E+04  0.90134484264E+03 0.  0.
        2    1    3    3  502    0  0.19359455234E+03  0.35708006697E+03  0.55724010498E+03  0.68956621113E+03  0.25500000920E-02 0. -1.
       -2    1    3    3    0  502 -0.19359455234E+03 -0.35708006697E+03  0.15502795471E+04  0.16026077808E+04  0.25500000920E-02 0.  1.
</event>
<event>
 5   0  0.7893875E-03  0.8889279E+03  0.7818609E-02  0.9439529E-01
       -4   -1    0    0    0  501  0.00000000000E+00  0.00000000000E+00  0.10945718652E+04  0.10945726020E+04  0.12699999809E+01 0.  1.
        4   -1    0    0  501    0  0.00000000000E+00  0.00000000000E+00 -0.18047685688E+03  0.18048132526E+03  0.12699999809E+01 0. -1.
    10030    2    1    2    0    0  0.00000000000E+00  0.00000000000E+00  0.91409500834E+03  0.12750539272E+04  0.88892791222E+03 0.  0.
        5    1    3    3  502    0 -0.10374051156E+01 -0.44410394114E+03  0.48175586070E+03  0.65524055588E+03  0.46999998093E+01 0.  1.
       -5    1    3    3    0  502  0.10374051156E+01  0.44410394114E+03  0.43233914764E+03  0.61981337137E+03  0.46999998093E+01 0. -1.
</event>
<event>
 5   0  0.2008643E-02  0.8812234E+03  0.7818609E-02  0.9449362E-01
        2   -1    0    0  501    0  0.00000000000E+00  0.00000000000E+00  0.16340705325E+04  0.16340705325E+04  0.25500000920E-02 0. -1.
       -2   -1    0    0    0  501  0.00000000000E+00  0.00000000000E+00 -0.11880679051E+03  0.11880679054E+03  0.25500000920E-02 0.  1.
    10030    2    1    2    0    0  0.00000000000E+00  0.00000000000E+00  0.15152637419E+04  0.17528773230E+04  0.88122341197E+03 0.  0.
        3    1    3    3  502    0  0.81840907077E+02 -0.20369577472E+03 -0.22843314494E+01  0.21953389506E+03  0.10100000352E+00 0.  1.
       -3    1    3    3    0  502 -0.81840907077E+02  0.20369577472E+03  0.15175480734E+04  0.15333434279E+04  0.10100000352E+00 0. -1.
</event>
<event>
 5   0  0.2008643E-02  0.9031813E+03  0.7818609E-02  0.9421613E-01
       -2   -1    0    0    0  501  0.00000000000E+00  0.00000000000E+00  0.38270203423E+03  0.38270203424E+03  0.25500000920E-02 0. -1.
        2   -1    0    0  501    0  0.00000000000E+00  0.00000000000E+00 -0.53287967141E+03  0.53287967142E+03  0.25500000920E-02 0.  1.
    10030    2    1    2    0    0  0.00000000000E+00  0.00000000000E+00 -0.15017763718E+03  0.91558170565E+03  0.90318134226E+03 0.  0.
        3    1    3    3  502    0 -0.10261456812E+03  0.28726775332E+03  0.26247190971E+03  0.40242269478E+03  0.10100000352E+00 0.  1.
       -3    1    3    3    0  502  0.10261456812E+03 -0.28726775332E+03 -0.41264954689E+03  0.51315901087E+03  0.10100000352E+00 0. -1.
</event>
<event>
 5   0  0.1175993E-02  0.9007586E+03  0.7818609E-02  0.9424634E-01
       -1   -1    0    0    0  501  0.00000000000E+00  0.00000000000E+00  0.85835600991E+03  0.85835600992E+03  0.50400001928E-02 0.  1.
        1   -1    0    0  501    0  0.00000000000E+00  0.00000000000E+00 -0.23631398963E+03  0.23631398969E+03  0.50400001928E-02 0. -1.
    10030    2    1    2    0    0  0.00000000000E+00  0.00000000000E+00  0.62204202027E+03  0.10946699996E+04  0.90075864307E+03 0.  0.
        4    1    3    3  502    0 -0.77082537867E+02 -0.42056711910E+03  0.48297929123E+03  0.64504963217E+03  0.12699999809E+01 0. -1.
       -4    1    3    3    0  502  0.77082537867E+02  0.42056711910E+03  0.13906272905E+03  0.44962036744E+03  0.12699999809E+01 0.  1.
</event>
<event>
 5   0  0.1175993E-02  0.8668455E+03  0.7818609E-02  0.9468002E-01
       -1   -1    0    0    0  501  0.00000000000E+00  0.00000000000E+00  0.53059005666E+03  0.53059005668E+03  0.50400001928E-02 0.  1.
        1   -1    0    0  501    0  0.00000000000E+00  0.00000000000E+00 -0.35404972361E+03  0.35404972365E+03  0.50400001928E-02 0. -1.
    10030    2    1    2    0    0  0.00000000000E+00  0.00000000000E+00  0.17654033304E+03  0.88463978033E+03  0.86684546013E+03 0.  0.
        4    1    3    3  502    0 -0.42731613397E+03  0.70507671915E+02  0.71094959212E+02  0.43889237437E+03  0.12699999809E+01 0.  1.
       -4    1    3    3    0  502  0.42731613397E+03 -0.70507671915E+02  0.10544537383E+03  0.44574740596E+03  0.12699999809E+01 0. -1.
</event>
<event>
 5   0  0.1226424E-02  0.6431742E+03  0.7818609E-02  0.9819672E-01
       -1   -1    0    0    0  501  0.00000000000E+00  0.00000000000E+00  0.17826909762E+03  0.17826909769E+03  0.50400001928E-02 0. -1.
        1   -1    0    0  501    0  0.00000000000E+00  0.00000000000E+00 -0.58012439871E+03  0.58012439873E+03  0.50400001928E-02 0.  1.
    10030    2    1    2    0    0  0.00000000000E+00  0.00000000000E+00 -0.40185530110E+03  0.75839349642E+03  0.64317416956E+03 0.  0.
        1    1    3    3  502    0 -0.19021645399E+03  0.23170689010E+03 -0.33817422970E+03  0.45192055933E+03  0.50400001928E-02 0. -1.
       -1    1    3    3    0  502  0.19021645399E+03 -0.23170689010E+03 -0.63681071399E+02  0.30647293709E+03  0.50400001928E-02 0.  1.
</event>
<event>
 5   0  0.1226424E-02  0.9219501E+03  0.7818609E-02  0.9398551E-01
        1   -1    0    0  501    0  0.00000000000E+00  0.00000000000E+00  0.13159075706E+04  0.13159075706E+04  0.50400001928E-02 0. -1.
       -1   -1    0    0    0  501  0.00000000000E+00  0.00000000000E+00 -0.16148396795E+03  0.16148396803E+03  0.50400001928E-02 0.  1.
    10030    2    1    2    0    0  0.00000000000E+00  0.00000000000E+00  0.11544236026E+04  0.14773915386E+04  0.92195005509E+03 0.  0.
        1    1    3    3  502    0  0.34651354209E+03 -0.28083822061E+03  0.76378865153E+03  0.88448563879E+03  0.50400001928E-02 0. -1.
       -1    1    3    3    0  502 -0.34651354209E+03  0.28083822061E+03  0.39063495109E+03  0.59290589982E+03  0.50400001928E-02 0.  1.
</event>
<event>
 5   0  0.1162839E-02  0.8686015E+03  0.7818609E-02  0.9465705E-01
        1   -1    0    0  501    0  0.00000000000E+00  0.00000000000E+00  0.81896297798E+03  0.81896297800E+03  0.50400001928E-02 0. -1.
       -1   -1    0    0    0  501  0.00000000000E+00  0.00000000000E+00 -0.23031218919E+03  0.23031218925E+03  0.50400001928E-02 0.  1.
    10030    2    1    2    0    0  0.00000000000E+00  0.00000000000E+00  0.58865078879E+03  0.10492751672E+04  0.86860153434E+03 0.  0.
        2    1    3    3  502    0  0.99324351921E+02  0.19241449219E+03  0.74910123646E+03  0.77977004698E+03  0.25500000920E-02 0. -1.
       -2    1    3    3    0  502 -0.99324351921E+02 -0.19241449219E+03 -0.16045044767E+03  0.26950512027E+03  0.25500000920E-02 0.  1.
</event>
<event>
 5   0  0.1177712E-02  0.8939618E+03  0.7818609E-02  0.9433161E-01
        1   -1    0    0  501    0  0.00000000000E+00  0.00000000000E+00  0.10614987998E+04  0.10614987998E+04  0.50400001928E-02 0. -1.
       -1   -1    0    0    0  501  0.00000000000E+00  0.00000000000E+00 -0.18821680205E+03  0.18821680211E+03  0.50400001928E-02 0.  1.
    10030    2    1    2    0    0  0.00000000000E+00  0.00000000000E+00  0.87328199776E+03  0.12497156019E+04  0.89396176546E+03 0.  0.
        5    1    3    3  502    0  0.31887164153E+03 -0.22324661176E+03  0.74371872367E+03  0.83943898132E+03  0.46999998093E+01 0.  1.
       -5    1    3    3    0  502 -0.31887164153E+03  0.22324661176E+03  0.12956327410E+03  0.41027662062E+03  0.46999998093E+01 0. -1.
</event>
<event>
 5   0  0.7893875E-03  0.8799318E+03  0.7818609E-02  0.9451021E-01
       -3   -1    0    0    0  501  0.00000000000E+00  0.00000000000E+00  0.83400321533E+03  0.83400322144E+03  0.10100000352E+00 0. -1.
        3   -1    0    0  501    0  0.00000000000E+00  0.00000000000E+00 -0.23209740523E+03  0.23209742721E+03  0.10100000352E+00 0.  1.
    10030    2    1    2    0    0  0.00000000000E+00  0.00000000000E+00  0.60190581009E+03  0.10661006486E+04  0.87993180919E+03 0.  0.
        3    1    3    3  502    0 -0.47986769895E+02  0.25979256515E+03 -0.12529847482E+03  0.29239463912E+03  0.10100000352E+00 0.  1.
       -3    1    3    3    0  502  0.47986769895E+02 -0.25979256515E+03  0.72720428491E+03  0.77370600953E+03  0.10100000352E+00 0. -1.
</event>
<event>
 5   0  0.1162839E-02  0.8803561E+03  0.7818609E-02  0.9450476E-01
        1   -1    0    0  501    0  0.00000000000E+00  0.00000000000E+00  0.77692372525E+03  0.77692372526E+03  0.50400001928E-02 0.  1.
       -1   -1    0    0    0  501  0.00000000000E+00  0.00000000000E+00 -0.24938964416E+03  0.24938964421E+03  0.50400001928E-02 0. -1.
    10030    2    1    2    0    0  0.00000000000E+00  0.00000000000E+00  0.52753408108E+03  0.10263133695E+04  0.88035613570E+03 0.  0.
        2    1    3    3  502    0 -0.25863637349E+03 -0.22235676238E+03 -0.60611547796E+02  0.34642324287E+03  0.25500000920E-02 0. -1.
       -2    1    3    3    0  502  0.25863637349E+03  0.22235676238E+03  0.58814562888E+03  0.67989012660E+03  0.25500000920E-02 0.  1.
</event>
<event>
 5   0  0.2008770E-02  0.8979124E+03  0.7818609E-02  0.9428195E-01
        2   -1    0    0  501    0  0.00000000000E+00  0.00000000000E+00  0.48574410984E+03  0.48574410984E+03  0.25500000920E-02 0.  1.
       -2   -1    0    0    0  501  0.00000000000E+00  0.00000000000E+00 -0.41495440642E+03  0.41495440642E+03  0.25500000920E-02 0. -1.
    10030    2    1    2    0    0  0.00000000000E+00  0.00000000000E+00  0.70789703422E+02  0.90069851627E+03  0.89791237607E+03 0.  0.
        1    1    3    3  502    0 -0.36603438632E+03  0.25641190529E+03  0.78346186202E+02  0.45372498506E+03  0.50400001928E-02 0.  1.
       -1    1    3    3    0  502  0.36603438632E+03 -0.25641190529E+03 -0.75564827805E+01  0.44697353121E+03  0.50400001928E-02 0. -1.
</event>
<event>
 5   0  0.2008770E-02  0.8952267E+03  0.7818609E-02  0.9431568E-01
       -2   -1    0    0    0  501  0.00000000000E+00  0.00000000000E+00  0.26665051330E+03  0.26665051331E+03  0.25500000920E-02 0.  1.
        2   -1    0    0  501    0  0.00000000000E+00  0.00000000000E+00 -0.75138684964E+03  0.75138684964E+03  0.25500000920E-02 0. -1.
    10030    2    1    2    0    0  0.00000000000E+00  0.00000000000E+00 -0.48473633633E+03  0.10180373630E+04  0.89522665097E+03 0.  0.
        1    1    3    3  502    0  0.22431654577E+03 -0.27235173201E+02 -0.68176582967E+03  0.71823694829E+03  0.50400001928E-02 0. -1.
       -1    1    3    3    0  502 -0.22431654577E+03  0.27235173201E+02  0.19702949333E+03  0.29980041467E+03  0.50400001928E-02 0.  1.
</event>
<event>
 5   0  0.1968763E-02  0.9355792E+03  0.7818609E-02  0.9382167E-01
        2   -1    0    0  501    0  0.00000000000E+00  0.00000000000E+00  0.31899606991E+03  0.31899606992E+03  0.25500000920E-02 0. -1.
       -2   -1    0    0    0  501  0.00000000000E+00  0.00000000000E+00 -0.68598687304E+03  0.68598687305E+03  0.25500000920E-02 0.  1.
    10030    2    1    2    0    0  0.00000000000E+00  0.00000000000E+00 -0.36699080314E+03  0.10049829430E+04  0.93557921421E+03 0.  0.
        2    1    3    3  502    0  0.20630917460E+03  0.24217935935E+03 -0.55188335404E+03  0.63701613331E+03  0.25500000920E-02 0.  1.
       -2    1    3    3    0  502 -0.20630917460E+03 -0.24217935935E+03  0.18489255090E+03  0.36796680966E+03  0.25500000920E-02 0. -1.
</event>
<event>
 5   0  0.1162839E-02  0.8696377E+03  0.7818609E-02  0.9464352E-01
       -1   -1    0    0    0  501  0.00000000000E+00  0.00000000000E+00  0.14434136504E+03  0.14434136513E+03  0.50400001928E-02 0. -1.
        1   -1    0    0  501    0  0.00000000000E+00  0.00000000000E+00 -0.13098630917E+04  0.13098630917E+04  0.50400001928E-02 0.  1.
    10030    2    1    2    0    0  0.00000000000E+00  0.00000000000E+00 -0.11655217267E+04  0.14542044568E+04  0.86963768718E+03 0.  0.
        2    1    3    3  502    0 -0.37607126410E+03 -0.84188293657E+02 -0.24602961747E+03  0.45721749436E+03  0.25500000920E-02 0. -1.
       -2    1    3    3    0  502  0.37607126410E+03  0.84188293657E+02 -0.91949210920E+03  0.99698696248E+03  0.25500000920E-02 0.  1.
</event>
<event>
 5   0  0.1175993E-02  0.8985886E+03  0.7818609E-02  0.9427347E-01
       -1   -1    0    0    0  501  0.00000000000E+00  0.00000000000E+00  0.75552009531E+03  0.75552009533E+03  0.50400001928E-02 0. -1.
        1   -1    0    0  501    0  0.00000000000E+00  0.00000000000E+00 -0.26718729620E+03  0.26718729625E+03  0.50400001928E-02 0.  1.
    10030    2    1    2    0    0  0.00000000000E+00  0.00000000000E+00  0.48833279911E+03  0.10227073916E+04  0.89858860782E+03 0.  0.
        4    1    3    3  502    0  0.10897726604E+03 -0.32705906678E+03  0.57209708945E+03  0.66793740001E+03  0.12699999809E+01 0. -1.
       -4    1    3    3    0  502 -0.10897726604E+03  0.32705906678E+03 -0.83764290341E+02  0.35476999157E+03  0.12699999809E+01 0.  1.
</event>
<event>
 5   0  0.1226424E-02  0.9090756E+03  0.7818609E-02  0.9414307E-01
       -1   -1    0    0    0  501  0.00000000000E+00  0.00000000000E+00  0.20437927443E+03  0.20437927449E+03  0.50400001928E-02 0.  1.
        1   -1    0    0  501    0  0.00000000000E+00  0.00000000000E+00 -0.10108883562E+04  0.10108883562E+04  0.50400001928E-02 0. -1.
    10030    2    1    2    0    0  0.00000000000E+00  0.00000000000E+00 -0.80650908181E+03  0.12152676307E+04  0.90907563782E+03 0.  0.
        1    1    3    3  502    0  0.37658656931E+03  0.23515553673E+03 -0.27303280957E+03  0.52121251498E+03  0.50400001928E-02 0.  1.
       -1    1    3    3    0  502 -0.37658656931E+03 -0.23515553673E+03 -0.53347627224E+03  0.69405511576E+03  0.50400001928E-02 0. -1.
</event>
<event>
 5   0  0.1162839E-02  0.9011384E+03  0.7818609E-02  0.9424159E-01
       -1   -1    0    0    0  501  0.00000000000E+00  0.00000000000E+00  0.72363225464E+03  0.72363225466E+03  0.50400001928E-02 0.  1.
        1   -1    0    0  501    0  0.00000000000E+00  0.00000000000E+00 -0.28054666305E+03  0.28054666310E+03  0.50400001928E-02 0. -1.
    10030    2    1    2    0    0  0.00000000000E+00  0.00000000000E+00  0.44308559159E+03  0.10041789178E+04  0.90113842299E+03 0.  0.
        2    1    3    3  502    0 -0.32461649498E+02  0.43705732376E+03  0.10498983292E+03  0.45066143386E+03  0.25500000920E-02 0. -1.
       -2    1    3    3    0  502  0.32461649498E+02 -0.43705732376E+03  0.33809575867E+03  0.55351748390E+03  0.25500000920E-02 0.  1.
</event>
<event>
 5   0  0.7893875E-03  0.9011950E+03  0.7818609E-02  0.9424089E-01
        4   -1    0    0  501    0  0.00000000000E+00  0.00000000000E+00  0.42769126201E+03  0.42769314760E+03  0.12699999809E+01 0. -1.
       -4   -1    0    0    0  501  0.00000000000E+00  0.00000000000E+00 -0.47472675850E+03  0.47472845727E+03  0.12699999809E+01 0.  1.
    10030    2    1    2    0    0  0.00000000000E+00  0.00000000000E+00 -0.47035496490E+02  0.90242160486E+03  0.90119499277E+03 0.  0.
        1    1    3    3  502    0  0.19747872800E+03 -0.52781217529E+02 -0.42562925351E+03  0.47216942553E+03  0.50400001928E-02 0.  1.
       -1    1    3    3    0  502 -0.19747872800E+03  0.52781217529E+02  0.37859375702E+03  0.43025217933E+03  0.50400001928E-02 0. -1.
</event>
<event>
 5   0  0.2008643E-02  0.9175840E+03  0.7818609E-02  0.9403864E-01
       -2   -1    0    0    0  501  0.00000000000E+00  0.00000000000E+00  0.28939574802E+03  0.28939574803E+03  0.25500000920E-02 0.  1.
        2   -1    0    0  501    0  0.00000000000E+00  0.00000000000E+00 -0.72734338576E+03  0.72734338576E+03  0.25500000920E-02 0. -1.
    10030    2    1    2    0    0  0.00000000000E+00  0.00000000000E+00 -0.43794763774E+03  0.10167391338E+04  0.91758396498E+03 0.  0.
        3    1    3    3  502    0 -0.93009562320E+02  0.42632572955E+03 -0.37601257596E+03  0.57601204314E+03  0.10100000352E+00 0. -1.
       -3    1    3    3    0  502  0.93009562320E+02 -0.42632572955E+03 -0.61935061774E+02  0.44072709066E+03  0.10100000352E+00 0.  1.
</event>
<event>
 5   0  0.2008770E-02  0.9101387E+03  0.7818609E-02  0.9412996E-01
        2   -1    0    0  501    0  0.00000000000E+00  0.00000000000E+00  0.17257368005E+04  0.17257368005E+04  0.25500000920E-02 0.  1.
       -2   -1    0    0    0  501  0.00000000000E+00  0.00000000000E+00 -0.11999982791E+03  0.11999982794E+03  0.25500000920E-02 0. -1.
    10030    2    1    2    0    0  0.00000000000E+00  0.00000000000E+00  0.16057369726E+04  0.18457366285E+04  0.91013871275E+03 0.  0.
        1    1    3    3  502    0  0.17851048677E+03  0.21434085665E+03  0.73699781967E+02  0.28851283265E+03  0.50400001928E-02 0. -1.
       -1    1    3    3    0  502 -0.17851048677E+03 -0.21434085665E+03  0.15320371907E+04  0.15572237958E+04  0.50400001928E-02 0.  1.
</event>
<event>
 5   0  0.2008643E-02  0.8821632E+03  0.7818609E-02  0.9448157E-01
        2   -1    0    0  501    0  0.00000000000E+00  0.00000000000E+00  0.56679757285E+03  0.56679757286E+03  0.25500000920E-02 0.  1.
       -2   -1    0    0    0  501  0.00000000000E+00  0.00000000000E+00 -0.34324950683E+03  0.34324950684E+03  0.25500000920E-02 0. -1.
    10030    2    1    2    0    0  0.00000000000E+00  0.00000000000E+00  0.22354806602E+03  0.91004707970E+03  0.88216322154E+03 0.  0.
        3    1    3    3  502    0  0.42363980169E+03 -0.10751098242E+03  0.17301096231E+03  0.47006605514E+03  0.10100000352E+00 0. -1.
       -3    1    3    3    0  502 -0.42363980169E+03  0.10751098242E+03  0.50537103713E+02  0.43998102456E+03  0.10100000352E+00 0.  1.
</event>
<event>
 5   0  0.1175993E-02  0.8823248E+03  0.7818609E-02  0.9447950E-01
        1   -1    0    0  501    0  0.00000000000E+00  0.00000000000E+00  0.39132716075E+03  0.39132716078E+03  0.50400001928E-02 0.  1.
       -1   -1    0    0    0  501  0.00000000000E+00  0.00000000000E+00 -0.49734416668E+03  0.49734416670E+03  0.50400001928E-02 0. -1.
    10030    2    1    2    0    0  0.00000000000E+00  0.00000000000E+00 -0.10601700593E+03  0.88867132749E+03  0.88232483970E+03 0.  0.
        4    1    3    3  502    0 -0.38599370510E+02 -0.10302846433E+03 -0.48330259599E+03  0.49566903076E+03  0.12699999809E+01 0. -1.
       -4    1    3    3    0  502  0.38599370510E+02  0.10302846433E+03  0.37728559006E+03  0.39300229673E+03  0.12699999809E+01 0.  1.
</event>
<event>
 5   0  0.1968763E-02  0.9204845E+03  0.7818609E-02  0.9400331E-01
       -2   -1    0    0    0  501  0.00000000000E+00  0.00000000000E+00  0.41388039002E+03  0.41388039003E+03  0.25500000920E-02 0. -1.
        2   -1    0    0  501    0  0.00000000000E+00  0.00000000000E+00 -0.51179746500E+03  0.51179746501E+03  0.25500000920E-02 0.  1.
    10030    2    1    2    0    0  0.00000000000E+00  0.00000000000E+00 -0.97917074984E+02  0.92567785503E+03  0.92048451249E+03 0.  0.
        2    1    3    3  502    0  0.13253666151E+03 -0.10540148720E+03  0.38141333444E+03  0.41731471558E+03  0.25500000920E-02 0. -1.
       -2    1    3    3    0  502 -0.13253666151E+03  0.10540148720E+03 -0.47933040942E+03  0.50836313945E+03  0.25500000920E-02 0.  1.
</event>
<event>
 5   0  0.1968763E-02  0.8957865E+03  0.7818609E-02  0.9430864E-01
        2   -1    0    0  501    0  0.00000000000E+00  0.00000000000E+00  0.18489069691E+04  0.18489069691E+04  0.25500000920E-02 0.  1.
       -2   -1    0    0    0  501  0.00000000000E+00  0.00000000000E+00 -0.10850105569E+03  0.10850105572E+03  0.25500000920E-02 0. -1.
    10030    2    1    2    0    0  0.00000000000E+00  0.00000000000E+00  0.17404059134E+04  0.19574080248E+04  0.89578648807E+03 0.  0.
        2    1    3    3  502    0 -0.42018455834E+03  0.11658446671E+03  0.64670638250E+03  0.77998470890E+03  0.25500000920E-02 0. -1.
       -2    1    3    3    0  502  0.42018455834E+03 -0.11658446671E+03  0.10936995309E+04  0.11774233159E+04  0.25500000920E-02 0.  1.
</event>
<event>
 5   0  0.1175993E-02  0.9031698E+03  0.7818609E-02  0.9421628E-01
       -1   -1    0    0    0  501  0.00000000000E+00  0.00000000000E+00  0.21712660762E+03  0.21712660767E+03  0.50400001928E-02 0.  1.
        1   -1    0    0  501    0  0.00000000000E+00  0.00000000000E+00 -0.93921653620E+03  0.93921653622E+03  0.50400001928E-02 0. -1.
    10030    2    1    2    0    0  0.00000000000E+00  0.00000000000E+00 -0.72208992859E+03  0.11563431439E+04  0.90316975229E+03 0.  0.
        4    1    3    3  502    0 -0.71676948714E+02 -0.38379205532E+03 -0.65157628882E+03  0.75959673496E+03  0.12699999809E+01 0.  1.
       -4    1    3    3    0  502  0.71676948714E+02  0.38379205532E+03 -0.70513639766E+02  0.39674640893E+03  0.12699999809E+01 0. -1.
</event>
<event>
 5   0  0.1162839E-02  0.8710424E+03  0.7818609E-02  0.9462522E-01
        1   -1    0    0  501    0  0.00000000000E+00  0.00000000000E+00  0.44281392694E+03  0.44281392697E+03  0.50400001928E-02 0.  1.
       -1   -1    0    0    0  501  0.00000000000E+00  0.00000000000E+00 -0.42834858488E+03  0.42834858491E+03  0.50400001928E-02 0. -1.
    10030    2    1    2    0    0  0.00000000000E+00  0.00000000000E+00  0.14465342067E+02  0.87116251188E+03  0.87104240768E+03 0.  0.
        2    1    3    3  502    0 -0.12382795825E+02  0.11918616565E+03  0.42600276885E+03  0.44253478370E+03  0.25500000920E-02 0.  1.
       -2    1    3    3    0  502  0.12382795825E+02 -0.11918616565E+03 -0.41153742678E+03  0.42862772818E+03  0.25500000920E-02 0. -1.
</event>
<event>
 5   0  0.1177712E-02  0.8846218E+03  0.7818609E-02  0.9445012E-01
       -1   -1    0    0    0  501  0.00000000000E+00  0.00000000000E+00  0.67078280365E+03  0.67078280367E+03  0.50400001928E-02 0. -1.
        1   -1    0    0  501    0  0.00000000000E+00  0.00000000000E+00 -0.29165765711E+03  0.29165765715E+03  0.50400001928E-02 0.  1.
    10030    2    1    2    0    0  0.00000000000E+00  0.00000000000E+00  0.37912514655E+03  0.96244046082E+03  0.88462181970E+03 0.  0.
        5    1    3    3  502    0  0.12375737170E+03  0.71371472920E+02  0.64496154636E+03  0.66061127790E+03  0.46999998093E+01 0. -1.
       -5    1    3    3    0  502 -0.12375737170E+03 -0.71371472920E+02 -0.26583639982E+03  0.30182918292E+03  0.46999998093E+01 0.  1.
</event>
<event>
 5   0  0.1924218E-02  0.9255743E+03  0.7818609E-02  0.9394165E-01
       -2   -1    0    0    0  501  0.00000000000E+00  0.00000000000E+00  0.52504617081E+03  0.52504617082E+03  0.25500000920E-02 0.  1.
        2   -1    0    0  501    0  0.00000000000E+00  0.00000000000E+00 -0.40791066092E+03  0.40791066093E+03  0.25500000920E-02 0. -1.
    10030    2    1    2    0    0  0.00000000000E+00  0.00000000000E+00  0.11713550990E+03  0.93295683175E+03  0.92557426618E+03 0.  0.
        4    1    3    3  502    0 -0.38761364752E+03  0.49739038890E+02 -0.19130465745E+03  0.43510619002E+03  0.12699999809E+01 0. -1.
       -4    1    3    3    0  502  0.38761364752E+03 -0.49739038890E+02  0.30844016735E+03  0.49785064172E+03  0.12699999809E+01 0.  1.
</event>
<event>
 5   0  0.1177712E-02  0.9030444E+03  0.7818609E-02  0.9421784E-01
        1   -1    0    0  501    0  0.00000000000E+00  0.00000000000E+00  0.25992039643E+04  0.25992039643E+04  0.50400001928E-02 0.  1.
       -1   -1    0    0    0  501  0.00000000000E+00  0.00000000000E+00 -0.78436440758E+02  0.78436440920E+02  0.50400001928E-02 0. -1.
    10030    2    1    2    0    0  0.00000000000E+00  0.00000000000E+00  0.25207675236E+04  0.26776404053E+04  0.90304442413E+03 0.  0.
        5    1    3    3  502    0 -0.39908310298E+03 -0.16194983892E+02  0.63615174724E+03  0.75115959430E+03  0.46999998093E+01 0. -1.
       -5    1    3    3    0  502  0.39908310298E+03  0.16194983892E+02  0.18846157763E+04  0.19264808110E+04  0.46999998093E+01 0.  1.
</event>
<event>
 5   0  0.2008770E-02  0.8346346E+03  0.7818609E-02  0.9511195E-01
        2   -1    0    0  501    0  0.00000000000E+00  0.00000000000E+00  0.13899536536E+04  0.13899536536E+04  0.25500000920E-02 0. -1.
       -2   -1    0    0    0  501  0.00000000000E+00  0.00000000000E+00 -0.12529464190E+03  0.12529464193E+03  0.25500000920E-02 0.  1.
    10030    2    1    2    0    0  0.00000000000E+00  0.00000000000E+00  0.12646590117E+04  0.15152482955E+04  0.83463463935E+03 0.  0.
        1    1    3    3  502    0 -0.17212429454E+03 -0.25961523675E+03  0.12814401818E+03  0.33682003109E+03  0.50400001928E-02 0.  1.
       -1    1    3    3    0  502  0.17212429454E+03  0.25961523675E+03  0.11365149935E+04  0.11784282644E+04  0.50400001928E-02 0. -1.
</event>
<event>
 5   0  0.1177712E-02  0.8998718E+03  0.7818609E-02  0.9425742E-01
        1   -1    0    0  501    0  0.00000000000E+00  0.00000000000E+00  0.12695263516E+04  0.12695263516E+04  0.50400001928E-02 0.  1.
       -1   -1    0    0    0  501  0.00000000000E+00  0.00000000000E+00 -0.15946286893E+03  0.15946286901E+03  0.50400001928E-02 0. -1.
    10030    2    1    2    0    0  0.00000000000E+00  0.00000000000E+00  0.11100634827E+04  0.14289892206E+04  0.89987180037E+03 0.  0.
        5    1    3    3  502    0  0.11120346124E+03 -0.28421190957E+03  0.30086631511E+02  0.30670819149E+03  0.46999998093E+01 0. -1.
       -5    1    3    3    0  502 -0.11120346124E+03  0.28421190957E+03  0.10799768511E+04  0.11222810291E+04  0.46999998093E+01 0.  1.
</event>
<event>
 5   0  0.1226424E-02  0.9102973E+03  0.7818609E-02  0.9412800E-01
       -1   -1    0    0    0  501  0.00000000000E+00  0.00000000000E+00  0.23072856589E+03  0.23072856595E+03  0.50400001928E-02 0. -1.
        1   -1    0    0  501    0  0.00000000000E+00  0.00000000000E+00 -0.89785290444E+03  0.89785290445E+03  0.50400001928E-02 0.  1.
    10030    2    1    2    0    0  0.00000000000E+00  0.00000000000E+00 -0.66712433855E+03  0.11285814704E+04  0.91029734277E+03 0.  0.
        1    1    3    3  502    0  0.15504910350E+03  0.38646204489E+03 -0.56138487941E+03  0.69896074246E+03  0.50400001928E-02 0.  1.
       -1    1    3    3    0  502 -0.15504910350E+03 -0.38646204489E+03 -0.10573945913E+03  0.42962072795E+03  0.50400001928E-02 0. -1.
</event>
<event>
 5   0  0.1206541E-02  0.9037573E+03  0.7818609E-02  0.9420897E-01
       -1   -1    0    0    0  501  0.00000000000E+00  0.00000000000E+00  0.29630536677E+03  0.29630536681E+03  0.50400001928E-02 0.  1.
        1   -1    0    0  501    0  0.00000000000E+00  0.00000000000E+00 -0.68913470298E+03  0.68913470300E+03  0.50400001928E-02 0. -1.
    10030    2    1    2    0    0  0.00000000000E+00  0.00000000000E+00 -0.39282933621E+03  0.98544006981E+03  0.90375729253E+03 0.  0.
        3    1    3    3  502    0  0.36062103897E+03 -0.16838619972E+03 -0.42974825759E+03  0.58573459955E+03  0.10100000352E+00 0. -1.
       -3    1    3    3    0  502 -0.36062103897E+03  0.16838619972E+03  0.36918921378E+02  0.39970547026E+03  0.10100000352E+00 0.  1.
</event>
<event>
 5   0  0.1177712E-02  0.8535898E+03  0.7818609E-02  0.9485532E-01
       -1   -1    0    0    0  501  0.00000000000E+00  0.00000000000E+00  0.22663968532E+03  0.22663968538E+03  0.50400001928E-02 0. -1.
        1   -1    0    0  501    0  0.00000000000E+00  0.00000000000E+00 -0.80371572439E+03  0.80371572440E+03  0.50400001928E-02 0.  1.
    10030    2    1    2    0    0  0.00000000000E+00  0.00000000000E+00 -0.57707603906E+03  0.10303554098E+04  0.85358978180E+03 0.  0.
        5    1    3    3  502    0  0.90895253371E+01  0.37189434815E+03 -0.54099996193E+03  0.65657526184E+03  0.46999998093E+01 0.  1.
       -5    1    3    3    0  502 -0.90895253371E+01 -0.37189434815E+03 -0.36076077139E+02  0.37378014794E+03  0.46999998093E+01 0. -1.
</event>
<event>
 5   0  0.1924218E-02  0.9117219E+03  0.7818609E-02  0.9411046E-01
        2   -1    0    0  501    0  0.00000000000E+00  0.00000000000E+00  0.26714129876E+03  0.26714129877E+03  0.25500000920E-02 0. -1.
       -2   -1    0    0    0  501  0.00000000000E+00  0.00000000000E+00 -0.77789994302E+03  0.77789994302E+03  0.25500000920E-02 0.  1.
    10030    2    1    2    0    0  0.00000000000E+00  0.00000000000E+00 -0.51075864426E+03  0.10450412418E+04  0.91172188981E+03 0.  0.
        4    1    3    3  502    0  0.21087307893E+03 -0.29858629558E+03 -0.56757944527E+03  0.67510685889E+03  0.12699999809E+01 0.  1.
       -4    1    3    3    0  502 -0.21087307893E+03  0.29858629558E+03  0.56820801014E+02  0.36993438290E+03  0.12699999809E+01 0. -1.
</event>
<event>
 5   0  0.2008643E-02  0.8785824E+03  0.7818609E-02  0.9452758E-01
        2   -1    0    0  501    0  0.00000000000E+00  0.00000000000E+00  0.19049122444E+04  0.19049122444E+04  0.25500000920E-02 0. -1.
       -2   -1    0    0    0  501  0.00000000000E+00  0.00000000000E+00 -0.10130481159E+03  0.10130481162E+03  0.25500000920E-02 0.  1.
    10030    2    1    2    0    0  0.00000000000E+00  0.00000000000E+00  0.18036074328E+04  0.20062170560E+04  0.87858244016E+03 0.  0.
        3    1    3    3  502    0 -0.40720241625E+03 -0.49127301130E+02  0.54256898478E+03  0.68015322756E+03  0.10100000352E+00 0.  1.
       -3    1    3    3    0  502  0.40720241625E+03  0.49127301130E+02  0.12610384480E+04  0.13260638284E+04  0.10100000352E+00 0. -1.
</event>
<event>
 5   0  0.1968763E-02  0.9053344E+03  0.7818609E-02  0.9418938E-01
       -2   -1    0    0    0  501  0.00000000000E+00  0.00000000000E+00  0.34250521716E+03  0.34250521717E+03  0.25500000920E-02 0. -1.
        2   -1    0    0  501    0  0.00000000000E+00  0.00000000000E+00 -0.59826129764E+03  0.59826129764E+03  0.25500000920E-02 0.  1.
    10030    2    1    2    0    0  0.00000000000E+00  0.00000000000E+00 -0.25575608048E+03  0.94076651481E+03  0.90533444797E+03 0.  0.
        2    1    3    3  502    0 -0.41425583144E+03  0.29567685197E+02  0.59240133675E+02  0.41951345072E+03  0.25500000920E-02 0.  1.
       -2    1    3    3    0  502  0.41425583144E+03 -0.29567685197E+02 -0.31499621416E+03  0.52125306409E+03  0.25500000920E-02 0. -1.
</event>
<event>
 5   0  0.2008770E-02  0.9004184E+03  0.7818609E-02  0.9425059E-01
       -2   -1    0    0    0  501  0.00000000000E+00  0.00000000000E+00  0.15972229800E+03  0.15972229802E+03  0.25500000920E-02 0.  1.
        2   -1    0    0  501    0  0.00000000000E+00  0.00000000000E+00 -0.12690044427E+04  0.12690044427E+04  0.25500000920E-02 0. -1.
    10030    2    1    2    0    0  0.00000000000E+00  0.00000000000E+00 -0.11092821447E+04  0.14287267407E+04  0.90041836002E+03 0.  0.
        1    1    3    3  502    0 -0.16591099315E+03 -0.21900633449E+02 -0.12178176369E+04  0.12292623366E+04  0.50400001928E-02 0. -1.
       -1    1    3    3    0  502  0.16591099315E+03  0.21900633449E+02  0.10853549224E+03  0.19946440408E+03  0.50400001928E-02 0.  1.
</event>
<event>
 5   0  0.2041861E-02  0.9137085E+03  0.7818609E-02  0.9408606E-01
       -2   -1    0    0    0  501  0.00000000000E+00  0.00000000000E+00  0.24651333241E+03  0.24651333242E+03  0.25500000920E-02 0.  1.
        2   -1    0    0  501    0  0.00000000000E+00  0.00000000000E+00 -0.84667151155E+03  0.84667151155E+03  0.25500000920E-02 0. -1.
    10030    2    1    2    0    0  0.00000000000E+00  0.00000000000E+00 -0.60015817914E+03  0.10931848440E+04  0.91370852196E+03 0.  0.
        5    1    3    3  502    0  0.15851309058E+03 -0.13046092218E+03  0.18818489435E+03  0.27853562889E+03  0.46999998093E+01 0.  1.
       -5    1    3    3    0  502 -0.15851309058E+03  0.13046092218E+03 -0.78834307350E+03  0.81464921508E+03  0.46999998093E+01 0. -1.
</event>
<event>
 5   0  0.2008643E-02  0.6425942E+03  0.7818609E-02  0.9820776E-01
       -2   -1    0    0    0  501  0.00000000000E+00  0.00000000000E+00  0.21539954574E+03  0.21539954575E+03  0.25500000920E-02 0.  1.
        2   -1    0    0  501    0  0.00000000000E+00  0.00000000000E+00 -0.47925742786E+03  0.47925742787E+03  0.25500000920E-02 0. -1.
    10030    2    1    2    0    0  0.00000000000E+00  0.00000000000E+00 -0.26385788213E+03  0.69465697362E+03  0.64259421803E+03 0.  0.
        3    1    3    3  502    0  0.93636105251E+02 -0.26823983348E+03 -0.29412329855E+03  0.40893624616E+03  0.10100000352E+00 0. -1.
       -3    1    3    3    0  502 -0.93636105251E+02  0.26823983348E+03  0.30265416423E+02  0.28572072747E+03  0.10100000352E+00 0.  1.
</event>
<event>
 5   0  0.1226424E-02  0.8898521E+03  0.7818609E-02  0.9438356E-01
        1   -1    0    0  501    0  0.00000000000E+00  0.00000000000E+00  0.49774907343E+03  0.49774907345E+03  0.50400001928E-02 0. -1.
       -1   -1    0    0    0  501  0.00000000000E+00  0.00000000000E+00 -0.39770882542E+03  0.39770882545E+03  0.50400001928E-02 0.  1.
    10030    2    1    2    0    0  0.00000000000E+00  0.00000000000E+00  0.10004024801E+03  0.89545789891E+03  0.88985212114E+03 0.  0.
        1    1    3    3  502    0  0.11424364550E+03  0.12755105654E+03 -0.36322283358E+03  0.40156158858E+03  0.50400001928E-02 0.  1.
       -1    1    3    3    0  502 -0.11424364550E+03 -0.12755105654E+03  0.46326308159E+03  0.49389631033E+03  0.50400001928E-02 0. -1.
</event>
<event>
 5   0  0.1206541E-02  0.6653183E+03  0.7818609E-02  0.9778453E-01
        1   -1    0    0  501    0  0.00000000000E+00  0.00000000000E+00  0.38118799305E+03  0.38118799308E+03  0.50400001928E-02 0.  1.
       -1   -1    0    0    0  501  0.00000000000E+00  0.00000000000E+00 -0.29030844811E+03  0.29030844816E+03  0.50400001928E-02 0. -1.
    10030    2    1    2    0    0  0.00000000000E+00  0.00000000000E+00  0.90879544934E+02  0.67149644123E+03  0.66531825385E+03 0.  0.
        3    1    3    3  502    0 -0.30243647466E+03 -0.13832919843E+03  0.53211680289E+02  0.33680006155E+03  0.10100000352E+00 0.  1.
       -3    1    3    3    0  502  0.30243647466E+03  0.13832919843E+03  0.37667864645E+02  0.33469637968E+03  0.10100000352E+00 0. -1.
</event>
<event>
 5   0  0.1177712E-02  0.1041883E+04  0.7818609E-02  0.9263765E-01
        1   -1    0    0  501    0  0.00000000000E+00  0.00000000000E+00  0.26686081147E+03  0.26686081151E+03  0.50400001928E-02 0. -1.
       -1   -1    0    0    0  501  0.00000000000E+00  0.00000000000E+00 -0.10169339030E+04  0.10169339030E+04  0.50400001928E-02 0.  1.
    10030    2    1    2    0    0  0.00000000000E+00  0.00000000000E+00 -0.75007309148E+03  0.12837947145E+04  0.10418825396E+04 0.  0.
        5    1    3    3  502    0  0.25416403941E+03  0.43951870556E+03 -0.23143691195E+03  0.55799747820E+03  0.46999998093E+01 0. -1.
       -5    1    3    3    0  502 -0.25416403941E+03 -0.43951870556E+03 -0.51863617954E+03  0.72579723628E+03  0.46999998093E+01 0.  1.
</event>
<event>
 5   0  0.1206541E-02  0.8308387E+03  0.7818609E-02  0.9516422E-01
       -1   -1    0    0    0  501  0.00000000000E+00  0.00000000000E+00  0.31215441052E+03  0.31215441056E+03  0.50400001928E-02 0.  1.
        1   -1    0    0  501    0  0.00000000000E+00  0.00000000000E+00 -0.55284573029E+03  0.55284573032E+03  0.50400001928E-02 0. -1.
    10030    2    1    2    0    0  0.00000000000E+00  0.00000000000E+00 -0.24069131978E+03  0.86500014087E+03  0.83083869210E+03 0.  0.
        3    1    3    3  502    0  0.16623828743E+03  0.31116593650E+03  0.10802187298E+03  0.36895547630E+03  0.10100000352E+00 0.  1.
       -3    1    3    3    0  502 -0.16623828743E+03 -0.31116593650E+03 -0.34871319276E+03  0.49604466457E+03  0.10100000352E+00 0. -1.
</event>
<event>
 5   0  0.1968763E-02  0.8985329E+03  0.7818609E-02  0.9427417E-01
       -2   -1    0    0    0  501  0.00000000000E+00  0.00000000000E+00  0.12888518742E+03  0.12888518744E+03  0.25500000920E-02 0. -1.
        2   -1    0    0  501    0  0.00000000000E+00  0.00000000000E+00 -0.15660478014E+04  0.15660478014E+04  0.25500000920E-02 0.  1.
    10030    2    1    2    0    0  0.00000000000E+00  0.00000000000E+00 -0.14371626140E+04  0.16949329888E+04  0.89853294744E+03 0.  0.
        2    1    3    3  502    0  0.30194477529E+03 -0.25458333577E+03 -0.11225256642E+04  0.11899778103E+04  0.25500000920E-02 0.  1.
       -2    1    3    3    0  502 -0.30194477529E+03  0.25458333577E+03 -0.31463694976E+03  0.50495517854E+03  0.25500000920E-02 0. -1.
</event>
<event>
 5   0  0.2008643E-02  0.9040844E+03  0.7818609E-02  0.9420490E-01
        2   -1    0    0  501    0  0.00000000000E+00  0.00000000000E+00  0.16758675741E+03  0.16758675742E+03  0.25500000920E-02 0. -1.
       -2   -1    0    0    0  501  0.00000000000E+00  0.00000000000E+00 -0.12193215766E+04  0.12193215766E+04  0.25500000920E-02 0.  1.
    10030    2    1    2    0    0  0.00000000000E+00  0.00000000000E+00 -0.10517348192E+04  0.13869083340E+04  0.90408439711E+03 0.  0.
        3    1    3    3  502    0 -0.58498454756E+02 -0.25280550581E+03  0.41956975134E+02  0.26285564658E+03  0.10100000352E+00 0. -1.
       -3    1    3    3    0  502  0.58498454756E+02  0.25280550581E+03 -0.10936917943E+04  0.11240526875E+04  0.10100000352E+00 0.  1.
</event>
<event>
 5   0  0.1206541E-02  0.8845252E+03  0.7818609E-02  0.9445135E-01
        1   -1    0    0  501    0  0.00000000000E+00  0.00000000000E+00  0.11491931560E+04  0.11491931560E+04  0.50400001928E-02 0.  1.
       -1   -1    0    0    0  501  0.00000000000E+00  0.00000000000E+00 -0.17020305643E+03  0.17020305651E+03  0.50400001928E-02 0. -1.
    10030    2    1    2    0    0  0.00000000000E+00  0.00000000000E+00  0.97899009956E+03  0.13193962125E+04  0.88452515542E+03 0.  0.
        3    1    3    3  502    0  0.14943583615E+03 -0.39405713425E+03  0.68953152658E+03  0.80812488548E+03  0.10100000352E+00 0. -1.
       -3    1    3    3    0  502 -0.14943583615E+03  0.39405713425E+03  0.28945857299E+03  0.51127132704E+03  0.10100000352E+00 0.  1.
</event>
<event>
 5   0  0.1162839E-02  0.8931362E+03  0.7818609E-02  0.9434202E-01
       -1   -1    0    0    0  501  0.00000000000E+00  0.00000000000E+00  0.20720375067E+03  0.20720375073E+03  0.50400001928E-02 0. -1.
        1   -1    0    0  501    0  0.00000000000E+00  0.00000000000E+00 -0.96244909885E+03  0.96244909887E+03  0.50400001928E-02 0.  1.
    10030    2    1    2    0    0  0.00000000000E+00  0.00000000000E+00 -0.75524534819E+03  0.11696528496E+04  0.89313618928E+03 0.  0.
        2    1    3    3  502    0  0.29292698885E+03 -0.55351457872E+02  0.57813672117E+02  0.30366498872E+03  0.25500000920E-02 0. -1.
       -2    1    3    3    0  502 -0.29292698885E+03  0.55351457872E+02 -0.81305902030E+03  0.86598786088E+03  0.25500000920E-02 0.  1.
</event>
<event>
 5   0  0.1968763E-02  0.8589866E+03  0.7818609E-02  0.9478354E-01
        2   -1    0    0  501    0  0.00000000000E+00  0.00000000000E+00  0.16284791745E+03  0.16284791747E+03  0.25500000920E-02 0. -1.
       -2   -1    0    0    0  501  0.00000000000E+00  0.00000000000E+00 -0.11327410154E+04  0.11327410154E+04  0.25500000920E-02 0.  1.
    10030    2    1    2    0    0  0.00000000000E+00  0.00000000000E+00 -0.96989309793E+03  0.12955889329E+04  0.85898664805E+03 0.  0.
        2    1    3    3  502    0 -0.26652240061E+03 -0.33296450343E+03 -0.56133391262E+03  0.70497894439E+03  0.25500000920E-02 0. -1.
       -2    1    3    3    0  502  0.26652240061E+03  0.33296450343E+03 -0.40855918531E+03  0.59060998847E+03  0.25500000920E-02 0.  1.
</event>
<event>
 5   0  0.1162839E-02  0.8994632E+03  0.7818609E-02  0.9426253E-01
        1   -1    0    0  501    0  0.00000000000E+00  0.00000000000E+00  0.25921760750E+03  0.25921760755E+03  0.50400001928E-02 0. -1.
       -1   -1    0    0    0  501  0.00000000000E+00  0.00000000000E+00 -0.78026526869E+03  0.78026526871E+03  0.50400001928E-02 0.  1.
    10030    2    1    2    0    0  0.00000000000E+00  0.00000000000E+00 -0.52104766119E+03  0.10394828763E+04  0.89946316478E+03 0.  0.
        2    1    3    3  502    0 -0.17629215659E+03  0.40647890951E+03 -0.17134630174E+03  0.47504061245E+03  0.25500000920E-02 0. -1.
       -2    1    3    3    0  502  0.17629215659E+03 -0.40647890951E+03 -0.34970135945E+03  0.56444226380E+03  0.25500000920E-02 0.  1.
</event>
<event>
 5   0  0.7893875E-03  0.8917704E+03  0.7818609E-02  0.9435928E-01
       -3   -1    0    0    0  501  0.00000000000E+00  0.00000000000E+00  0.20169455468E+03  0.20169457997E+03  0.10100000352E+00 0.  1.
        3   -1    0    0  501    0  0.00000000000E+00  0.00000000000E+00 -0.98571624045E+03  0.98571624562E+03  0.10100000352E+00 0. -1.
    10030    2    1    2    0    0  0.00000000000E+00  0.00000000000E+00 -0.78402168576E+03  0.11874108256E+04  0.89177041047E+03 0.  0.
        2    1    3    3  502    0 -0.15238717268E+03 -0.39061226003E+03 -0.19001502453E+03  0.46033194288E+03  0.25500000920E-02 0.  1.
       -2    1    3    3    0  502  0.15238717268E+03  0.39061226003E+03 -0.59400666123E+03  0.72707888271E+03  0.25500000920E-02 0. -1.
</event>
<event>
 5   0  0.2008770E-02  0.6611547E+03  0.7818609E-02  0.9786070E-01
       -2   -1    0    0    0  501  0.00000000000E+00  0.00000000000E+00  0.12517594356E+03  0.12517594359E+03  0.25500000920E-02 0. -1.
        2   -1    0    0  501    0  0.00000000000E+00  0.00000000000E+00 -0.87302220161E+03  0.87302220162E+03  0.25500000920E-02 0.  1.
    10030    2    1    2    0    0  0.00000000000E+00  0.00000000000E+00 -0.74784625805E+03  0.99819814520E+03  0.66115468039E+03 0.  0.
        1    1    3    3  502    0  0.87381133690E+02 -0.19415243945E+03 -0.75572362466E+03  0.78514255340E+03  0.50400001928E-02 0.  1.
       -1    1    3    3    0  502 -0.87381133690E+02  0.19415243945E+03  0.78773666045E+01  0.21305559180E+03  0.50400001928E-02 0. -1.
</event>
<event>
 5   0  0.1162839E-02  0.8981669E+03  0.7818609E-02  0.9427876E-01
        1   -1    0    0  501    0  0.00000000000E+00  0.00000000000E+00  0.75168686519E+03  0.75168686520E+03  0.50400001928E-02 0.  1.
       -1   -1    0    0    0  501  0.00000000000E+00  0.00000000000E+00 -0.26829779761E+03  0.26829779766E+03  0.50400001928E-02 0. -1.
    10030    2    1    2    0    0  0.00000000000E+00  0.00000000000E+00  0.48338906758E+03  0.10199846629E+04  0.89816686747E+03 0.  0.
        2    1    3    3  502    0 -0.31856468707E+03  0.31615782354E+03  0.22422276565E+03  0.50171214643E+03  0.25500000920E-02 0.  1.
       -2    1    3    3    0  502  0.31856468707E+03 -0.31615782354E+03  0.25916630193E+03  0.51827251643E+03  0.25500000920E-02 0. -1.
</event>
<event>
 5   0  0.1226424E-02  0.9122192E+03  0.7818609E-02  0.9410434E-01
       -1   -1    0    0    0  501  0.00000000000E+00  0.00000000000E+00  0.60296741126E+03  0.60296741128E+03  0.50400001928E-02 0. -1.
        1   -1    0    0  501    0  0.00000000000E+00  0.00000000000E+00 -0.34502022077E+03  0.34502022080E+03  0.50400001928E-02 0.  1.
    10030    2    1    2    0    0  0.00000000000E+00  0.00000000000E+00  0.25794719049E+03  0.94798763209E+03  0.91221916090E+03 0.  0.
        1    1    3    3  502    0 -0.14081334834E+02  0.35429729538E+03  0.42712211838E+03  0.55511995239E+03  0.50400001928E-02 0. -1.
       -1    1    3    3    0  502  0.14081334834E+02 -0.35429729538E+03 -0.16917492789E+03  0.39286767970E+03  0.50400001928E-02 0.  1.
</event>
<event>
 5   0  0.1162839E-02  0.9046279E+03  0.7818609E-02  0.9419815E-01
        1   -1    0    0  501    0  0.00000000000E+00  0.00000000000E+00  0.42719143026E+03  0.42719143029E+03  0.50400001928E-02 0.  1.
       -1   -1    0    0    0  501  0.00000000000E+00  0.00000000000E+00 -0.47891386781E+03  0.47891386784E+03  0.50400001928E-02 0. -1.
    10030    2    1    2    0    0  0.00000000000E+00  0.00000000000E+00 -0.51722437556E+02  0.90610529812E+03  0.90462787971E+03 0.  0.
        2    1    3    3  502    0 -0.13352409334E+03 -0.25974842279E+02  0.40621844854E+03  0.42838861315E+03  0.25500000920E-02 0.  1.
       -2    1    3    3    0  502  0.13352409334E+03  0.25974842279E+02 -0.45794088610E+03  0.47771668497E+03  0.25500000920E-02 0. -1.
</event>
<event>
 5   0  0.2008770E-02  0.9237701E+03  0.7818609E-02  0.9396346E-01
        2   -1    0    0  501    0  0.00000000000E+00  0.00000000000E+00  0.96722094178E+03  0.96722094179E+03  0.25500000920E-02 0.  1.
       -2   -1    0    0    0  501  0.00000000000E+00  0.00000000000E+00 -0.22056781172E+03  0.22056781173E+03  0.25500000920E-02 0. -1.
    10030    2    1    2    0    0  0.00000000000E+00  0.00000000000E+00  0.74665313007E+03  0.11877887535E+04  0.92377011553E+03 0.  0.
        1    1    3    3  502    0 -0.16013823582E+03 -0.78889728179E+01 -0.18363850948E+03  0.24378185465E+03  0.50400001928E-02 0. -1.
       -1    1    3    3    0  502  0.16013823582E+03  0.78889728179E+01  0.93029163955E+03  0.94400689887E+03  0.50400001928E-02 0.  1.
</event>
<event>
 5   0  0.2041861E-02  0.8907978E+03  0.7818609E-02  0.9437158E-01
        2   -1    0    0  501    0  0.00000000000E+00  0.00000000000E+00  0.63722845855E+03  0.63722845856E+03  0.25500000920E-02 0. -1.
       -2   -1    0    0    0  501  0.00000000000E+00  0.00000000000E+00 -0.31131717292E+03  0.31131717293E+03  0.25500000920E-02 0.  1.
    10030    2    1    2    0    0  0.00000000000E+00  0.00000000000E+00  0.32591128563E+03  0.94854563149E+03  0.89079775983E+03 0.  0.
        5    1    3    3  502    0 -0.11807744086E+03  0.37770118704E+03 -0.54638346829E+02  0.39950958395E+03  0.46999998093E+01 0.  1.
       -5    1    3    3    0  502  0.11807744086E+03 -0.37770118704E+03  0.38054963246E+03  0.54903604753E+03  0.46999998093E+01 0. -1.
</event>
<event>
 5   0  0.1206541E-02  0.9196824E+03  0.7818609E-02  0.9401306E-01
       -1   -1    0    0    0  501  0.00000000000E+00  0.00000000000E+00  0.32501154051E+03  0.32501154055E+03  0.50400001928E-02 0. -1.
        1   -1    0    0  501    0  0.00000000000E+00  0.00000000000E+00 -0.65060438380E+03  0.65060438382E+03  0.50400001928E-02 0.  1.
    10030    2    1    2    0    0  0.00000000000E+00  0.00000000000E+00 -0.32559284329E+03  0.97561592437E+03  0.91968240838E+03 0.  0.
        3    1    3    3  502    0  0.35893564440E+03  0.28531925562E+03 -0.12586457813E+03  0.47548267757E+03  0.10100000352E+00 0. -1.
       -3    1    3    3    0  502 -0.35893564440E+03 -0.28531925562E+03 -0.19972826516E+03  0.50013324679E+03  0.10100000352E+00 0.  1.
</event>
<event>
 5   0  0.1924218E-02  0.9070082E+03  0.7818609E-02  0.9416863E-01
        2   -1    0    0  501    0  0.00000000000E+00  0.00000000000E+00  0.26812023436E+03  0.26812023437E+03  0.25500000920E-02 0.  1.
       -2   -1    0    0    0  501  0.00000000000E+00  0.00000000000E+00 -0.76706624719E+03  0.76706624720E+03  0.25500000920E-02 0. -1.
    10030    2    1    2    0    0  0.00000000000E+00  0.00000000000E+00 -0.49894601284E+03  0.10351864816E+04  0.90700822923E+03 0.  0.
        4    1    3    3  502    0  0.14523597294E+03 -0.22706362332E+03  0.16677713701E+03  0.31696624931E+03  0.12699999809E+01 0.  1.
       -4    1    3    3    0  502 -0.14523597294E+03  0.22706362332E+03 -0.66572314985E+03  0.71822023225E+03  0.12699999809E+01 0. -1.
</event>
<event>
 5   0  0.1175993E-02  0.9116234E+03  0.7818609E-02  0.9411167E-01
       -1   -1    0    0    0  501  0.00000000000E+00  0.00000000000E+00  0.13524710193E+03  0.13524710203E+03  0.50400001928E-02 0.  1.
        1   -1    0    0  501    0  0.00000000000E+00  0.00000000000E+00 -0.15361832021E+04  0.15361832021E+04  0.50400001928E-02 0. -1.
    10030    2    1    2    0    0  0.00000000000E+00  0.00000000000E+00 -0.14009361002E+04  0.16714303041E+04  0.91162344464E+03 0.  0.
        4    1    3    3  502    0 -0.28705405474E+03 -0.51486902868E+02 -0.13427355072E+04  0.13740419159E+04  0.12699999809E+01 0. -1.
       -4    1    3    3    0  502  0.28705405474E+03  0.51486902868E+02 -0.58200592940E+02  0.29738838819E+03  0.12699999809E+01 0.  1.
</event>
<event>
 5   0  0.1177712E-02  0.9099247E+03  0.7818609E-02  0.9413259E-01
        1   -1    0    0  501    0  0.00000000000E+00  0.00000000000E+00  0.11921154683E+03  0.11921154693E+03  0.50400001928E-02 0. -1.
       -1   -1    0    0    0  501  0.00000000000E+00  0.00000000000E+00 -0.17363312025E+04  0.17363312025E+04  0.50400001928E-02 0.  1.
    10030    2    1    2    0    0  0.00000000000E+00  0.00000000000E+00 -0.16171196557E+04  0.18555427495E+04  0.90992467504E+03 0.  0.
        5    1    3    3  502    0  0.18407549506E+02  0.40935282921E+03 -0.12115848271E+04  0.12790107348E+04  0.46999998093E+01 0.  1.
       -5    1    3    3    0  502 -0.18407549506E+02 -0.40935282921E+03 -0.40553482863E+03  0.57653201463E+03  0.46999998093E+01 0. -1.
</event>
<event>
 5   0  0.1162839E-02  0.9145359E+03  0.7818609E-02  0.9407591E-01
        1   -1    0    0  501    0  0.00000000000E+00  0.00000000000E+00  0.72411112556E+03  0.72411112557E+03  0.50400001928E-02 0.  1.
       -1   -1    0    0    0  501  0.00000000000E+00  0.00000000000E+00 -0.28875950349E+03  0.28875950354E+03  0.50400001928E-02 0. -1.
    10030    2    1    2    0    0  0.00000000000E+00  0.00000000000E+00  0.43535162206E+03  0.10128706291E+04  0.91453588037E+03 0.  0.
        2    1    3    3  502    0  0.19957129792E+02  0.10391643721E+03  0.71036484460E+03  0.71820270495E+03  0.25500000920E-02 0.  1.
       -2    1    3    3    0  502 -0.19957129792E+02 -0.10391643721E+03 -0.27501322254E+03  0.29466792416E+03  0.25500000920E-02 0. -1.
</event>
<event>
 5   0  0.1162839E-02  0.8878359E+03  0.7818609E-02  0.9440916E-01
        1   -1    0    0  501    0  0.00000000000E+00  0.00000000000E+00  0.30885526220E+03  0.30885526225E+03  0.50400001928E-02 0. -1.
       -1   -1    0    0    0  501  0.00000000000E+00  0.00000000000E+00 -0.63804364480E+03  0.63804364482E+03  0.50400001928E-02 0.  1.
    10030    2    1    2    0    0  0.00000000000E+00  0.00000000000E+00 -0.32918838260E+03  0.94689890707E+03  0.88783587952E+03 0.  0.
        2    1    3    3  502    0 -0.27192306030E+03  0.16281878718E+02  0.20923129692E+03  0.34348942620E+03  0.25500000920E-02 0. -1.
       -2    1    3    3    0  502  0.27192306030E+03 -0.16281878718E+02 -0.53841967951E+03  0.60340948086E+03  0.25500000920E-02 0.  1.
</event>
<event>
 5   0  0.1177712E-02  0.8588127E+03  0.7818609E-02  0.9478585E-01
       -1   -1    0    0    0  501  0.00000000000E+00  0.00000000000E+00  0.17983819898E+03  0.17983819905E+03  0.50400001928E-02 0. -1.
        1   -1    0    0  501    0  0.00000000000E+00  0.00000000000E+00 -0.10253095786E+04  0.10253095786E+04  0.50400001928E-02 0.  1.
    10030    2    1    2    0    0  0.00000000000E+00  0.00000000000E+00 -0.84547137963E+03  0.12051477777E+04  0.85881273410E+03 0.  0.
        5    1    3    3  502    0 -0.31924103113E+03  0.12384561512E+03 -0.78627565589E+03  0.85761533883E+03  0.46999998093E+01 0.  1.
       -5    1    3    3    0  502  0.31924103113E+03 -0.12384561512E+03 -0.59195723742E+02  0.34753243885E+03  0.46999998093E+01 0. -1.
</event>
<event>
 5   0  0.1177712E-02  0.9032267E+03  0.7818609E-02  0.9421557E-01
       -1   -1    0    0    0  501  0.00000000000E+00  0.00000000000E+00  0.57121798685E+03  0.57121798687E+03  0.50400001928E-02 0. -1.
        1   -1    0    0  501    0  0.00000000000E+00  0.00000000000E+00 -0.35705213470E+03  0.35705213474E+03  0.50400001928E-02 0.  1.
    10030    2    1    2    0    0  0.00000000000E+00  0.00000000000E+00  0.21416585215E+03  0.92827012161E+03  0.90322666394E+03 0.  0.
        5    1    3    3  502    0 -0.64361082730E+02  0.39686311762E+02 -0.35047497075E+03  0.35856958520E+03  0.46999998093E+01 0.  1.
       -5    1    3    3    0  502  0.64361082730E+02 -0.39686311762E+02  0.56464082290E+03  0.56970053641E+03  0.46999998093E+01 0. -1.
</event>
<event>
 5   0  0.1162839E-02  0.8970593E+03  0.7818609E-02  0.9429265E-01
       -1   -1    0    0    0  501  0.00000000000E+00  0.00000000000E+00  0.75770732344E+03  0.75770732345E+03  0.50400001928E-02 0. -1.
        1   -1    0    0  501    0  0.00000000000E+00  0.00000000000E+00 -0.26550998008E+03  0.26550998013E+03  0.50400001928E-02 0.  1.
    10030    2    1    2    0    0  0.00000000000E+00  0.00000000000E+00  0.49219734336E+03  0.10232173036E+04  0.89705932108E+03 0.  0.
        2    1    3    3  502    0  0.20563151989E+03  0.17848807359E+03 -0.16044859397E+03  0.31604756872E+03  0.25500000920E-02 0.  1.
       -2    1    3    3    0  502 -0.20563151989E+03 -0.17848807359E+03  0.65264593733E+03  0.70716973486E+03  0.25500000920E-02 0. -1.
</event>
<event>
 5   0  0.7893875E-03  0.9066579E+03  0.7818609E-02  0.9417297E-01
        4   -1    0    0  501    0  0.00000000000E+00  0.00000000000E+00  0.52866012912E+03  0.52866165458E+03  0.12699999809E+01 0. -1.
       -4   -1    0    0    0  501  0.00000000000E+00  0.00000000000E+00 -0.38872889069E+03  0.38873096527E+03  0.12699999809E+01 0.  1.
    10030    2    1    2    0    0  0.00000000000E+00  0.00000000000E+00  0.13993123843E+03  0.91739261985E+03  0.90665785579E+03 0.  0.
        5    1    3    3  502    0 -0.79592581347E+02  0.16201404651E+03  0.49070308756E+03  0.52287201150E+03  0.46999998093E+01 0. -1.
       -5    1    3    3    0  502  0.79592581347E+02 -0.16201404651E+03 -0.35077184913E+03  0.39452060835E+03  0.46999998093E+01 0.  1.
</event>
<event>
 5   0  0.7893875E-03  0.8778394E+03  0.7818609E-02  0.9453715E-01
        4   -1    0    0  501    0  0.00000000000E+00  0.00000000000E+00  0.43261486930E+03  0.43261673342E+03  0.12699999809E+01 0. -1.
       -4   -1    0    0    0  501  0.00000000000E+00  0.00000000000E+00 -0.44531266855E+03  0.44531447952E+03  0.12699999809E+01 0.  1.
    10030    2    1    2    0    0  0.00000000000E+00  0.00000000000E+00 -0.12697799253E+02  0.87793121294E+03  0.87783938198E+03 0.  0.
        2    1    3    3  502    0 -0.42197532591E+01 -0.26774096188E+03  0.34146250351E+03  0.43393509917E+03  0.25500000920E-02 0. -1.
       -2    1    3    3    0  502  0.42197532591E+01  0.26774096188E+03 -0.35416030276E+03  0.44399611377E+03  0.25500000920E-02 0.  1.
</event>
<event>
 5   0  0.2008770E-02  0.8890624E+03  0.7818609E-02  0.9439358E-01
       -2   -1    0    0    0  501  0.00000000000E+00  0.00000000000E+00  0.68430474785E+03  0.68430474785E+03  0.25500000920E-02 0.  1.
        2   -1    0    0  501    0  0.00000000000E+00  0.00000000000E+00 -0.28877188823E+03  0.28877188825E+03  0.25500000920E-02 0. -1.
    10030    2    1    2    0    0  0.00000000000E+00  0.00000000000E+00  0.39553285961E+03  0.97307663610E+03  0.88906236940E+03 0.  0.
        1    1    3    3  502    0  0.11387818480E+03 -0.42571047078E+03  0.26168291827E+03  0.51251887346E+03  0.50400001928E-02 0.  1.
       -1    1    3    3    0  502 -0.11387818480E+03  0.42571047078E+03  0.13384994134E+03  0.46055776264E+03  0.50400001928E-02 0. -1.
</event>
<event>
 5   0  0.1177712E-02  0.9439538E+03  0.7818609E-02  0.9372246E-01
        1   -1    0    0  501    0  0.00000000000E+00  0.00000000000E+00  0.83423207232E+03  0.83423207233E+03  0.50400001928E-02 0. -1.
       -1   -1    0    0    0  501  0.00000000000E+00  0.00000000000E+00 -0.26702665075E+03  0.26702665079E+03  0.50400001928E-02 0.  1.
    10030    2    1    2    0    0  0.00000000000E+00  0.00000000000E+00  0.56720542157E+03  0.11012587231E+04  0.94395380448E+03 0.  0.
        5    1    3    3  502    0  0.41333603425E+02  0.18172998061E+03 -0.22225026133E+03  0.29008881620E+03  0.46999998093E+01 0.  1.
       -5    1    3    3    0  502 -0.41333603425E+02 -0.18172998061E+03  0.78945568290E+03  0.81116990692E+03  0.46999998093E+01 0. -1.
</event>
<event>
 5   0  0.1162839E-02  0.9055059E+03  0.7818609E-02  0.9418725E-01
        1   -1    0    0  501    0  0.00000000000E+00  0.00000000000E+00  0.36055257286E+03  0.36055257289E+03  0.50400001928E-02 0. -1.
       -1   -1    0    0    0  501  0.00000000000E+00  0.00000000000E+00 -0.56853080039E+03  0.56853080041E+03  0.50400001928E-02 0.  1.
    10030    2    1    2    0    0  0.00000000000E+00  0.00000000000E+00 -0.20797822753E+03  0.92908337330E+03  0.90550592015E+03 0.  0.
        2    1    3    3  502    0  0.12817736927E+03 -0.40471718189E+02 -0.54758629372E+03  0.56384230689E+03  0.25500000920E-02 0.  1.
       -2    1    3    3    0  502 -0.12817736927E+03  0.40471718189E+02  0.33960806619E+03  0.36524106641E+03  0.25500000920E-02 0. -1.
</event>
<event>
 5   0  0.1226424E-02  0.9013919E+03  0.7818609E-02  0.9423843E-01
       -1   -1    0    0    0  501  0.00000000000E+00  0.00000000000E+00  0.92147585387E+03  0.92147585388E+03  0.50400001928E-02 0.  1.
        1   -1    0    0  501    0  0.00000000000E+00  0.00000000000E+00 -0.22043644292E+03  0.22043644297E+03  0.50400001928E-02 0. -1.
    10030    2    1    2    0    0  0.00000000000E+00  0.00000000000E+00  0.70103941095E+03  0.11419122969E+04  0.90139194472E+03 0.  0.
        1    1    3    3  502    0  0.14402632207E+03 -0.40470520874E+03  0.52327851243E+03  0.67701572288E+03  0.50400001928E-02 0.  1.
       -1    1    3    3    0  502 -0.14402632207E+03  0.40470520874E+03  0.17776089852E+03  0.46489657398E+03  0.50400001928E-02 0. -1.
</event>
<event>
 5   0  0.2041861E-02  0.9066394E+03  0.7818609E-02  0.9417320E-01
        2   -1    0    0  501    0  0.00000000000E+00  0.00000000000E+00  0.89058046430E+03  0.89058046430E+03  0.25500000920E-02 0.  1.
       -2   -1    0    0    0  501  0.00000000000E+00  0.00000000000E+00 -0.23074696148E+03  0.23074696150E+03  0.25500000920E-02 0. -1.
    10030    2    1    2    0    0  0.00000000000E+00  0.00000000000E+00  0.65983350282E+03  0.11213274258E+04  0.90663936844E+03 0.  0.
        5    1    3    3  502    0  0.16056990260E+03 -0.17834716718E+03  0.80553855494E+03  0.84053843407E+03  0.46999998093E+01 0.  1.
       -5    1    3    3    0  502 -0.16056990260E+03  0.17834716718E+03 -0.14570505212E+03  0.28078899172E+03  0.46999998093E+01 0. -1.
</event>
<event>
 5   0  0.2041861E-02  0.8937804E+03  0.7818609E-02  0.9433390E-01
        2   -1    0    0  501    0  0.00000000000E+00  0.00000000000E+00  0.16920387800E+04  0.16920387800E+04  0.25500000920E-02 0. -1.
       -2   -1    0    0    0  501  0.00000000000E+00  0.00000000000E+00 -0.11802972110E+03  0.11802972113E+03  0.25500000920E-02 0.  1.
    10030    2    1    2    0    0  0.00000000000E+00  0.00000000000E+00  0.15740090589E+04  0.18100685011E+04  0.89378043236E+03 0.  0.
        5    1    3    3  502    0 -0.15473742994E+03 -0.31228036309E+02  0.16336420345E+04  0.16412578254E+04  0.46999998093E+01 0. -1.
       -5    1    3    3    0  502  0.15473742994E+03  0.31228036309E+02 -0.59632975585E+02  0.16881067576E+03  0.46999998093E+01 0.  1.
</event>
<event>
 5   0  0.1924218E-02  0.9087438E+03  0.7818609E-02  0.9414717E-01
        2   -1    0    0  501    0  0.00000000000E+00  0.00000000000E+00  0.86440146699E+03  0.86440146699E+03  0.25500000920E-02 0.  1.
       -2   -1    0    0    0  501  0.00000000000E+00  0.00000000000E+00 -0.23884020818E+03  0.23884020819E+03  0.25500000920E-02 0. -1.
    10030    2    1    2    0    0  0.00000000000E+00  0.00000000000E+00  0.62556125881E+03  0.11032416752E+04  0.90874380622E+03 0.  0.
        4    1    3    3  502    0 -0.75772659882E+02  0.25255865235E+03 -0.13645099704E+03  0.29689704673E+03  0.12699999809E+01 0. -1.
       -4    1    3    3    0  502  0.75772659882E+02 -0.25255865235E+03  0.76201225585E+03  0.80634462845E+03  0.12699999809E+01 0.  1.
</event>
<event>
 5   0  0.1177712E-02  0.8698053E+03  0.7818609E-02  0.9464134E-01
       -1   -1    0    0    0  501  0.00000000000E+00  0.00000000000E+00  0.21329483431E+03  0.21329483437E+03  0.50400001928E-02 0.  1.
        1   -1    0    0  501    0  0.00000000000E+00  0.00000000000E+00 -0.88675515639E+03  0.88675515641E+03  0.50400001928E-02 0. -1.
    10030    2    1    2    0    0  0.00000000000E+00  0.00000000000E+00 -0.67346032208E+03  0.11000499908E+04  0.86980525222E+03 0.  0.
        5    1    3    3  502    0 -0.23439576717E+03 -0.85354621127E+01  0.12640869706E+03  0.26648729514E+03  0.46999998093E+01 0.  1.
       -5    1    3    3    0  502  0.23439576717E+03  0.85354621127E+01 -0.79986901914E+03  0.83356269564E+03  0.46999998093E+01 0. -1.
</event>
<event>
 5   0  0.1968763E-02  0.9063035E+03  0.7818609E-02  0.9417736E-01
        2   -1    0    0  501    0  0.00000000000E+00  0.00000000000E+00  0.30373378377E+03  0.30373378378E+03  0.25500000920E-02 0. -1.
       -2   -1    0    0    0  501  0.00000000000E+00  0.00000000000E+00 -0.67607393999E+03  0.67607393999E+03  0.25500000920E-02 0.  1.
    10030    2    1    2    0    0  0.00000000000E+00  0.00000000000E+00 -0.37234015622E+03  0.97980772378E+03  0.90630347216E+03 0.  0.
        2    1    3    3  502    0  0.20776187662E+03  0.38081768314E+03 -0.32778797698E+03  0.54372057440E+03  0.25500000920E-02 0.  1.
       -2    1    3    3    0  502 -0.20776187662E+03 -0.38081768314E+03 -0.44552179234E+02  0.43608714937E+03  0.25500000920E-02 0. -1.
</event>
<event>
 5   0  0.1162839E-02  0.9634317E+03  0.7818609E-02  0.9349587E-01
        1   -1    0    0  501    0  0.00000000000E+00  0.00000000000E+00  0.40839583636E+03  0.40839583639E+03  0.50400001928E-02 0. -1.
       -1   -1    0    0    0  501  0.00000000000E+00  0.00000000000E+00 -0.56819910109E+03  0.56819910112E+03  0.50400001928E-02 0.  1.
    10030    2    1    2    0    0  0.00000000000E+00  0.00000000000E+00 -0.15980326473E+03  0.97659493751E+03  0.96343167300E+03 0.  0.
        2    1    3    3  502    0  0.10832765307E+03  0.46414804289E+03 -0.90766861697E+01  0.47670816269E+03  0.25500000920E-02 0. -1.
       -2    1    3    3    0  502 -0.10832765307E+03 -0.46414804289E+03 -0.15072657856E+03  0.49988677481E+03  0.25500000920E-02 0.  1.
</event>
<event>
 5   0  0.1968763E-02  0.9009510E+03  0.7818609E-02  0.9424393E-01
        2   -1    0    0  501    0  0.00000000000E+00  0.00000000000E+00  0.80744956067E+03  0.80744956067E+03  0.25500000920E-02 0. -1.
       -2   -1    0    0    0  501  0.00000000000E+00  0.00000000000E+00 -0.25131992410E+03  0.25131992411E+03  0.25500000920E-02 0.  1.
    10030    2    1    2    0    0  0.00000000000E+00  0.00000000000E+00  0.55612963657E+03  0.10587694848E+04  0.90095096939E+03 0.  0.
        2    1    3    3  502    0  0.31337687665E+03  0.31077893971E+03  0.38408788281E+03  0.58507445501E+03  0.25500000920E-02 0. -1.
       -2    1    3    3    0  502 -0.31337687665E+03 -0.31077893971E+03  0.17204175376E+03  0.47369502977E+03  0.25500000920E-02 0.  1.
</event>
<event>
 5   0  0.1177712E-02  0.8974786E+03  0.7818609E-02  0.9428739E-01
        1   -1    0    0  501    0  0.00000000000E+00  0.00000000000E+00  0.93659142282E+03  0.93659142284E+03  0.50400001928E-02 0. -1.
       -1   -1    0    0    0  501  0.00000000000E+00  0.00000000000E+00 -0.21499976697E+03  0.21499976703E+03  0.50400001928E-02 0.  1.
    10030    2    1    2    0    0  0.00000000000E+00  0.00000000000E+00  0.72159165585E+03  0.11515911899E+04  0.89747855172E+03 0.  0.
        5    1    3    3  502    0  0.23688027533E+03  0.23635050926E+03 -0.22798884110E+02  0.33543361069E+03  0.46999998093E+01 0.  1.
       -5    1    3    3    0  502 -0.23688027533E+03 -0.23635050926E+03  0.74439053996E+03  0.81615757918E+03  0.46999998093E+01 0. -1.
</event>
<event>
 5   0  0.1924218E-02  0.8130757E+03  0.7818609E-02  0.9541281E-01
       -2   -1    0    0    0  501  0.00000000000E+00  0.00000000000E+00  0.22206035130E+03  0.22206035131E+03  0.25500000920E-02 0. -1.
        2   -1    0    0  501    0  0.00000000000E+00  0.00000000000E+00 -0.74427074523E+03  0.74427074523E+03  0.25500000920E-02 0.  1.
    10030    2    1    2    0    0  0.00000000000E+00  0.00000000000E+00 -0.52221039393E+03  0.96633109654E+03  0.81307569919E+03 0.  0.
        4    1    3    3  502    0  0.24850610743E+03  0.19959852592E+03 -0.56101091620E+03  0.64523617225E+03  0.12699999809E+01 0.  1.
       -4    1    3    3    0  502 -0.24850610743E+03 -0.19959852592E+03  0.38800522268E+02  0.32109492430E+03  0.12699999809E+01 0. -1.
</event>
<event>
 5   0  0.1226424E-02  0.8896627E+03  0.7818609E-02  0.9438597E-01
        1   -1    0    0  501    0  0.00000000000E+00  0.00000000000E+00  0.64728446107E+03  0.64728446109E+03  0.50400001928E-02 0.  1.
       -1   -1    0    0    0  501  0.00000000000E+00  0.00000000000E+00 -0.30570013557E+03  0.30570013561E+03  0.50400001928E-02 0. -1.
    10030    2    1    2    0    0  0.00000000000E+00  0.00000000000E+00  0.34158432550E+03  0.95298459670E+03  0.88966273954E+03 0.  0.
        1    1    3    3  502    0 -0.20208843527E+02  0.11633571440E+03 -0.28860655324E+03  0.31182709696E+03  0.50400001928E-02 0. -1.
       -1    1    3    3    0  502  0.20208843527E+02 -0.11633571440E+03  0.63019087874E+03  0.64115749974E+03  0.50400001928E-02 0.  1.
</event>
<event>
 5   0  0.1177712E-02  0.9317753E+03  0.7818609E-02  0.9386710E-01
        1   -1    0    0  501    0  0.00000000000E+00  0.00000000000E+00  0.47370715643E+03  0.47370715645E+03  0.50400001928E-02 0.  1.
       -1   -1    0    0    0  501  0.00000000000E+00  0.00000000000E+00 -0.45819726790E+03  0.45819726793E+03  0.50400001928E-02 0. -1.
    10030    2    1    2    0    0  0.00000000000E+00  0.00000000000E+00  0.15509888525E+02  0.93190442438E+03  0.93177534822E+03 0.  0.
        5    1    3    3  502    0 -0.40244023470E+03  0.59868400356E+02  0.23469355416E+03  0.46972920096E+03  0.46999998093E+01 0. -1.
       -5    1    3    3    0  502  0.40244023470E+03 -0.59868400356E+02 -0.21918366564E+03  0.46217522343E+03  0.46999998093E+01 0.  1.
</event>
<event>
 5   0  0.1175993E-02  0.8909370E+03  0.7818609E-02  0.9436982E-01
        1   -1    0    0  501    0  0.00000000000E+00  0.00000000000E+00  0.81860585941E+03  0.81860585943E+03  0.50400001928E-02 0. -1.
       -1   -1    0    0    0  501  0.00000000000E+00  0.00000000000E+00 -0.24241479822E+03  0.24241479827E+03  0.50400001928E-02 0.  1.
    10030    2    1    2    0    0  0.00000000000E+00  0.00000000000E+00  0.57619106120E+03  0.10610206577E+04  0.89093697704E+03 0.  0.
        4    1    3    3  502    0 -0.16707731266E+03  0.15691747595E+03  0.74298766624E+03  0.77754112930E+03  0.12699999809E+01 0. -1.
       -4    1    3    3    0  502  0.16707731266E+03 -0.15691747595E+03 -0.16679660505E+03  0.28347952839E+03  0.12699999809E+01 0.  1.
</event>
<event>
 5   0  0.1968763E-02  0.9049883E+03  0.7818609E-02  0.9419367E-01
        2   -1    0    0  501    0  0.00000000000E+00  0.00000000000E+00  0.42511895790E+03  0.42511895791E+03  0.25500000920E-02 0. -1.
       -2   -1    0    0    0  501  0.00000000000E+00  0.00000000000E+00 -0.48163216881E+03  0.48163216881E+03  0.25500000920E-02 0.  1.
    10030    2    1    2    0    0  0.00000000000E+00  0.00000000000E+00 -0.56513210903E+02  0.90675112672E+03  0.90498832192E+03 0.  0.
        2    1    3    3  502    0  0.11480647610E+03  0.38950528771E+03 -0.22828532877E+03  0.46584234183E+03  0.25500000920E-02 0.  1.
       -2    1    3    3    0  502 -0.11480647610E+03 -0.38950528771E+03  0.17177211786E+03  0.44090878489E+03  0.25500000920E-02 0. -1.
</event>
<event>
 5   0  0.2008770E-02  0.9051865E+03  0.7818609E-02  0.9419121E-01
        2   -1    0    0  501    0  0.00000000000E+00  0.00000000000E+00  0.20601887268E+04  0.20601887268E+04  0.25500000920E-02 0.  1.
       -2   -1    0    0    0  501  0.00000000000E+00  0.00000000000E+00 -0.99428107352E+02  0.99428107384E+02  0.25500000920E-02 0. -1.
    10030    2    1    2    0    0  0.00000000000E+00  0.00000000000E+00  0.19607606195E+04  0.21596168342E+04  0.90518653532E+03 0.  0.
        1    1    3    3  502    0 -0.19012922327E+03  0.18127200434E+03  0.18596855762E+04  0.18781477853E+04  0.50400001928E-02 0.  1.
       -1    1    3    3    0  502  0.19012922327E+03 -0.18127200434E+03  0.10107504329E+03  0.28146904892E+03  0.50400001928E-02 0. -1.
</event>
<event>
 5   0  0.1206541E-02  0.8696896E+03  0.7818609E-02  0.9464285E-01
       -1   -1    0    0    0  501  0.00000000000E+00  0.00000000000E+00  0.42139041012E+03  0.42139041015E+03  0.50400001928E-02 0. -1.
        1   -1    0    0  501    0  0.00000000000E+00  0.00000000000E+00 -0.44872878553E+03  0.44872878556E+03  0.50400001928E-02 0.  1.
    10030    2    1    2    0    0  0.00000000000E+00  0.00000000000E+00 -0.27338375406E+02  0.87011919571E+03  0.86968961588E+03 0.  0.
        3    1    3    3  502    0 -0.21174611559E+03 -0.13107104474E+03  0.34298123911E+03  0.42385395695E+03  0.10100000352E+00 0. -1.
       -3    1    3    3    0  502  0.21174611559E+03  0.13107104474E+03 -0.37031961451E+03  0.44626523877E+03  0.10100000352E+00 0.  1.
</event>
<event>
 5   0  0.2041861E-02  0.1029080E+04  0.7818609E-02  0.9277213E-01
       -2   -1    0    0    0  501  0.00000000000E+00  0.00000000000E+00  0.49402892599E+03  0.49402892599E+03  0.25500000920E-02 0.  1.
        2   -1    0    0  501    0  0.00000000000E+00  0.00000000000E+00 -0.53590265996E+03  0.53590265997E+03  0.25500000920E-02 0. -1.
    10030    2    1    2    0    0  0.00000000000E+00  0.00000000000E+00 -0.41873733976E+02  0.10299315860E+04  0.10290800077E+04 0.  0.
        5    1    3    3  502    0  0.41247211191E+03  0.30457720978E+03 -0.63736793391E+02  0.51670590151E+03  0.46999998093E+01 0.  1.
       -5    1    3    3    0  502 -0.41247211191E+03 -0.30457720978E+03  0.21863059415E+02  0.51322568446E+03  0.46999998093E+01 0. -1.
</event>
<event>
 5   0  0.2041861E-02  0.8777290E+03  0.7818609E-02  0.9453858E-01
       -2   -1    0    0    0  501  0.00000000000E+00  0.00000000000E+00  0.22298722467E+03  0.22298722468E+03  0.25500000920E-02 0. -1.
        2   -1    0    0  501    0  0.00000000000E+00  0.00000000000E+00 -0.86373583202E+03  0.86373583203E+03  0.25500000920E-02 0.  1.
    10030    2    1    2    0    0  0.00000000000E+00  0.00000000000E+00 -0.64074860735E+03  0.10867230567E+04  0.87772901522E+03 0.  0.
        5    1    3    3  502    0 -0.25339959743E+03 -0.14236758449E+03 -0.72744649581E+03  0.78337754586E+03  0.46999998093E+01 0.  1.
       -5    1    3    3    0  502  0.25339959743E+03  0.14236758449E+03  0.86697888461E+02  0.30334551085E+03  0.46999998093E+01 0. -1.
</event>
<event>
 5   0  0.2041861E-02  0.9096456E+03  0.7818609E-02  0.9413604E-01
       -2   -1    0    0    0  501  0.00000000000E+00  0.00000000000E+00  0.29481664119E+03  0.29481664120E+03  0.25500000920E-02 0.  1.
        2   -1    0    0  501    0  0.00000000000E+00  0.00000000000E+00 -0.70166923723E+03  0.70166923724E+03  0.25500000920E-02 0. -1.
    10030    2    1    2    0    0  0.00000000000E+00  0.00000000000E+00 -0.40685259604E+03  0.99648587844E+03  0.90964557440E+03 0.  0.
        5    1    3    3  502    0 -0.72720621909E+02 -0.43851477764E+03 -0.30883142049E+03  0.54127851919E+03  0.46999998093E+01 0. -1.
       -5    1    3    3    0  502  0.72720621909E+02  0.43851477764E+03 -0.98021175553E+02  0.45520735925E+03  0.46999998093E+01 0.  1.
</event>
<event>
 5   0  0.1175993E-02  0.9089219E+03  0.7818609E-02  0.9414497E-01
       -1   -1    0    0    0  501  0.00000000000E+00  0.00000000000E+00  0.19050833454E+03  0.19050833461E+03  0.50400001928E-02 0. -1.
        1   -1    0    0  501    0  0.00000000000E+00  0.00000000000E+00 -0.10841245240E+04  0.10841245240E+04  0.50400001928E-02 0.  1.
    10030    2    1    2    0    0  0.00000000000E+00  0.00000000000E+00 -0.89361618948E+03  0.12746328586E+04  0.90892190546E+03 0.  0.
        4    1    3    3  502    0  0.11245052777E+02  0.22133391463E+03  0.10959011427E+03  0.24723826367E+03  0.12699999809E+01 0. -1.
       -4    1    3    3    0  502 -0.11245052777E+02 -0.22133391463E+03 -0.10032063038E+04  0.10273945950E+04  0.12699999809E+01 0.  1.
</event>
<event>
 5   0  0.1924218E-02  0.8975511E+03  0.7818609E-02  0.9428648E-01
        2   -1    0    0  501    0  0.00000000000E+00  0.00000000000E+00  0.68969701943E+03  0.68969701943E+03  0.25500000920E-02 0. -1.
       -2   -1    0    0    0  501  0.00000000000E+00  0.00000000000E+00 -0.29201153396E+03  0.29201153397E+03  0.25500000920E-02 0.  1.
    10030    2    1    2    0    0  0.00000000000E+00  0.00000000000E+00  0.39768548547E+03  0.98170855341E+03  0.89755107848E+03 0.  0.
        4    1    3    3  502    0 -0.84357488558E+02 -0.86635740092E+02 -0.27385536164E+03  0.29936651339E+03  0.12699999809E+01 0.  1.
       -4    1    3    3    0  502  0.84357488558E+02  0.86635740092E+02  0.67154084711E+03  0.68234204002E+03  0.12699999809E+01 0. -1.
</event>
<event>
 5   0  0.1175993E-02  0.7120990E+03  0.7818609E-02  0.9696762E-01
        1   -1    0    0  501    0  0.00000000000E+00  0.00000000000E+00  0.60316247405E+03  0.60316247407E+03  0.50400001928E-02 0.  1.
       -1   -1    0    0    0  501  0.00000000000E+00  0.00000000000E+00 -0.21017762808E+03  0.21017762814E+03  0.50400001928E-02 0. -1.
    10030    2    1    2    0    0  0.00000000000E+00  0.00000000000E+00  0.39298484598E+03  0.81334010221E+03  0.71209903293E+03 0.  0.
        4    1    3    3  502    0 -0.20798181830E+03 -0.28676110209E+03  0.15560840028E+03  0.38691595153E+03  0.12699999809E+01 0.  1.
       -4    1    3    3    0  502  0.20798181830E+03  0.28676110209E+03  0.23737644570E+03  0.42642415068E+03  0.12699999809E+01 0. -1.
</event>
<event>
 5   0  0.7893875E-03  0.9197102E+03  0.7818609E-02  0.9401273E-01
       -3   -1    0    0    0  501  0.00000000000E+00  0.00000000000E+00  0.49757974770E+03  0.49757975795E+03  0.10100000352E+00 0.  1.
        3   -1    0    0  501    0  0.00000000000E+00  0.00000000000E+00 -0.42499053242E+03  0.42499054442E+03  0.10100000352E+00 0. -1.
    10030    2    1    2    0    0  0.00000000000E+00  0.00000000000E+00  0.72589215282E+02  0.92257030237E+03  0.91971015469E+03 0.  0.
        1    1    3    3  502    0  0.33100082993E+03 -0.17477420092E+03  0.30425662333E+03  0.48236880453E+03  0.50400001928E-02 0.  1.
       -1    1    3    3    0  502 -0.33100082993E+03  0.17477420092E+03 -0.23166740805E+03  0.44020149784E+03  0.50400001928E-02 0. -1.
</event>
<event>
 5   0  0.1226424E-02  0.8964918E+03  0.7818609E-02  0.9429978E-01
       -1   -1    0    0    0  501  0.00000000000E+00  0.00000000000E+00  0.35728392223E+03  0.35728392227E+03  0.50400001928E-02 0. -1.
        1   -1    0    0  501    0  0.00000000000E+00  0.00000000000E+00 -0.56236615239E+03  0.56236615241E+03  0.50400001928E-02 0.  1.
    10030    2    1    2    0    0  0.00000000000E+00  0.00000000000E+00 -0.20508223016E+03  0.91965007468E+03  0.89649179513E+03 0.  0.
        1    1    3    3  502    0 -0.10130576858E+03 -0.14726387407E+03 -0.52422534648E+03  0.55386074177E+03  0.50400001928E-02 0.  1.
       -1    1    3    3    0  502  0.10130576858E+03  0.14726387407E+03  0.31914311632E+03  0.36578933291E+03  0.50400001928E-02 0. -1.
</event>
<event>
 5   0  0.1162839E-02  0.9305442E+03  0.7818609E-02  0.9388185E-01
       -1   -1    0    0    0  501  0.00000000000E+00  0.00000000000E+00  0.35757986935E+03  0.35757986938E+03  0.50400001928E-02 0. -1.
        1   -1    0    0  501    0  0.00000000000E+00  0.00000000000E+00 -0.60539801010E+03  0.60539801012E+03  0.50400001928E-02 0.  1.
    10030    2    1    2    0    0  0.00000000000E+00  0.00000000000E+00 -0.24781814075E+03  0.96297787950E+03  0.93054423083E+03 0.  0.
        2    1    3    3  502    0 -0.11910673988E+03  0.35381289230E+03 -0.41127115724E+03  0.55544031455E+03  0.25500000920E-02 0.  1.
       -2    1    3    3    0  502  0.11910673988E+03 -0.35381289230E+03  0.16345301649E+03  0.40753756495E+03  0.25500000920E-02 0. -1.
</event>
<event>
 5   0  0.1924218E-02  0.9032335E+03  0.7818609E-02  0.9421548E-01
       -2   -1    0    0    0  501  0.00000000000E+00  0.00000000000E+00  0.22791245279E+03  0.22791245281E+03  0.25500000920E-02 0. -1.
        2   -1    0    0  501    0  0.00000000000E+00  0.00000000000E+00 -0.89489485852E+03  0.89489485852E+03  0.25500000920E-02 0.  1.
    10030    2    1    2    0    0  0.00000000000E+00  0.00000000000E+00 -0.66698240573E+03  0.11228073113E+04  0.90323348522E+03 0.  0.
        4    1    3    3  502    0 -0.92722552175E+00  0.71894168252E+02  0.22074970620E+03  0.23216734668E+03  0.12699999809E+01 0. -1.
       -4    1    3    3    0  502  0.92722552175E+00 -0.71894168252E+02 -0.88773211193E+03  0.89063996465E+03  0.12699999809E+01 0.  1.
</event>
<event>
 5   0  0.1175993E-02  0.9033855E+03  0.7818609E-02  0.9421359E-01
        1   -1    0    0  501    0  0.00000000000E+00  0.00000000000E+00  0.38422483347E+03  0.38422483350E+03  0.50400001928E-02 0.  1.
       -1   -1    0    0    0  501  0.00000000000E+00  0.00000000000E+00 -0.53100767715E+03  0.53100767717E+03  0.50400001928E-02 0. -1.
    10030    2    1    2    0    0  0.00000000000E+00  0.00000000000E+00 -0.14678284368E+03  0.91523251068E+03  0.90338549103E+03 0.  0.
        4    1    3    3  502    0  0.24934578813E+03 -0.71553550565E+02 -0.44801283854E+03  0.51769715960E+03  0.12699999809E+01 0. -1.
       -4    1    3    3    0  502 -0.24934578813E+03  0.71553550565E+02  0.30122999486E+03  0.39753535108E+03  0.12699999809E+01 0.  1.
</event>
<event>
 5   0  0.1226424E-02  0.8619995E+03  0.7818609E-02  0.9474372E-01
       -1   -1    0    0    0  501  0.00000000000E+00  0.00000000000E+00  0.18512803517E+03  0.18512803523E+03  0.50400001928E-02 0.  1.
        1   -1    0    0  501    0  0.00000000000E+00  0.00000000000E+00 -0.10034179687E+04  0.10034179688E+04  0.50400001928E-02 0. -1.
    10030    2    1    2    0    0  0.00000000000E+00  0.00000000000E+00 -0.81828993358E+03  0.11885460040E+04  0.86199952912E+03 0.  0.
        1    1    3    3  502    0  0.28499441113E+03  0.14551052009E+03 -0.80725451449E+03  0.86836338996E+03  0.50400001928E-02 0. -1.
       -1    1    3    3    0  502 -0.28499441113E+03 -0.14551052009E+03 -0.11035419090E+02  0.32018261403E+03  0.50400001928E-02 0.  1.
</event>
<event>
 5   0  0.2008770E-02  0.9176822E+03  0.7818609E-02  0.9403744E-01
        2   -1    0    0  501    0  0.00000000000E+00  0.00000000000E+00  0.81472937351E+03  0.81472937351E+03  0.25500000920E-02 0.  1.
       -2   -1    0    0    0  501  0.00000000000E+00  0.00000000000E+00 -0.25841112901E+03  0.25841112903E+03  0.25500000920E-02 0. -1.
    10030    2    1    2    0    0  0.00000000000E+00  0.00000000000E+00  0.55631824450E+03  0.10731405025E+04  0.91768216122E+03 0.  0.
        1    1    3    3  502    0  0.44924041575E+02  0.19124111839E+02 -0.25536467312E+03  0.25999041803E+03  0.50400001928E-02 0. -1.
       -1    1    3    3    0  502 -0.44924041575E+02 -0.19124111839E+02  0.81168291762E+03  0.81315008451E+03  0.50400001928E-02 0.  1.
</event>
<event>
 5   0  0.2041861E-02  0.8509254E+03  0.7818609E-02  0.9489096E-01
       -2   -1    0    0    0  501  0.00000000000E+00  0.00000000000E+00  0.86974152194E+02  0.86974152231E+02  0.25500000920E-02 0.  1.
        2   -1    0    0  501    0  0.00000000000E+00  0.00000000000E+00 -0.20812906420E+04  0.20812906420E+04  0.25500000920E-02 0. -1.
    10030    2    1    2    0    0  0.00000000000E+00  0.00000000000E+00 -0.19943164898E+04  0.21682647943E+04  0.85092535302E+03 0.  0.
        5    1    3    3  502    0 -0.10086805625E+03  0.36953357963E+03 -0.14688504435E+04  0.15179832498E+04  0.46999998093E+01 0. -1.
       -5    1    3    3    0  502  0.10086805625E+03 -0.36953357963E+03 -0.52546604633E+03  0.65028154448E+03  0.46999998093E+01 0.  1.
</event>
<event>
 5   0  0.1175993E-02  0.9134844E+03  0.7818609E-02  0.9408880E-01
       -1   -1    0    0    0  501  0.00000000000E+00  0.00000000000E+00  0.21153137977E+03  0.21153137983E+03  0.50400001928E-02 0.  1.
        1   -1    0    0  501    0  0.00000000000E+00  0.00000000000E+00 -0.98620568501E+03  0.98620568503E+03  0.50400001928E-02 0. -1.
    10030    2    1    2    0    0  0.00000000000E+00  0.00000000000E+00 -0.77467430524E+03  0.11977370649E+04  0.91348442642E+03 0.  0.
        4    1    3    3  502    0 -0.28757986529E+03 -0.91773499991E+02 -0.83676064521E+03  0.88954738181E+03  0.12699999809E+01 0. -1.
       -4    1    3    3    0  502  0.28757986529E+03  0.91773499991E+02  0.62086339965E+02  0.30818968304E+03  0.12699999809E+01 0.  1.
</event>
<event>
 5   0  0.1924218E-02  0.9031527E+03  0.7818609E-02  0.9421649E-01
       -2   -1    0    0    0  501  0.00000000000E+00  0.00000000000E+00  0.23113590134E+03  0.23113590136E+03  0.25500000920E-02 0.  1.
        2   -1    0    0  501    0  0.00000000000E+00  0.00000000000E+00 -0.88225675348E+03  0.88225675348E+03  0.25500000920E-02 0. -1.
    10030    2    1    2    0    0  0.00000000000E+00  0.00000000000E+00 -0.65112085213E+03  0.11133926548E+04  0.90315272228E+03 0.  0.
        4    1    3    3  502    0  0.42124464086E+03 -0.11303047717E+03 -0.46983656357E+03  0.64107015653E+03  0.12699999809E+01 0. -1.
       -4    1    3    3    0  502 -0.42124464086E+03  0.11303047717E+03 -0.18128428856E+03  0.47232249830E+03  0.12699999809E+01 0.  1.
</event>
<event>
 5   0  0.1968763E-02  0.8808151E+03  0.7818609E-02  0.9449886E-01
       -2   -1    0    0    0  501  0.00000000000E+00  0.00000000000E+00  0.15595050053E+03  0.15595050055E+03  0.25500000920E-02 0. -1.
        2   -1    0    0  501    0  0.00000000000E+00  0.00000000000E+00 -0.12437204051E+04  0.12437204051E+04  0.25500000920E-02 0.  1.
    10030    2    1    2    0    0  0.00000000000E+00  0.00000000000E+00 -0.10877699046E+04  0.13996709057E+04  0.88081512184E+03 0.  0.
        2    1    3    3  502    0 -0.35173267435E+03  0.24368594336E+03 -0.37828575947E+03  0.57113818733E+03  0.25500000920E-02 0. -1.
       -2    1    3    3    0  502  0.35173267435E+03 -0.24368594336E+03 -0.70948414513E+03  0.82853271836E+03  0.25500000920E-02 0.  1.
</event>
<event>
 5   0  0.1226424E-02  0.9026390E+03  0.7818609E-02  0.9422289E-01
       -1   -1    0    0    0  501  0.00000000000E+00  0.00000000000E+00  0.12114146521E+03  0.12114146532E+03  0.50400001928E-02 0.  1.
        1   -1    0    0  501    0  0.00000000000E+00  0.00000000000E+00 -0.16814168820E+04  0.16814168820E+04  0.50400001928E-02 0. -1.
    10030    2    1    2    0    0  0.00000000000E+00  0.00000000000E+00 -0.15602754168E+04  0.18025583473E+04  0.90263903043E+03 0.  0.
        1    1    3    3  502    0 -0.38215886550E+03  0.22873002831E+03 -0.92588328796E+03  0.10274350039E+04  0.50400001928E-02 0. -1.
       -1    1    3    3    0  502  0.38215886550E+03 -0.22873002831E+03 -0.63439212880E+03  0.77512334337E+03  0.50400001928E-02 0.  1.
</event>
<event>
 5   0  0.1968763E-02  0.8800976E+03  0.7818609E-02  0.9450808E-01
       -2   -1    0    0    0  501  0.00000000000E+00  0.00000000000E+00  0.16812838774E+03  0.16812838776E+03  0.25500000920E-02 0. -1.
        2   -1    0    0  501    0  0.00000000000E+00  0.00000000000E+00 -0.11517564260E+04  0.11517564260E+04  0.25500000920E-02 0.  1.
    10030    2    1    2    0    0  0.00000000000E+00  0.00000000000E+00 -0.98362803828E+03  0.13198848138E+04  0.88009761047E+03 0.  0.
        2    1    3    3  502    0  0.27428150794E+03  0.22102465670E+03 -0.88735108027E+03  0.95471157117E+03  0.25500000920E-02 0.  1.
       -2    1    3    3    0  502 -0.27428150794E+03 -0.22102465670E+03 -0.96276958013E+02  0.36517324261E+03  0.25500000920E-02 0. -1.
</event>
<event>
 5   0  0.1162839E-02  0.9062982E+03  0.7818609E-02  0.9417742E-01
       -1   -1    0    0    0  501  0.00000000000E+00  0.00000000000E+00  0.12727026351E+03  0.12727026361E+03  0.50400001928E-02 0. -1.
        1   -1    0    0  501    0  0.00000000000E+00  0.00000000000E+00 -0.16134492625E+04  0.16134492625E+04  0.50400001928E-02 0.  1.
    10030    2    1    2    0    0  0.00000000000E+00  0.00000000000E+00 -0.14861789990E+04  0.17407195261E+04  0.90629821339E+03 0.  0.
        2    1    3    3  502    0 -0.16624055189E+03 -0.42050936556E+03 -0.68611046060E+03  0.82171260899E+03  0.25500000920E-02 0. -1.
       -2    1    3    3    0  502  0.16624055189E+03  0.42050936556E+03 -0.80006853841E+03  0.91900691716E+03  0.25500000920E-02 0.  1.
</event>
<event>
 5   0  0.1175993E-02  0.9228140E+03  0.7818609E-02  0.9397504E-01
       -1   -1    0    0    0  501  0.00000000000E+00  0.00000000000E+00  0.10580117709E+04  0.10580117710E+04  0.50400001928E-02 0.  1.
        1   -1    0    0  501    0  0.00000000000E+00  0.00000000000E+00 -0.20122309289E+03  0.20122309295E+03  0.50400001928E-02 0. -1.
    10030    2    1    2    0    0  0.00000000000E+00  0.00000000000E+00  0.85678867806E+03  0.12592348639E+04  0.92281395939E+03 0.  0.
        4    1    3    3  502    0 -0.33275956623E+03  0.25183113291E+03  0.15979107451E+03  0.44685864523E+03  0.12699999809E+01 0. -1.
       -4    1    3    3    0  502  0.33275956623E+03 -0.25183113291E+03  0.69699760355E+03  0.81237621868E+03  0.12699999809E+01 0.  1.
</event>
<event>
 5   0  0.2008770E-02  0.8576789E+03  0.7818609E-02  0.9480088E-01
        2   -1    0    0  501    0  0.00000000000E+00  0.00000000000E+00  0.14633973276E+04  0.14633973276E+04  0.25500000920E-02 0. -1.
       -2   -1    0    0    0  501  0.00000000000E+00  0.00000000000E+00 -0.12566873530E+03  0.12566873533E+03  0.25500000920E-02 0.  1.
    10030    2    1    2    0    0  0.00000000000E+00  0.00000000000E+00  0.13377285923E+04  0.15890660630E+04  0.85767894093E+03 0.  0.
        1    1    3    3  502    0 -0.21989679216E+03 -0.27302704681E+03  0.11264786632E+04  0.11797680052E+04  0.50400001928E-02 0. -1.
       -1    1    3    3    0  502  0.21989679216E+03  0.27302704681E+03  0.21124992917E+03  0.40929805776E+03  0.50400001928E-02 0.  1.
</event>
<event>
 5   0  0.1968763E-02  0.9058798E+03  0.7818609E-02  0.9418261E-01
       -2   -1    0    0    0  501  0.00000000000E+00  0.00000000000E+00  0.30065142210E+03  0.30065142212E+03  0.25500000920E-02 0. -1.
        2   -1    0    0  501    0  0.00000000000E+00  0.00000000000E+00 -0.68236688443E+03  0.68236688443E+03  0.25500000920E-02 0.  1.
    10030    2    1    2    0    0  0.00000000000E+00  0.00000000000E+00 -0.38171546232E+03  0.98301830655E+03  0.90587984680E+03 0.  0.
        2    1    3    3  502    0  0.79403526436E+02 -0.20848577217E+03 -0.61861089431E+03  0.65760982032E+03  0.25500000920E-02 0.  1.
       -2    1    3    3    0  502 -0.79403526436E+02  0.20848577217E+03  0.23689543199E+03  0.32540848623E+03  0.25500000920E-02 0. -1.
</event>
<event>
 5   0  0.1226424E-02  0.8977761E+03  0.7818609E-02  0.9428366E-01
        1   -1    0    0  501    0  0.00000000000E+00  0.00000000000E+00  0.21962693373E+04  0.21962693373E+04  0.50400001928E-02 0. -1.
       -1   -1    0    0    0  501  0.00000000000E+00  0.00000000000E+00 -0.91746716827E+02  0.91746716966E+02  0.50400001928E-02 0.  1.
    10030    2    1    2    0    0  0.00000000000E+00  0.00000000000E+00  0.21045226204E+04  0.22880160542E+04  0.89777614388E+03 0.  0.
        1    1    3    3  502    0 -0.37366445283E+03  0.10030525215E+02  0.41883432351E+03  0.56138037490E+03  0.50400001928E-02 0.  1.
       -1    1    3    3    0  502  0.37366445283E+03 -0.10030525215E+02  0.16856882969E+04  0.17266356793E+04  0.50400001928E-02 0. -1.
</event>
<event>
 5   0  0.1162839E-02  0.8936095E+03  0.7818609E-02  0.9433605E-01
        1   -1    0    0  501    0  0.00000000000E+00  0.00000000000E+00  0.94567277686E+03  0.94567277687E+03  0.50400001928E-02 0. -1.
       -1   -1    0    0    0  501  0.00000000000E+00  0.00000000000E+00 -0.21110310940E+03  0.21110310946E+03  0.50400001928E-02 0.  1.
    10030    2    1    2    0    0  0.00000000000E+00  0.00000000000E+00  0.73456966746E+03  0.11567758863E+04  0.89360945320E+03 0.  0.
        2    1    3    3  502    0  0.40246086829E+03  0.17667973900E+03  0.26336973217E+03  0.51240032837E+03  0.25500000920E-02 0.  1.
       -2    1    3    3    0  502 -0.40246086829E+03 -0.17667973900E+03  0.47119993529E+03  0.64437555796E+03  0.25500000920E-02 0. -1.
</event>
<event>
 5   0  0.2008770E-02  0.9228687E+03  0.7818609E-02  0.9397437E-01
       -2   -1    0    0    0  501  0.00000000000E+00  0.00000000000E+00  0.10262601395E+03  0.10262601398E+03  0.25500000920E-02 0.  1.
        2   -1    0    0  501    0  0.00000000000E+00  0.00000000000E+00 -0.20747338327E+04  0.20747338327E+04  0.25500000920E-02 0. -1.
    10030    2    1    2    0    0  0.00000000000E+00  0.00000000000E+00 -0.19721078188E+04  0.21773598467E+04  0.92286870854E+03 0.  0.
        1    1    3    3  502    0 -0.23520177813E+02 -0.44188197103E+03 -0.67745107271E+03  0.80916798691E+03  0.50400001928E-02 0.  1.
       -1    1    3    3    0  502  0.23520177813E+02  0.44188197103E+03 -0.12946567461E+04  0.13681918598E+04  0.50400001928E-02 0. -1.
</event>
<event>
 5   0  0.1162839E-02  0.8861073E+03  0.7818609E-02  0.9443117E-01
       -1   -1    0    0    0  501  0.00000000000E+00  0.00000000000E+00  0.40281595480E+03  0.40281595483E+03  0.50400001928E-02 0. -1.
        1   -1    0    0  501    0  0.00000000000E+00  0.00000000000E+00 -0.48731075304E+03  0.48731075306E+03  0.50400001928E-02 0.  1.
    10030    2    1    2    0    0  0.00000000000E+00  0.00000000000E+00 -0.84494798237E+02  0.89012670789E+03  0.88610732148E+03 0.  0.
        2    1    3    3  502    0 -0.61079750974E+02  0.21006599450E+03 -0.42927165413E+03  0.48180142286E+03  0.25500000920E-02 0.  1.
       -2    1    3    3    0  502  0.61079750974E+02 -0.21006599450E+03  0.34477685590E+03  0.40832528503E+03  0.25500000920E-02 0. -1.
</event>
<event>
 5   0  0.1226424E-02  0.8913255E+03  0.7818609E-02  0.9436490E-01
        1   -1    0    0  501    0  0.00000000000E+00  0.00000000000E+00  0.37425426885E+03  0.37425426888E+03  0.50400001928E-02 0. -1.
       -1   -1    0    0    0  501  0.00000000000E+00  0.00000000000E+00 -0.53069612527E+03  0.53069612530E+03  0.50400001928E-02 0.  1.
    10030    2    1    2    0    0  0.00000000000E+00  0.00000000000E+00 -0.15644185643E+03  0.90495039418E+03  0.89132550815E+03 0.  0.
        1    1    3    3  502    0 -0.19331353135E+03 -0.40104658561E+03 -0.57743206329E+02  0.44893514357E+03  0.50400001928E-02 0. -1.
       -1    1    3    3    0  502  0.19331353135E+03  0.40104658561E+03 -0.98698650097E+02  0.45601525061E+03  0.50400001928E-02 0.  1.
</event>
<event>
 5   0  0.1924218E-02  0.9228779E+03  0.7818609E-02  0.9397426E-01
       -2   -1    0    0    0  501  0.00000000000E+00  0.00000000000E+00  0.22796892734E+03  0.22796892736E+03  0.25500000920E-02 0.  1.
        2   -1    0    0  501    0  0.00000000000E+00  0.00000000000E+00 -0.93401274225E+03  0.93401274225E+03  0.25500000920E-02 0. -1.
    10030    2    1    2    0    0  0.00000000000E+00  0.00000000000E+00 -0.70604381491E+03  0.11619816696E+04  0.92287785321E+03 0.  0.
        4    1    3    3  502    0  0.28247212388E+03  0.35226586323E+02  0.10424070238E+03  0.30314872601E+03  0.12699999809E+01 0.  1.
       -4    1    3    3    0  502 -0.28247212388E+03 -0.35226586323E+02 -0.81028451729E+03  0.85883294360E+03  0.12699999809E+01 0. -1.
</event>
<event>
 5   0  0.1924218E-02  0.8905437E+03  0.7818609E-02  0.9437480E-01
        2   -1    0    0  501    0  0.00000000000E+00  0.00000000000E+00  0.18052720212E+03  0.18052720214E+03  0.25500000920E-02 0. -1.
       -2   -1    0    0    0  501  0.00000000000E+00  0.00000000000E+00 -0.10982667380E+04  0.10982667380E+04  0.25500000920E-02 0.  1.
    10030    2    1    2    0    0  0.00000000000E+00  0.00000000000E+00 -0.91773953589E+03  0.12787939402E+04  0.89054370227E+03 0.  0.
        4    1    3    3  502    0 -0.20736812570E+03  0.15098687409E+02  0.10653760608E+03  0.23362659165E+03  0.12699999809E+01 0. -1.
       -4    1    3    3    0  502  0.20736812570E+03 -0.15098687409E+02 -0.10242771420E+04  0.10451673485E+04  0.12699999809E+01 0.  1.
</event>
<event>
 5   0  0.1924218E-02  0.8944547E+03  0.7818609E-02  0.9432540E-01
        2   -1    0    0  501    0  0.00000000000E+00  0.00000000000E+00  0.12033202158E+04  0.12033202159E+04  0.25500000920E-02 0. -1.
       -2   -1    0    0    0  501  0.00000000000E+00  0.00000000000E+00 -0.16621700673E+03  0.16621700674E+03  0.25500000920E-02 0.  1.
    10030    2    1    2    0    0  0.00000000000E+00  0.00000000000E+00  0.10371032091E+04  0.13695372226E+04  0.89445465939E+03 0.  0.
        4    1    3    3  502    0 -0.22611740240E+03 -0.17790253886E+03  0.10428024176E+04  0.10817656346E+04  0.12699999809E+01 0. -1.
       -4    1    3    3    0  502  0.22611740240E+03  0.17790253886E+03 -0.56992085016E+01  0.28777158804E+03  0.12699999809E+01 0.  1.
</event>
<event>
 5   0  0.2008643E-02  0.8766499E+03  0.7818609E-02  0.9455250E-01
       -2   -1    0    0    0  501  0.00000000000E+00  0.00000000000E+00  0.15521776914E+03  0.15521776916E+03  0.25500000920E-02 0. -1.
        2   -1    0    0  501    0  0.00000000000E+00  0.00000000000E+00 -0.12378014688E+04  0.12378014688E+04  0.25500000920E-02 0.  1.
    10030    2    1    2    0    0  0.00000000000E+00  0.00000000000E+00 -0.10825836996E+04  0.13930192380E+04  0.87664994757E+03 0.  0.
        3    1    3    3  502    0  0.10238401997E+03  0.62671538485E+02 -0.12111722941E+04  0.12171066287E+04  0.10100000352E+00 0.  1.
       -3    1    3    3    0  502 -0.10238401997E+03 -0.62671538485E+02  0.12858859447E+03  0.17591260930E+03  0.10100000352E+00 0. -1.
</event>
<event>
 5   0  0.1226424E-02  0.8971991E+03  0.7818609E-02  0.9429089E-01
       -1   -1    0    0    0  501  0.00000000000E+00  0.00000000000E+00  0.37630828112E+03  0.37630828116E+03  0.50400001928E-02 0. -1.
        1   -1    0    0  501    0  0.00000000000E+00  0.00000000000E+00 -0.53477849430E+03  0.53477849433E+03  0.50400001928E-02 0.  1.
    10030    2    1    2    0    0  0.00000000000E+00  0.00000000000E+00 -0.15847021318E+03  0.91108677548E+03  0.89719914400E+03 0.  0.
        1    1    3    3  502    0  0.18812106604E+02  0.44187786182E+03 -0.15544093259E+03  0.46879827610E+03  0.50400001928E-02 0. -1.
       -1    1    3    3    0  502 -0.18812106604E+02 -0.44187786182E+03 -0.30292805935E+01  0.44228849939E+03  0.50400001928E-02 0.  1.
</event>
<event>
 5   0  0.1968763E-02  0.8986952E+03  0.7818609E-02  0.9427214E-01
       -2   -1    0    0    0  501  0.00000000000E+00  0.00000000000E+00  0.17067988731E+03  0.17067988733E+03  0.25500000920E-02 0. -1.
        2   -1    0    0  501    0  0.00000000000E+00  0.00000000000E+00 -0.11829938752E+04  0.11829938752E+04  0.25500000920E-02 0.  1.
    10030    2    1    2    0    0  0.00000000000E+00  0.00000000000E+00 -0.10123139879E+04  0.13536737625E+04  0.89869519042E+03 0.  0.
        2    1    3    3  502    0  0.26311312563E+02 -0.27835386725E+02 -0.11805304570E+04  0.11811516642E+04  0.25500000920E-02 0.  1.
       -2    1    3    3    0  502 -0.26311312563E+02  0.27835386725E+02  0.16821646912E+03  0.17252209833E+03  0.25500000920E-02 0. -1.
</event>
<event>
 5   0  0.2008770E-02  0.8916970E+03  0.7818609E-02  0.9436021E-01
        2   -1    0    0  501    0  0.00000000000E+00  0.00000000000E+00  0.21941624779E+04  0.21941624779E+04  0.25500000920E-02 0. -1.
       -2   -1    0    0    0  501  0.00000000000E+00  0.00000000000E+00 -0.90595326046E+02  0.90595326082E+02  0.25500000920E-02 0.  1.
    10030    2    1    2    0    0  0.00000000000E+00  0.00000000000E+00  0.21035671519E+04  0.22847578040E+04  0.89169695554E+03 0.  0.
        1    1    3    3  502    0  0.36146527001E+03  0.22102453760E+03  0.14074844221E+04  0.14698712141E+04  0.50400001928E-02 0. -1.
       -1    1    3    3    0  502 -0.36146527001E+03 -0.22102453760E+03  0.69608272978E+03  0.81488658988E+03  0.50400001928E-02 0.  1.
</event>
<event>
 5   0  0.1162839E-02  0.8990844E+03  0.7818609E-02  0.9426727E-01
       -1   -1    0    0    0  501  0.00000000000E+00  0.00000000000E+00  0.38234867109E+03  0.38234867112E+03  0.50400001928E-02 0.  1.
        1   -1    0    0  501    0  0.00000000000E+00  0.00000000000E+00 -0.52854426755E+03  0.52854426758E+03  0.50400001928E-02 0. -1.
    10030    2    1    2    0    0  0.00000000000E+00  0.00000000000E+00 -0.14619559646E+03  0.91089293870E+03  0.89908441948E+03 0.  0.
        2    1    3    3  502    0  0.19384202959E+03  0.39483704674E+03 -0.16714573124E+03  0.47054088174E+03  0.25500000920E-02 0. -1.
       -2    1    3    3    0  502 -0.19384202959E+03 -0.39483704674E+03  0.20950134774E+02  0.44035205696E+03  0.25500000920E-02 0.  1.
</event>
<event>
 5   0  0.1162839E-02  0.8758300E+03  0.7818609E-02  0.9456310E-01
       -1   -1    0    0    0  501  0.00000000000E+00  0.00000000000E+00  0.36536144144E+03  0.36536144147E+03  0.50400001928E-02 0. -1.
        1   -1    0    0  501    0  0.00000000000E+00  0.00000000000E+00 -0.52487620534E+03  0.52487620536E+03  0.50400001928E-02 0.  1.
    10030    2    1    2    0    0  0.00000000000E+00  0.00000000000E+00 -0.15951476390E+03  0.89023764683E+03  0.87582995378E+03 0.  0.
        2    1    3    3  502    0  0.10280027661E+03 -0.42540404670E+03 -0.64241036859E+02  0.44233857015E+03  0.25500000920E-02 0. -1.
       -2    1    3    3    0  502 -0.10280027661E+03  0.42540404670E+03 -0.95273727040E+02  0.44789907668E+03  0.25500000920E-02 0.  1.
</event>
<event>
 5   0  0.1924218E-02  0.9472098E+03  0.7818609E-02  0.9368418E-01
        2   -1    0    0  501    0  0.00000000000E+00  0.00000000000E+00  0.38080212347E+03  0.38080212348E+03  0.25500000920E-02 0.  1.
       -2   -1    0    0    0  501  0.00000000000E+00  0.00000000000E+00 -0.58902406988E+03  0.58902406988E+03  0.25500000920E-02 0. -1.
    10030    2    1    2    0    0  0.00000000000E+00  0.00000000000E+00 -0.20822194640E+03  0.96982619336E+03  0.94720983228E+03 0.  0.
        4    1    3    3  502    0  0.41657670203E+03 -0.19354119353E+03 -0.22221533745E+03  0.51027013567E+03  0.12699999809E+01 0. -1.
       -4    1    3    3    0  502 -0.41657670203E+03  0.19354119353E+03  0.13993391043E+02  0.45955605769E+03  0.12699999809E+01 0.  1.
</event>
<event>
 5   0  0.1924218E-02  0.9144159E+03  0.7818609E-02  0.9407738E-01
       -2   -1    0    0    0  501  0.00000000000E+00  0.00000000000E+00  0.15706036087E+03  0.15706036090E+03  0.25500000920E-02 0.  1.
        2   -1    0    0  501    0  0.00000000000E+00  0.00000000000E+00 -0.13309474887E+04  0.13309474887E+04  0.25500000920E-02 0. -1.
    10030    2    1    2    0    0  0.00000000000E+00  0.00000000000E+00 -0.11738871278E+04  0.14880078496E+04  0.91441586359E+03 0.  0.
        4    1    3    3  502    0  0.34936012219E+02 -0.80552373385E+02 -0.13170965262E+04  0.13200204855E+04  0.12699999809E+01 0. -1.
       -4    1    3    3    0  502 -0.34936012219E+02  0.80552373385E+02  0.14320939841E+03  0.16798736411E+03  0.12699999809E+01 0.  1.
</event>
<event>
 5   0  0.1924218E-02  0.9006677E+03  0.7818609E-02  0.9424747E-01
       -2   -1    0    0    0  501  0.00000000000E+00  0.00000000000E+00  0.29714206046E+03  0.29714206047E+03  0.25500000920E-02 0.  1.
        2   -1    0    0  501    0  0.00000000000E+00  0.00000000000E+00 -0.68250383458E+03  0.68250383459E+03  0.25500000920E-02 0. -1.
    10030    2    1    2    0    0  0.00000000000E+00  0.00000000000E+00 -0.38536177412E+03  0.97964589506E+03  0.90066774271E+03 0.  0.
        4    1    3    3  502    0 -0.22510892748E+01 -0.37312118995E+03  0.81568690253E+02  0.38194182008E+03  0.12699999809E+01 0.  1.
       -4    1    3    3    0  502  0.22510892748E+01  0.37312118995E+03 -0.46693046437E+03  0.59770407498E+03  0.12699999809E+01 0. -1.
</event>
<event>
 5   0  0.1206541E-02  0.9314582E+03  0.7818609E-02  0.9387090E-01
        1   -1    0    0  501    0  0.00000000000E+00  0.00000000000E+00  0.56302060902E+03  0.56302060905E+03  0.50400001928E-02 0.  1.
       -1   -1    0    0    0  501  0.00000000000E+00  0.00000000000E+00 -0.38524981128E+03  0.38524981132E+03  0.50400001928E-02 0. -1.
    10030    2    1    2    0    0  0.00000000000E+00  0.00000000000E+00  0.17777079774E+03  0.94827042036E+03  0.93145817598E+03 0.  0.
        3    1    3    3  502    0 -0.41543091007E+03 -0.17879537120E+03 -0.24264492325E+02  0.45292317405E+03  0.10100000352E+00 0.  1.
       -3    1    3    3    0  502  0.41543091007E+03  0.17879537120E+03  0.20203529007E+03  0.49534724632E+03  0.10100000352E+00 0. -1.
</event>
<event>
 5   0  0.7893875E-03  0.7894943E+03  0.7818609E-02  0.9575349E-01
       -3   -1    0    0    0  501  0.00000000000E+00  0.00000000000E+00  0.92464555511E+03  0.92464556062E+03  0.10100000352E+00 0. -1.
        3   -1    0    0  501    0  0.00000000000E+00  0.00000000000E+00 -0.16852433608E+03  0.16852436635E+03  0.10100000352E+00 0.  1.
    10030    2    1    2    0    0  0.00000000000E+00  0.00000000000E+00  0.75612121902E+03  0.10931699270E+04  0.78949426305E+03 0.  0.
        4    1    3    3  502    0 -0.14829850377E+03 -0.29006014395E+03  0.68673524979E+03  0.76008831693E+03  0.12699999809E+01 0. -1.
       -4    1    3    3    0  502  0.14829850377E+03  0.29006014395E+03  0.69385969235E+02  0.33308161005E+03  0.12699999809E+01 0.  1.
</event>
<event>
 5   0  0.1206541E-02  0.8630042E+03  0.7818609E-02  0.9473047E-01
       -1   -1    0    0    0  501  0.00000000000E+00  0.00000000000E+00  0.48459718150E+03  0.48459718152E+03  0.50400001928E-02 0.  1.
        1   -1    0    0  501    0  0.00000000000E+00  0.00000000000E+00 -0.38422442840E+03  0.38422442843E+03  0.50400001928E-02 0. -1.
    10030    2    1    2    0    0  0.00000000000E+00  0.00000000000E+00  0.10037275310E+03  0.86882160995E+03  0.86300422963E+03 0.  0.
        3    1    3    3  502    0 -0.32615485011E+03  0.21340065869E+03 -0.13620276028E+03  0.41287774158E+03  0.10100000352E+00 0. -1.
       -3    1    3    3    0  502  0.32615485011E+03 -0.21340065869E+03  0.23657551338E+03  0.45594386838E+03  0.10100000352E+00 0.  1.
</event>
<event>
 5   0  0.1968763E-02  0.9005202E+03  0.7818609E-02  0.9424931E-01
        2   -1    0    0  501    0  0.00000000000E+00  0.00000000000E+00  0.14760442495E+04  0.14760442495E+04  0.25500000920E-02 0. -1.
       -2   -1    0    0    0  501  0.00000000000E+00  0.00000000000E+00 -0.13734964053E+03  0.13734964055E+03  0.25500000920E-02 0.  1.
    10030    2    1    2    0    0  0.00000000000E+00  0.00000000000E+00  0.13386946090E+04  0.16133938900E+04  0.90052017655E+03 0.  0.
        2    1    3    3  502    0 -0.38636232506E+03  0.23118895294E+03  0.66369050762E+03  0.80200328435E+03  0.25500000920E-02 0.  1.
       -2    1    3    3    0  502  0.38636232506E+03 -0.23118895294E+03  0.67500410133E+03  0.81139060569E+03  0.25500000920E-02 0. -1.
</event>
<event>
 5   0  0.1162839E-02  0.8589713E+03  0.7818609E-02  0.9478374E-01
       -1   -1    0    0    0  501  0.00000000000E+00  0.00000000000E+00  0.47050538803E+03  0.47050538805E+03  0.50400001928E-02 0. -1.
        1   -1    0    0  501    0  0.00000000000E+00  0.00000000000E+00 -0.39204211870E+03  0.39204211873E+03  0.50400001928E-02 0.  1.
    10030    2    1    2    0    0  0.00000000000E+00  0.00000000000E+00  0.78463269330E+02  0.86254750678E+03  0.85897131316E+03 0.  0.
        2    1    3    3  502    0 -0.42269257851E+03 -0.30912372094E+02  0.10904329567E+03  0.43762430350E+03  0.25500000920E-02 0. -1.
       -2    1    3    3    0  502  0.42269257851E+03  0.30912372094E+02 -0.30580026337E+02  0.42492320329E+03  0.25500000920E-02 0.  1.
</event>
<event>
 5   0  0.1162839E-02  0.6215771E+03  0.7818609E-02  0.9861625E-01
        1   -1    0    0  501    0  0.00000000000E+00  0.00000000000E+00  0.34337090129E+03  0.34337090133E+03  0.50400001928E-02 0. -1.
       -1   -1    0    0    0  501  0.00000000000E+00  0.00000000000E+00 -0.28129789423E+03  0.28129789427E+03  0.50400001928E-02 0.  1.
    10030    2    1    2    0    0  0.00000000000E+00  0.00000000000E+00  0.62073007064E+02  0.62466879560E+03  0.62157706360E+03 0.  0.
        2    1    3    3  502    0  0.87372055267E+02  0.20325511620E+03 -0.18832193735E+03  0.29053686582E+03  0.25500000920E-02 0.  1.
       -2    1    3    3    0  502 -0.87372055267E+02 -0.20325511620E+03  0.25039494442E+03  0.33413192978E+03  0.25500000920E-02 0. -1.
</event>
<event>
 5   0  0.1226424E-02  0.9044184E+03  0.7818609E-02  0.9420075E-01
       -1   -1    0    0    0  501  0.00000000000E+00  0.00000000000E+00  0.25402346887E+03  0.25402346892E+03  0.50400001928E-02 0.  1.
        1   -1    0    0  501    0  0.00000000000E+00  0.00000000000E+00 -0.80501688774E+03  0.80501688776E+03  0.50400001928E-02 0. -1.
    10030    2    1    2    0    0  0.00000000000E+00  0.00000000000E+00 -0.55099341887E+03  0.10590403567E+04  0.90441844820E+03 0.  0.
        1    1    3    3  502    0 -0.45054768024E+03  0.25155582805E+02 -0.24101455248E+03  0.51157993515E+03  0.50400001928E-02 0.  1.
       -1    1    3    3    0  502  0.45054768024E+03 -0.25155582805E+02 -0.30997886639E+03  0.54746042153E+03  0.50400001928E-02 0. -1.
</event>
<event>
 5   0  0.1968763E-02  0.8967277E+03  0.7818609E-02  0.9429681E-01
       -2   -1    0    0    0  501  0.00000000000E+00  0.00000000000E+00  0.22004235098E+03  0.22004235100E+03  0.25500000920E-02 0. -1.
        2   -1    0    0  501    0  0.00000000000E+00  0.00000000000E+00 -0.91359746318E+03  0.91359746318E+03  0.25500000920E-02 0.  1.
    10030    2    1    2    0    0  0.00000000000E+00  0.00000000000E+00 -0.69355511219E+03  0.11336398142E+04  0.89672768143E+03 0.  0.
        2    1    3    3  502    0  0.90587667780E+02 -0.43656818392E+03 -0.28704874420E+03  0.53027812167E+03  0.25500000920E-02 0. -1.
       -2    1    3    3    0  502 -0.90587667780E+02  0.43656818392E+03 -0.40650636799E+03  0.60336169251E+03  0.25500000920E-02 0.  1.
</event>
<event>
 5   0  0.1924218E-02  0.8995106E+03  0.7818609E-02  0.9426193E-01
        2   -1    0    0  501    0  0.00000000000E+00  0.00000000000E+00  0.25331544548E+03  0.25331544550E+03  0.25500000920E-02 0. -1.
       -2   -1    0    0    0  501  0.00000000000E+00  0.00000000000E+00 -0.79852943552E+03  0.79852943552E+03  0.25500000920E-02 0.  1.
    10030    2    1    2    0    0  0.00000000000E+00  0.00000000000E+00 -0.54521399003E+03  0.10518448810E+04  0.89951062184E+03 0.  0.
        4    1    3    3  502    0  0.22565965420E+03 -0.15252537554E+03 -0.69111746975E+03  0.74285344423E+03  0.12699999809E+01 0.  1.
       -4    1    3    3    0  502 -0.22565965420E+03  0.15252537554E+03  0.14590347971E+03  0.30899143679E+03  0.12699999809E+01 0. -1.
</event>
<event>
 5   0  0.1226424E-02  0.9042890E+03  0.7818609E-02  0.9420236E-01
        1   -1    0    0  501    0  0.00000000000E+00  0.00000000000E+00  0.10822985481E+04  0.10822985481E+04  0.50400001928E-02 0. -1.
       -1   -1    0    0    0  501  0.00000000000E+00  0.00000000000E+00 -0.18888931707E+03  0.18888931714E+03  0.50400001928E-02 0.  1.
    10030    2    1    2    0    0  0.00000000000E+00  0.00000000000E+00  0.89340923103E+03  0.12711878653E+04  0.90428896636E+03 0.  0.
        1    1    3    3  502    0  0.12178764283E+03  0.43196514910E+03  0.36960033298E+03  0.58140392684E+03  0.50400001928E-02 0.  1.
       -1    1    3    3    0  502 -0.12178764283E+03 -0.43196514910E+03  0.52380889806E+03  0.68978393841E+03  0.50400001928E-02 0. -1.
</event>
<event>
 5   0  0.2008770E-02  0.9067837E+03  0.7818609E-02  0.9417141E-01
        2   -1    0    0  501    0  0.00000000000E+00  0.00000000000E+00  0.13416409615E+04  0.13416409615E+04  0.25500000920E-02 0. -1.
       -2   -1    0    0    0  501  0.00000000000E+00  0.00000000000E+00 -0.15321847842E+03  0.15321847844E+03  0.25500000920E-02 0.  1.
    10030    2    1    2    0    0  0.00000000000E+00  0.00000000000E+00  0.11884224831E+04  0.14948594399E+04  0.90678373766E+03 0.  0.
        1    1    3    3  502    0  0.30820676164E+02  0.23767734189E+02 -0.15045945081E+03  0.15541192242E+03  0.50400001928E-02 0.  1.
       -1    1    3    3    0  502 -0.30820676164E+02 -0.23767734189E+02  0.13388819339E+04  0.13394475175E+04  0.50400001928E-02 0. -1.
</event>
<event>
 5   0  0.1162839E-02  0.9237491E+03  0.7818609E-02  0.9396371E-01
        1   -1    0    0  501    0  0.00000000000E+00  0.00000000000E+00  0.49689870099E+03  0.49689870101E+03  0.50400001928E-02 0.  1.
       -1   -1    0    0    0  501  0.00000000000E+00  0.00000000000E+00 -0.42931909412E+03  0.42931909415E+03  0.50400001928E-02 0. -1.
    10030    2    1    2    0    0  0.00000000000E+00  0.00000000000E+00  0.67579606865E+02  0.92621779517E+03  0.92374910058E+03 0.  0.
        2    1    3    3  502    0 -0.39587319136E+03 -0.14776631039E+03 -0.15319620418E+03  0.44946584198E+03  0.25500000920E-02 0. -1.
       -2    1    3    3    0  502  0.39587319136E+03  0.14776631039E+03  0.22077581104E+03  0.47675195319E+03  0.25500000920E-02 0.  1.
</event>
<event>
 5   0  0.1175993E-02  0.8936309E+03  0.7818609E-02  0.9433578E-01
       -1   -1    0    0    0  501  0.00000000000E+00  0.00000000000E+00  0.82248290442E+03  0.82248290443E+03  0.50400001928E-02 0. -1.
        1   -1    0    0  501    0  0.00000000000E+00  0.00000000000E+00 -0.24273339128E+03  0.24273339133E+03  0.50400001928E-02 0.  1.
    10030    2    1    2    0    0  0.00000000000E+00  0.00000000000E+00  0.57974951314E+03  0.10652162958E+04  0.89363094104E+03 0.  0.
        4    1    3    3  502    0  0.44300690893E+03 -0.51564755138E+02  0.25770361298E+03  0.51509883554E+03  0.12699999809E+01 0.  1.
       -4    1    3    3    0  502 -0.44300690893E+03  0.51564755138E+02  0.32204590015E+03  0.55011746022E+03  0.12699999809E+01 0. -1.
</event>
<event>
 5   0  0.1226424E-02  0.8880478E+03  0.7818609E-02  0.9440647E-01
       -1   -1    0    0    0  501  0.00000000000E+00  0.00000000000E+00  0.30134471305E+03  0.30134471309E+03  0.50400001928E-02 0. -1.
        1   -1    0    0  501    0  0.00000000000E+00  0.00000000000E+00 -0.65425806395E+03  0.65425806397E+03  0.50400001928E-02 0.  1.
    10030    2    1    2    0    0  0.00000000000E+00  0.00000000000E+00 -0.35291335090E+03  0.95560277706E+03  0.88804776577E+03 0.  0.
        1    1    3    3  502    0  0.25110977078E+03 -0.19049286339E+03  0.16008636291E+03  0.35351278845E+03  0.50400001928E-02 0. -1.
       -1    1    3    3    0  502 -0.25110977078E+03  0.19049286339E+03 -0.51299971381E+03  0.60208998861E+03  0.50400001928E-02 0.  1.
</event>
<event>
 5   0  0.1226424E-02  0.8823359E+03  0.7818609E-02  0.9447936E-01
        1   -1    0    0  501    0  0.00000000000E+00  0.00000000000E+00  0.15111640098E+04  0.15111640098E+04  0.50400001928E-02 0. -1.
       -1   -1    0    0    0  501  0.00000000000E+00  0.00000000000E+00 -0.12879419336E+03  0.12879419346E+03  0.50400001928E-02 0.  1.
    10030    2    1    2    0    0  0.00000000000E+00  0.00000000000E+00  0.13823698165E+04  0.16399582033E+04  0.88233587656E+03 0.  0.
        1    1    3    3  502    0  0.33606919638E+03 -0.11033842543E+03  0.20114779436E+03  0.40691216262E+03  0.50400001928E-02 0.  1.
       -1    1    3    3    0  502 -0.33606919638E+03  0.11033842543E+03  0.11812220221E+04  0.12330460407E+04  0.50400001928E-02 0. -1.
</event>
<event>
 5   0  0.1226424E-02  0.8944909E+03  0.7818609E-02  0.9432494E-01
       -1   -1    0    0    0  501  0.00000000000E+00  0.00000000000E+00  0.19534131272E+03  0.19534131278E+03  0.50400001928E-02 0. -1.
        1   -1    0    0  501    0  0.00000000000E+00  0.00000000000E+00 -0.10239947307E+04  0.10239947307E+04  0.50400001928E-02 0.  1.
    10030    2    1    2    0    0  0.00000000000E+00  0.00000000000E+00 -0.82865341800E+03  0.12193360435E+04  0.89449086068E+03 0.  0.
        1    1    3    3  502    0  0.54629397586E+02 -0.16483102554E+02  0.19035886507E+03  0.19872735414E+03  0.50400001928E-02 0. -1.
       -1    1    3    3    0  502 -0.54629397586E+02  0.16483102554E+02 -0.10190122831E+04  0.10206086894E+04  0.50400001928E-02 0.  1.
</event>
<event>
 5   0  0.1162839E-02  0.8893337E+03  0.7818609E-02  0.9439014E-01
       -1   -1    0    0    0  501  0.00000000000E+00  0.00000000000E+00  0.29808521275E+03  0.29808521279E+03  0.50400001928E-02 0.  1.
        1   -1    0    0  501    0  0.00000000000E+00  0.00000000000E+00 -0.66332916670E+03  0.66332916672E+03  0.50400001928E-02 0. -1.
    10030    2    1    2    0    0  0.00000000000E+00  0.00000000000E+00 -0.36524395396E+03  0.96141437951E+03  0.88933371871E+03 0.  0.
        2    1    3    3  502    0  0.73598346097E+02 -0.43528624373E+03 -0.12503349645E+03  0.45882916840E+03  0.25500000920E-02 0. -1.
       -2    1    3    3    0  502 -0.73598346097E+02  0.43528624373E+03 -0.24021045751E+03  0.50258521112E+03  0.25500000920E-02 0.  1.
</event>
<event>
 5   0  0.1175993E-02  0.9085603E+03  0.7818609E-02  0.9414943E-01
       -1   -1    0    0    0  501  0.00000000000E+00  0.00000000000E+00  0.10407591538E+04  0.10407591538E+04  0.50400001928E-02 0.  1.
        1   -1    0    0  501    0  0.00000000000E+00  0.00000000000E+00 -0.19828840483E+03  0.19828840489E+03  0.50400001928E-02 0. -1.
    10030    2    1    2    0    0  0.00000000000E+00  0.00000000000E+00  0.84247074896E+03  0.12390475587E+04  0.90856033914E+03 0.  0.
        4    1    3    3  502    0  0.37785278057E+02 -0.38786852206E+03  0.10286764974E+03  0.40305469096E+03  0.12699999809E+01 0. -1.
       -4    1    3    3    0  502 -0.37785278057E+02  0.38786852206E+03  0.73960309922E+03  0.83599286774E+03  0.12699999809E+01 0.  1.
</event>
<event>
 5   0  0.1968763E-02  0.9064108E+03  0.7818609E-02  0.9417603E-01
        2   -1    0    0  501    0  0.00000000000E+00  0.00000000000E+00  0.18176179641E+04  0.18176179641E+04  0.25500000920E-02 0. -1.
       -2   -1    0    0    0  501  0.00000000000E+00  0.00000000000E+00 -0.11300235655E+03  0.11300235658E+03  0.25500000920E-02 0.  1.
    10030    2    1    2    0    0  0.00000000000E+00  0.00000000000E+00  0.17046156076E+04  0.19306203207E+04  0.90641075300E+03 0.  0.
        2    1    3    3  502    0 -0.63797748049E+02 -0.45164523227E+02 -0.98536189495E+02  0.12577506693E+03  0.25500000920E-02 0.  1.
       -2    1    3    3    0  502  0.63797748049E+02  0.45164523227E+02  0.18031517971E+04  0.18048452538E+04  0.25500000920E-02 0. -1.
</event>
<event>
 5   0  0.7893875E-03  0.8973898E+03  0.7818609E-02  0.9428850E-01
       -4   -1    0    0    0  501  0.00000000000E+00  0.00000000000E+00  0.15847469147E+03  0.15847978021E+03  0.12699999809E+01 0.  1.
        4   -1    0    0  501    0  0.00000000000E+00  0.00000000000E+00 -0.12703796562E+04  0.12703802910E+04  0.12699999809E+01 0. -1.
    10030    2    1    2    0    0  0.00000000000E+00  0.00000000000E+00 -0.11119049648E+04  0.14288600712E+04  0.89738979967E+03 0.  0.
        5    1    3    3  502    0 -0.12290532366E+03  0.21579447575E+03 -0.11509307827E+04  0.11774280152E+04  0.46999998093E+01 0. -1.
       -5    1    3    3    0  502  0.12290532366E+03 -0.21579447575E+03  0.39025817962E+02  0.25143205605E+03  0.46999998093E+01 0.  1.
</event>
<event>
 5   0  0.1177712E-02  0.9558405E+03  0.7818609E-02  0.9358350E-01
       -1   -1    0    0    0  501  0.00000000000E+00  0.00000000000E+00  0.32203195106E+03  0.32203195109E+03  0.50400001928E-02 0. -1.
        1   -1    0    0  501    0  0.00000000000E+00  0.00000000000E+00 -0.70927045787E+03  0.70927045789E+03  0.50400001928E-02 0.  1.
    10030    2    1    2    0    0  0.00000000000E+00  0.00000000000E+00 -0.38723850681E+03  0.10313024090E+04  0.95584046661E+03 0.  0.
        5    1    3    3  502    0  0.25464149712E+03 -0.40440324073E+03 -0.19234891464E+03  0.51517421143E+03  0.46999998093E+01 0.  1.
       -5    1    3    3    0  502 -0.25464149712E+03  0.40440324073E+03 -0.19488959217E+03  0.51612819755E+03  0.46999998093E+01 0. -1.
</event>
<event>
 5   0  0.2008770E-02  0.8937093E+03  0.7818609E-02  0.9433479E-01
       -2   -1    0    0    0  501  0.00000000000E+00  0.00000000000E+00  0.85204970533E+03  0.85204970533E+03  0.25500000920E-02 0.  1.
        2   -1    0    0  501    0  0.00000000000E+00  0.00000000000E+00 -0.23435146246E+03  0.23435146247E+03  0.25500000920E-02 0. -1.
    10030    2    1    2    0    0  0.00000000000E+00  0.00000000000E+00  0.61769824287E+03  0.10864011678E+04  0.89370933651E+03 0.  0.
        1    1    3    3  502    0  0.20676149744E+03  0.36533136185E+03  0.49504683764E+03  0.64906755601E+03  0.50400001928E-02 0.  1.
       -1    1    3    3    0  502 -0.20676149744E+03 -0.36533136185E+03  0.12265140524E+03  0.43733361180E+03  0.50400001928E-02 0. -1.
</event>
<event>
 5   0  0.2008770E-02  0.8105661E+03  0.7818609E-02  0.9544848E-01
        2   -1    0    0  501    0  0.00000000000E+00  0.00000000000E+00  0.53403319971E+03  0.53403319972E+03  0.25500000920E-02 0. -1.
       -2   -1    0    0    0  501  0.00000000000E+00  0.00000000000E+00 -0.30757330289E+03  0.30757330290E+03  0.25500000920E-02 0.  1.
    10030    2    1    2    0    0  0.00000000000E+00  0.00000000000E+00  0.22645989682E+03  0.84160650262E+03  0.81056611105E+03 0.  0.
        1    1    3    3  502    0 -0.33110057667E+03 -0.18580652721E+03 -0.33983609958E+02  0.38119095372E+03  0.50400001928E-02 0.  1.
       -1    1    3    3    0  502  0.33110057667E+03  0.18580652721E+03  0.26044350677E+03  0.46041554890E+03  0.50400001928E-02 0. -1.
</event>
<event>
 5   0  0.1968763E-02  0.8885609E+03  0.7818609E-02  0.9439995E-01
       -2   -1    0    0    0  501  0.00000000000E+00  0.00000000000E+00  0.13081723511E+03  0.13081723513E+03  0.25500000920E-02 0. -1.
        2   -1    0    0  501    0  0.00000000000E+00  0.00000000000E+00 -0.15088616170E+04  0.15088616170E+04  0.25500000920E-02 0.  1.
    10030    2    1    2    0    0  0.00000000000E+00  0.00000000000E+00 -0.13780443819E+04  0.16396788522E+04  0.88856087000E+03 0.  0.
        2    1    3    3  502    0  0.13017250083E+03 -0.30040000959E+03 -0.13481134268E+03  0.35406093241E+03  0.25500000920E-02 0. -1.
       -2    1    3    3    0  502 -0.13017250083E+03  0.30040000959E+03 -0.12432330392E+04  0.12856179198E+04  0.25500000920E-02 0.  1.
</event>
<event>
 5   0  0.2041861E-02  0.8976824E+03  0.7818609E-02  0.9428483E-01
       -2   -1    0    0    0  501  0.00000000000E+00  0.00000000000E+00  0.10716732591E+04  0.10716732591E+04  0.25500000920E-02 0. -1.
        2   -1    0    0  501    0  0.00000000000E+00  0.00000000000E+00 -0.18798491956E+03  0.18798491958E+03  0.25500000920E-02 0.  1.
    10030    2    1    2    0    0  0.00000000000E+00  0.00000000000E+00  0.88368833950E+03  0.12596581787E+04  0.89768237460E+03 0.  0.
        5    1    3    3  502    0 -0.16532066424E+03 -0.23624102693E+03  0.92447411575E+03  0.96840860463E+03  0.46999998093E+01 0. -1.
       -5    1    3    3    0  502  0.16532066424E+03  0.23624102693E+03 -0.40785776247E+02  0.29124957402E+03  0.46999998093E+01 0.  1.
</event>
<event>
 5   0  0.1162839E-02  0.9067775E+03  0.7818609E-02  0.9417149E-01
        1   -1    0    0  501    0  0.00000000000E+00  0.00000000000E+00  0.33330031230E+03  0.33330031234E+03  0.50400001928E-02 0. -1.
       -1   -1    0    0    0  501  0.00000000000E+00  0.00000000000E+00 -0.61674521187E+03  0.61674521189E+03  0.50400001928E-02 0.  1.
    10030    2    1    2    0    0  0.00000000000E+00  0.00000000000E+00 -0.28344489957E+03  0.95004552424E+03  0.90677752896E+03 0.  0.
        2    1    3    3  502    0  0.42605411930E+02 -0.43763785810E+03 -0.25753777874E+03  0.50957612135E+03  0.25500000920E-02 0. -1.
       -2    1    3    3    0  502 -0.42605411930E+02  0.43763785810E+03 -0.25907120832E+02  0.44046940289E+03  0.25500000920E-02 0.  1.
</event>
<event>
 5   0  0.2008770E-02  0.8894457E+03  0.7818609E-02  0.9438872E-01
        2   -1    0    0  501    0  0.00000000000E+00  0.00000000000E+00  0.34289925469E+03  0.34289925470E+03  0.25500000920E-02 0.  1.
       -2   -1    0    0    0  501  0.00000000000E+00  0.00000000000E+00 -0.57678292464E+03  0.57678292464E+03  0.25500000920E-02 0. -1.
    10030    2    1    2    0    0  0.00000000000E+00  0.00000000000E+00 -0.23388366995E+03  0.91968217934E+03  0.88944574873E+03 0.  0.
        1    1    3    3  502    0  0.35224723088E+03 -0.24581845857E+03  0.21858804889E+01  0.42954581168E+03  0.50400001928E-02 0.  1.
       -1    1    3    3    0  502 -0.35224723088E+03  0.24581845857E+03 -0.23606955044E+03  0.49013636766E+03  0.50400001928E-02 0. -1.
</event>
<event>
 5   0  0.1226424E-02  0.8849432E+03  0.7818609E-02  0.9444601E-01
       -1   -1    0    0    0  501  0.00000000000E+00  0.00000000000E+00  0.43057390570E+03  0.43057390573E+03  0.50400001928E-02 0.  1.
        1   -1    0    0  501    0  0.00000000000E+00  0.00000000000E+00 -0.45469800718E+03  0.45469800721E+03  0.50400001928E-02 0. -1.
    10030    2    1    2    0    0  0.00000000000E+00  0.00000000000E+00 -0.24124101485E+02  0.88527191294E+03  0.88494315499E+03 0.  0.
        1    1    3    3  502    0  0.12683171538E+03  0.95038874924E+01 -0.43601719049E+03  0.45418894563E+03  0.50400001928E-02 0. -1.
       -1    1    3    3    0  502 -0.12683171538E+03 -0.95038874924E+01  0.41189308901E+03  0.43108296730E+03  0.50400001928E-02 0.  1.
</event>
<event>
 5   0  0.7893875E-03  0.8961651E+03  0.7818609E-02  0.9430388E-01
       -4   -1    0    0    0  501  0.00000000000E+00  0.00000000000E+00  0.11255585968E+04  0.11255593132E+04  0.12699999809E+01 0.  1.
        4   -1    0    0  501    0  0.00000000000E+00  0.00000000000E+00 -0.17837768487E+03  0.17838220584E+03  0.12699999809E+01 0. -1.
    10030    2    1    2    0    0  0.00000000000E+00  0.00000000000E+00  0.94718091189E+03  0.13039415191E+04  0.89616505474E+03 0.  0.
        1    1    3    3  502    0  0.33930499774E+03  0.28378799842E+03  0.57764695935E+03  0.72755722745E+03  0.50400001928E-02 0. -1.
       -1    1    3    3    0  502 -0.33930499774E+03 -0.28378799842E+03  0.36953395254E+03  0.57638429163E+03  0.50400001928E-02 0.  1.
</event>
<event>
 5   0  0.1226424E-02  0.9039825E+03  0.7818609E-02  0.9420617E-01
       -1   -1    0    0    0  501  0.00000000000E+00  0.00000000000E+00  0.23140580264E+03  0.23140580269E+03  0.50400001928E-02 0. -1.
        1   -1    0    0  501    0  0.00000000000E+00  0.00000000000E+00 -0.88284780453E+03  0.88284780455E+03  0.50400001928E-02 0.  1.
    10030    2    1    2    0    0  0.00000000000E+00  0.00000000000E+00 -0.65144200189E+03  0.11142536072E+04  0.90398253270E+03 0.  0.
        1    1    3    3  502    0 -0.25858417284E+03 -0.36876051816E+03 -0.27884940370E+03  0.52972359223E+03  0.50400001928E-02 0. -1.
       -1    1    3    3    0  502  0.25858417284E+03  0.36876051816E+03 -0.37259259820E+03  0.58453001501E+03  0.50400001928E-02 0.  1.
</event>
<event>
 5   0  0.1177712E-02  0.8697280E+03  0.7818609E-02  0.9464235E-01
        1   -1    0    0  501    0  0.00000000000E+00  0.00000000000E+00  0.73913912688E+03  0.73913912690E+03  0.50400001928E-02 0. -1.
       -1   -1    0    0    0  501  0.00000000000E+00  0.00000000000E+00 -0.25584720295E+03  0.25584720300E+03  0.50400001928E-02 0.  1.
    10030    2    1    2    0    0  0.00000000000E+00  0.00000000000E+00  0.48329192393E+03  0.99498632990E+03  0.86972795341E+03 0.  0.
        5    1    3    3  502    0  0.35275575912E+03  0.32036460233E+00  0.53252388597E+03  0.63878048448E+03  0.46999998093E+01 0. -1.
       -5    1    3    3    0  502 -0.35275575912E+03 -0.32036460233E+00 -0.49231962033E+02  0.35620584542E+03  0.46999998093E+01 0.  1.
</event>
<event>
 5   0  0.7893875E-03  0.8911507E+03  0.7818609E-02  0.9436712E-01
        4   -1    0    0  501    0  0.00000000000E+00  0.00000000000E+00  0.16000457021E+03  0.16000961030E+03  0.12699999809E+01 0.  1.
       -4   -1    0    0    0  501  0.00000000000E+00  0.00000000000E+00 -0.12407983704E+04  0.12407990203E+04  0.12699999809E+01 0. -1.
    10030    2    1    2    0    0  0.00000000000E+00  0.00000000000E+00 -0.10807938002E+04  0.14008086306E+04  0.89115070618E+03 0.  0.
        1    1    3    3  502    0 -0.43503556035E+03 -0.38971607248E+02 -0.67889162245E+03  0.80725990858E+03  0.50400001928E-02 0. -1.
       -1    1    3    3    0  502  0.43503556035E+03  0.38971607248E+02 -0.40190217771E+03  0.59354872202E+03  0.50400001928E-02 0.  1.
</event>
<event>
 5   0  0.2008770E-02  0.9072116E+03  0.7818609E-02  0.9416611E-01
       -2   -1    0    0    0  501  0.00000000000E+00  0.00000000000E+00  0.19598196646E+03  0.19598196647E+03  0.25500000920E-02 0. -1.
        2   -1    0    0  501    0  0.00000000000E+00  0.00000000000E+00 -0.10498834209E+04  0.10498834209E+04  0.25500000920E-02 0.  1.
    10030    2    1    2    0    0  0.00000000000E+00  0.00000000000E+00 -0.85390145449E+03  0.12458653874E+04  0.90721159031E+03 0.  0.
        1    1    3    3  502    0 -0.42248800183E+03  0.58172646668E+02 -0.21474263127E+03  0.47748776552E+03  0.50400001928E-02 0. -1.
       -1    1    3    3    0  502  0.42248800183E+03 -0.58172646668E+02 -0.63915882322E+03  0.76837762190E+03  0.50400001928E-02 0.  1.
</event>
<event>
 5   0  0.2008643E-02  0.8988615E+03  0.7818609E-02  0.9427006E-01
        2   -1    0    0  501    0  0.00000000000E+00  0.00000000000E+00  0.72351441608E+03  0.72351441608E+03  0.25500000920E-02 0. -1.
       -2   -1    0    0    0  501  0.00000000000E+00  0.00000000000E+00 -0.27917622030E+03  0.27917622031E+03  0.25500000920E-02 0.  1.
    10030    2    1    2    0    0  0.00000000000E+00  0.00000000000E+00  0.44433819578E+03  0.10026906364E+04  0.89886154668E+03 0.  0.
        3    1    3    3  502    0 -0.79449000453E+02 -0.14167681258E+03 -0.24528696775E+03  0.29419410199E+03  0.10100000352E+00 0.  1.
       -3    1    3    3    0  502  0.79449000453E+02  0.14167681258E+03  0.68962516353E+03  0.70849653441E+03  0.10100000352E+00 0. -1.
</event>
<event>
 5   0  0.1226424E-02  0.8362200E+03  0.7818609E-02  0.9509021E-01
       -1   -1    0    0    0  501  0.00000000000E+00  0.00000000000E+00  0.26765080656E+03  0.26765080661E+03  0.50400001928E-02 0. -1.
        1   -1    0    0  501    0  0.00000000000E+00  0.00000000000E+00 -0.65314946095E+03  0.65314946097E+03  0.50400001928E-02 0.  1.
    10030    2    1    2    0    0  0.00000000000E+00  0.00000000000E+00 -0.38549865439E+03  0.92080026758E+03  0.83622001904E+03 0.  0.
        1    1    3    3  502    0  0.26098725560E+03  0.19984598898E+03  0.91771125816E+02  0.34128390887E+03  0.50400001928E-02 0.  1.
       -1    1    3    3    0  502 -0.26098725560E+03 -0.19984598898E+03 -0.47726978020E+03  0.57951635871E+03  0.50400001928E-02 0. -1.
</event>
<event>
 5   0  0.1162839E-02  0.8934644E+03  0.7818609E-02  0.9433788E-01
       -1   -1    0    0    0  501  0.00000000000E+00  0.00000000000E+00  0.11073069083E+04  0.11073069083E+04  0.50400001928E-02 0. -1.
        1   -1    0    0  501    0  0.00000000000E+00  0.00000000000E+00 -0.18022975880E+03  0.18022975887E+03  0.50400001928E-02 0.  1.
    10030    2    1    2    0    0  0.00000000000E+00  0.00000000000E+00  0.92707714947E+03  0.12875366671E+04  0.89346439671E+03 0.  0.
        2    1    3    3  502    0 -0.64486798489E+02 -0.16587521594E+03  0.10540158733E+04  0.10689352626E+04  0.25500000920E-02 0. -1.
       -2    1    3    3    0  502  0.64486798489E+02  0.16587521594E+03 -0.12693872385E+03  0.21860140453E+03  0.25500000920E-02 0.  1.
</event>
<event>
 5   0  0.7893875E-03  0.9649879E+03  0.7818609E-02  0.9347802E-01
       -3   -1    0    0    0  501  0.00000000000E+00  0.00000000000E+00  0.40828694443E+03  0.40828695693E+03  0.10100000352E+00 0. -1.
        3   -1    0    0  501    0  0.00000000000E+00  0.00000000000E+00 -0.57018821930E+03  0.57018822824E+03  0.10100000352E+00 0.  1.
    10030    2    1    2    0    0  0.00000000000E+00  0.00000000000E+00 -0.16190127486E+03  0.97847518517E+03  0.96498790935E+03 0.  0.
        2    1    3    3  502    0 -0.17716793527E+03 -0.39203457648E+03 -0.30245482335E+03  0.52588830241E+03  0.25500000920E-02 0.  1.
       -2    1    3    3    0  502  0.17716793527E+03  0.39203457648E+03  0.14055354849E+03  0.45258688275E+03  0.25500000920E-02 0. -1.
</event>
<event>
 5   0  0.1175993E-02  0.9002185E+03  0.7818609E-02  0.9425308E-01
       -1   -1    0    0    0  501  0.00000000000E+00  0.00000000000E+00  0.85866763683E+02  0.85866763831E+02  0.50400001928E-02 0. -1.
        1   -1    0    0  501    0  0.00000000000E+00  0.00000000000E+00 -0.23594501157E+04  0.23594501157E+04  0.50400001928E-02 0.  1.
    10030    2    1    2    0    0  0.00000000000E+00  0.00000000000E+00 -0.22735833521E+04  0.24453168796E+04  0.90021851947E+03 0.  0.
        4    1    3    3  502    0  0.10795617791E+03 -0.40493124372E+03 -0.15829108582E+04  0.16374468683E+04  0.12699999809E+01 0.  1.
       -4    1    3    3    0  502 -0.10795617791E+03  0.40493124372E+03 -0.69067249382E+03  0.80787001127E+03  0.12699999809E+01 0. -1.
</event>
<event>
 5   0  0.1162839E-02  0.9078009E+03  0.7818609E-02  0.9415882E-01
        1   -1    0    0  501    0  0.00000000000E+00  0.00000000000E+00  0.59165353611E+03  0.59165353613E+03  0.50400001928E-02 0. -1.
       -1   -1    0    0    0  501  0.00000000000E+00  0.00000000000E+00 -0.34822000758E+03  0.34822000761E+03  0.50400001928E-02 0.  1.
    10030    2    1    2    0    0  0.00000000000E+00  0.00000000000E+00  0.24343352853E+03  0.93987354374E+03  0.90780085669E+03 0.  0.
        2    1    3    3  502    0  0.28402189766E+03 -0.29661425538E+03  0.32187888491E+03  0.52178009870E+03  0.25500000920E-02 0.  1.
       -2    1    3    3    0  502 -0.28402189766E+03  0.29661425538E+03 -0.78445356384E+02  0.41809344504E+03  0.25500000920E-02 0. -1.
</event>
<event>
 5   0  0.1206541E-02  0.8541465E+03  0.7818609E-02  0.9484788E-01
        1   -1    0    0  501    0  0.00000000000E+00  0.00000000000E+00  0.69014506699E+03  0.69014506701E+03  0.50400001928E-02 0. -1.
       -1   -1    0    0    0  501  0.00000000000E+00  0.00000000000E+00 -0.26428005622E+03  0.26428005626E+03  0.50400001928E-02 0.  1.
    10030    2    1    2    0    0  0.00000000000E+00  0.00000000000E+00  0.42586501078E+03  0.95442512327E+03  0.85414653809E+03 0.  0.
        3    1    3    3  502    0 -0.32762265961E+03  0.46790440289E+02 -0.88694896836E+02  0.34262625018E+03  0.10100000352E+00 0.  1.
       -3    1    3    3    0  502  0.32762265961E+03 -0.46790440289E+02  0.51455990761E+03  0.61179887309E+03  0.10100000352E+00 0. -1.
</event>
<event>
 5   0  0.2008770E-02  0.9067085E+03  0.7818609E-02  0.9417234E-01
        2   -1    0    0  501    0  0.00000000000E+00  0.00000000000E+00  0.93834836290E+03  0.93834836290E+03  0.25500000920E-02 0.  1.
       -2   -1    0    0    0  501  0.00000000000E+00  0.00000000000E+00 -0.21903388250E+03  0.21903388252E+03  0.25500000920E-02 0. -1.
    10030    2    1    2    0    0  0.00000000000E+00  0.00000000000E+00  0.71931448040E+03  0.11573822454E+04  0.90670852004E+03 0.  0.
        1    1    3    3  502    0 -0.10605247026E+03 -0.18855539428E+02 -0.20246237092E+03  0.22933309722E+03  0.50400001928E-02 0. -1.
       -1    1    3    3    0  502  0.10605247026E+03  0.18855539428E+02  0.92177685132E+03  0.92804914820E+03  0.50400001928E-02 0.  1.
</event>
<event>
 5   0  0.1177712E-02  0.9350405E+03  0.7818609E-02  0.9382809E-01
       -1   -1    0    0    0  501  0.00000000000E+00  0.00000000000E+00  0.51156639042E+03  0.51156639044E+03  0.50400001928E-02 0. -1.
        1   -1    0    0  501    0  0.00000000000E+00  0.00000000000E+00 -0.42726654923E+03  0.42726654926E+03  0.50400001928E-02 0.  1.
    10030    2    1    2    0    0  0.00000000000E+00  0.00000000000E+00  0.84299841186E+02  0.93883293970E+03  0.93504054749E+03 0.  0.
        5    1    3    3  502    0  0.96670865401E+02 -0.21763547856E+03 -0.36177846761E+03  0.43314686582E+03  0.46999998093E+01 0.  1.
       -5    1    3    3    0  502 -0.96670865401E+02  0.21763547856E+03  0.44607830879E+03  0.50568607388E+03  0.46999998093E+01 0. -1.
</event>
<event>
 5   0  0.1968763E-02  0.8580360E+03  0.7818609E-02  0.9479614E-01
        2   -1    0    0  501    0  0.00000000000E+00  0.00000000000E+00  0.13078782876E+03  0.13078782879E+03  0.25500000920E-02 0. -1.
       -2   -1    0    0    0  501  0.00000000000E+00  0.00000000000E+00 -0.14072904381E+04  0.14072904381E+04  0.25500000920E-02 0.  1.
    10030    2    1    2    0    0  0.00000000000E+00  0.00000000000E+00 -0.12765026093E+04  0.15380782669E+04  0.85803603853E+03 0.  0.
        2    1    3    3  502    0 -0.18885661171E+03  0.14099903577E+03  0.43469349672E+01  0.23572535656E+03  0.25500000920E-02 0. -1.
       -2    1    3    3    0  502  0.18885661171E+03 -0.14099903577E+03 -0.12808495443E+04  0.13023529103E+04  0.25500000920E-02 0.  1.
</event>
<event>
 5   0  0.1162839E-02  0.9241760E+03  0.7818609E-02  0.9395855E-01
        1   -1    0    0  501    0  0.00000000000E+00  0.00000000000E+00  0.10277762449E+04  0.10277762449E+04  0.50400001928E-02 0. -1.
       -1   -1    0    0    0  501  0.00000000000E+00  0.00000000000E+00 -0.20775466460E+03  0.20775466466E+03  0.50400001928E-02 0.  1.
    10030    2    1    2    0    0  0.00000000000E+00  0.00000000000E+00  0.82002158034E+03  0.12355309096E+04  0.92417597696E+03 0.  0.
        2    1    3    3  502    0  0.14351327635E+03  0.14760032940E+03  0.96307939505E+03  0.98483696057E+03  0.25500000920E-02 0. -1.
       -2    1    3    3    0  502 -0.14351327635E+03 -0.14760032940E+03 -0.14305781471E+03  0.25069394904E+03  0.25500000920E-02 0.  1.
</event>
<event>
 5   0  0.2008643E-02  0.8853806E+03  0.7818609E-02  0.9444043E-01
       -2   -1    0    0    0  501  0.00000000000E+00  0.00000000000E+00  0.25002528544E+03  0.25002528546E+03  0.25500000920E-02 0. -1.
        2   -1    0    0  501    0  0.00000000000E+00  0.00000000000E+00 -0.78381944224E+03  0.78381944224E+03  0.25500000920E-02 0.  1.
    10030    2    1    2    0    0  0.00000000000E+00  0.00000000000E+00 -0.53379415680E+03  0.10338447277E+04  0.88538055048E+03 0.  0.
        3    1    3    3  502    0  0.23030868470E+03  0.16551767616E+03 -0.66380055453E+03  0.72185135434E+03  0.10100000352E+00 0.  1.
       -3    1    3    3    0  502 -0.23030868470E+03 -0.16551767616E+03  0.13000639773E+03  0.31199337336E+03  0.10100000352E+00 0. -1.
</event>
<event>
 5   0  0.1226424E-02  0.8790940E+03  0.7818609E-02  0.9452099E-01
       -1   -1    0    0    0  501  0.00000000000E+00  0.00000000000E+00  0.85605688651E+02  0.85605688799E+02  0.50400001928E-02 0. -1.
        1   -1    0    0  501    0  0.00000000000E+00  0.00000000000E+00 -0.22568775322E+04  0.22568775322E+04  0.50400001928E-02 0.  1.
    10030    2    1    2    0    0  0.00000000000E+00  0.00000000000E+00 -0.21712718435E+04  0.23424832210E+04  0.87909397796E+03 0.  0.
        1    1    3    3  502    0  0.35403102428E+03  0.10262298254E+03 -0.17236645370E+04  0.17626369107E+04  0.50400001928E-02 0.  1.
       -1    1    3    3    0  502 -0.35403102428E+03 -0.10262298254E+03 -0.44760730650E+03  0.57984631029E+03  0.50400001928E-02 0. -1.
</event>
<event>
 5   0  0.2008643E-02  0.1020090E+04  0.7818609E-02  0.9286781E-01
       -2   -1    0    0    0  501  0.00000000000E+00  0.00000000000E+00  0.43543549578E+03  0.43543549579E+03  0.25500000920E-02 0. -1.
        2   -1    0    0  501    0  0.00000000000E+00  0.00000000000E+00 -0.59743829737E+03  0.59743829737E+03  0.25500000920E-02 0.  1.
    10030    2    1    2    0    0  0.00000000000E+00  0.00000000000E+00 -0.16200280159E+03  0.10328737932E+04  0.10200898808E+04 0.  0.
        3    1    3    3  502    0 -0.86284306100E+02  0.42779934243E+03 -0.34829564200E+03  0.55836110475E+03  0.10100000352E+00 0.  1.
       -3    1    3    3    0  502  0.86284306100E+02 -0.42779934243E+03  0.18629284042E+03  0.47451268840E+03  0.10100000352E+00 0. -1.
</event>
<event>
 5   0  0.1206541E-02  0.9008771E+03  0.7818609E-02  0.9424486E-01
       -1   -1    0    0    0  501  0.00000000000E+00  0.00000000000E+00  0.18742876897E+03  0.18742876904E+03  0.50400001928E-02 0.  1.
        1   -1    0    0  501    0  0.00000000000E+00  0.00000000000E+00 -0.10825173287E+04  0.10825173287E+04  0.50400001928E-02 0. -1.
    10030    2    1    2    0    0  0.00000000000E+00  0.00000000000E+00 -0.89508855972E+03  0.12699460977E+04  0.90087710673E+03 0.  0.
        3    1    3    3  502    0 -0.41657719447E+03 -0.13652744870E+03 -0.59348897124E+03  0.73783837823E+03  0.10100000352E+00 0. -1.
       -3    1    3    3    0  502  0.41657719447E+03  0.13652744870E+03 -0.30159958848E+03  0.53210771952E+03  0.10100000352E+00 0.  1.
</event>
<event>
 5   0  0.1177712E-02  0.7589682E+03  0.7818609E-02  0.9621385E-01
        1   -1    0    0  501    0  0.00000000000E+00  0.00000000000E+00  0.63271557903E+03  0.63271557905E+03  0.50400001928E-02 0.  1.
       -1   -1    0    0    0  501  0.00000000000E+00  0.00000000000E+00 -0.22760336182E+03  0.22760336187E+03  0.50400001928E-02 0. -1.
    10030    2    1    2    0    0  0.00000000000E+00  0.00000000000E+00  0.40511221722E+03  0.86031894093E+03  0.75896822831E+03 0.  0.
        5    1    3    3  502    0 -0.15018013918E+03 -0.83079528773E+02 -0.18105853652E+03  0.24952067239E+03  0.46999998093E+01 0. -1.
       -5    1    3    3    0  502  0.15018013918E+03  0.83079528773E+02  0.58617075374E+03  0.61079826853E+03  0.46999998093E+01 0.  1.
</event>
<event>
 5   0  0.1206541E-02  0.8976770E+03  0.7818609E-02  0.9428490E-01
       -1   -1    0    0    0  501  0.00000000000E+00  0.00000000000E+00  0.20343205213E+03  0.20343205219E+03  0.50400001928E-02 0. -1.
        1   -1    0    0  501    0  0.00000000000E+00  0.00000000000E+00 -0.99028635512E+03  0.99028635514E+03  0.50400001928E-02 0.  1.
    10030    2    1    2    0    0  0.00000000000E+00  0.00000000000E+00 -0.78685430300E+03  0.11937184073E+04  0.89767696965E+03 0.  0.
        3    1    3    3  502    0 -0.23437134131E+03 -0.50501175730E+01 -0.90240798559E+03  0.93236023723E+03  0.10100000352E+00 0.  1.
       -3    1    3    3    0  502  0.23437134131E+03  0.50501175730E+01  0.11555368259E+03  0.26135817010E+03  0.10100000352E+00 0. -1.
</event>
<event>
 5   0  0.2041861E-02  0.9013602E+03  0.7818609E-02  0.9423883E-01
        2   -1    0    0  501    0  0.00000000000E+00  0.00000000000E+00  0.37724806331E+03  0.37724806332E+03  0.25500000920E-02 0. -1.
       -2   -1    0    0    0  501  0.00000000000E+00  0.00000000000E+00 -0.53840581680E+03  0.53840581681E+03  0.25500000920E-02 0.  1.
    10030    2    1    2    0    0  0.00000000000E+00  0.00000000000E+00 -0.16115775349E+03  0.91565388013E+03  0.90136019808E+03 0.  0.
        5    1    3    3  502    0 -0.37346253310E+03 -0.24282824186E+03 -0.11301814216E+02  0.44563397501E+03  0.46999998093E+01 0. -1.
       -5    1    3    3    0  502  0.37346253310E+03  0.24282824186E+03 -0.14985593928E+03  0.47001990512E+03  0.46999998093E+01 0.  1.
</event>
<event>
 5   0  0.2008770E-02  0.6862642E+03  0.7818609E-02  0.9741015E-01
        2   -1    0    0  501    0  0.00000000000E+00  0.00000000000E+00  0.17705230457E+03  0.17705230459E+03  0.25500000920E-02 0.  1.
       -2   -1    0    0    0  501  0.00000000000E+00  0.00000000000E+00 -0.66499924966E+03  0.66499924967E+03  0.25500000920E-02 0. -1.
    10030    2    1    2    0    0  0.00000000000E+00  0.00000000000E+00 -0.48794694509E+03  0.84205155426E+03  0.68626423395E+03 0.  0.
        1    1    3    3  502    0 -0.17043173504E+03 -0.27227774939E+03 -0.39201744299E+03  0.50681340231E+03  0.50400001928E-02 0. -1.
       -1    1    3    3    0  502  0.17043173504E+03  0.27227774939E+03 -0.95929502104E+02  0.33523815195E+03  0.50400001928E-02 0.  1.
</event>
<event>
 5   0  0.2008770E-02  0.9224098E+03  0.7818609E-02  0.9397994E-01
       -2   -1    0    0    0  501  0.00000000000E+00  0.00000000000E+00  0.16854876677E+03  0.16854876679E+03  0.25500000920E-02 0.  1.
        2   -1    0    0  501    0  0.00000000000E+00  0.00000000000E+00 -0.12620083876E+04  0.12620083876E+04  0.25500000920E-02 0. -1.
    10030    2    1    2    0    0  0.00000000000E+00  0.00000000000E+00 -0.10934596208E+04  0.14305571544E+04  0.92240979481E+03 0.  0.
        1    1    3    3  502    0  0.86244205066E+02  0.11335219285E+03  0.13358510967E+03  0.19527356217E+03  0.50400001928E-02 0.  1.
       -1    1    3    3    0  502 -0.86244205066E+02 -0.11335219285E+03 -0.12270447305E+04  0.12352835922E+04  0.50400001928E-02 0. -1.
</event>
<event>
 5   0  0.1162839E-02  0.8708484E+03  0.7818609E-02  0.9462774E-01
       -1   -1    0    0    0  501  0.00000000000E+00  0.00000000000E+00  0.33615822193E+03  0.33615822197E+03  0.50400001928E-02 0. -1.
        1   -1    0    0  501    0  0.00000000000E+00  0.00000000000E+00 -0.56400300623E+03  0.56400300625E+03  0.50400001928E-02 0.  1.
    10030    2    1    2    0    0  0.00000000000E+00  0.00000000000E+00 -0.22784478430E+03  0.90016122822E+03  0.87084843174E+03 0.  0.
        2    1    3    3  502    0 -0.32818469643E+03  0.18358207751E+03  0.11298111188E+03  0.39264781395E+03  0.25500000920E-02 0. -1.
       -2    1    3    3    0  502  0.32818469643E+03 -0.18358207751E+03 -0.34082589618E+03  0.50751341427E+03  0.25500000920E-02 0.  1.
</event>
<event>
 5   0  0.2041861E-02  0.8755570E+03  0.7818609E-02  0.9456663E-01
       -2   -1    0    0    0  501  0.00000000000E+00  0.00000000000E+00  0.27016253862E+03  0.27016253863E+03  0.25500000920E-02 0. -1.
        2   -1    0    0  501    0  0.00000000000E+00  0.00000000000E+00 -0.70938782688E+03  0.70938782689E+03  0.25500000920E-02 0.  1.
    10030    2    1    2    0    0  0.00000000000E+00  0.00000000000E+00 -0.43922528826E+03  0.97955036552E+03  0.87555700257E+03 0.  0.
        5    1    3    3  502    0 -0.62026707905E+02  0.25767299221E+03 -0.60939779546E+03  0.66455281695E+03  0.46999998093E+01 0.  1.
       -5    1    3    3    0  502  0.62026707905E+02 -0.25767299221E+03  0.17017250719E+03  0.31499754858E+03  0.46999998093E+01 0. -1.
</event>
<event>
 5   0  0.1968763E-02  0.9046534E+03  0.7818609E-02  0.9419783E-01
       -2   -1    0    0    0  501  0.00000000000E+00  0.00000000000E+00  0.13683912083E+03  0.13683912086E+03  0.25500000920E-02 0.  1.
        2   -1    0    0  501    0  0.00000000000E+00  0.00000000000E+00 -0.14951824406E+04  0.14951824406E+04  0.25500000920E-02 0. -1.
    10030    2    1    2    0    0  0.00000000000E+00  0.00000000000E+00 -0.13583433198E+04  0.16320215615E+04  0.90465341580E+03 0.  0.
        2    1    3    3  502    0 -0.16318711594E+03 -0.41425710978E+03 -0.53529576920E+03  0.69626183893E+03  0.25500000920E-02 0.  1.
       -2    1    3    3    0  502  0.16318711594E+03  0.41425710978E+03 -0.82304755055E+03  0.93575972252E+03  0.25500000920E-02 0. -1.
</event>
<event>
 5   0  0.1177712E-02  0.8531297E+03  0.7818609E-02  0.9486146E-01
       -1   -1    0    0    0  501  0.00000000000E+00  0.00000000000E+00  0.14117934859E+03  0.14117934868E+03  0.50400001928E-02 0.  1.
        1   -1    0    0  501    0  0.00000000000E+00  0.00000000000E+00 -0.12888397064E+04  0.12888397064E+04  0.50400001928E-02 0. -1.
    10030    2    1    2    0    0  0.00000000000E+00  0.00000000000E+00 -0.11476603578E+04  0.14300190551E+04  0.85312965077E+03 0.  0.
        5    1    3    3  502    0  0.35643227755E+03  0.18418039622E+03 -0.33110411769E+03  0.52020997067E+03  0.46999998093E+01 0.  1.
       -5    1    3    3    0  502 -0.35643227755E+03 -0.18418039622E+03 -0.81655624007E+03  0.90980908439E+03  0.46999998093E+01 0. -1.
</event>
<event>
 5   0  0.1175993E-02  0.9229393E+03  0.7818609E-02  0.9397352E-01
       -1   -1    0    0    0  501  0.00000000000E+00  0.00000000000E+00  0.47296578020E+03  0.47296578022E+03  0.50400001928E-02 0. -1.
        1   -1    0    0  501    0  0.00000000000E+00  0.00000000000E+00 -0.45025292425E+03  0.45025292428E+03  0.50400001928E-02 0.  1.
    10030    2    1    2    0    0  0.00000000000E+00  0.00000000000E+00  0.22712855947E+02  0.92321870450E+03  0.92293927347E+03 0.  0.
        4    1    3    3  502    0 -0.90547561987E+02 -0.33853624191E+03 -0.28897931597E+03  0.45422054778E+03  0.12699999809E+01 0.  1.
       -4    1    3    3    0  502  0.90547561987E+02  0.33853624191E+03  0.31169217192E+03  0.46899815672E+03  0.12699999809E+01 0. -1.
</event>
<event>
 5   0  0.1206541E-02  0.8999801E+03  0.7818609E-02  0.9425606E-01
       -1   -1    0    0    0  501  0.00000000000E+00  0.00000000000E+00  0.74617042562E+03  0.74617042564E+03  0.50400001928E-02 0.  1.
        1   -1    0    0  501    0  0.00000000000E+00  0.00000000000E+00 -0.27137373927E+03  0.27137373932E+03  0.50400001928E-02 0. -1.
    10030    2    1    2    0    0  0.00000000000E+00  0.00000000000E+00  0.47479668635E+03  0.10175441650E+04  0.89998012994E+03 0.  0.
        3    1    3    3  502    0  0.35473647482E+02 -0.31779466738E+03  0.59536220299E+03  0.67580174107E+03  0.10100000352E+00 0.  1.
       -3    1    3    3    0  502 -0.35473647482E+02  0.31779466738E+03 -0.12056551664E+03  0.34174242389E+03  0.10100000352E+00 0. -1.
</event>
<event>
 5   0  0.1206541E-02  0.9010525E+03  0.7818609E-02  0.9424267E-01
        1   -1    0    0  501    0  0.00000000000E+00  0.00000000000E+00  0.70478607716E+03  0.70478607718E+03  0.50400001928E-02 0. -1.
       -1   -1    0    0    0  501  0.00000000000E+00  0.00000000000E+00 -0.28799365110E+03  0.28799365115E+03  0.50400001928E-02 0.  1.
    10030    2    1    2    0    0  0.00000000000E+00  0.00000000000E+00  0.41679242605E+03  0.99277972832E+03  0.90105253041E+03 0.  0.
        3    1    3    3  502    0 -0.65113024499E+01 -0.15980253231E+03 -0.25566263764E+03  0.30156697578E+03  0.10100000352E+00 0.  1.
       -3    1    3    3    0  502  0.65113024499E+01  0.15980253231E+03  0.67245506369E+03  0.69121275255E+03  0.10100000352E+00 0. -1.
</event>
<event>
 5   0  0.1968763E-02  0.9326141E+03  0.7818609E-02  0.9385706E-01
        2   -1    0    0  501    0  0.00000000000E+00  0.00000000000E+00  0.67233207095E+03  0.67233207096E+03  0.25500000920E-02 0. -1.
       -2   -1    0    0    0  501  0.00000000000E+00  0.00000000000E+00 -0.32341495457E+03  0.32341495458E+03  0.25500000920E-02 0.  1.
    10030    2    1    2    0    0  0.00000000000E+00  0.00000000000E+00  0.34891711639E+03  0.99574702553E+03  0.93261405992E+03 0.  0.
        2    1    3    3  502    0  0.32677278473E+02  0.43045173908E+02  0.66897703980E+03  0.67115644325E+03  0.25500000920E-02 0. -1.
       -2    1    3    3    0  502 -0.32677278473E+02 -0.43045173908E+02 -0.32005992342E+03  0.32459058229E+03  0.25500000920E-02 0.  1.
</event>
<event>
 5   0  0.1968763E-02  0.9022612E+03  0.7818609E-02  0.9422759E-01
       -2   -1    0    0    0  501  0.00000000000E+00  0.00000000000E+00  0.89062170825E+03  0.89062170826E+03  0.25500000920E-02 0. -1.
        2   -1    0    0  501    0  0.00000000000E+00  0.00000000000E+00 -0.22851321468E+03  0.22851321470E+03  0.25500000920E-02 0.  1.
    10030    2    1    2    0    0  0.00000000000E+00  0.00000000000E+00  0.66210849357E+03  0.11191349230E+04  0.90226122521E+03 0.  0.
        2    1    3    3  502    0  0.42846920409E+03  0.34870060880E+01  0.15598749736E+03  0.45599354974E+03  0.25500000920E-02 0. -1.
       -2    1    3    3    0  502 -0.42846920409E+03 -0.34870060880E+01  0.50612099621E+03  0.66314137322E+03  0.25500000920E-02 0.  1.
</event>
<event>
 5   0  0.1175993E-02  0.8776159E+03  0.7818609E-02  0.9454004E-01
        1   -1    0    0  501    0  0.00000000000E+00  0.00000000000E+00  0.38439435356E+03  0.38439435359E+03  0.50400001928E-02 0. -1.
       -1   -1    0    0    0  501  0.00000000000E+00  0.00000000000E+00 -0.50092411183E+03  0.50092411186E+03  0.50400001928E-02 0.  1.
    10030    2    1    2    0    0  0.00000000000E+00  0.00000000000E+00 -0.11652975828E+03  0.88531846545E+03  0.87761586170E+03 0.  0.
        4    1    3    3  502    0  0.26634151051E+03  0.61319676607E+02 -0.40457498618E+03  0.48824218918E+03  0.12699999809E+01 0.  1.
       -4    1    3    3    0  502 -0.26634151051E+03 -0.61319676607E+02  0.28804522790E+03  0.39707627627E+03  0.12699999809E+01 0. -1.
</event>
<event>
 5   0  0.1226424E-02  0.8941961E+03  0.7818609E-02  0.9432866E-01
        1   -1    0    0  501    0  0.00000000000E+00  0.00000000000E+00  0.33565283478E+03  0.33565283482E+03  0.50400001928E-02 0. -1.
       -1   -1    0    0    0  501  0.00000000000E+00  0.00000000000E+00 -0.59554592886E+03  0.59554592888E+03  0.50400001928E-02 0.  1.
    10030    2    1    2    0    0  0.00000000000E+00  0.00000000000E+00 -0.25989309407E+03  0.93119876370E+03  0.89419612902E+03 0.  0.
        1    1    3    3  502    0  0.43778845200E+03  0.69192096789E+02 -0.68775685320E+02  0.44852688869E+03  0.50400001928E-02 0.  1.
       -1    1    3    3    0  502 -0.43778845200E+03 -0.69192096789E+02 -0.19111740875E+03  0.48267187500E+03  0.50400001928E-02 0. -1.
</event>
<event>
 5   0  0.1175993E-02  0.8968781E+03  0.7818609E-02  0.9429492E-01
        1   -1    0    0  501    0  0.00000000000E+00  0.00000000000E+00  0.60546839830E+03  0.60546839832E+03  0.50400001928E-02 0. -1.
       -1   -1    0    0    0  501  0.00000000000E+00  0.00000000000E+00 -0.33213557259E+03  0.33213557263E+03  0.50400001928E-02 0.  1.
    10030    2    1    2    0    0  0.00000000000E+00  0.00000000000E+00  0.27333282571E+03  0.93760397095E+03  0.89687812591E+03 0.  0.
        4    1    3    3  502    0  0.28771269263E+01  0.37726494219E+03  0.39007580554E+03  0.54267657167E+03  0.12699999809E+01 0. -1.
       -4    1    3    3    0  502 -0.28771269263E+01 -0.37726494219E+03 -0.11674297983E+03  0.39492739929E+03  0.12699999809E+01 0.  1.
</event>
<event>
 5   0  0.7893875E-03  0.9892788E+03  0.7818609E-02  0.9320382E-01
        3   -1    0    0  501    0  0.00000000000E+00  0.00000000000E+00  0.60498737300E+03  0.60498738143E+03  0.10100000352E+00 0.  1.
       -3   -1    0    0    0  501  0.00000000000E+00  0.00000000000E+00 -0.40441857583E+03  0.40441858844E+03  0.10100000352E+00 0. -1.
    10030    2    1    2    0    0  0.00000000000E+00  0.00000000000E+00  0.20056879717E+03  0.10094059699E+04  0.98927881288E+03 0.  0.
        5    1    3    3  502    0 -0.37399943600E+03  0.82279079723E+02  0.41970401865E+03  0.56817160995E+03  0.46999998093E+01 0.  1.
       -5    1    3    3    0  502  0.37399943600E+03 -0.82279079723E+02 -0.21913522147E+03  0.44123435992E+03  0.46999998093E+01 0. -1.
</event>
<event>
 5   0  0.7893875E-03  0.9030753E+03  0.7818609E-02  0.9421745E-01
        3   -1    0    0  501    0  0.00000000000E+00  0.00000000000E+00  0.80301584959E+03  0.80301585594E+03  0.10100000352E+00 0. -1.
       -3   -1    0    0    0  501  0.00000000000E+00  0.00000000000E+00 -0.25390064880E+03  0.25390066889E+03  0.10100000352E+00 0.  1.
    10030    2    1    2    0    0  0.00000000000E+00  0.00000000000E+00  0.54911520079E+03  0.10569165248E+04  0.90307532173E+03 0.  0.
        4    1    3    3  502    0 -0.25407654473E+03  0.35796427237E+03  0.39836815514E+03  0.59278335908E+03  0.12699999809E+01 0.  1.
       -4    1    3    3    0  502  0.25407654473E+03 -0.35796427237E+03  0.15074704565E+03  0.46413316574E+03  0.12699999809E+01 0. -1.
</event>
<event>
 5   0  0.1177712E-02  0.5551143E+03  0.7818609E-02  0.1000317E+00
       -1   -1    0    0    0  501  0.00000000000E+00  0.00000000000E+00  0.68936805756E+02  0.68936805940E+02  0.50400001928E-02 0.  1.
        1   -1    0    0  501    0  0.00000000000E+00  0.00000000000E+00 -0.11175160220E+04  0.11175160221E+04  0.50400001928E-02 0. -1.
    10030    2    1    2    0    0  0.00000000000E+00  0.00000000000E+00 -0.10485792163E+04  0.11864528280E+04  0.55511434878E+03 0.  0.
        5    1    3    3  502    0  0.18880426724E+03 -0.20048729393E+03 -0.45106711955E+03  0.52851285954E+03  0.46999998093E+01 0.  1.
       -5    1    3    3    0  502 -0.18880426724E+03  0.20048729393E+03 -0.59751209673E+03  0.65793996846E+03  0.46999998093E+01 0. -1.
</event>
<event>
 5   0  0.1924218E-02  0.9078251E+03  0.7818609E-02  0.9415852E-01
       -2   -1    0    0    0  501  0.00000000000E+00  0.00000000000E+00  0.65324198427E+03  0.65324198428E+03  0.25500000920E-02 0.  1.
        2   -1    0    0  501    0  0.00000000000E+00  0.00000000000E+00 -0.31540624227E+03  0.31540624228E+03  0.25500000920E-02 0. -1.
    10030    2    1    2    0    0  0.00000000000E+00  0.00000000000E+00  0.33783574201E+03  0.96864822655E+03  0.90782509231E+03 0.  0.
        4    1    3    3  502    0 -0.67572826132E+02  0.44301220082E+03  0.24592746348E+03  0.51118277270E+03  0.12699999809E+01 0.  1.
       -4    1    3    3    0  502  0.67572826132E+02 -0.44301220082E+03  0.91908278531E+02  0.45746545386E+03  0.12699999809E+01 0. -1.
</event>
<event>
 5   0  0.2008643E-02  0.8841829E+03  0.7818609E-02  0.9445572E-01
        2   -1    0    0  501    0  0.00000000000E+00  0.00000000000E+00  0.13570063606E+04  0.13570063606E+04  0.25500000920E-02 0.  1.
       -2   -1    0    0    0  501  0.00000000000E+00  0.00000000000E+00 -0.14402646470E+03  0.14402646472E+03  0.25500000920E-02 0. -1.
    10030    2    1    2    0    0  0.00000000000E+00  0.00000000000E+00  0.12129798959E+04  0.15010328253E+04  0.88418285148E+03 0.  0.
        3    1    3    3  502    0  0.74707668673E+02  0.26600653493E+03  0.11923737202E+04  0.12239672427E+04  0.10100000352E+00 0.  1.
       -3    1    3    3    0  502 -0.74707668673E+02 -0.26600653493E+03  0.20606175675E+02  0.27706558260E+03  0.10100000352E+00 0. -1.
</event>
<event>
 5   0  0.2008770E-02  0.9572404E+03  0.7818609E-02  0.9356727E-01
        2   -1    0    0  501    0  0.00000000000E+00  0.00000000000E+00  0.25558126233E+03  0.25558126234E+03  0.25500000920E-02 0.  1.
       -2   -1    0    0    0  501  0.00000000000E+00  0.00000000000E+00 -0.89629921786E+03  0.89629921786E+03  0.25500000920E-02 0. -1.
    10030    2    1    2    0    0  0.00000000000E+00  0.00000000000E+00 -0.64071795553E+03  0.11518804802E+04  0.95724037845E+03 0.  0.
        1    1    3    3  502    0 -0.63229245628E+02 -0.91192220563E+02 -0.88060568534E+03  0.88756990241E+03  0.50400001928E-02 0. -1.
       -1    1    3    3    0  502  0.63229245628E+02  0.91192220563E+02  0.23988772981E+03  0.26431057779E+03  0.50400001928E-02 0.  1.
</event>
<event>
 5   0  0.7893875E-03  0.9050741E+03  0.7818609E-02  0.9419261E-01
        3   -1    0    0  501    0  0.00000000000E+00  0.00000000000E+00  0.16943289374E+03  0.16943292384E+03  0.10100000352E+00 0.  1.
       -3   -1    0    0    0  501  0.00000000000E+00  0.00000000000E+00 -0.12086777495E+04  0.12086777537E+04  0.10100000352E+00 0. -1.
    10030    2    1    2    0    0  0.00000000000E+00  0.00000000000E+00 -0.10392448557E+04  0.13781106775E+04  0.90507412368E+03 0.  0.
        3    1    3    3  502    0 -0.18555115414E+03  0.13032698399E+03  0.76695469111E+02  0.23936699593E+03  0.10100000352E+00 0.  1.
       -3    1    3    3    0  502  0.18555115414E+03 -0.13032698399E+03 -0.11159403248E+04  0.11387436816E+04  0.10100000352E+00 0. -1.
</event>
<event>
 5   0  0.2008643E-02  0.8763196E+03  0.7818609E-02  0.9455677E-01
       -2   -1    0    0    0  501  0.00000000000E+00  0.00000000000E+00  0.13143021631E+03  0.13143021634E+03  0.25500000920E-02 0.  1.
        2   -1    0    0  501    0  0.00000000000E+00  0.00000000000E+00 -0.14607294784E+04  0.14607294784E+04  0.25500000920E-02 0. -1.
    10030    2    1    2    0    0  0.00000000000E+00  0.00000000000E+00 -0.13292992621E+04  0.15921596948E+04  0.87631955666E+03 0.  0.
        3    1    3    3  502    0 -0.27051337159E+03 -0.33681495057E+03 -0.53160570273E+03  0.68500104271E+03  0.10100000352E+00 0.  1.
       -3    1    3    3    0  502  0.27051337159E+03  0.33681495057E+03 -0.79769355939E+03  0.90715865207E+03  0.10100000352E+00 0. -1.
</event>
<event>
 5   0  0.2041861E-02  0.8694015E+03  0.7818609E-02  0.9464661E-01
       -2   -1    0    0    0  501  0.00000000000E+00  0.00000000000E+00  0.24487975758E+03  0.24487975760E+03  0.25500000920E-02 0. -1.
        2   -1    0    0  501    0  0.00000000000E+00  0.00000000000E+00 -0.77166331078E+03  0.77166331078E+03  0.25500000920E-02 0.  1.
    10030    2    1    2    0    0  0.00000000000E+00  0.00000000000E+00 -0.52678355319E+03  0.10165430684E+04  0.86940145960E+03 0.  0.
        5    1    3    3  502    0 -0.16877230851E+03 -0.39800735176E+03 -0.31631466944E+03  0.53569674656E+03  0.46999998093E+01 0.  1.
       -5    1    3    3    0  502  0.16877230851E+03  0.39800735176E+03 -0.21046888376E+03  0.48084632182E+03  0.46999998093E+01 0. -1.
</event>
<event>
 5   0  0.2041861E-02  0.8999197E+03  0.7818609E-02  0.9425682E-01
        2   -1    0    0  501    0  0.00000000000E+00  0.00000000000E+00  0.91924405391E+03  0.91924405391E+03  0.25500000920E-02 0. -1.
       -2   -1    0    0    0  501  0.00000000000E+00  0.00000000000E+00 -0.22025040046E+03  0.22025040048E+03  0.25500000920E-02 0.  1.
    10030    2    1    2    0    0  0.00000000000E+00  0.00000000000E+00  0.69899365345E+03  0.11394944544E+04  0.89991970977E+03 0.  0.
        5    1    3    3  502    0 -0.12688897718E+03  0.32634736941E+03 -0.82816938581E+01  0.35027716812E+03  0.46999998093E+01 0.  1.
       -5    1    3    3    0  502  0.12688897718E+03 -0.32634736941E+03  0.70727534731E+03  0.78921728628E+03  0.46999998093E+01 0. -1.
</event>
<event>
 5   0  0.1226424E-02  0.1020692E+04  0.7818609E-02  0.9286136E-01
        1   -1    0    0  501    0  0.00000000000E+00  0.00000000000E+00  0.20321172989E+04  0.20321172989E+04  0.50400001928E-02 0. -1.
       -1   -1    0    0    0  501  0.00000000000E+00  0.00000000000E+00 -0.12816841829E+03  0.12816841839E+03  0.50400001928E-02 0.  1.
    10030    2    1    2    0    0  0.00000000000E+00  0.00000000000E+00  0.19039488806E+04  0.21602857173E+04  0.10206924318E+04 0.  0.
        1    1    3    3  502    0 -0.30774204395E+03  0.38470819457E+03  0.67001455003E+03  0.83163998092E+03  0.50400001928E-02 0.  1.
       -1    1    3    3    0  502  0.30774204395E+03 -0.38470819457E+03  0.12339343305E+04  0.13286457363E+04  0.50400001928E-02 0. -1.
</event>
<event>
 5   0  0.1924218E-02  0.8618558E+03  0.7818609E-02  0.9474561E-01
       -2   -1    0    0    0  501  0.00000000000E+00  0.00000000000E+00  0.18311852149E+03  0.18311852150E+03  0.25500000920E-02 0.  1.
        2   -1    0    0  501    0  0.00000000000E+00  0.00000000000E+00 -0.10140910672E+04  0.10140910672E+04  0.25500000920E-02 0. -1.
    10030    2    1    2    0    0  0.00000000000E+00  0.00000000000E+00 -0.83097254575E+03  0.11972095887E+04  0.86185580441E+03 0.  0.
        4    1    3    3  502    0  0.39186540142E+03 -0.15592067656E+03 -0.29258767122E+03  0.51330196615E+03  0.12699999809E+01 0.  1.
       -4    1    3    3    0  502 -0.39186540142E+03  0.15592067656E+03 -0.53838487453E+03  0.68390762259E+03  0.12699999809E+01 0. -1.
</event>
<event>
 5   0  0.1206541E-02  0.9257943E+03  0.7818609E-02  0.9393900E-01
       -1   -1    0    0    0  501  0.00000000000E+00  0.00000000000E+00  0.18074391736E+03  0.18074391743E+03  0.50400001928E-02 0. -1.
        1   -1    0    0  501    0  0.00000000000E+00  0.00000000000E+00 -0.11855102884E+04  0.11855102884E+04  0.50400001928E-02 0.  1.
    10030    2    1    2    0    0  0.00000000000E+00  0.00000000000E+00 -0.10047663711E+04  0.13662542059E+04  0.92579430471E+03 0.  0.
        3    1    3    3  502    0  0.11126355181E+03  0.33478384329E+03 -0.94465466985E+03  0.10083810069E+04  0.10100000352E+00 0.  1.
       -3    1    3    3    0  502 -0.11126355181E+03 -0.33478384329E+03 -0.60111701221E+02  0.35787319893E+03  0.10100000352E+00 0. -1.
</event>
<event>
 5   0  0.1162839E-02  0.9039498E+03  0.7818609E-02  0.9420657E-01
        1   -1    0    0  501    0  0.00000000000E+00  0.00000000000E+00  0.92037471224E+03  0.92037471225E+03  0.50400001928E-02 0. -1.
       -1   -1    0    0    0  501  0.00000000000E+00  0.00000000000E+00 -0.22195451971E+03  0.22195451977E+03  0.50400001928E-02 0.  1.
    10030    2    1    2    0    0  0.00000000000E+00  0.00000000000E+00  0.69842019253E+03  0.11423292320E+04  0.90394983766E+03 0.  0.
        2    1    3    3  502    0 -0.11465781010E+03  0.38310447351E+03  0.83032504872E+02  0.40842361332E+03  0.25500000920E-02 0.  1.
       -2    1    3    3    0  502  0.11465781010E+03 -0.38310447351E+03  0.61538768765E+03  0.73390561870E+03  0.25500000920E-02 0. -1.
</event>
<event>
 5   0  0.1175993E-02  0.8834038E+03  0.7818609E-02  0.9446569E-01
       -1   -1    0    0    0  501  0.00000000000E+00  0.00000000000E+00  0.60130545801E+03  0.60130545803E+03  0.50400001928E-02 0. -1.
        1   -1    0    0  501    0  0.00000000000E+00  0.00000000000E+00 -0.32446166660E+03  0.32446166664E+03  0.50400001928E-02 0.  1.
    10030    2    1    2    0    0  0.00000000000E+00  0.00000000000E+00  0.27684379141E+03  0.92576712467E+03  0.88340380590E+03 0.  0.
        4    1    3    3  502    0 -0.24196990591E+03 -0.40648701045E+02 -0.24647460747E+03  0.34778311817E+03  0.12699999809E+01 0.  1.
       -4    1    3    3    0  502  0.24196990591E+03  0.40648701045E+02  0.52331839888E+03  0.57798400649E+03  0.12699999809E+01 0. -1.
</event>
<event>
 5   0  0.1924218E-02  0.9066108E+03  0.7818609E-02  0.9417355E-01
        2   -1    0    0  501    0  0.00000000000E+00  0.00000000000E+00  0.13249877881E+04  0.13249877881E+04  0.25500000920E-02 0. -1.
       -2   -1    0    0    0  501  0.00000000000E+00  0.00000000000E+00 -0.15508504373E+03  0.15508504375E+03  0.25500000920E-02 0.  1.
    10030    2    1    2    0    0  0.00000000000E+00  0.00000000000E+00  0.11699027444E+04  0.14800728318E+04  0.90661080750E+03 0.  0.
        4    1    3    3  502    0  0.10043547712E+03  0.38153140337E+03  0.22052432769E+03  0.45198018632E+03  0.12699999809E+01 0.  1.
       -4    1    3    3    0  502 -0.10043547712E+03 -0.38153140337E+03  0.94937841666E+03  0.10280926455E+04  0.12699999809E+01 0. -1.
</event>
<event>
 5   0  0.1177712E-02  0.8981399E+03  0.7818609E-02  0.9427910E-01
       -1   -1    0    0    0  501  0.00000000000E+00  0.00000000000E+00  0.27816303167E+03  0.27816303171E+03  0.50400001928E-02 0. -1.
        1   -1    0    0  501    0  0.00000000000E+00  0.00000000000E+00 -0.72498429750E+03  0.72498429752E+03  0.50400001928E-02 0.  1.
    10030    2    1    2    0    0  0.00000000000E+00  0.00000000000E+00 -0.44682126584E+03  0.10031473292E+04  0.89813992259E+03 0.  0.
        5    1    3    3  502    0 -0.42134090258E+03 -0.74384740315E+02 -0.71163419568E+02  0.43375980457E+03  0.46999998093E+01 0. -1.
       -5    1    3    3    0  502  0.42134090258E+03  0.74384740315E+02 -0.37565784627E+03  0.56938752466E+03  0.46999998093E+01 0.  1.
</event>
<event>
 5   0  0.1206541E-02  0.9067610E+03  0.7818609E-02  0.9417169E-01
       -1   -1    0    0    0  501  0.00000000000E+00  0.00000000000E+00  0.11894717905E+03  0.11894717916E+03  0.50400001928E-02 0. -1.
        1   -1    0    0  501    0  0.00000000000E+00  0.00000000000E+00 -0.17281103887E+04  0.17281103887E+04  0.50400001928E-02 0.  1.
    10030    2    1    2    0    0  0.00000000000E+00  0.00000000000E+00 -0.16091632097E+04  0.18470575679E+04  0.90676095180E+03 0.  0.
        3    1    3    3  502    0  0.31291397840E+03  0.16586295627E+03 -0.22797418400E+03  0.42118632090E+03  0.10100000352E+00 0. -1.
       -3    1    3    3    0  502 -0.31291397840E+03 -0.16586295627E+03 -0.13811890257E+04  0.14258712470E+04  0.10100000352E+00 0.  1.
</event>
<event>
 5   0  0.1177712E-02  0.8997695E+03  0.7818609E-02  0.9425870E-01
       -1   -1    0    0    0  501  0.00000000000E+00  0.00000000000E+00  0.25265716568E+03  0.25265716573E+03  0.50400001928E-02 0.  1.
        1   -1    0    0  501    0  0.00000000000E+00  0.00000000000E+00 -0.80107085332E+03  0.80107085333E+03  0.50400001928E-02 0. -1.
    10030    2    1    2    0    0  0.00000000000E+00  0.00000000000E+00 -0.54841368764E+03  0.10537280191E+04  0.89976950681E+03 0.  0.
        5    1    3    3  502    0  0.63094357707E+02 -0.23727246442E+03  0.16724850110E+03  0.29710818142E+03  0.46999998093E+01 0.  1.
       -5    1    3    3    0  502 -0.63094357707E+02  0.23727246442E+03 -0.71566218873E+03  0.75661983765E+03  0.46999998093E+01 0. -1.
</event>
<event>
 5   0  0.2041861E-02  0.9029749E+03  0.7818609E-02  0.9421870E-01
        2   -1    0    0  501    0  0.00000000000E+00  0.00000000000E+00  0.13501556777E+04  0.13501556777E+04  0.25500000920E-02 0. -1.
       -2   -1    0    0    0  501  0.00000000000E+00  0.00000000000E+00 -0.15097586789E+03  0.15097586792E+03  0.25500000920E-02 0.  1.
    10030    2    1    2    0    0  0.00000000000E+00  0.00000000000E+00  0.11991798098E+04  0.15011315456E+04  0.90297491716E+03 0.  0.
        5    1    3    3  502    0  0.11086468372E+03 -0.12931418271E+03 -0.95467795208E+02  0.19531852412E+03  0.46999998093E+01 0.  1.
       -5    1    3    3    0  502 -0.11086468372E+03  0.12931418271E+03  0.12946476050E+04  0.13058130215E+04  0.46999998093E+01 0. -1.
</event>
<event>
 5   0  0.2008770E-02  0.9067790E+03  0.7818609E-02  0.9417147E-01
        2   -1    0    0  501    0  0.00000000000E+00  0.00000000000E+00  0.44462129317E+03  0.44462129318E+03  0.25500000920E-02 0.  1.
       -2   -1    0    0    0  501  0.00000000000E+00  0.00000000000E+00 -0.46233065936E+03  0.46233065936E+03  0.25500000920E-02 0. -1.
    10030    2    1    2    0    0  0.00000000000E+00  0.00000000000E+00 -0.17709366186E+02  0.90695195254E+03  0.90677903734E+03 0.  0.
        1    1    3    3  502    0  0.29735031023E+03  0.29881222223E+03 -0.17578799113E+03  0.45673555697E+03  0.50400001928E-02 0. -1.
       -1    1    3    3    0  502 -0.29735031023E+03 -0.29881222223E+03  0.15807862494E+03  0.45021639557E+03  0.50400001928E-02 0.  1.
</event>
<event>
 5   0  0.1162839E-02  0.8442318E+03  0.7818609E-02  0.9498112E-01
       -1   -1    0    0    0  501  0.00000000000E+00  0.00000000000E+00  0.91247882831E+03  0.91247882833E+03  0.50400001928E-02 0. -1.
        1   -1    0    0  501    0  0.00000000000E+00  0.00000000000E+00 -0.19527227200E+03  0.19527227207E+03  0.50400001928E-02 0.  1.
    10030    2    1    2    0    0  0.00000000000E+00  0.00000000000E+00  0.71720655631E+03  0.11077511004E+04  0.84423175491E+03 0.  0.
        2    1    3    3  502    0 -0.39496133257E+03 -0.14382681546E+03  0.40944272141E+03  0.58679123135E+03  0.25500000920E-02 0.  1.
       -2    1    3    3    0  502  0.39496133257E+03  0.14382681546E+03  0.30776383490E+03  0.52095986904E+03  0.25500000920E-02 0. -1.
</event>
<event>
 5   0  0.2041861E-02  0.9237663E+03  0.7818609E-02  0.9396350E-01
        2   -1    0    0  501    0  0.00000000000E+00  0.00000000000E+00  0.61603560447E+03  0.61603560447E+03  0.25500000920E-02 0. -1.
       -2   -1    0    0    0  501  0.00000000000E+00  0.00000000000E+00 -0.34630474567E+03  0.34630474568E+03  0.25500000920E-02 0.  1.
    10030    2    1    2    0    0  0.00000000000E+00  0.00000000000E+00  0.26973085880E+03  0.96234035016E+03  0.92376631967E+03 0.  0.
        5    1    3    3  502    0  0.31616700384E+03  0.17193104816E+03  0.43642153004E+03  0.56569223215E+03  0.46999998093E+01 0. -1.
       -5    1    3    3    0  502 -0.31616700384E+03 -0.17193104816E+03 -0.16669067124E+03  0.39664811800E+03  0.46999998093E+01 0.  1.
</event>
<event>
 5   0  0.2008770E-02  0.8465450E+03  0.7818609E-02  0.9494986E-01
       -2   -1    0    0    0  501  0.00000000000E+00  0.00000000000E+00  0.25007286165E+03  0.25007286167E+03  0.25500000920E-02 0.  1.
        2   -1    0    0  501    0  0.00000000000E+00  0.00000000000E+00 -0.71642963885E+03  0.71642963885E+03  0.25500000920E-02 0. -1.
    10030    2    1    2    0    0  0.00000000000E+00  0.00000000000E+00 -0.46635677720E+03  0.96650250052E+03  0.84654500168E+03 0.  0.
        1    1    3    3  502    0 -0.28705602559E+03 -0.33315129112E+02 -0.58627384418E+03  0.65362686607E+03  0.50400001928E-02 0. -1.
       -1    1    3    3    0  502  0.28705602559E+03  0.33315129112E+02  0.11991706698E+03  0.31287563445E+03  0.50400001928E-02 0.  1.
</event>
<event>
 5   0  0.7893875E-03  0.9031818E+03  0.7818609E-02  0.9421613E-01
       -3   -1    0    0    0  501  0.00000000000E+00  0.00000000000E+00  0.35662301811E+03  0.35662303241E+03  0.10100000352E+00 0. -1.
        3   -1    0    0  501    0  0.00000000000E+00  0.00000000000E+00 -0.57184843427E+03  0.57184844319E+03  0.10100000352E+00 0.  1.
    10030    2    1    2    0    0  0.00000000000E+00  0.00000000000E+00 -0.21522541616E+03  0.92847147560E+03  0.90318176534E+03 0.  0.
        2    1    3    3  502    0 -0.34866396714E+03 -0.25694382199E+03 -0.23905068931E+03  0.49470387274E+03  0.25500000920E-02 0. -1.
       -2    1    3    3    0  502  0.34866396714E+03  0.25694382199E+03  0.23825273146E+02  0.43376760286E+03  0.25500000920E-02 0.  1.
</event>
<event>
 5   0  0.2008770E-02  0.9283596E+03  0.7818609E-02  0.9390809E-01
       -2   -1    0    0    0  501  0.00000000000E+00  0.00000000000E+00  0.92453099213E+03  0.92453099213E+03  0.25500000920E-02 0.  1.
        2   -1    0    0  501    0  0.00000000000E+00  0.00000000000E+00 -0.23305103896E+03  0.23305103897E+03  0.25500000920E-02 0. -1.
    10030    2    1    2    0    0  0.00000000000E+00  0.00000000000E+00  0.69147995317E+03  0.11575820311E+04  0.92835964642E+03 0.  0.
        1    1    3    3  502    0  0.76137502824E+02 -0.34404381128E+03  0.72250496813E+03  0.80385103870E+03  0.50400001928E-02 0.  1.
       -1    1    3    3    0  502 -0.76137502824E+02  0.34404381128E+03 -0.31025014960E+02  0.35373099241E+03  0.50400001928E-02 0. -1.
</event>
<event>
 5   0  0.2008643E-02  0.8949671E+03  0.7818609E-02  0.9431895E-01
        2   -1    0    0  501    0  0.00000000000E+00  0.00000000000E+00  0.34461111442E+03  0.34461111443E+03  0.25500000920E-02 0.  1.
       -2   -1    0    0    0  501  0.00000000000E+00  0.00000000000E+00 -0.58106520782E+03  0.58106520783E+03  0.25500000920E-02 0. -1.
    10030    2    1    2    0    0  0.00000000000E+00  0.00000000000E+00 -0.23645409341E+03  0.92567632225E+03  0.89496710291E+03 0.  0.
        3    1    3    3  502    0  0.30976004205E+03  0.27886666090E+03 -0.28667606535E+03  0.50586665719E+03  0.10100000352E+00 0. -1.
       -3    1    3    3    0  502 -0.30976004205E+03 -0.27886666090E+03  0.50221971948E+02  0.41980966506E+03  0.10100000352E+00 0.  1.
</event>
<event>
 5   0  0.1175993E-02  0.8793931E+03  0.7818609E-02  0.9451714E-01
        1   -1    0    0  501    0  0.00000000000E+00  0.00000000000E+00  0.46801102505E+03  0.46801102507E+03  0.50400001928E-02 0.  1.
       -1   -1    0    0    0  501  0.00000000000E+00  0.00000000000E+00 -0.41309509815E+03  0.41309509818E+03  0.50400001928E-02 0. -1.
    10030    2    1    2    0    0  0.00000000000E+00  0.00000000000E+00  0.54915926899E+02  0.88110612325E+03  0.87939310971E+03 0.  0.
        4    1    3    3  502    0 -0.26061860118E+03 -0.40825185265E+02 -0.32499806935E+03  0.41858584426E+03  0.12699999809E+01 0. -1.
       -4    1    3    3    0  502  0.26061860118E+03  0.40825185265E+02  0.37991399625E+03  0.46252027899E+03  0.12699999809E+01 0.  1.
</event>
<event>
 5   0  0.1175993E-02  0.8779167E+03  0.7818609E-02  0.9453616E-01
        1   -1    0    0  501    0  0.00000000000E+00  0.00000000000E+00  0.39338596838E+03  0.39338596841E+03  0.50400001928E-02 0.  1.
       -1   -1    0    0    0  501  0.00000000000E+00  0.00000000000E+00 -0.48981014483E+03  0.48981014486E+03  0.50400001928E-02 0. -1.
    10030    2    1    2    0    0  0.00000000000E+00  0.00000000000E+00 -0.96424176450E+02  0.88319611327E+03  0.87791671171E+03 0.  0.
        4    1    3    3  502    0  0.24212796174E+03  0.64737194137E+02 -0.41074840377E+03  0.48117846821E+03  0.12699999809E+01 0. -1.
       -4    1    3    3    0  502 -0.24212796174E+03 -0.64737194137E+02  0.31432422732E+03  0.40201764507E+03  0.12699999809E+01 0.  1.
</event>
<event>
 5   0  0.1226424E-02  0.8963488E+03  0.7818609E-02  0.9430157E-01
        1   -1    0    0  501    0  0.00000000000E+00  0.00000000000E+00  0.30963015919E+03  0.30963015923E+03  0.50400001928E-02 0. -1.
       -1   -1    0    0    0  501  0.00000000000E+00  0.00000000000E+00 -0.64871036064E+03  0.64871036066E+03  0.50400001928E-02 0.  1.
    10030    2    1    2    0    0  0.00000000000E+00  0.00000000000E+00 -0.33908020145E+03  0.95834051989E+03  0.89634879877E+03 0.  0.
        1    1    3    3  502    0 -0.38699410301E+03  0.21939349414E+03 -0.22773180580E+03  0.49975965867E+03  0.50400001928E-02 0.  1.
       -1    1    3    3    0  502  0.38699410301E+03 -0.21939349414E+03 -0.11134839565E+03  0.45858086122E+03  0.50400001928E-02 0. -1.
</event>
<event>
 5   0  0.2041861E-02  0.9001569E+03  0.7818609E-02  0.9425385E-01
       -2   -1    0    0    0  501  0.00000000000E+00  0.00000000000E+00  0.34146690437E+03  0.34146690438E+03  0.25500000920E-02 0. -1.
        2   -1    0    0  501    0  0.00000000000E+00  0.00000000000E+00 -0.59323648824E+03  0.59323648824E+03  0.25500000920E-02 0.  1.
    10030    2    1    2    0    0  0.00000000000E+00  0.00000000000E+00 -0.25176958386E+03  0.93470339262E+03  0.90015693566E+03 0.  0.
        5    1    3    3  502    0 -0.33649566825E+03  0.24224531319E+03  0.55865253623E+02  0.41839591665E+03  0.46999998093E+01 0. -1.
       -5    1    3    3    0  502  0.33649566825E+03 -0.24224531319E+03 -0.30763483749E+03  0.51630747597E+03  0.46999998093E+01 0.  1.
</event>
<event>
 5   0  0.1226424E-02  0.9211141E+03  0.7818609E-02  0.9399566E-01
       -1   -1    0    0    0  501  0.00000000000E+00  0.00000000000E+00  0.38364309336E+03  0.38364309339E+03  0.50400001928E-02 0. -1.
        1   -1    0    0  501    0  0.00000000000E+00  0.00000000000E+00 -0.55289096868E+03  0.55289096871E+03  0.50400001928E-02 0.  1.
    10030    2    1    2    0    0  0.00000000000E+00  0.00000000000E+00 -0.16924787533E+03  0.93653406210E+03  0.92111411137E+03 0.  0.
        1    1    3    3  502    0 -0.29554209779E+03  0.32609292686E+03  0.53409864677E+02  0.44332193966E+03  0.50400001928E-02 0. -1.
       -1    1    3    3    0  502  0.29554209779E+03 -0.32609292686E+03 -0.22265774000E+03  0.49321212244E+03  0.50400001928E-02 0.  1.
</event>
<event>
 5   0  0.7893875E-03  0.9005465E+03  0.7818609E-02  0.9424899E-01
       -3   -1    0    0    0  501  0.00000000000E+00  0.00000000000E+00  0.10612865712E+04  0.10612865760E+04  0.10100000352E+00 0.  1.
        3   -1    0    0  501    0  0.00000000000E+00  0.00000000000E+00 -0.19103792840E+03  0.19103795510E+03  0.10100000352E+00 0. -1.
    10030    2    1    2    0    0  0.00000000000E+00  0.00000000000E+00  0.87024864280E+03  0.12523245311E+04  0.90054651790E+03 0.  0.
        4    1    3    3  502    0  0.98587364015E+02 -0.23444054318E+03  0.95183649635E+03  0.98522899131E+03  0.12699999809E+01 0.  1.
       -4    1    3    3    0  502 -0.98587364015E+02  0.23444054318E+03 -0.81587853550E+02  0.26709553979E+03  0.12699999809E+01 0. -1.
</event>
<event>
 5   0  0.2041861E-02  0.9075486E+03  0.7818609E-02  0.9416194E-01
        2   -1    0    0  501    0  0.00000000000E+00  0.00000000000E+00  0.32950351267E+03  0.32950351268E+03  0.25500000920E-02 0. -1.
       -2   -1    0    0    0  501  0.00000000000E+00  0.00000000000E+00 -0.62491329250E+03  0.62491329251E+03  0.25500000920E-02 0.  1.
    10030    2    1    2    0    0  0.00000000000E+00  0.00000000000E+00 -0.29540977983E+03  0.95441680519E+03  0.90754862129E+03 0.  0.
        5    1    3    3  502    0  0.29253479577E+03 -0.27551309531E+03 -0.36931212261E+03  0.54579996915E+03  0.46999998093E+01 0.  1.
       -5    1    3    3    0  502 -0.29253479577E+03  0.27551309531E+03  0.73902342772E+02  0.40861683603E+03  0.46999998093E+01 0. -1.
</event>
<event>
 5   0  0.2008770E-02  0.9026516E+03  0.7818609E-02  0.9422273E-01
       -2   -1    0    0    0  501  0.00000000000E+00  0.00000000000E+00  0.80417373296E+03  0.80417373296E+03  0.25500000920E-02 0.  1.
        2   -1    0    0  501    0  0.00000000000E+00  0.00000000000E+00 -0.25329722294E+03  0.25329722295E+03  0.25500000920E-02 0. -1.
    10030    2    1    2    0    0  0.00000000000E+00  0.00000000000E+00  0.55087651002E+03  0.10574709559E+04  0.90265159020E+03 0.  0.
        1    1    3    3  502    0  0.37590879398E+03  0.10048867916E+01  0.56805134736E+03  0.68116867548E+03  0.50400001928E-02 0.  1.
       -1    1    3    3    0  502 -0.37590879398E+03 -0.10048867916E+01 -0.17174837343E+02  0.37630228043E+03  0.50400001928E-02 0. -1.
</event>
<event>
 5   0  0.1924218E-02  0.8423910E+03  0.7818609E-02  0.9500607E-01
        2   -1    0    0  501    0  0.00000000000E+00  0.00000000000E+00  0.30236539625E+03  0.30236539626E+03  0.25500000920E-02 0. -1.
       -2   -1    0    0    0  501  0.00000000000E+00  0.00000000000E+00 -0.58672600196E+03  0.58672600197E+03  0.25500000920E-02 0.  1.
    10030    2    1    2    0    0  0.00000000000E+00  0.00000000000E+00 -0.28436060572E+03  0.88909139823E+03  0.84239097830E+03 0.  0.
        4    1    3    3  502    0 -0.88559307985E+02  0.36632787424E+03  0.56301430490E+02  0.38106472738E+03  0.12699999809E+01 0.  1.
       -4    1    3    3    0  502  0.88559307985E+02 -0.36632787424E+03 -0.34066203621E+03  0.50802667085E+03  0.12699999809E+01 0. -1.
</event>
<event>
 5   0  0.2041861E-02  0.8440835E+03  0.7818609E-02  0.9498313E-01
       -2   -1    0    0    0  501  0.00000000000E+00  0.00000000000E+00  0.67228775125E+03  0.67228775125E+03  0.25500000920E-02 0. -1.
        2   -1    0    0  501    0  0.00000000000E+00  0.00000000000E+00 -0.26494491046E+03  0.26494491047E+03  0.25500000920E-02 0.  1.
    10030    2    1    2    0    0  0.00000000000E+00  0.00000000000E+00  0.40734284079E+03  0.93723266172E+03  0.84408345100E+03 0.  0.
        5    1    3    3  502    0 -0.18309891678E+02 -0.29437678578E+03  0.53881522108E+03  0.61427752410E+03  0.46999998093E+01 0. -1.
       -5    1    3    3    0  502  0.18309891678E+02  0.29437678578E+03 -0.13147238030E+03  0.32295513763E+03  0.46999998093E+01 0.  1.
</event>
<event>
 5   0  0.1175993E-02  0.8945330E+03  0.7818609E-02  0.9432441E-01
       -1   -1    0    0    0  501  0.00000000000E+00  0.00000000000E+00  0.44298785431E+03  0.44298785434E+03  0.50400001928E-02 0.  1.
        1   -1    0    0  501    0  0.00000000000E+00  0.00000000000E+00 -0.45158643103E+03  0.45158643106E+03  0.50400001928E-02 0. -1.
    10030    2    1    2    0    0  0.00000000000E+00  0.00000000000E+00 -0.85985767163E+01  0.89457428540E+03  0.89453296003E+03 0.  0.
        4    1    3    3  502    0  0.20268271398E+03  0.27335967957E+02  0.39348554358E+03  0.44346366661E+03  0.12699999809E+01 0.  1.
       -4    1    3    3    0  502 -0.20268271398E+03 -0.27335967957E+02 -0.40208412030E+03  0.45111061879E+03  0.12699999809E+01 0. -1.
</event>
<event>
 5   0  0.2008770E-02  0.9071888E+03  0.7818609E-02  0.9416639E-01
        2   -1    0    0  501    0  0.00000000000E+00  0.00000000000E+00  0.16582080380E+04  0.16582080380E+04  0.25500000920E-02 0. -1.
       -2   -1    0    0    0  501  0.00000000000E+00  0.00000000000E+00 -0.12407846002E+03  0.12407846005E+03  0.25500000920E-02 0.  1.
    10030    2    1    2    0    0  0.00000000000E+00  0.00000000000E+00  0.15341295780E+04  0.17822864980E+04  0.90718884424E+03 0.  0.
        1    1    3    3  502    0 -0.15367284325E+01 -0.45359093218E+03  0.76882690076E+03  0.89266001291E+03  0.50400001928E-02 0.  1.
       -1    1    3    3    0  502  0.15367284325E+01  0.45359093218E+03  0.76530267720E+03  0.88962648513E+03  0.50400001928E-02 0. -1.
</event>
<event>
 5   0  0.1175993E-02  0.9363111E+03  0.7818609E-02  0.9381295E-01
        1   -1    0    0  501    0  0.00000000000E+00  0.00000000000E+00  0.13712265029E+04  0.13712265029E+04  0.50400001928E-02 0. -1.
       -1   -1    0    0    0  501  0.00000000000E+00  0.00000000000E+00 -0.15983472339E+03  0.15983472347E+03  0.50400001928E-02 0.  1.
    10030    2    1    2    0    0  0.00000000000E+00  0.00000000000E+00  0.12113917795E+04  0.15310612264E+04  0.93631107837E+03 0.  0.
        4    1    3    3  502    0 -0.26452224969E+03  0.38315224828E+02 -0.22801800898E+02  0.26825661606E+03  0.12699999809E+01 0.  1.
       -4    1    3    3    0  502  0.26452224969E+03 -0.38315224828E+02  0.12341935804E+04  0.12628046104E+04  0.12699999809E+01 0. -1.
</event>
<event>
 5   0  0.1162839E-02  0.9100223E+03  0.7818609E-02  0.9413139E-01
        1   -1    0    0  501    0  0.00000000000E+00  0.00000000000E+00  0.36670378771E+03  0.36670378775E+03  0.50400001928E-02 0. -1.
       -1   -1    0    0    0  501  0.00000000000E+00  0.00000000000E+00 -0.56458409874E+03  0.56458409876E+03  0.50400001928E-02 0.  1.
    10030    2    1    2    0    0  0.00000000000E+00  0.00000000000E+00 -0.19788031103E+03  0.93128788651E+03  0.91002225801E+03 0.  0.
        2    1    3    3  502    0  0.17764275435E+03  0.41788657663E+03 -0.12875845132E+03  0.47197974310E+03  0.25500000920E-02 0.  1.
       -2    1    3    3    0  502 -0.17764275435E+03 -0.41788657663E+03 -0.69121859706E+02  0.45930814341E+03  0.25500000920E-02 0. -1.
</event>
<event>
 5   0  0.7893875E-03  0.8863766E+03  0.7818609E-02  0.9442773E-01
        4   -1    0    0  501    0  0.00000000000E+00  0.00000000000E+00  0.49491950917E+03  0.49492113862E+03  0.12699999809E+01 0. -1.
       -4   -1    0    0    0  501  0.00000000000E+00  0.00000000000E+00 -0.39686099605E+03  0.39686302812E+03  0.12699999809E+01 0.  1.
    10030    2    1    2    0    0  0.00000000000E+00  0.00000000000E+00  0.98058513116E+02  0.89178416674E+03  0.88637662878E+03 0.  0.
        4    1    3    3  502    0  0.44279317847E+03  0.14572199756E+02  0.37290979576E+02  0.44460136973E+03  0.12699999809E+01 0.  1.
       -4    1    3    3    0  502 -0.44279317847E+03 -0.14572199756E+02  0.60767533540E+02  0.44718279701E+03  0.12699999809E+01 0. -1.
</event>
<event>
 5   0  0.1175993E-02  0.8953854E+03  0.7818609E-02  0.9431368E-01
        1   -1    0    0  501    0  0.00000000000E+00  0.00000000000E+00  0.75813521877E+03  0.75813521879E+03  0.50400001928E-02 0.  1.
       -1   -1    0    0    0  501  0.00000000000E+00  0.00000000000E+00 -0.26437072004E+03  0.26437072009E+03  0.50400001928E-02 0. -1.
    10030    2    1    2    0    0  0.00000000000E+00  0.00000000000E+00  0.49376449873E+03  0.10225059389E+04  0.89538540016E+03 0.  0.
        4    1    3    3  502    0  0.44119773921E+03 -0.26626722348E+02  0.16562773462E+03  0.47201545187E+03  0.12699999809E+01 0. -1.
       -4    1    3    3    0  502 -0.44119773921E+03  0.26626722348E+02  0.32813676411E+03  0.55049048701E+03  0.12699999809E+01 0.  1.
</event>
<event>
 5   0  0.1175993E-02  0.8857110E+03  0.7818609E-02  0.9443622E-01
        1   -1    0    0  501    0  0.00000000000E+00  0.00000000000E+00  0.49414375498E+03  0.49414375501E+03  0.50400001928E-02 0. -1.
       -1   -1    0    0    0  501  0.00000000000E+00  0.00000000000E+00 -0.39689058541E+03  0.39689058545E+03  0.50400001928E-02 0.  1.
    10030    2    1    2    0    0  0.00000000000E+00  0.00000000000E+00  0.97253169568E+02  0.89103434045E+03  0.88571102334E+03 0.  0.
        4    1    3    3  502    0  0.38297986936E+02  0.91329661160E+02  0.48285903977E+03  0.49291206923E+03  0.12699999809E+01 0. -1.
       -4    1    3    3    0  502 -0.38297986936E+02 -0.91329661160E+02 -0.38560587020E+03  0.39812227122E+03  0.12699999809E+01 0.  1.
</event>
<event>
 5   0  0.1924218E-02  0.9124767E+03  0.7818609E-02  0.9410118E-01
       -2   -1    0    0    0  501  0.00000000000E+00  0.00000000000E+00  0.21932825248E+03  0.21932825250E+03  0.25500000920E-02 0.  1.
        2   -1    0    0  501    0  0.00000000000E+00  0.00000000000E+00 -0.94904971754E+03  0.94904971755E+03  0.25500000920E-02 0. -1.
    10030    2    1    2    0    0  0.00000000000E+00  0.00000000000E+00 -0.72972146506E+03  0.11683779700E+04  0.91247666508E+03 0.  0.
        4    1    3    3  502    0  0.87725663868E+02  0.28506581807E+03 -0.80692749359E+03  0.86028594406E+03  0.12699999809E+01 0. -1.
       -4    1    3    3    0  502 -0.87725663868E+02 -0.28506581807E+03  0.77206028530E+02  0.30809202598E+03  0.12699999809E+01 0.  1.
</event>
<event>
 5   0  0.1968763E-02  0.8876386E+03  0.7818609E-02  0.9441167E-01
       -2   -1    0    0    0  501  0.00000000000E+00  0.00000000000E+00  0.58918666273E+03  0.58918666273E+03  0.25500000920E-02 0. -1.
        2   -1    0    0  501    0  0.00000000000E+00  0.00000000000E+00 -0.33431778584E+03  0.33431778585E+03  0.25500000920E-02 0.  1.
    10030    2    1    2    0    0  0.00000000000E+00  0.00000000000E+00  0.25486887689E+03  0.92350444858E+03  0.88763862137E+03 0.  0.
        2    1    3    3  502    0 -0.29475853656E+03 -0.26973825783E+02 -0.21663236386E+03  0.36679662379E+03  0.25500000920E-02 0.  1.
       -2    1    3    3    0  502  0.29475853656E+03  0.26973825783E+02  0.47150124074E+03  0.55670782479E+03  0.25500000920E-02 0. -1.
</event>
<event>
 5   0  0.1206541E-02  0.8991817E+03  0.7818609E-02  0.9426605E-01
        1   -1    0    0  501    0  0.00000000000E+00  0.00000000000E+00  0.12984470751E+04  0.12984470751E+04  0.50400001928E-02 0.  1.
       -1   -1    0    0    0  501  0.00000000000E+00  0.00000000000E+00 -0.15567206203E+03  0.15567206211E+03  0.50400001928E-02 0. -1.
    10030    2    1    2    0    0  0.00000000000E+00  0.00000000000E+00  0.11427750131E+04  0.14541191372E+04  0.89918170285E+03 0.  0.
        3    1    3    3  502    0  0.41705227875E+03 -0.14062152040E+03  0.42295291572E+03  0.61040658116E+03  0.10100000352E+00 0.  1.
       -3    1    3    3    0  502 -0.41705227875E+03  0.14062152040E+03  0.71982209736E+03  0.84371255606E+03  0.10100000352E+00 0. -1.
</event>
<event>
 5   0  0.1968763E-02  0.9106400E+03  0.7818609E-02  0.9412378E-01
        2   -1    0    0  501    0  0.00000000000E+00  0.00000000000E+00  0.47548304245E+03  0.47548304246E+03  0.25500000920E-02 0. -1.
       -2   -1    0    0    0  501  0.00000000000E+00  0.00000000000E+00 -0.43601193191E+03  0.43601193192E+03  0.25500000920E-02 0.  1.
    10030    2    1    2    0    0  0.00000000000E+00  0.00000000000E+00  0.39471110542E+02  0.91149497438E+03  0.91063995067E+03 0.  0.
        2    1    3    3  502    0  0.16651817568E+03 -0.25934655696E+03 -0.31573184059E+03  0.44122050565E+03  0.25500000920E-02 0.  1.
       -2    1    3    3    0  502 -0.16651817568E+03  0.25934655696E+03  0.35520295113E+03  0.47027446873E+03  0.25500000920E-02 0. -1.
</event>
<event>
 5   0  0.1177712E-02  0.8601787E+03  0.7818609E-02  0.9476776E-01
        1   -1    0    0  501    0  0.00000000000E+00  0.00000000000E+00  0.14126854543E+04  0.14126854543E+04  0.50400001928E-02 0. -1.
       -1   -1    0    0    0  501  0.00000000000E+00  0.00000000000E+00 -0.13093986424E+03  0.13093986434E+03  0.50400001928E-02 0.  1.
    10030    2    1    2    0    0  0.00000000000E+00  0.00000000000E+00  0.12817455900E+04  0.15436253186E+04  0.86017868302E+03 0.  0.
        5    1    3    3  502    0 -0.17913578454E+03 -0.23677255400E+03  0.82531692161E+02  0.30819546045E+03  0.46999998093E+01 0.  1.
       -5    1    3    3    0  502  0.17913578454E+03  0.23677255400E+03  0.11992138979E+04  0.12354298582E+04  0.46999998093E+01 0. -1.
</event>
<event>
 5   0  0.2008770E-02  0.8883391E+03  0.7818609E-02  0.9440277E-01
        2   -1    0    0  501    0  0.00000000000E+00  0.00000000000E+00  0.18663565824E+03  0.18663565825E+03  0.25500000920E-02 0. -1.
       -2   -1    0    0    0  501  0.00000000000E+00  0.00000000000E+00 -0.10570679227E+04  0.10570679227E+04  0.25500000920E-02 0.  1.
    10030    2    1    2    0    0  0.00000000000E+00  0.00000000000E+00 -0.87043226450E+03  0.12437035810E+04  0.88833905143E+03 0.  0.
        1    1    3    3  502    0  0.22600824696E+03  0.19959714345E+03  0.21391598590E+02  0.30228520950E+03  0.50400001928E-02 0. -1.
       -1    1    3    3    0  502 -0.22600824696E+03 -0.19959714345E+03 -0.89182386309E+03  0.94141837149E+03  0.50400001928E-02 0.  1.
</event>
<event>
 5   0  0.1924218E-02  0.8909478E+03  0.7818609E-02  0.9436968E-01
       -2   -1    0    0    0  501  0.00000000000E+00  0.00000000000E+00  0.27567450727E+03  0.27567450728E+03  0.25500000920E-02 0. -1.
        2   -1    0    0  501    0  0.00000000000E+00  0.00000000000E+00 -0.71985979925E+03  0.71985979925E+03  0.25500000920E-02 0.  1.
    10030    2    1    2    0    0  0.00000000000E+00  0.00000000000E+00 -0.44418529198E+03  0.99553430653E+03  0.89094779975E+03 0.  0.
        4    1    3    3  502    0  0.27117908052E+03  0.31817681704E+03 -0.50178958117E+02  0.42106308477E+03  0.12699999809E+01 0. -1.
       -4    1    3    3    0  502 -0.27117908052E+03 -0.31817681704E+03 -0.39400633386E+03  0.57447122177E+03  0.12699999809E+01 0.  1.
</event>
<event>
 5   0  0.1206541E-02  0.8998054E+03  0.7818609E-02  0.9425825E-01
       -1   -1    0    0    0  501  0.00000000000E+00  0.00000000000E+00  0.32949304316E+03  0.32949304319E+03  0.50400001928E-02 0.  1.
        1   -1    0    0  501    0  0.00000000000E+00  0.00000000000E+00 -0.61431476431E+03  0.61431476433E+03  0.50400001928E-02 0. -1.
    10030    2    1    2    0    0  0.00000000000E+00  0.00000000000E+00 -0.28482172115E+03  0.94380780752E+03  0.89980540379E+03 0.  0.
        3    1    3    3  502    0 -0.38216094586E+03 -0.17072198814E+03 -0.31546205577E+03  0.52412718362E+03  0.10100000352E+00 0.  1.
       -3    1    3    3    0  502  0.38216094586E+03  0.17072198814E+03  0.30640334615E+02  0.41968062391E+03  0.10100000352E+00 0. -1.
</event>
<event>
 5   0  0.1924218E-02  0.9063133E+03  0.7818609E-02  0.9417724E-01
       -2   -1    0    0    0  501  0.00000000000E+00  0.00000000000E+00  0.30425087361E+03  0.30425087362E+03  0.25500000920E-02 0. -1.
        2   -1    0    0  501    0  0.00000000000E+00  0.00000000000E+00 -0.67493961874E+03  0.67493961874E+03  0.25500000920E-02 0.  1.
    10030    2    1    2    0    0  0.00000000000E+00  0.00000000000E+00 -0.37068874512E+03  0.97919049236E+03  0.90631334238E+03 0.  0.
        4    1    3    3  502    0  0.38800736692E+03 -0.22864696103E+03 -0.23958277011E+03  0.51012808804E+03  0.12699999809E+01 0.  1.
       -4    1    3    3    0  502 -0.38800736692E+03  0.22864696103E+03 -0.13110597501E+03  0.46906240433E+03  0.12699999809E+01 0. -1.
</event>
<event>
 5   0  0.2041861E-02  0.8905781E+03  0.7818609E-02  0.9437436E-01
       -2   -1    0    0    0  501  0.00000000000E+00  0.00000000000E+00  0.12644481033E+04  0.12644481033E+04  0.25500000920E-02 0.  1.
        2   -1    0    0  501    0  0.00000000000E+00  0.00000000000E+00 -0.15681334855E+03  0.15681334858E+03  0.25500000920E-02 0. -1.
    10030    2    1    2    0    0  0.00000000000E+00  0.00000000000E+00  0.11076347548E+04  0.14212614519E+04  0.89057810701E+03 0.  0.
        5    1    3    3  502    0  0.17496104663E+02 -0.41818983340E+03  0.31141384531E+03  0.52171785813E+03  0.46999998093E+01 0. -1.
       -5    1    3    3    0  502 -0.17496104663E+02  0.41818983340E+03  0.79622090945E+03  0.89954359377E+03  0.46999998093E+01 0.  1.
</event>
<event>
 5   0  0.2008770E-02  0.8997522E+03  0.7818609E-02  0.9425891E-01
       -2   -1    0    0    0  501  0.00000000000E+00  0.00000000000E+00  0.11914150222E+03  0.11914150224E+03  0.25500000920E-02 0. -1.
        2   -1    0    0  501    0  0.00000000000E+00  0.00000000000E+00 -0.16987237342E+04  0.16987237342E+04  0.25500000920E-02 0.  1.
    10030    2    1    2    0    0  0.00000000000E+00  0.00000000000E+00 -0.15795822320E+04  0.18178652364E+04  0.89975218270E+03 0.  0.
        1    1    3    3  502    0 -0.27715509090E+03 -0.21202786287E+03 -0.13634504723E+04  0.14073975804E+04  0.50400001928E-02 0.  1.
       -1    1    3    3    0  502  0.27715509090E+03  0.21202786287E+03 -0.21613175969E+03  0.41046765600E+03  0.50400001928E-02 0. -1.
</event>
<event>
 5   0  0.1175993E-02  0.9091437E+03  0.7818609E-02  0.9414223E-01
        1   -1    0    0  501    0  0.00000000000E+00  0.00000000000E+00  0.38297768029E+03  0.38297768032E+03  0.50400001928E-02 0. -1.
       -1   -1    0    0    0  501  0.00000000000E+00  0.00000000000E+00 -0.53954988421E+03  0.53954988423E+03  0.50400001928E-02 0.  1.
    10030    2    1    2    0    0  0.00000000000E+00  0.00000000000E+00 -0.15657220392E+03  0.92252756455E+03  0.90914369179E+03 0.  0.
        4    1    3    3  502    0 -0.28418298588E+03 -0.25456941638E+03 -0.32904425799E+03  0.50382268095E+03  0.12699999809E+01 0.  1.
       -4    1    3    3    0  502  0.28418298588E+03  0.25456941638E+03  0.17247205407E+03  0.41870488360E+03  0.12699999809E+01 0. -1.
</event>
<event>
 5   0  0.2008770E-02  0.8895969E+03  0.7818609E-02  0.9438680E-01
        2   -1    0    0  501    0  0.00000000000E+00  0.00000000000E+00  0.95056653137E+03  0.95056653137E+03  0.25500000920E-02 0.  1.
       -2   -1    0    0    0  501  0.00000000000E+00  0.00000000000E+00 -0.20813449196E+03  0.20813449197E+03  0.25500000920E-02 0. -1.
    10030    2    1    2    0    0  0.00000000000E+00  0.00000000000E+00  0.74243203941E+03  0.11587010233E+04  0.88959694713E+03 0.  0.
        1    1    3    3  502    0 -0.36019863640E+03 -0.16601593147E+03  0.10895899557E+03  0.41131060029E+03  0.50400001928E-02 0. -1.
       -1    1    3    3    0  502  0.36019863640E+03  0.16601593147E+03  0.63347304384E+03  0.74739042305E+03  0.50400001928E-02 0.  1.
</event>
<event>
 5   0  0.1162839E-02  0.9484729E+03  0.7818609E-02  0.9366937E-01
        1   -1    0    0  501    0  0.00000000000E+00  0.00000000000E+00  0.11017477535E+04  0.11017477535E+04  0.50400001928E-02 0. -1.
       -1   -1    0    0    0  501  0.00000000000E+00  0.00000000000E+00 -0.20413037931E+03  0.20413037937E+03  0.50400001928E-02 0.  1.
    10030    2    1    2    0    0  0.00000000000E+00  0.00000000000E+00  0.89761737416E+03  0.13058781328E+04  0.94847285013E+03 0.  0.
        2    1    3    3  502    0 -0.32886185166E+01  0.17197823770E+03 -0.15966690630E+03  0.23469309796E+03  0.25500000920E-02 0.  1.
       -2    1    3    3    0  502  0.32886185166E+01 -0.17197823770E+03  0.10572842805E+04  0.10711850349E+04  0.25500000920E-02 0. -1.
</event>
<event>
 5   0  0.2008643E-02  0.8981057E+03  0.7818609E-02  0.9427952E-01
       -2   -1    0    0    0  501  0.00000000000E+00  0.00000000000E+00  0.23384983689E+03  0.23384983690E+03  0.25500000920E-02 0. -1.
        2   -1    0    0  501    0  0.00000000000E+00  0.00000000000E+00 -0.86229893604E+03  0.86229893605E+03  0.25500000920E-02 0.  1.
    10030    2    1    2    0    0  0.00000000000E+00  0.00000000000E+00 -0.62844909915E+03  0.10961487730E+04  0.89810570771E+03 0.  0.
        3    1    3    3  502    0 -0.40563896229E+03 -0.19166911803E+03 -0.33765192069E+03  0.56150587555E+03  0.10100000352E+00 0.  1.
       -3    1    3    3    0  502  0.40563896229E+03  0.19166911803E+03 -0.29079717846E+03  0.53464289740E+03  0.10100000352E+00 0. -1.
</event>
<event>
 5   0  0.1175993E-02  0.8792467E+03  0.7818609E-02  0.9451902E-01
       -1   -1    0    0    0  501  0.00000000000E+00  0.00000000000E+00  0.48195515343E+03  0.48195515346E+03  0.50400001928E-02 0. -1.
        1   -1    0    0  501    0  0.00000000000E+00  0.00000000000E+00 -0.40100973686E+03  0.40100973689E+03  0.50400001928E-02 0.  1.
    10030    2    1    2    0    0  0.00000000000E+00  0.00000000000E+00  0.80945416574E+02  0.88296489034E+03  0.87924674416E+03 0.  0.
        4    1    3    3  502    0 -0.36218872298E+03 -0.22704666765E+03 -0.62607529513E+02  0.43203260987E+03  0.12699999809E+01 0. -1.
       -4    1    3    3    0  502  0.36218872298E+03  0.22704666765E+03  0.14355294609E+03  0.45093228047E+03  0.12699999809E+01 0.  1.
</event>
<event>
 5   0  0.1175993E-02  0.9100522E+03  0.7818609E-02  0.9413102E-01
        1   -1    0    0  501    0  0.00000000000E+00  0.00000000000E+00  0.98830431686E+03  0.98830431688E+03  0.50400001928E-02 0.  1.
       -1   -1    0    0    0  501  0.00000000000E+00  0.00000000000E+00 -0.20949900046E+03  0.20949900052E+03  0.50400001928E-02 0. -1.
    10030    2    1    2    0    0  0.00000000000E+00  0.00000000000E+00  0.77880531641E+03  0.11978033174E+04  0.91005223273E+03 0.  0.
        4    1    3    3  502    0 -0.42548877046E+03  0.89006656275E+02  0.56640122251E+03  0.71398517940E+03  0.12699999809E+01 0.  1.
       -4    1    3    3    0  502  0.42548877046E+03 -0.89006656275E+02  0.21240409390E+03  0.48381813799E+03  0.12699999809E+01 0. -1.
</event>
<event>
 5   0  0.2008770E-02  0.9023187E+03  0.7818609E-02  0.9422688E-01
        2   -1    0    0  501    0  0.00000000000E+00  0.00000000000E+00  0.15149717867E+03  0.15149717869E+03  0.25500000920E-02 0. -1.
       -2   -1    0    0    0  501  0.00000000000E+00  0.00000000000E+00 -0.13435548371E+04  0.13435548371E+04  0.25500000920E-02 0.  1.
    10030    2    1    2    0    0  0.00000000000E+00  0.00000000000E+00 -0.11920576584E+04  0.14950520158E+04  0.90231871802E+03 0.  0.
        1    1    3    3  502    0  0.17989606948E+03  0.39133600094E+03 -0.37349593907E+03  0.57009269244E+03  0.50400001928E-02 0. -1.
       -1    1    3    3    0  502 -0.17989606948E+03 -0.39133600094E+03 -0.81856171932E+03  0.92495932332E+03  0.50400001928E-02 0.  1.
</event>
<event>
 5   0  0.1924218E-02  0.9048740E+03  0.7818609E-02  0.9419509E-01
       -2   -1    0    0    0  501  0.00000000000E+00  0.00000000000E+00  0.90447823615E+03  0.90447823615E+03  0.25500000920E-02 0. -1.
        2   -1    0    0  501    0  0.00000000000E+00  0.00000000000E+00 -0.22631747427E+03  0.22631747428E+03  0.25500000920E-02 0.  1.
    10030    2    1    2    0    0  0.00000000000E+00  0.00000000000E+00  0.67816076188E+03  0.11307957104E+04  0.90487398006E+03 0.  0.
        4    1    3    3  502    0  0.32046708270E+03 -0.30939033362E+03  0.43808160039E+03  0.62477086291E+03  0.12699999809E+01 0.  1.
       -4    1    3    3    0  502 -0.32046708270E+03  0.30939033362E+03  0.24007916149E+03  0.50602484753E+03  0.12699999809E+01 0. -1.
</event>
<event>
 5   0  0.1177712E-02  0.8721411E+03  0.7818609E-02  0.9461092E-01
       -1   -1    0    0    0  501  0.00000000000E+00  0.00000000000E+00  0.62311939395E+03  0.62311939397E+03  0.50400001928E-02 0.  1.
        1   -1    0    0  501    0  0.00000000000E+00  0.00000000000E+00 -0.30517029661E+03  0.30517029666E+03  0.50400001928E-02 0. -1.
    10030    2    1    2    0    0  0.00000000000E+00  0.00000000000E+00  0.31794909733E+03  0.92828969062E+03  0.87214111314E+03 0.  0.
        5    1    3    3  502    0  0.34940388143E+03 -0.93398951197E+02  0.41823143196E+03  0.55294308669E+03  0.46999998093E+01 0.  1.
       -5    1    3    3    0  502 -0.34940388143E+03  0.93398951197E+02 -0.10028233462E+03  0.37534660393E+03  0.46999998093E+01 0. -1.
</event>
<event>
 5   0  0.2008770E-02  0.7695531E+03  0.7818609E-02  0.9605164E-01
       -2   -1    0    0    0  501  0.00000000000E+00  0.00000000000E+00  0.12204004675E+03  0.12204004678E+03  0.25500000920E-02 0. -1.
        2   -1    0    0  501    0  0.00000000000E+00  0.00000000000E+00 -0.12131509035E+04  0.12131509035E+04  0.25500000920E-02 0.  1.
    10030    2    1    2    0    0  0.00000000000E+00  0.00000000000E+00 -0.10911108568E+04  0.13351909503E+04  0.76955309889E+03 0.  0.
        1    1    3    3  502    0 -0.38142230686E+03 -0.50592802805E+02 -0.53996415935E+03  0.66302632019E+03  0.50400001928E-02 0. -1.
       -1    1    3    3    0  502  0.38142230686E+03  0.50592802805E+02 -0.55114669742E+03  0.67216463011E+03  0.50400001928E-02 0.  1.
</event>
<event>
 5   0  0.2008643E-02  0.9020224E+03  0.7818609E-02  0.9423057E-01
       -2   -1    0    0    0  501  0.00000000000E+00  0.00000000000E+00  0.20250321026E+03  0.20250321027E+03  0.25500000920E-02 0.  1.
        2   -1    0    0  501    0  0.00000000000E+00  0.00000000000E+00 -0.10044832414E+04  0.10044832414E+04  0.25500000920E-02 0. -1.
    10030    2    1    2    0    0  0.00000000000E+00  0.00000000000E+00 -0.80198003117E+03  0.12069864517E+04  0.90202235238E+03 0.  0.
        3    1    3    3  502    0 -0.40293589111E+02 -0.26122004730E+03 -0.88999087000E+03  0.92840898602E+03  0.10100000352E+00 0. -1.
       -3    1    3    3    0  502  0.40293589111E+02  0.26122004730E+03  0.88010838826E+02  0.27857746569E+03  0.10100000352E+00 0.  1.
</event>
<event>
 5   0  0.1226424E-02  0.9259085E+03  0.7818609E-02  0.9393762E-01
       -1   -1    0    0    0  501  0.00000000000E+00  0.00000000000E+00  0.39580205953E+03  0.39580205956E+03  0.50400001928E-02 0.  1.
        1   -1    0    0  501    0  0.00000000000E+00  0.00000000000E+00 -0.54149960548E+03  0.54149960550E+03  0.50400001928E-02 0. -1.
    10030    2    1    2    0    0  0.00000000000E+00  0.00000000000E+00 -0.14569754595E+03  0.93730166507E+03  0.92590854648E+03 0.  0.
        1    1    3    3  502    0 -0.75715861552E+02 -0.48083758205E+02  0.38692232498E+03  0.39718235748E+03  0.50400001928E-02 0.  1.
       -1    1    3    3    0  502  0.75715861552E+02  0.48083758205E+02 -0.53261987093E+03  0.54011930759E+03  0.50400001928E-02 0. -1.
</event>
<event>
 5   0  0.1175993E-02  0.8945598E+03  0.7818609E-02  0.9432408E-01
       -1   -1    0    0    0  501  0.00000000000E+00  0.00000000000E+00  0.10527340442E+03  0.10527340454E+03  0.50400001928E-02 0.  1.
        1   -1    0    0  501    0  0.00000000000E+00  0.00000000000E+00 -0.19003784988E+04  0.19003784988E+04  0.50400001928E-02 0. -1.
    10030    2    1    2    0    0  0.00000000000E+00  0.00000000000E+00 -0.17951050944E+04  0.20056519034E+04  0.89455981218E+03 0.  0.
        4    1    3    3  502    0 -0.24986783641E+03  0.37036985585E+03 -0.84999478590E+03  0.96026064938E+03  0.12699999809E+01 0.  1.
       -4    1    3    3    0  502  0.24986783641E+03 -0.37036985585E+03 -0.94511030852E+03  0.10453912540E+04  0.12699999809E+01 0. -1.
</event>
<event>
 5   0  0.1206541E-02  0.9313121E+03  0.7818609E-02  0.9387265E-01
        1   -1    0    0  501    0  0.00000000000E+00  0.00000000000E+00  0.89874348752E+03  0.89874348753E+03  0.50400001928E-02 0. -1.
       -1   -1    0    0    0  501  0.00000000000E+00  0.00000000000E+00 -0.24126520794E+03  0.24126520799E+03  0.50400001928E-02 0.  1.
    10030    2    1    2    0    0  0.00000000000E+00  0.00000000000E+00  0.65747827958E+03  0.11400086955E+04  0.93131205177E+03 0.  0.
        3    1    3    3  502    0 -0.10431494844E+03 -0.21872620619E+03  0.81547842975E+03  0.85072195301E+03  0.10100000352E+00 0. -1.
       -3    1    3    3    0  502  0.10431494844E+03  0.21872620619E+03 -0.15800015017E+03  0.28928674252E+03  0.10100000352E+00 0.  1.
</event>
<event>
 5   0  0.1177712E-02  0.9268241E+03  0.7818609E-02  0.9392658E-01
        1   -1    0    0  501    0  0.00000000000E+00  0.00000000000E+00  0.97105801156E+03  0.97105801157E+03  0.50400001928E-02 0.  1.
       -1   -1    0    0    0  501  0.00000000000E+00  0.00000000000E+00 -0.22115128207E+03  0.22115128213E+03  0.50400001928E-02 0. -1.
    10030    2    1    2    0    0  0.00000000000E+00  0.00000000000E+00  0.74990672949E+03  0.11922092937E+04  0.92682409176E+03 0.  0.
        5    1    3    3  502    0  0.27564147988E+03  0.18131536032E+03 -0.43601318722E+02  0.33283126403E+03  0.46999998093E+01 0. -1.
       -5    1    3    3    0  502 -0.27564147988E+03 -0.18131536032E+03  0.79350804821E+03  0.85937802968E+03  0.46999998093E+01 0.  1.
</event>
<event>
 5   0  0.7893875E-03  0.9064992E+03  0.7818609E-02  0.9417493E-01
        3   -1    0    0  501    0  0.00000000000E+00  0.00000000000E+00  0.32420857541E+03  0.32420859115E+03  0.10100000352E+00 0. -1.
       -3   -1    0    0    0  501  0.00000000000E+00  0.00000000000E+00 -0.63365124844E+03  0.63365125648E+03  0.10100000352E+00 0.  1.
    10030    2    1    2    0    0  0.00000000000E+00  0.00000000000E+00 -0.30944267302E+03  0.95785984763E+03  0.90649915599E+03 0.  0.
        4    1    3    3  502    0  0.52300080362E+01  0.19706361275E+03 -0.58597793757E+03  0.61825009233E+03  0.12699999809E+01 0.  1.
       -4    1    3    3    0  502 -0.52300080362E+01 -0.19706361275E+03  0.27653526455E+03  0.33960975530E+03  0.12699999809E+01 0. -1.
</event>
<event>
 5   0  0.1206541E-02  0.9058076E+03  0.7818609E-02  0.9418351E-01
       -1   -1    0    0    0  501  0.00000000000E+00  0.00000000000E+00  0.87119499649E+03  0.87119499650E+03  0.50400001928E-02 0.  1.
        1   -1    0    0  501    0  0.00000000000E+00  0.00000000000E+00 -0.23544883853E+03  0.23544883858E+03  0.50400001928E-02 0. -1.
    10030    2    1    2    0    0  0.00000000000E+00  0.00000000000E+00  0.63574615796E+03  0.11066438351E+04  0.90580759567E+03 0.  0.
        3    1    3    3  502    0  0.36688854443E+03 -0.19909211269E+02  0.64138290304E+03  0.73917225275E+03  0.10100000352E+00 0.  1.
       -3    1    3    3    0  502 -0.36688854443E+03  0.19909211269E+02 -0.56367450849E+01  0.36747158233E+03  0.10100000352E+00 0. -1.
</event>
<event>
 5   0  0.1924218E-02  0.8822917E+03  0.7818609E-02  0.9447992E-01
        2   -1    0    0  501    0  0.00000000000E+00  0.00000000000E+00  0.65008513677E+03  0.65008513678E+03  0.25500000920E-02 0.  1.
       -2   -1    0    0    0  501  0.00000000000E+00  0.00000000000E+00 -0.29936029941E+03  0.29936029942E+03  0.25500000920E-02 0. -1.
    10030    2    1    2    0    0  0.00000000000E+00  0.00000000000E+00  0.35072483737E+03  0.94944543619E+03  0.88229174583E+03 0.  0.
        4    1    3    3  502    0 -0.24859530995E+03 -0.29075030137E+03 -0.61070858036E+02  0.38738434207E+03  0.12699999809E+01 0. -1.
       -4    1    3    3    0  502  0.24859530995E+03  0.29075030137E+03  0.41179569540E+03  0.56206109413E+03  0.12699999809E+01 0.  1.
</event>
<event>
 5   0  0.2008770E-02  0.7339337E+03  0.7818609E-02  0.9660899E-01
       -2   -1    0    0    0  501  0.00000000000E+00  0.00000000000E+00  0.10115373792E+03  0.10115373795E+03  0.25500000920E-02 0. -1.
        2   -1    0    0  501    0  0.00000000000E+00  0.00000000000E+00 -0.13312869729E+04  0.13312869729E+04  0.25500000920E-02 0.  1.
    10030    2    1    2    0    0  0.00000000000E+00  0.00000000000E+00 -0.12301332349E+04  0.14324407108E+04  0.73393365795E+03 0.  0.
        1    1    3    3  502    0  0.22096737127E+03  0.26435195429E+03 -0.36852883852E+03  0.50450177378E+03  0.50400001928E-02 0. -1.
       -1    1    3    3    0  502 -0.22096737127E+03 -0.26435195429E+03 -0.86160439643E+03  0.92793893704E+03  0.50400001928E-02 0.  1.
</event>
<event>
 5   0  0.1162839E-02  0.8987063E+03  0.7818609E-02  0.9427200E-01
        1   -1    0    0  501    0  0.00000000000E+00  0.00000000000E+00  0.22437023602E+03  0.22437023608E+03  0.50400001928E-02 0. -1.
       -1   -1    0    0    0  501  0.00000000000E+00  0.00000000000E+00 -0.89993330984E+03  0.89993330985E+03  0.50400001928E-02 0.  1.
    10030    2    1    2    0    0  0.00000000000E+00  0.00000000000E+00 -0.67556307382E+03  0.11243035459E+04  0.89870629056E+03 0.  0.
        2    1    3    3  502    0  0.41934098936E+03 -0.14004651328E+03 -0.43831875266E+03  0.62256182037E+03  0.25500000920E-02 0. -1.
       -2    1    3    3    0  502 -0.41934098936E+03  0.14004651328E+03 -0.23724432116E+03  0.50174172556E+03  0.25500000920E-02 0.  1.
</event>
<event>
 5   0  0.2041861E-02  0.9326766E+03  0.7818609E-02  0.9385631E-01
       -2   -1    0    0    0  501  0.00000000000E+00  0.00000000000E+00  0.42596167937E+03  0.42596167938E+03  0.25500000920E-02 0. -1.
        2   -1    0    0  501    0  0.00000000000E+00  0.00000000000E+00 -0.51054220713E+03  0.51054220714E+03  0.25500000920E-02 0.  1.
    10030    2    1    2    0    0  0.00000000000E+00  0.00000000000E+00 -0.84580527764E+02  0.93650388651E+03  0.93267661265E+03 0.  0.
        5    1    3    3  502    0 -0.21042353053E+03  0.13138514334E+03 -0.43876396025E+03  0.50405954103E+03  0.46999998093E+01 0.  1.
       -5    1    3    3    0  502  0.21042353053E+03 -0.13138514334E+03  0.35418343249E+03  0.43244434548E+03  0.46999998093E+01 0. -1.
</event>
<event>
 5   0  0.1162839E-02  0.9482320E+03  0.7818609E-02  0.9367219E-01
        1   -1    0    0  501    0  0.00000000000E+00  0.00000000000E+00  0.50853579663E+03  0.50853579665E+03  0.50400001928E-02 0.  1.
       -1   -1    0    0    0  501  0.00000000000E+00  0.00000000000E+00 -0.44202590866E+03  0.44202590869E+03  0.50400001928E-02 0. -1.
    10030    2    1    2    0    0  0.00000000000E+00  0.00000000000E+00  0.66509887964E+02  0.95056170535E+03  0.94823203409E+03 0.  0.
        2    1    3    3  502    0 -0.13691861284E+03 -0.37289806088E+03  0.29270799053E+03  0.49343453271E+03  0.25500000920E-02 0.  1.
       -2    1    3    3    0  502  0.13691861284E+03  0.37289806088E+03 -0.22619810257E+03  0.45712717263E+03  0.25500000920E-02 0. -1.
</event>
<event>
 5   0  0.1968763E-02  0.8809457E+03  0.7818609E-02  0.9449719E-01
        2   -1    0    0  501    0  0.00000000000E+00  0.00000000000E+00  0.25161992879E+03  0.25161992880E+03  0.25500000920E-02 0. -1.
       -2   -1    0    0    0  501  0.00000000000E+00  0.00000000000E+00 -0.77106899780E+03  0.77106899781E+03  0.25500000920E-02 0.  1.
    10030    2    1    2    0    0  0.00000000000E+00  0.00000000000E+00 -0.51944906901E+03  0.10226889266E+04  0.88094568806E+03 0.  0.
        2    1    3    3  502    0 -0.66173839354E+02 -0.28286897406E+03 -0.64408990798E+03  0.70657316894E+03  0.25500000920E-02 0.  1.
       -2    1    3    3    0  502  0.66173839354E+02  0.28286897406E+03  0.12464083896E+03  0.31611575767E+03  0.25500000920E-02 0. -1.
</event>
<event>
 5   0  0.2008643E-02  0.8826336E+03  0.7818609E-02  0.9447554E-01
       -2   -1    0    0    0  501  0.00000000000E+00  0.00000000000E+00  0.17582952772E+03  0.17582952774E+03  0.25500000920E-02 0.  1.
        2   -1    0    0  501    0  0.00000000000E+00  0.00000000000E+00 -0.11076666740E+04  0.11076666740E+04  0.25500000920E-02 0. -1.
    10030    2    1    2    0    0  0.00000000000E+00  0.00000000000E+00 -0.93183714630E+03  0.12834962018E+04  0.88263357784E+03 0.  0.
        3    1    3    3  502    0  0.66558938743E+02  0.34935303830E+03 -0.84590667221E+03  0.91762505741E+03  0.10100000352E+00 0. -1.
       -3    1    3    3    0  502 -0.66558938743E+02 -0.34935303830E+03 -0.85930474095E+02  0.36587114436E+03  0.10100000352E+00 0.  1.
</event>
<event>
 5   0  0.7893875E-03  0.8607960E+03  0.7818609E-02  0.9475960E-01
        3   -1    0    0  501    0  0.00000000000E+00  0.00000000000E+00  0.76591093808E+03  0.76591094474E+03  0.10100000352E+00 0.  1.
       -3   -1    0    0    0  501  0.00000000000E+00  0.00000000000E+00 -0.24185898723E+03  0.24185900832E+03  0.10100000352E+00 0. -1.
    10030    2    1    2    0    0  0.00000000000E+00  0.00000000000E+00  0.52405195085E+03  0.10077699531E+04  0.86079604501E+03 0.  0.
        2    1    3    3  502    0  0.29779827341E+02 -0.42863260202E+03  0.23264730235E+03  0.48860772909E+03  0.25500000920E-02 0. -1.
       -2    1    3    3    0  502 -0.29779827341E+02  0.42863260202E+03  0.29140464850E+03  0.51916222398E+03  0.25500000920E-02 0.  1.
</event>
<event>
 5   0  0.2008770E-02  0.8964372E+03  0.7818609E-02  0.9430046E-01
       -2   -1    0    0    0  501  0.00000000000E+00  0.00000000000E+00  0.34533258199E+03  0.34533258200E+03  0.25500000920E-02 0.  1.
        2   -1    0    0  501    0  0.00000000000E+00  0.00000000000E+00 -0.58175779729E+03  0.58175779730E+03  0.25500000920E-02 0. -1.
    10030    2    1    2    0    0  0.00000000000E+00  0.00000000000E+00 -0.23642521530E+03  0.92709037930E+03  0.89643721975E+03 0.  0.
        1    1    3    3  502    0  0.43327022715E+03  0.99002311104E+02 -0.17829721133E+03  0.47886787628E+03  0.50400001928E-02 0. -1.
       -1    1    3    3    0  502 -0.43327022715E+03 -0.99002311104E+02 -0.58128003974E+02  0.44822250302E+03  0.50400001928E-02 0.  1.
</event>
<event>
 5   0  0.1924218E-02  0.8812894E+03  0.7818609E-02  0.9449278E-01
        2   -1    0    0  501    0  0.00000000000E+00  0.00000000000E+00  0.72509651778E+03  0.72509651778E+03  0.25500000920E-02 0. -1.
       -2   -1    0    0    0  501  0.00000000000E+00  0.00000000000E+00 -0.26778194651E+03  0.26778194653E+03  0.25500000920E-02 0.  1.
    10030    2    1    2    0    0  0.00000000000E+00  0.00000000000E+00  0.45731457126E+03  0.99287846431E+03  0.88128941205E+03 0.  0.
        4    1    3    3  502    0 -0.32261251614E+03 -0.29926219893E+03  0.25458044146E+03  0.50837930067E+03  0.12699999809E+01 0.  1.
       -4    1    3    3    0  502  0.32261251614E+03  0.29926219893E+03  0.20273412980E+03  0.48449916363E+03  0.12699999809E+01 0. -1.
</event>
<event>
 5   0  0.1177712E-02  0.9044438E+03  0.7818609E-02  0.9420043E-01
       -1   -1    0    0    0  501  0.00000000000E+00  0.00000000000E+00  0.21278045810E+03  0.21278045815E+03  0.50400001928E-02 0. -1.
        1   -1    0    0  501    0  0.00000000000E+00  0.00000000000E+00 -0.96110625354E+03  0.96110625355E+03  0.50400001928E-02 0.  1.
    10030    2    1    2    0    0  0.00000000000E+00  0.00000000000E+00 -0.74832579544E+03  0.11738867117E+04  0.90444376044E+03 0.  0.
        5    1    3    3  502    0  0.40788223256E+03  0.15413088276E+01 -0.12078023218E+03  0.42541773089E+03  0.46999998093E+01 0. -1.
       -5    1    3    3    0  502 -0.40788223256E+03 -0.15413088276E+01 -0.62754556327E+03  0.74846898082E+03  0.46999998093E+01 0.  1.
</event>
<event>
 5   0  0.1162839E-02  0.9451075E+03  0.7818609E-02  0.9370887E-01
       -1   -1    0    0    0  501  0.00000000000E+00  0.00000000000E+00  0.37612355871E+03  0.37612355874E+03  0.50400001928E-02 0. -1.
        1   -1    0    0  501    0  0.00000000000E+00  0.00000000000E+00 -0.59370664204E+03  0.59370664206E+03  0.50400001928E-02 0.  1.
    10030    2    1    2    0    0  0.00000000000E+00  0.00000000000E+00 -0.21758308333E+03  0.96983020080E+03  0.94510751782E+03 0.  0.
        2    1    3    3  502    0  0.20253638863E+02 -0.17874007004E+03 -0.55719916770E+03  0.58551612704E+03  0.25500000920E-02 0.  1.
       -2    1    3    3    0  502 -0.20253638863E+02  0.17874007004E+03  0.33961608437E+03  0.38431407377E+03  0.25500000920E-02 0. -1.
</event>
<event>
 5   0  0.1177712E-02  0.9032196E+03  0.7818609E-02  0.9421566E-01
       -1   -1    0    0    0  501  0.00000000000E+00  0.00000000000E+00  0.31579895125E+03  0.31579895129E+03  0.50400001928E-02 0. -1.
        1   -1    0    0  501    0  0.00000000000E+00  0.00000000000E+00 -0.64582676712E+03  0.64582676714E+03  0.50400001928E-02 0.  1.
    10030    2    1    2    0    0  0.00000000000E+00  0.00000000000E+00 -0.33002781586E+03  0.96162571843E+03  0.90321960957E+03 0.  0.
        5    1    3    3  502    0 -0.92427802752E+02  0.14000331086E+03  0.28136558688E+03  0.32761640565E+03  0.46999998093E+01 0. -1.
       -5    1    3    3    0  502  0.92427802752E+02 -0.14000331086E+03 -0.61139340274E+03  0.63400931278E+03  0.46999998093E+01 0.  1.
</event>
<event>
 5   0  0.2008643E-02  0.9062500E+03  0.7818609E-02  0.9417802E-01
        2   -1    0    0  501    0  0.00000000000E+00  0.00000000000E+00  0.69409551848E+03  0.69409551848E+03  0.25500000920E-02 0. -1.
       -2   -1    0    0    0  501  0.00000000000E+00  0.00000000000E+00 -0.29581266591E+03  0.29581266593E+03  0.25500000920E-02 0.  1.
    10030    2    1    2    0    0  0.00000000000E+00  0.00000000000E+00  0.39828285256E+03  0.98990818441E+03  0.90624995609E+03 0.  0.
        3    1    3    3  502    0 -0.22850668896E+03 -0.32617963299E+03  0.43522697385E+03  0.58994151307E+03  0.10100000352E+00 0. -1.
       -3    1    3    3    0  502  0.22850668896E+03  0.32617963299E+03 -0.36944121293E+02  0.39996667133E+03  0.10100000352E+00 0.  1.
</event>
<event>
 5   0  0.1968763E-02  0.9197057E+03  0.7818609E-02  0.9401278E-01
        2   -1    0    0  501    0  0.00000000000E+00  0.00000000000E+00  0.94067608105E+03  0.94067608105E+03  0.25500000920E-02 0.  1.
       -2   -1    0    0    0  501  0.00000000000E+00  0.00000000000E+00 -0.22480072590E+03  0.22480072591E+03  0.25500000920E-02 0. -1.
    10030    2    1    2    0    0  0.00000000000E+00  0.00000000000E+00  0.71587535515E+03  0.11654768070E+04  0.91970574830E+03 0.  0.
        2    1    3    3  502    0  0.23073204853E+01  0.37707621862E+03  0.24406591891E+02  0.37787230662E+03  0.25500000920E-02 0. -1.
       -2    1    3    3    0  502 -0.23073204853E+01 -0.37707621862E+03  0.69146876326E+03  0.78760450034E+03  0.25500000920E-02 0.  1.
</event>
<event>
 5   0  0.2041861E-02  0.9414850E+03  0.7818609E-02  0.9375159E-01
        2   -1    0    0  501    0  0.00000000000E+00  0.00000000000E+00  0.64564280375E+03  0.64564280375E+03  0.25500000920E-02 0. -1.
       -2   -1    0    0    0  501  0.00000000000E+00  0.00000000000E+00 -0.34322152120E+03  0.34322152120E+03  0.25500000920E-02 0.  1.
    10030    2    1    2    0    0  0.00000000000E+00  0.00000000000E+00  0.30242128255E+03  0.98886432496E+03  0.94148500839E+03 0.  0.
        5    1    3    3  502    0 -0.32073558472E+03 -0.58421213493E+02  0.50784485353E+03  0.60350048778E+03  0.46999998093E+01 0. -1.
       -5    1    3    3    0  502  0.32073558472E+03  0.58421213493E+02 -0.20542357098E+03  0.38536383718E+03  0.46999998093E+01 0.  1.
</event>
<event>
 5   0  0.1175993E-02  0.9329747E+03  0.7818609E-02  0.9385275E-01
        1   -1    0    0  501    0  0.00000000000E+00  0.00000000000E+00  0.18886866925E+04  0.18886866925E+04  0.50400001928E-02 0.  1.
       -1   -1    0    0    0  501  0.00000000000E+00  0.00000000000E+00 -0.11521786964E+03  0.11521786975E+03  0.50400001928E-02 0. -1.
    10030    2    1    2    0    0  0.00000000000E+00  0.00000000000E+00  0.17734688229E+04  0.20039045622E+04  0.93297472042E+03 0.  0.
        4    1    3    3  502    0 -0.39640255892E+03 -0.24537064396E+03  0.85163124491E+03  0.97088574603E+03  0.12699999809E+01 0.  1.
       -4    1    3    3    0  502  0.39640255892E+03  0.24537064396E+03  0.92183757794E+03  0.10330188162E+04  0.12699999809E+01 0. -1.
</event>
<event>
 5   0  0.1226424E-02  0.9112025E+03  0.7818609E-02  0.9411685E-01
       -1   -1    0    0    0  501  0.00000000000E+00  0.00000000000E+00  0.35726952583E+03  0.35726952586E+03  0.50400001928E-02 0.  1.
        1   -1    0    0  501    0  0.00000000000E+00  0.00000000000E+00 -0.58099697678E+03  0.58099697680E+03  0.50400001928E-02 0. -1.
    10030    2    1    2    0    0  0.00000000000E+00  0.00000000000E+00 -0.22372745095E+03  0.93826650267E+03  0.91120253386E+03 0.  0.
        1    1    3    3  502    0  0.32315880671E+02 -0.16061004539E+03 -0.54961715285E+03  0.57351453125E+03  0.50400001928E-02 0. -1.
       -1    1    3    3    0  502 -0.32315880671E+02  0.16061004539E+03  0.32588970190E+03  0.36475197142E+03  0.50400001928E-02 0.  1.
</event>
<event>
 5   0  0.1968763E-02  0.9138054E+03  0.7818609E-02  0.9408487E-01
       -2   -1    0    0    0  501  0.00000000000E+00  0.00000000000E+00  0.81356003266E+03  0.81356003267E+03  0.25500000920E-02 0.  1.
        2   -1    0    0  501    0  0.00000000000E+00  0.00000000000E+00 -0.25660070661E+03  0.25660070662E+03  0.25500000920E-02 0. -1.
    10030    2    1    2    0    0  0.00000000000E+00  0.00000000000E+00  0.55695932605E+03  0.10701607393E+04  0.91380540436E+03 0.  0.
        2    1    3    3  502    0  0.33409003498E+03  0.19682347490E+03  0.56150039633E+03  0.68237696827E+03  0.25500000920E-02 0.  1.
       -2    1    3    3    0  502 -0.33409003498E+03 -0.19682347490E+03 -0.45410702762E+01  0.38778377102E+03  0.25500000920E-02 0. -1.
</event>
<event>
 5   0  0.1177712E-02  0.8945607E+03  0.7818609E-02  0.9432407E-01
        1   -1    0    0  501    0  0.00000000000E+00  0.00000000000E+00  0.32480796419E+03  0.32480796422E+03  0.50400001928E-02 0.  1.
       -1   -1    0    0    0  501  0.00000000000E+00  0.00000000000E+00 -0.61593223091E+03  0.61593223093E+03  0.50400001928E-02 0. -1.
    10030    2    1    2    0    0  0.00000000000E+00  0.00000000000E+00 -0.29112426673E+03  0.94074019516E+03  0.89456066094E+03 0.  0.
        5    1    3    3  502    0 -0.33257082986E+03 -0.16803479583E+03  0.11459185425E+03  0.38986206861E+03  0.46999998093E+01 0.  1.
       -5    1    3    3    0  502  0.33257082986E+03  0.16803479583E+03 -0.40571612098E+03  0.55087812654E+03  0.46999998093E+01 0. -1.
</event>
<event>
 5   0  0.1175993E-02  0.8788682E+03  0.7818609E-02  0.9452390E-01
       -1   -1    0    0    0  501  0.00000000000E+00  0.00000000000E+00  0.15087555081E+04  0.15087555081E+04  0.50400001928E-02 0.  1.
        1   -1    0    0  501    0  0.00000000000E+00  0.00000000000E+00 -0.12798782322E+03  0.12798782332E+03  0.50400001928E-02 0. -1.
    10030    2    1    2    0    0  0.00000000000E+00  0.00000000000E+00  0.13807676848E+04  0.16367433314E+04  0.87886821159E+03 0.  0.
        4    1    3    3  502    0  0.23451336253E+03 -0.64977427853E+02  0.13718089663E+04  0.13932264842E+04  0.12699999809E+01 0.  1.
       -4    1    3    3    0  502 -0.23451336253E+03  0.64977427853E+02  0.89587185521E+01  0.24351684720E+03  0.12699999809E+01 0. -1.
</event>
<event>
 5   0  0.1924218E-02  0.8808211E+03  0.7818609E-02  0.9449879E-01
       -2   -1    0    0    0  501  0.00000000000E+00  0.00000000000E+00  0.43174421467E+03  0.43174421468E+03  0.25500000920E-02 0.  1.
        2   -1    0    0  501    0  0.00000000000E+00  0.00000000000E+00 -0.44925087763E+03  0.44925087764E+03  0.25500000920E-02 0. -1.
    10030    2    1    2    0    0  0.00000000000E+00  0.00000000000E+00 -0.17506662962E+02  0.88099509232E+03  0.88082113362E+03 0.  0.
        4    1    3    3  502    0 -0.69322782936E+02  0.43277632633E+03  0.34369654289E+02  0.43964062926E+03  0.12699999809E+01 0. -1.
       -4    1    3    3    0  502  0.69322782936E+02 -0.43277632633E+03 -0.51876317250E+02  0.44135446305E+03  0.12699999809E+01 0.  1.
</event>
<event>
 5   0  0.1177712E-02  0.9134484E+03  0.7818609E-02  0.9408925E-01
        1   -1    0    0  501    0  0.00000000000E+00  0.00000000000E+00  0.29231208533E+04  0.29231208533E+04  0.50400001928E-02 0. -1.
       -1   -1    0    0    0  501  0.00000000000E+00  0.00000000000E+00 -0.71361051152E+02  0.71361051330E+02  0.50400001928E-02 0.  1.
    10030    2    1    2    0    0  0.00000000000E+00  0.00000000000E+00  0.28517598022E+04  0.29944819046E+04  0.91344836090E+03 0.  0.
        5    1    3    3  502    0  0.21355752063E+03  0.31234236853E+03  0.58746146434E+03  0.69878296479E+03  0.46999998093E+01 0.  1.
       -5    1    3    3    0  502 -0.21355752063E+03 -0.31234236853E+03  0.22642983378E+04  0.22956989398E+04  0.46999998093E+01 0. -1.
</event>
<event>
 5   0  0.2008643E-02  0.8819885E+03  0.7818609E-02  0.9448381E-01
       -2   -1    0    0    0  501  0.00000000000E+00  0.00000000000E+00  0.27598829502E+03  0.27598829504E+03  0.25500000920E-02 0. -1.
        2   -1    0    0  501    0  0.00000000000E+00  0.00000000000E+00 -0.70465276815E+03  0.70465276815E+03  0.25500000920E-02 0.  1.
    10030    2    1    2    0    0  0.00000000000E+00  0.00000000000E+00 -0.42866447313E+03  0.98064106319E+03  0.88198847175E+03 0.  0.
        3    1    3    3  502    0  0.10268218833E+03  0.26758382209E+03 -0.58697896409E+03  0.65321439676E+03  0.10100000352E+00 0.  1.
       -3    1    3    3    0  502 -0.10268218833E+03 -0.26758382209E+03  0.15831449096E+03  0.32742666643E+03  0.10100000352E+00 0. -1.
</event>
<event>
 5   0  0.2008770E-02  0.8983804E+03  0.7818609E-02  0.9427608E-01
        2   -1    0    0  501    0  0.00000000000E+00  0.00000000000E+00  0.37791606168E+03  0.37791606169E+03  0.25500000920E-02 0. -1.
       -2   -1    0    0    0  501  0.00000000000E+00  0.00000000000E+00 -0.53390651830E+03  0.53390651830E+03  0.25500000920E-02 0.  1.
    10030    2    1    2    0    0  0.00000000000E+00  0.00000000000E+00 -0.15599045662E+03  0.91182257999E+03  0.89838042878E+03 0.  0.
        1    1    3    3  502    0  0.33896710428E+03 -0.27770697284E+03  0.22234520615E+02  0.43876444077E+03  0.50400001928E-02 0. -1.
       -1    1    3    3    0  502 -0.33896710428E+03  0.27770697284E+03 -0.17822497724E+03  0.47305813922E+03  0.50400001928E-02 0.  1.
</event>
<event>
 5   0  0.1226424E-02  0.8756974E+03  0.7818609E-02  0.9456481E-01
        1   -1    0    0  501    0  0.00000000000E+00  0.00000000000E+00  0.39929715016E+03  0.39929715019E+03  0.50400001928E-02 0.  1.
       -1   -1    0    0    0  501  0.00000000000E+00  0.00000000000E+00 -0.48012235503E+03  0.48012235506E+03  0.50400001928E-02 0. -1.
    10030    2    1    2    0    0  0.00000000000E+00  0.00000000000E+00 -0.80825204867E+02  0.87941950525E+03  0.87569740920E+03 0.  0.
        1    1    3    3  502    0 -0.69312935768E+02 -0.17683757953E+03 -0.43659630514E+03  0.47612198677E+03  0.50400001928E-02 0. -1.
       -1    1    3    3    0  502  0.69312935768E+02  0.17683757953E+03  0.35577110027E+03  0.40329751848E+03  0.50400001928E-02 0.  1.
</event>
<event>
 5   0  0.7893875E-03  0.8130049E+03  0.7818609E-02  0.9541382E-01
       -3   -1    0    0    0  501  0.00000000000E+00  0.00000000000E+00  0.85828502674E+03  0.85828503268E+03  0.10100000352E+00 0. -1.
        3   -1    0    0  501    0  0.00000000000E+00  0.00000000000E+00 -0.19252837911E+03  0.19252840560E+03  0.10100000352E+00 0.  1.
    10030    2    1    2    0    0  0.00000000000E+00  0.00000000000E+00  0.66575664763E+03  0.10508134383E+04  0.81300490049E+03 0.  0.
        1    1    3    3  502    0 -0.20337172991E+03  0.27300637203E+03  0.45745049378E+02  0.34348966399E+03  0.50400001928E-02 0.  1.
       -1    1    3    3    0  502  0.20337172991E+03 -0.27300637203E+03  0.62001159825E+03  0.70732377430E+03  0.50400001928E-02 0. -1.
</event>
<event>
 5   0  0.1162839E-02  0.9018697E+03  0.7818609E-02  0.9423247E-01
        1   -1    0    0  501    0  0.00000000000E+00  0.00000000000E+00  0.14722378305E+04  0.14722378305E+04  0.50400001928E-02 0. -1.
       -1   -1    0    0    0  501  0.00000000000E+00  0.00000000000E+00 -0.13811780194E+03  0.13811780203E+03  0.50400001928E-02 0.  1.
    10030    2    1    2    0    0  0.00000000000E+00  0.00000000000E+00  0.13341200286E+04  0.16103556325E+04  0.90186973152E+03 0.  0.
        2    1    3    3  502    0 -0.20722351220E+03 -0.34865434848E+02  0.13794686125E+04  0.13953819676E+04  0.25500000920E-02 0. -1.
       -2    1    3    3    0  502  0.20722351220E+03  0.34865434848E+02 -0.45348583936E+02  0.21497366496E+03  0.25500000920E-02 0.  1.
</event>
<event>
 5   0  0.1175993E-02  0.9131091E+03  0.7818609E-02  0.9409341E-01
       -1   -1    0    0    0  501  0.00000000000E+00  0.00000000000E+00  0.23760794375E+03  0.23760794380E+03  0.50400001928E-02 0. -1.
        1   -1    0    0  501    0  0.00000000000E+00  0.00000000000E+00 -0.87725211975E+03  0.87725211977E+03  0.50400001928E-02 0.  1.
    10030    2    1    2    0    0  0.00000000000E+00  0.00000000000E+00 -0.63964417600E+03  0.11148600636E+04  0.91310913337E+03 0.  0.
        4    1    3    3  502    0  0.22217298122E+03 -0.21228606545E+03  0.92443649833E+02  0.32089507391E+03  0.12699999809E+01 0. -1.
       -4    1    3    3    0  502 -0.22217298122E+03  0.21228606545E+03 -0.73208782584E+03  0.79396498966E+03  0.12699999809E+01 0.  1.
</event>
<event>
 5   0  0.1175993E-02  0.9015624E+03  0.7818609E-02  0.9423630E-01
       -1   -1    0    0    0  501  0.00000000000E+00  0.00000000000E+00  0.13115112336E+03  0.13115112346E+03  0.50400001928E-02 0. -1.
        1   -1    0    0  501    0  0.00000000000E+00  0.00000000000E+00 -0.15493858847E+04  0.15493858847E+04  0.50400001928E-02 0.  1.
    10030    2    1    2    0    0  0.00000000000E+00  0.00000000000E+00 -0.14182347614E+04  0.16805370082E+04  0.90156242023E+03 0.  0.
        4    1    3    3  502    0 -0.34074970529E+03  0.25985137161E+03 -0.44836007781E+03  0.62021082645E+03  0.12699999809E+01 0. -1.
       -4    1    3    3    0  502  0.34074970529E+03 -0.25985137161E+03 -0.96987468357E+03  0.10603261818E+04  0.12699999809E+01 0.  1.
</event>
<event>
 5   0  0.1226424E-02  0.9009308E+03  0.7818609E-02  0.9424419E-01
        1   -1    0    0  501    0  0.00000000000E+00  0.00000000000E+00  0.21158622776E+03  0.21158622782E+03  0.50400001928E-02 0.  1.
       -1   -1    0    0    0  501  0.00000000000E+00  0.00000000000E+00 -0.95903717747E+03  0.95903717748E+03  0.50400001928E-02 0. -1.
    10030    2    1    2    0    0  0.00000000000E+00  0.00000000000E+00 -0.74745094971E+03  0.11706234053E+04  0.90093076028E+03 0.  0.
        1    1    3    3  502    0 -0.33872095612E+03  0.68543067795E+02  0.17144641631E+01  0.34559076618E+03  0.50400001928E-02 0.  1.
       -1    1    3    3    0  502  0.33872095612E+03 -0.68543067795E+02 -0.74916541387E+03  0.82503263912E+03  0.50400001928E-02 0. -1.
</event>
<event>
 5   0  0.2041861E-02  0.9075036E+03  0.7818609E-02  0.9416250E-01
       -2   -1    0    0    0  501  0.00000000000E+00  0.00000000000E+00  0.21494603330E+03  0.21494603332E+03  0.25500000920E-02 0. -1.
        2   -1    0    0  501    0  0.00000000000E+00  0.00000000000E+00 -0.95787164185E+03  0.95787164185E+03  0.25500000920E-02 0.  1.
    10030    2    1    2    0    0  0.00000000000E+00  0.00000000000E+00 -0.74292560855E+03  0.11728176752E+04  0.90750363049E+03 0.  0.
        5    1    3    3  502    0  0.41627201644E+03 -0.83740376639E+02 -0.57813381929E+03  0.71732534136E+03  0.46999998093E+01 0.  1.
       -5    1    3    3    0  502 -0.41627201644E+03  0.83740376639E+02 -0.16479178926E+03  0.45549233381E+03  0.46999998093E+01 0. -1.
</event>
<event>
 5   0  0.1968763E-02  0.9371693E+03  0.7818609E-02  0.9380275E-01
        2   -1    0    0  501    0  0.00000000000E+00  0.00000000000E+00  0.87133129221E+03  0.87133129222E+03  0.25500000920E-02 0. -1.
       -2   -1    0    0    0  501  0.00000000000E+00  0.00000000000E+00 -0.25199549457E+03  0.25199549458E+03  0.25500000920E-02 0.  1.
    10030    2    1    2    0    0  0.00000000000E+00  0.00000000000E+00  0.61933579765E+03  0.11233267868E+04  0.93716926949E+03 0.  0.
        2    1    3    3  502    0 -0.34517907874E+03 -0.30340832106E+03  0.41930466067E+03  0.62211060444E+03  0.25500000920E-02 0. -1.
       -2    1    3    3    0  502  0.34517907874E+03  0.30340832106E+03  0.20003113698E+03  0.50121618236E+03  0.25500000920E-02 0.  1.
</event>
<event>
 5   0  0.1162839E-02  0.1015690E+04  0.7818609E-02  0.9291502E-01
        1   -1    0    0  501    0  0.00000000000E+00  0.00000000000E+00  0.32567031909E+03  0.32567031913E+03  0.50400001928E-02 0. -1.
       -1   -1    0    0    0  501  0.00000000000E+00  0.00000000000E+00 -0.79192467516E+03  0.79192467517E+03  0.50400001928E-02 0.  1.
    10030    2    1    2    0    0  0.00000000000E+00  0.00000000000E+00 -0.46625435607E+03  0.11175949943E+04  0.10156896409E+04 0.  0.
        2    1    3    3  502    0  0.31178146283E+03 -0.25389287823E+03  0.10821869806E+03  0.41638991438E+03  0.25500000920E-02 0. -1.
       -2    1    3    3    0  502 -0.31178146283E+03  0.25389287823E+03 -0.57447305413E+03  0.70120507992E+03  0.25500000920E-02 0.  1.
</event>
<event>
 5   0  0.1175993E-02  0.9558143E+03  0.7818609E-02  0.9358380E-01
        1   -1    0    0  501    0  0.00000000000E+00  0.00000000000E+00  0.13014736411E+04  0.13014736411E+04  0.50400001928E-02 0.  1.
       -1   -1    0    0    0  501  0.00000000000E+00  0.00000000000E+00 -0.17548970224E+03  0.17548970231E+03  0.50400001928E-02 0. -1.
    10030    2    1    2    0    0  0.00000000000E+00  0.00000000000E+00  0.11259839389E+04  0.14769633434E+04  0.95581425353E+03 0.  0.
        4    1    3    3  502    0 -0.10439231358E+02  0.80917006176E+02 -0.16464602116E+03  0.18375653628E+03  0.12699999809E+01 0. -1.
       -4    1    3    3    0  502  0.10439231358E+02 -0.80917006176E+02  0.12906299600E+04  0.12932068072E+04  0.12699999809E+01 0.  1.
</event>
<event>
 5   0  0.1206541E-02  0.8929404E+03  0.7818609E-02  0.9434450E-01
       -1   -1    0    0    0  501  0.00000000000E+00  0.00000000000E+00  0.47075347109E+03  0.47075347112E+03  0.50400001928E-02 0.  1.
        1   -1    0    0  501    0  0.00000000000E+00  0.00000000000E+00 -0.42343956900E+03  0.42343956903E+03  0.50400001928E-02 0. -1.
    10030    2    1    2    0    0  0.00000000000E+00  0.00000000000E+00  0.47313902090E+02  0.89419304015E+03  0.89294041667E+03 0.  0.
        3    1    3    3  502    0  0.28057276754E+03  0.33383589330E+02  0.36982974203E+03  0.46541335414E+03  0.10100000352E+00 0.  1.
       -3    1    3    3    0  502 -0.28057276754E+03 -0.33383589330E+02 -0.32251583994E+03  0.42877968601E+03  0.10100000352E+00 0. -1.
</event>
<event>
 5   0  0.1226424E-02  0.8788008E+03  0.7818609E-02  0.9452476E-01
        1   -1    0    0  501    0  0.00000000000E+00  0.00000000000E+00  0.35393190144E+03  0.35393190148E+03  0.50400001928E-02 0.  1.
       -1   -1    0    0    0  501  0.00000000000E+00  0.00000000000E+00 -0.54550810259E+03  0.54550810262E+03  0.50400001928E-02 0. -1.
    10030    2    1    2    0    0  0.00000000000E+00  0.00000000000E+00 -0.19157620115E+03  0.89944000410E+03  0.87880081937E+03 0.  0.
        1    1    3    3  502    0  0.99829832509E+02 -0.15759193791E+03 -0.50296498352E+03  0.53644663204E+03  0.50400001928E-02 0. -1.
       -1    1    3    3    0  502 -0.99829832509E+02  0.15759193791E+03  0.31138878237E+03  0.36299337206E+03  0.50400001928E-02 0.  1.
</event>
<event>
 5   0  0.1162839E-02  0.9056799E+03  0.7818609E-02  0.9418509E-01
        1   -1    0    0  501    0  0.00000000000E+00  0.00000000000E+00  0.36553203177E+03  0.36553203181E+03  0.50400001928E-02 0.  1.
       -1   -1    0    0    0  501  0.00000000000E+00  0.00000000000E+00 -0.56100148142E+03  0.56100148144E+03  0.50400001928E-02 0. -1.
    10030    2    1    2    0    0  0.00000000000E+00  0.00000000000E+00 -0.19546944964E+03  0.92653351325E+03  0.90567988022E+03 0.  0.
        2    1    3    3  502    0  0.93853144501E+02 -0.46015497710E+02 -0.54849110367E+03  0.55836218495E+03  0.25500000920E-02 0. -1.
       -2    1    3    3    0  502 -0.93853144501E+02  0.46015497710E+02  0.35302165403E+03  0.36817132830E+03  0.25500000920E-02 0.  1.
</event>
<event>
 5   0  0.1175993E-02  0.9349560E+03  0.7818609E-02  0.9382910E-01
       -1   -1    0    0    0  501  0.00000000000E+00  0.00000000000E+00  0.20801769620E+03  0.20801769626E+03  0.50400001928E-02 0. -1.
        1   -1    0    0  501    0  0.00000000000E+00  0.00000000000E+00 -0.10505628608E+04  0.10505628608E+04  0.50400001928E-02 0.  1.
    10030    2    1    2    0    0  0.00000000000E+00  0.00000000000E+00 -0.84254516463E+03  0.12585805571E+04  0.93495596917E+03 0.  0.
        4    1    3    3  502    0  0.41389740895E+02 -0.23060019686E+03 -0.96582608449E+03  0.99383660620E+03  0.12699999809E+01 0.  1.
       -4    1    3    3    0  502 -0.41389740895E+02  0.23060019686E+03  0.12328091986E+03  0.26474395091E+03  0.12699999809E+01 0. -1.
</event>
<event>
 5   0  0.1206541E-02  0.9037035E+03  0.7818609E-02  0.9420964E-01
       -1   -1    0    0    0  501  0.00000000000E+00  0.00000000000E+00  0.69423574226E+03  0.69423574227E+03  0.50400001928E-02 0. -1.
        1   -1    0    0  501    0  0.00000000000E+00  0.00000000000E+00 -0.29409321714E+03  0.29409321718E+03  0.50400001928E-02 0.  1.
    10030    2    1    2    0    0  0.00000000000E+00  0.00000000000E+00  0.40014252512E+03  0.98832895946E+03  0.90370354193E+03 0.  0.
        3    1    3    3  502    0  0.28660513656E+03  0.20024852858E+03 -0.11296295061E+03  0.36742702121E+03  0.10100000352E+00 0.  1.
       -3    1    3    3    0  502 -0.28660513656E+03 -0.20024852858E+03  0.51310547572E+03  0.62090193825E+03  0.10100000352E+00 0. -1.
</event>
<event>
 5   0  0.1968763E-02  0.9216790E+03  0.7818609E-02  0.9398880E-01
        2   -1    0    0  501    0  0.00000000000E+00  0.00000000000E+00  0.18683488808E+03  0.18683488809E+03  0.25500000920E-02 0.  1.
       -2   -1    0    0    0  501  0.00000000000E+00  0.00000000000E+00 -0.11366883785E+04  0.11366883785E+04  0.25500000920E-02 0. -1.
    10030    2    1    2    0    0  0.00000000000E+00  0.00000000000E+00 -0.94985349041E+03  0.13235232666E+04  0.92167900266E+03 0.  0.
        2    1    3    3  502    0  0.91908066283E+02  0.16155653915E+03  0.13062161183E+03  0.22717749332E+03  0.25500000920E-02 0.  1.
       -2    1    3    3    0  502 -0.91908066283E+02 -0.16155653915E+03 -0.10804751022E+04  0.10963457733E+04  0.25500000920E-02 0. -1.
</event>
<event>
 5   0  0.1177712E-02  0.9096436E+03  0.7818609E-02  0.9413606E-01
       -1   -1    0    0    0  501  0.00000000000E+00  0.00000000000E+00  0.18861828992E+03  0.18861828999E+03  0.50400001928E-02 0. -1.
        1   -1    0    0  501    0  0.00000000000E+00  0.00000000000E+00 -0.10967274650E+04  0.10967274651E+04  0.50400001928E-02 0.  1.
    10030    2    1    2    0    0  0.00000000000E+00  0.00000000000E+00 -0.90810917513E+03  0.12853457550E+04  0.90964357639E+03 0.  0.
        5    1    3    3  502    0 -0.38114636457E+03  0.40124415643E+02 -0.10805691174E+03  0.39822218186E+03  0.46999998093E+01 0. -1.
       -5    1    3    3    0  502  0.38114636457E+03 -0.40124415643E+02 -0.80005226338E+03  0.88712357318E+03  0.46999998093E+01 0.  1.
</event>
<event>
 5   0  0.2008770E-02  0.8990829E+03  0.7818609E-02  0.9426729E-01
       -2   -1    0    0    0  501  0.00000000000E+00  0.00000000000E+00  0.16599004349E+03  0.16599004351E+03  0.25500000920E-02 0.  1.
        2   -1    0    0  501    0  0.00000000000E+00  0.00000000000E+00 -0.12174676928E+04  0.12174676928E+04  0.25500000920E-02 0. -1.
    10030    2    1    2    0    0  0.00000000000E+00  0.00000000000E+00 -0.10514776493E+04  0.13834577363E+04  0.89908290005E+03 0.  0.
        1    1    3    3  502    0 -0.24894553788E+03 -0.35361494308E+03 -0.71463550198E+03  0.83529713846E+03  0.50400001928E-02 0. -1.
       -1    1    3    3    0  502  0.24894553788E+03  0.35361494308E+03 -0.33684214737E+03  0.54816059788E+03  0.50400001928E-02 0.  1.
</event>
<event>
 5   0  0.1206541E-02  0.8842737E+03  0.7818609E-02  0.9445456E-01
        1   -1    0    0  501    0  0.00000000000E+00  0.00000000000E+00  0.30541695185E+03  0.30541695189E+03  0.50400001928E-02 0. -1.
       -1   -1    0    0    0  501  0.00000000000E+00  0.00000000000E+00 -0.64005943086E+03  0.64005943088E+03  0.50400001928E-02 0.  1.
    10030    2    1    2    0    0  0.00000000000E+00  0.00000000000E+00 -0.33464247901E+03  0.94547638277E+03  0.88427371420E+03 0.  0.
        3    1    3    3  502    0  0.30396362957E+03 -0.18432384508E+03  0.11377349411E+03  0.37324735247E+03  0.10100000352E+00 0. -1.
       -3    1    3    3    0  502 -0.30396362957E+03  0.18432384508E+03 -0.44841597311E+03  0.57222903030E+03  0.10100000352E+00 0.  1.
</event>
<event>
 5   0  0.2008770E-02  0.8621599E+03  0.7818609E-02  0.9474160E-01
       -2   -1    0    0    0  501  0.00000000000E+00  0.00000000000E+00  0.40209782412E+03  0.40209782413E+03  0.25500000920E-02 0.  1.
        2   -1    0    0  501    0  0.00000000000E+00  0.00000000000E+00 -0.46215099687E+03  0.46215099688E+03  0.25500000920E-02 0. -1.
    10030    2    1    2    0    0  0.00000000000E+00  0.00000000000E+00 -0.60053172752E+02  0.86424882101E+03  0.86215986978E+03 0.  0.
        1    1    3    3  502    0 -0.42422949530E+03  0.53265192661E+02 -0.85133092721E+02  0.43595353988E+03  0.50400001928E-02 0.  1.
       -1    1    3    3    0  502  0.42422949530E+03 -0.53265192661E+02  0.25079919969E+02  0.42829528113E+03  0.50400001928E-02 0. -1.
</event>
<event>
 5   0  0.1226424E-02  0.8964615E+03  0.7818609E-02  0.9430016E-01
       -1   -1    0    0    0  501  0.00000000000E+00  0.00000000000E+00  0.26034330780E+03  0.26034330784E+03  0.50400001928E-02 0. -1.
        1   -1    0    0  501    0  0.00000000000E+00  0.00000000000E+00 -0.77171495837E+03  0.77171495839E+03  0.50400001928E-02 0.  1.
    10030    2    1    2    0    0  0.00000000000E+00  0.00000000000E+00 -0.51137165057E+03  0.10320582662E+04  0.89646154401E+03 0.  0.
        1    1    3    3  502    0  0.33941322107E+03  0.19129313538E+03 -0.54148787301E+00  0.38960838225E+03  0.50400001928E-02 0. -1.
       -1    1    3    3    0  502 -0.33941322107E+03 -0.19129313538E+03 -0.51083016270E+03  0.64244988398E+03  0.50400001928E-02 0.  1.
</event>
<event>
 5   0  0.2041861E-02  0.8743293E+03  0.7818609E-02  0.9458252E-01
        2   -1    0    0  501    0  0.00000000000E+00  0.00000000000E+00  0.36839392139E+03  0.36839392140E+03  0.25500000920E-02 0.  1.
       -2   -1    0    0    0  501  0.00000000000E+00  0.00000000000E+00 -0.51877336133E+03  0.51877336133E+03  0.25500000920E-02 0. -1.
    10030    2    1    2    0    0  0.00000000000E+00  0.00000000000E+00 -0.15037943994E+03  0.88716728273E+03  0.87432934961E+03 0.  0.
        5    1    3    3  502    0  0.27905443919E+03  0.13565822176E+03 -0.38763360572E+03  0.49654449494E+03  0.46999998093E+01 0. -1.
       -5    1    3    3    0  502 -0.27905443919E+03 -0.13565822176E+03  0.23725416578E+03  0.39062278780E+03  0.46999998093E+01 0.  1.
</event>
<event>
 5   0  0.1162839E-02  0.7392505E+03  0.7818609E-02  0.9652367E-01
        1   -1    0    0  501    0  0.00000000000E+00  0.00000000000E+00  0.27381415088E+03  0.27381415093E+03  0.50400001928E-02 0. -1.
       -1   -1    0    0    0  501  0.00000000000E+00  0.00000000000E+00 -0.49896189400E+03  0.49896189403E+03  0.50400001928E-02 0.  1.
    10030    2    1    2    0    0  0.00000000000E+00  0.00000000000E+00 -0.22514774312E+03  0.77277604496E+03  0.73925050519E+03 0.  0.
        2    1    3    3  502    0 -0.17359239379E+03 -0.16646372262E+03 -0.40597746330E+03  0.47187094723E+03  0.25500000920E-02 0.  1.
       -2    1    3    3    0  502  0.17359239379E+03  0.16646372262E+03  0.18082972018E+03  0.30090509772E+03  0.25500000920E-02 0. -1.
</event>
<event>
 5   0  0.2008643E-02  0.9044793E+03  0.7818609E-02  0.9419999E-01
        2   -1    0    0  501    0  0.00000000000E+00  0.00000000000E+00  0.16209635577E+03  0.16209635579E+03  0.25500000920E-02 0.  1.
       -2   -1    0    0    0  501  0.00000000000E+00  0.00000000000E+00 -0.12617229731E+04  0.12617229731E+04  0.25500000920E-02 0. -1.
    10030    2    1    2    0    0  0.00000000000E+00  0.00000000000E+00 -0.10996266173E+04  0.14238193289E+04  0.90447928875E+03 0.  0.
        3    1    3    3  502    0  0.14238288142E+03  0.39363290130E+03 -0.28035161626E+03  0.50380232715E+03  0.10100000352E+00 0.  1.
       -3    1    3    3    0  502 -0.14238288142E+03 -0.39363290130E+03 -0.81927500107E+03  0.92001700174E+03  0.10100000352E+00 0. -1.
</event>
<event>
 5   0  0.1968763E-02  0.8658909E+03  0.7818609E-02  0.9469254E-01
       -2   -1    0    0    0  501  0.00000000000E+00  0.00000000000E+00  0.47419805824E+03  0.47419805825E+03  0.25500000920E-02 0. -1.
        2   -1    0    0  501    0  0.00000000000E+00  0.00000000000E+00 -0.39528156267E+03  0.39528156267E+03  0.25500000920E-02 0.  1.
    10030    2    1    2    0    0  0.00000000000E+00  0.00000000000E+00  0.78916495578E+02  0.86947962093E+03  0.86589086953E+03 0.  0.
        2    1    3    3  502    0  0.19235836912E+03 -0.17892560400E+02  0.42851712373E+03  0.47005192397E+03  0.25500000920E-02 0. -1.
       -2    1    3    3    0  502 -0.19235836912E+03  0.17892560400E+02 -0.34960062815E+03  0.39942769696E+03  0.25500000920E-02 0.  1.
</event>
<event>
 5   0  0.7893875E-03  0.9377383E+03  0.7818609E-02  0.9379599E-01
        4   -1    0    0  501    0  0.00000000000E+00  0.00000000000E+00  0.67738362004E+03  0.67738481058E+03  0.12699999809E+01 0. -1.
       -4   -1    0    0    0  501  0.00000000000E+00  0.00000000000E+00 -0.32453758979E+03  0.32454007470E+03  0.12699999809E+01 0.  1.
    10030    2    1    2    0    0  0.00000000000E+00  0.00000000000E+00  0.35284603025E+03  0.10019248853E+04  0.93773831887E+03 0.  0.
        4    1    3    3  502    0 -0.16187404786E+03 -0.37562507117E+03  0.42132682169E+03  0.58720976238E+03  0.12699999809E+01 0.  1.
       -4    1    3    3    0  502  0.16187404786E+03  0.37562507117E+03 -0.68480791440E+02  0.41471512290E+03  0.12699999809E+01 0. -1.
</event>
<event>
 5   0  0.2041861E-02  0.8941010E+03  0.7818609E-02  0.9432986E-01
        2   -1    0    0  501    0  0.00000000000E+00  0.00000000000E+00  0.23715401588E+03  0.23715401590E+03  0.25500000920E-02 0. -1.
       -2   -1    0    0    0  501  0.00000000000E+00  0.00000000000E+00 -0.84271888996E+03  0.84271888996E+03  0.25500000920E-02 0.  1.
    10030    2    1    2    0    0  0.00000000000E+00  0.00000000000E+00 -0.60556487407E+03  0.10798729059E+04  0.89410104356E+03 0.  0.
        5    1    3    3  502    0  0.22039556962E+03  0.38157383589E+03 -0.21192371551E+03  0.48898522528E+03  0.46999998093E+01 0. -1.
       -5    1    3    3    0  502 -0.22039556962E+03 -0.38157383589E+03 -0.39364115856E+03  0.59088768058E+03  0.46999998093E+01 0.  1.
</event>
<event>
 5   0  0.2041861E-02  0.8942635E+03  0.7818609E-02  0.9432781E-01
        2   -1    0    0  501    0  0.00000000000E+00  0.00000000000E+00  0.54218162654E+03  0.54218162655E+03  0.25500000920E-02 0.  1.
       -2   -1    0    0    0  501  0.00000000000E+00  0.00000000000E+00 -0.36874505957E+03  0.36874505958E+03  0.25500000920E-02 0. -1.
    10030    2    1    2    0    0  0.00000000000E+00  0.00000000000E+00  0.17343656697E+03  0.91092668613E+03  0.89426348732E+03 0.  0.
        5    1    3    3  502    0  0.60394851072E+02  0.17297929176E+01 -0.36454227812E+03  0.36954525130E+03  0.46999998093E+01 0. -1.
       -5    1    3    3    0  502 -0.60394851072E+02 -0.17297929176E+01  0.53797884509E+03  0.54138143484E+03  0.46999998093E+01 0.  1.
</event>
<event>
 5   0  0.2008643E-02  0.7733849E+03  0.7818609E-02  0.9599361E-01
        2   -1    0    0  501    0  0.00000000000E+00  0.00000000000E+00  0.31434209068E+03  0.31434209069E+03  0.25500000920E-02 0. -1.
       -2   -1    0    0    0  501  0.00000000000E+00  0.00000000000E+00 -0.47569523041E+03  0.47569523041E+03  0.25500000920E-02 0.  1.
    10030    2    1    2    0    0  0.00000000000E+00  0.00000000000E+00 -0.16135313973E+03  0.79003732111E+03  0.77338485442E+03 0.  0.
        3    1    3    3  502    0  0.38330405434E+02  0.31737135816E+03  0.14157935049E+03  0.34962625995E+03  0.10100000352E+00 0. -1.
       -3    1    3    3    0  502 -0.38330405434E+02 -0.31737135816E+03 -0.30293249022E+03  0.44041106116E+03  0.10100000352E+00 0.  1.
</event>
<event>
 5   0  0.2008770E-02  0.8941886E+03  0.7818609E-02  0.9432875E-01
        2   -1    0    0  501    0  0.00000000000E+00  0.00000000000E+00  0.75444650616E+03  0.75444650617E+03  0.25500000920E-02 0.  1.
       -2   -1    0    0    0  501  0.00000000000E+00  0.00000000000E+00 -0.26495357450E+03  0.26495357451E+03  0.25500000920E-02 0. -1.
    10030    2    1    2    0    0  0.00000000000E+00  0.00000000000E+00  0.48949293166E+03  0.10194000807E+04  0.89418856755E+03 0.  0.
        1    1    3    3  502    0  0.18378312499E+03  0.81634436397E+02  0.69997736760E+03  0.72829165408E+03  0.50400001928E-02 0.  1.
       -1    1    3    3    0  502 -0.18378312499E+03 -0.81634436397E+02 -0.21048443593E+03  0.29110842659E+03  0.50400001928E-02 0. -1.
</event>
<event>
 5   0  0.1177712E-02  0.8747184E+03  0.7818609E-02  0.9457748E-01
       -1   -1    0    0    0  501  0.00000000000E+00  0.00000000000E+00  0.54362408453E+03  0.54362408455E+03  0.50400001928E-02 0.  1.
        1   -1    0    0  501    0  0.00000000000E+00  0.00000000000E+00 -0.35186642486E+03  0.35186642490E+03  0.50400001928E-02 0. -1.
    10030    2    1    2    0    0  0.00000000000E+00  0.00000000000E+00  0.19175765967E+03  0.89549050946E+03  0.87471838467E+03 0.  0.
        5    1    3    3  502    0  0.12409597894E+03  0.35037434011E+02  0.52369437488E+03  0.53935639613E+03  0.46999998093E+01 0.  1.
       -5    1    3    3    0  502 -0.12409597894E+03 -0.35037434011E+02 -0.33193671521E+03  0.35613411333E+03  0.46999998093E+01 0. -1.
</event>
<event>
 5   0  0.1226424E-02  0.8936054E+03  0.7818609E-02  0.9433610E-01
       -1   -1    0    0    0  501  0.00000000000E+00  0.00000000000E+00  0.17049944978E+03  0.17049944985E+03  0.50400001928E-02 0. -1.
        1   -1    0    0  501    0  0.00000000000E+00  0.00000000000E+00 -0.11708698718E+04  0.11708698718E+04  0.50400001928E-02 0.  1.
    10030    2    1    2    0    0  0.00000000000E+00  0.00000000000E+00 -0.10003704220E+04  0.13413693217E+04  0.89360543634E+03 0.  0.
        1    1    3    3  502    0 -0.22187932705E+01  0.22086281160E+02 -0.11700416794E+04  0.11702522200E+04  0.50400001928E-02 0.  1.
       -1    1    3    3    0  502  0.22187932705E+01 -0.22086281160E+02  0.16967125740E+03  0.17111710164E+03  0.50400001928E-02 0. -1.
</event>
<event>
 5   0  0.7893875E-03  0.8807500E+03  0.7818609E-02  0.9449970E-01
        3   -1    0    0  501    0  0.00000000000E+00  0.00000000000E+00  0.20431143691E+03  0.20431146187E+03  0.10100000352E+00 0.  1.
       -3   -1    0    0    0  501  0.00000000000E+00  0.00000000000E+00 -0.94918882692E+03  0.94918883230E+03  0.10100000352E+00 0. -1.
    10030    2    1    2    0    0  0.00000000000E+00  0.00000000000E+00 -0.74487739001E+03  0.11535002942E+04  0.88075002271E+03 0.  0.
        4    1    3    3  502    0 -0.33461610106E+02  0.41186403716E+02  0.20010631925E+03  0.20702693328E+03  0.12699999809E+01 0.  1.
       -4    1    3    3    0  502  0.33461610106E+02 -0.41186403716E+02 -0.94498370926E+03  0.94647336089E+03  0.12699999809E+01 0. -1.
</event>
<event>
 5   0  0.1968763E-02  0.8886238E+03  0.7818609E-02  0.9439915E-01
       -2   -1    0    0    0  501  0.00000000000E+00  0.00000000000E+00  0.15421125570E+03  0.15421125572E+03  0.25500000920E-02 0.  1.
        2   -1    0    0  501    0  0.00000000000E+00  0.00000000000E+00 -0.12801469496E+04  0.12801469496E+04  0.25500000920E-02 0. -1.
    10030    2    1    2    0    0  0.00000000000E+00  0.00000000000E+00 -0.11259356939E+04  0.14343582053E+04  0.88862380927E+03 0.  0.
        2    1    3    3  502    0 -0.24493808792E+03  0.23595029223E+03 -0.10244687592E+04  0.10794458976E+04  0.25500000920E-02 0.  1.
       -2    1    3    3    0  502  0.24493808792E+03 -0.23595029223E+03 -0.10146693471E+03  0.35491230771E+03  0.25500000920E-02 0. -1.
</event>
<event>
 5   0  0.1162839E-02  0.9037727E+03  0.7818609E-02  0.9420878E-01
        1   -1    0    0  501    0  0.00000000000E+00  0.00000000000E+00  0.74595089867E+03  0.74595089868E+03  0.50400001928E-02 0. -1.
       -1   -1    0    0    0  501  0.00000000000E+00  0.00000000000E+00 -0.27374623898E+03  0.27374623903E+03  0.50400001928E-02 0.  1.
    10030    2    1    2    0    0  0.00000000000E+00  0.00000000000E+00  0.47220465968E+03  0.10196971377E+04  0.90377265506E+03 0.  0.
        2    1    3    3  502    0  0.36713963492E+03  0.84941063069E+02  0.51747952223E+03  0.64014963224E+03  0.25500000920E-02 0. -1.
       -2    1    3    3    0  502 -0.36713963492E+03 -0.84941063069E+02 -0.45274862542E+02  0.37954750547E+03  0.25500000920E-02 0.  1.
</event>
<event>
 5   0  0.2008770E-02  0.8580378E+03  0.7818609E-02  0.9479612E-01
       -2   -1    0    0    0  501  0.00000000000E+00  0.00000000000E+00  0.14850502670E+03  0.14850502672E+03  0.25500000920E-02 0. -1.
        2   -1    0    0  501    0  0.00000000000E+00  0.00000000000E+00 -0.12394004859E+04  0.12394004859E+04  0.25500000920E-02 0.  1.
    10030    2    1    2    0    0  0.00000000000E+00  0.00000000000E+00 -0.10908954592E+04  0.13879055126E+04  0.85803776667E+03 0.  0.
        1    1    3    3  502    0  0.22907625026E+03  0.36250138764E+03 -0.56678556128E+03  0.71072431854E+03  0.50400001928E-02 0.  1.
       -1    1    3    3    0  502 -0.22907625026E+03 -0.36250138764E+03 -0.52410989788E+03  0.67718119403E+03  0.50400001928E-02 0. -1.
</event>
<event>
 5   0  0.2041861E-02  0.8727505E+03  0.7818609E-02  0.9460301E-01
        2   -1    0    0  501    0  0.00000000000E+00  0.00000000000E+00  0.10626068768E+04  0.10626068768E+04  0.25500000920E-02 0.  1.
       -2   -1    0    0    0  501  0.00000000000E+00  0.00000000000E+00 -0.17920395356E+03  0.17920395358E+03  0.25500000920E-02 0. -1.
    10030    2    1    2    0    0  0.00000000000E+00  0.00000000000E+00  0.88340292323E+03  0.12418108304E+04  0.87275048763E+03 0.  0.
        5    1    3    3  502    0 -0.51946348121E+02 -0.18008199251E+03 -0.11897685071E+03  0.22204848144E+03  0.46999998093E+01 0. -1.
       -5    1    3    3    0  502  0.51946348121E+02  0.18008199251E+03  0.10023797739E+04  0.10197623489E+04  0.46999998093E+01 0.  1.
</event>
<event>
 5   0  0.7893875E-03  0.8916277E+03  0.7818609E-02  0.9436108E-01
       -3   -1    0    0    0  501  0.00000000000E+00  0.00000000000E+00  0.16577130735E+03  0.16577133811E+03  0.10100000352E+00 0.  1.
        3   -1    0    0  501    0  0.00000000000E+00  0.00000000000E+00 -0.11989406645E+04  0.11989406688E+04  0.10100000352E+00 0. -1.
    10030    2    1    2    0    0  0.00000000000E+00  0.00000000000E+00 -0.10331693572E+04  0.13647120069E+04  0.89162769199E+03 0.  0.
        4    1    3    3  502    0 -0.43458495271E+03  0.34010023952E+02 -0.65957449820E+03  0.79060792712E+03  0.12699999809E+01 0. -1.
       -4    1    3    3    0  502  0.43458495271E+03 -0.34010023952E+02 -0.37359485896E+03  0.57410407975E+03  0.12699999809E+01 0.  1.
</event>
<event>
 5   0  0.1206541E-02  0.9194027E+03  0.7818609E-02  0.9401647E-01
       -1   -1    0    0    0  501  0.00000000000E+00  0.00000000000E+00  0.15077064712E+03  0.15077064720E+03  0.50400001928E-02 0.  1.
        1   -1    0    0  501    0  0.00000000000E+00  0.00000000000E+00 -0.14016345831E+04  0.14016345831E+04  0.50400001928E-02 0. -1.
    10030    2    1    2    0    0  0.00000000000E+00  0.00000000000E+00 -0.12508639360E+04  0.15524052303E+04  0.91940274786E+03 0.  0.
        3    1    3    3  502    0 -0.96075869429E+02  0.44953725996E+03 -0.61982621835E+03  0.77168573392E+03  0.10100000352E+00 0.  1.
       -3    1    3    3    0  502  0.96075869429E+02 -0.44953725996E+03 -0.63103771767E+03  0.78071949642E+03  0.10100000352E+00 0. -1.
</event>
<event>
 5   0  0.1177712E-02  0.6303590E+03  0.7818609E-02  0.9844348E-01
       -1   -1    0    0    0  501  0.00000000000E+00  0.00000000000E+00  0.59438939779E+02  0.59438939992E+02  0.50400001928E-02 0.  1.
        1   -1    0    0  501    0  0.00000000000E+00  0.00000000000E+00 -0.16712635351E+04  0.16712635351E+04  0.50400001928E-02 0. -1.
    10030    2    1    2    0    0  0.00000000000E+00  0.00000000000E+00 -0.16118245954E+04  0.17307024751E+04  0.63035904947E+03 0.  0.
        5    1    3    3  502    0  0.28694006315E+03  0.82660044502E+02 -0.52931946997E+03  0.60775692023E+03  0.46999998093E+01 0.  1.
       -5    1    3    3    0  502 -0.28694006315E+03 -0.82660044502E+02 -0.10825051254E+04  0.11229455549E+04  0.46999998093E+01 0. -1.
</event>
<event>
 5   0  0.2008770E-02  0.7112852E+03  0.7818609E-02  0.9698125E-01
        2   -1    0    0  501    0  0.00000000000E+00  0.00000000000E+00  0.53561217975E+03  0.53561217975E+03  0.25500000920E-02 0.  1.
       -2   -1    0    0    0  501  0.00000000000E+00  0.00000000000E+00 -0.23614410860E+03  0.23614410861E+03  0.25500000920E-02 0. -1.
    10030    2    1    2    0    0  0.00000000000E+00  0.00000000000E+00  0.29946807115E+03  0.77175628836E+03  0.71128520510E+03 0.  0.
        1    1    3    3  502    0 -0.27451751901E+03 -0.33073324359E+02  0.39241892995E+03  0.48004825761E+03  0.50400001928E-02 0.  1.
       -1    1    3    3    0  502  0.27451751901E+03  0.33073324359E+02 -0.92950858806E+02  0.29170803075E+03  0.50400001928E-02 0. -1.
</event>
<event>
 5   0  0.1924218E-02  0.9079244E+03  0.7818609E-02  0.9415729E-01
       -2   -1    0    0    0  501  0.00000000000E+00  0.00000000000E+00  0.83439018777E+03  0.83439018777E+03  0.25500000920E-02 0.  1.
        2   -1    0    0  501    0  0.00000000000E+00  0.00000000000E+00 -0.24698478015E+03  0.24698478016E+03  0.25500000920E-02 0. -1.
    10030    2    1    2    0    0  0.00000000000E+00  0.00000000000E+00  0.58740540762E+03  0.10813749679E+04  0.90792439574E+03 0.  0.
        4    1    3    3  502    0 -0.15066168592E+03 -0.42755797829E+03  0.32227020316E+03  0.55620541632E+03  0.12699999809E+01 0.  1.
       -4    1    3    3    0  502  0.15066168592E+03  0.42755797829E+03  0.26513520446E+03  0.52516955161E+03  0.12699999809E+01 0. -1.
</event>
<event>
 5   0  0.7893875E-03  0.9019857E+03  0.7818609E-02  0.9423103E-01
       -4   -1    0    0    0  501  0.00000000000E+00  0.00000000000E+00  0.25904022116E+04  0.25904025230E+04  0.12699999809E+01 0. -1.
        4   -1    0    0  501    0  0.00000000000E+00  0.00000000000E+00 -0.78513066721E+02  0.78523337588E+02  0.12699999809E+01 0.  1.
    10030    2    1    2    0    0  0.00000000000E+00  0.00000000000E+00  0.25118891449E+04  0.26689258606E+04  0.90198568323E+03 0.  0.
        2    1    3    3  502    0  0.14215341990E+03  0.42614349100E+03  0.13738826890E+04  0.14454616954E+04  0.25500000920E-02 0. -1.
       -2    1    3    3    0  502 -0.14215341990E+03 -0.42614349100E+03  0.11380064560E+04  0.12234641652E+04  0.25500000920E-02 0.  1.
</event>
<event>
 5   0  0.1162839E-02  0.8552690E+03  0.7818609E-02  0.9483292E-01
        1   -1    0    0  501    0  0.00000000000E+00  0.00000000000E+00  0.28255400083E+03  0.28255400088E+03  0.50400001928E-02 0.  1.
       -1   -1    0    0    0  501  0.00000000000E+00  0.00000000000E+00 -0.64720812946E+03  0.64720812948E+03  0.50400001928E-02 0. -1.
    10030    2    1    2    0    0  0.00000000000E+00  0.00000000000E+00 -0.36465412863E+03  0.92976213036E+03  0.85526895508E+03 0.  0.
        2    1    3    3  502    0  0.33135310772E+02  0.44390241865E+02 -0.64329145241E+03  0.64567200276E+03  0.25500000920E-02 0. -1.
       -2    1    3    3    0  502 -0.33135310772E+02 -0.44390241865E+02  0.27863732378E+03  0.28409012760E+03  0.25500000920E-02 0.  1.
</event>
<event>
 5   0  0.2008643E-02  0.9077953E+03  0.7818609E-02  0.9415889E-01
       -2   -1    0    0    0  501  0.00000000000E+00  0.00000000000E+00  0.11030077044E+03  0.11030077047E+03  0.25500000920E-02 0.  1.
        2   -1    0    0  501    0  0.00000000000E+00  0.00000000000E+00 -0.18678297522E+04  0.18678297522E+04  0.25500000920E-02 0. -1.
    10030    2    1    2    0    0  0.00000000000E+00  0.00000000000E+00 -0.17575289817E+04  0.19781305227E+04  0.90779526493E+03 0.  0.
        3    1    3    3  502    0 -0.55433911921E+02  0.18731193161E+03 -0.17715482810E+04  0.17822856114E+04  0.10100000352E+00 0. -1.
       -3    1    3    3    0  502  0.55433911921E+02 -0.18731193161E+03  0.14019299307E+02  0.19584491126E+03  0.10100000352E+00 0.  1.
</event>
<event>
 5   0  0.1175993E-02  0.7554049E+03  0.7818609E-02  0.9626909E-01
       -1   -1    0    0    0  501  0.00000000000E+00  0.00000000000E+00  0.16995525680E+03  0.16995525687E+03  0.50400001928E-02 0.  1.
        1   -1    0    0  501    0  0.00000000000E+00  0.00000000000E+00 -0.83939237744E+03  0.83939237746E+03  0.50400001928E-02 0. -1.
    10030    2    1    2    0    0  0.00000000000E+00  0.00000000000E+00 -0.66943712065E+03  0.10093476343E+04  0.75540491687E+03 0.  0.
        4    1    3    3  502    0  0.31292625591E+03  0.50890162470E+01 -0.52193196995E+02  0.31729242417E+03  0.12699999809E+01 0.  1.
       -4    1    3    3    0  502 -0.31292625591E+03 -0.50890162470E+01 -0.61724392365E+03  0.69205521016E+03  0.12699999809E+01 0. -1.
</event>
<event>
 5   0  0.2008643E-02  0.1103005E+04  0.7818609E-02  0.9202268E-01
        2   -1    0    0  501    0  0.00000000000E+00  0.00000000000E+00  0.24621382090E+04  0.24621382090E+04  0.25500000920E-02 0. -1.
       -2   -1    0    0    0  501  0.00000000000E+00  0.00000000000E+00 -0.12353281082E+03  0.12353281085E+03  0.25500000920E-02 0.  1.
    10030    2    1    2    0    0  0.00000000000E+00  0.00000000000E+00  0.23386053982E+04  0.25856710199E+04  0.11030047210E+04 0.  0.
        3    1    3    3  502    0  0.80473374460E+01  0.35080771318E+03  0.17191498616E+03  0.39075002742E+03  0.10100000352E+00 0.  1.
       -3    1    3    3    0  502 -0.80473374460E+01 -0.35080771318E+03  0.21666904121E+04  0.21949209925E+04  0.10100000352E+00 0. -1.
</event>
<event>
 5   0  0.1162839E-02  0.9002034E+03  0.7818609E-02  0.9425327E-01
        1   -1    0    0  501    0  0.00000000000E+00  0.00000000000E+00  0.52784372476E+03  0.52784372479E+03  0.50400001928E-02 0. -1.
       -1   -1    0    0    0  501  0.00000000000E+00  0.00000000000E+00 -0.38380966675E+03  0.38380966679E+03  0.50400001928E-02 0.  1.
    10030    2    1    2    0    0  0.00000000000E+00  0.00000000000E+00  0.14403405801E+03  0.91165339157E+03  0.90020336397E+03 0.  0.
        2    1    3    3  502    0  0.21189643208E+03 -0.28208051261E+03 -0.21104122696E+03  0.41110571999E+03  0.25500000920E-02 0.  1.
       -2    1    3    3    0  502 -0.21189643208E+03  0.28208051261E+03  0.35507528497E+03  0.50054767158E+03  0.25500000920E-02 0. -1.
</event>
<event>
 5   0  0.2008770E-02  0.8039530E+03  0.7818609E-02  0.9554313E-01
       -2   -1    0    0    0  501  0.00000000000E+00  0.00000000000E+00  0.32930824266E+03  0.32930824267E+03  0.25500000920E-02 0.  1.
        2   -1    0    0  501    0  0.00000000000E+00  0.00000000000E+00 -0.49068043968E+03  0.49068043969E+03  0.25500000920E-02 0. -1.
    10030    2    1    2    0    0  0.00000000000E+00  0.00000000000E+00 -0.16137219703E+03  0.81998868236E+03  0.80395301680E+03 0.  0.
        1    1    3    3  502    0  0.73595674634E+01 -0.91982577871E+02 -0.47973162873E+03  0.48852573473E+03  0.50400001928E-02 0. -1.
       -1    1    3    3    0  502 -0.73595674634E+01  0.91982577871E+02  0.31835943171E+03  0.33146294762E+03  0.50400001928E-02 0.  1.
</event>
<event>
 5   0  0.1968763E-02  0.9302932E+03  0.7818609E-02  0.9388486E-01
       -2   -1    0    0    0  501  0.00000000000E+00  0.00000000000E+00  0.22484700478E+03  0.22484700479E+03  0.25500000920E-02 0.  1.
        2   -1    0    0  501    0  0.00000000000E+00  0.00000000000E+00 -0.96226026028E+03  0.96226026028E+03  0.25500000920E-02 0. -1.
    10030    2    1    2    0    0  0.00000000000E+00  0.00000000000E+00 -0.73741325550E+03  0.11871072651E+04  0.93029315239E+03 0.  0.
        2    1    3    3  502    0 -0.41598604855E+03  0.16991405246E+03 -0.21533453561E+03  0.49828118572E+03  0.25500000920E-02 0.  1.
       -2    1    3    3    0  502  0.41598604855E+03 -0.16991405246E+03 -0.52207871989E+03  0.68882607934E+03  0.25500000920E-02 0. -1.
</event>
<event>
 5   0  0.1177712E-02  0.8930462E+03  0.7818609E-02  0.9434316E-01
        1   -1    0    0  501    0  0.00000000000E+00  0.00000000000E+00  0.47711575379E+03  0.47711575381E+03  0.50400001928E-02 0. -1.
       -1   -1    0    0    0  501  0.00000000000E+00  0.00000000000E+00 -0.41789204456E+03  0.41789204459E+03  0.50400001928E-02 0.  1.
    10030    2    1    2    0    0  0.00000000000E+00  0.00000000000E+00  0.59223709224E+02  0.89500779841E+03  0.89304619784E+03 0.  0.
        5    1    3    3  502    0  0.98859373422E+02 -0.43489846778E+03  0.83299835734E+01  0.44609565299E+03  0.46999998093E+01 0.  1.
       -5    1    3    3    0  502 -0.98859373422E+02  0.43489846778E+03  0.50893725651E+02  0.44891214542E+03  0.46999998093E+01 0. -1.
</event>
<event>
 5   0  0.1175993E-02  0.8973378E+03  0.7818609E-02  0.9428915E-01
       -1   -1    0    0    0  501  0.00000000000E+00  0.00000000000E+00  0.24939908095E+03  0.24939908100E+03  0.50400001928E-02 0.  1.
        1   -1    0    0  501    0  0.00000000000E+00  0.00000000000E+00 -0.80715533164E+03  0.80715533166E+03  0.50400001928E-02 0. -1.
    10030    2    1    2    0    0  0.00000000000E+00  0.00000000000E+00 -0.55775625069E+03  0.10565544127E+04  0.89733783589E+03 0.  0.
        4    1    3    3  502    0 -0.23134765839E+02 -0.21784174018E+03 -0.73990249560E+03  0.77165248464E+03  0.12699999809E+01 0. -1.
       -4    1    3    3    0  502  0.23134765839E+02  0.21784174018E+03  0.18214624491E+03  0.28490192802E+03  0.12699999809E+01 0.  1.
</event>
<event>
 5   0  0.7893875E-03  0.9850580E+03  0.7818609E-02  0.9325086E-01
        3   -1    0    0  501    0  0.00000000000E+00  0.00000000000E+00  0.30348516220E+03  0.30348517900E+03  0.10100000352E+00 0. -1.
       -3   -1    0    0    0  501  0.00000000000E+00  0.00000000000E+00 -0.79933002228E+03  0.79933002866E+03  0.10100000352E+00 0.  1.
    10030    2    1    2    0    0  0.00000000000E+00  0.00000000000E+00 -0.49584486009E+03  0.11028152077E+04  0.98505799676E+03 0.  0.
        2    1    3    3  502    0 -0.34538481601E+02 -0.38585534909E+03 -0.58843217987E+03  0.70450669794E+03  0.25500000920E-02 0.  1.
       -2    1    3    3    0  502  0.34538481601E+02  0.38585534909E+03  0.92587319778E+02  0.39830850973E+03  0.25500000920E-02 0. -1.
</event>
<event>
 5   0  0.1924218E-02  0.9050862E+03  0.7818609E-02  0.9419246E-01
       -2   -1    0    0    0  501  0.00000000000E+00  0.00000000000E+00  0.21072518684E+03  0.21072518685E+03  0.25500000920E-02 0.  1.
        2   -1    0    0  501    0  0.00000000000E+00  0.00000000000E+00 -0.97185932263E+03  0.97185932263E+03  0.25500000920E-02 0. -1.
    10030    2    1    2    0    0  0.00000000000E+00  0.00000000000E+00 -0.76113413579E+03  0.11825845095E+04  0.90508615579E+03 0.  0.
        4    1    3    3  502    0  0.20886113001E+03 -0.12154532836E+03  0.11936261692E+03  0.26952789409E+03  0.12699999809E+01 0.  1.
       -4    1    3    3    0  502 -0.20886113001E+03  0.12154532836E+03 -0.88049675271E+03  0.91305661539E+03  0.12699999809E+01 0. -1.
</event>
<event>
 5   0  0.2041861E-02  0.9003544E+03  0.7818609E-02  0.9425139E-01
        2   -1    0    0  501    0  0.00000000000E+00  0.00000000000E+00  0.12384987876E+04  0.12384987876E+04  0.25500000920E-02 0. -1.
       -2   -1    0    0    0  501  0.00000000000E+00  0.00000000000E+00 -0.16363319202E+03  0.16363319204E+03  0.25500000920E-02 0.  1.
    10030    2    1    2    0    0  0.00000000000E+00  0.00000000000E+00  0.10748655956E+04  0.14021319797E+04  0.90035439678E+03 0.  0.
        5    1    3    3  502    0 -0.13697639807E+03 -0.14212556577E+03  0.11674709633E+04  0.11840493023E+04  0.46999998093E+01 0. -1.
       -5    1    3    3    0  502  0.13697639807E+03  0.14212556577E+03 -0.92605367661E+02  0.21808267742E+03  0.46999998093E+01 0.  1.
</event>
<event>
 5   0  0.1175993E-02  0.9147318E+03  0.7818609E-02  0.9407351E-01
        1   -1    0    0  501    0  0.00000000000E+00  0.00000000000E+00  0.11699757787E+04  0.11699757787E+04  0.50400001928E-02 0.  1.
       -1   -1    0    0    0  501  0.00000000000E+00  0.00000000000E+00 -0.17879307463E+03  0.17879307470E+03  0.50400001928E-02 0. -1.
    10030    2    1    2    0    0  0.00000000000E+00  0.00000000000E+00  0.99118270404E+03  0.13487688534E+04  0.91473180061E+03 0.  0.
        4    1    3    3  502    0  0.36313649200E+03 -0.64879372980E+02  0.96919261833E+02  0.38140844389E+03  0.12699999809E+01 0. -1.
       -4    1    3    3    0  502 -0.36313649200E+03  0.64879372980E+02  0.89426344220E+03  0.96736040948E+03  0.12699999809E+01 0.  1.
</event>
<event>
 5   0  0.1924218E-02  0.8797408E+03  0.7818609E-02  0.9451267E-01
       -2   -1    0    0    0  501  0.00000000000E+00  0.00000000000E+00  0.34197570332E+03  0.34197570333E+03  0.25500000920E-02 0.  1.
        2   -1    0    0  501    0  0.00000000000E+00  0.00000000000E+00 -0.56578859924E+03  0.56578859925E+03  0.25500000920E-02 0. -1.
    10030    2    1    2    0    0  0.00000000000E+00  0.00000000000E+00 -0.22381289592E+03  0.90776430258E+03  0.87974076674E+03 0.  0.
        4    1    3    3  502    0 -0.43130048964E+03  0.69957975189E+02 -0.59595295214E+02  0.44098462872E+03  0.12699999809E+01 0.  1.
       -4    1    3    3    0  502  0.43130048964E+03 -0.69957975189E+02 -0.16421760070E+03  0.46677967386E+03  0.12699999809E+01 0. -1.
</event>
<event>
 5   0  0.7893875E-03  0.8856100E+03  0.7818609E-02  0.9443751E-01
        3   -1    0    0  501    0  0.00000000000E+00  0.00000000000E+00  0.65687671274E+03  0.65687672050E+03  0.10100000352E+00 0. -1.
       -3   -1    0    0    0  501  0.00000000000E+00  0.00000000000E+00 -0.29849780477E+03  0.29849782186E+03  0.10100000352E+00 0.  1.
    10030    2    1    2    0    0  0.00000000000E+00  0.00000000000E+00  0.35837890797E+03  0.95537454236E+03  0.88561000136E+03 0.  0.
        2    1    3    3  502    0 -0.13222233101E+03  0.11871618175E+03 -0.25834684880E+03  0.31355919843E+03  0.25500000920E-02 0.  1.
       -2    1    3    3    0  502  0.13222233101E+03 -0.11871618175E+03  0.61672575677E+03  0.64181534392E+03  0.25500000920E-02 0. -1.
</event>
<event>
 5   0  0.1206541E-02  0.8948331E+03  0.7818609E-02  0.9432063E-01
        1   -1    0    0  501    0  0.00000000000E+00  0.00000000000E+00  0.58042007434E+03  0.58042007437E+03  0.50400001928E-02 0.  1.
       -1   -1    0    0    0  501  0.00000000000E+00  0.00000000000E+00 -0.34489083678E+03  0.34489083682E+03  0.50400001928E-02 0. -1.
    10030    2    1    2    0    0  0.00000000000E+00  0.00000000000E+00  0.23552923756E+03  0.92531091118E+03  0.89483309092E+03 0.  0.
        3    1    3    3  502    0 -0.84776431848E+01  0.20804156169E+02  0.57983648771E+03  0.58027152785E+03  0.10100000352E+00 0.  1.
       -3    1    3    3    0  502  0.84776431848E+01 -0.20804156169E+02 -0.34430725015E+03  0.34503938334E+03  0.10100000352E+00 0. -1.
</event>
<event>
 5   0  0.1162839E-02  0.9079957E+03  0.7818609E-02  0.9415641E-01
        1   -1    0    0  501    0  0.00000000000E+00  0.00000000000E+00  0.28875507581E+03  0.28875507585E+03  0.50400001928E-02 0.  1.
       -1   -1    0    0    0  501  0.00000000000E+00  0.00000000000E+00 -0.71380225959E+03  0.71380225961E+03  0.50400001928E-02 0. -1.
    10030    2    1    2    0    0  0.00000000000E+00  0.00000000000E+00 -0.42504718378E+03  0.10025573355E+04  0.90799565112E+03 0.  0.
        2    1    3    3  502    0  0.93225657604E+02  0.30491788050E+01 -0.70310840530E+03  0.70926846140E+03  0.25500000920E-02 0. -1.
       -2    1    3    3    0  502 -0.93225657604E+02 -0.30491788050E+01  0.27806122152E+03  0.29328887406E+03  0.25500000920E-02 0.  1.
</event>
<event>
 5   0  0.1162839E-02  0.9312634E+03  0.7818609E-02  0.9387323E-01
       -1   -1    0    0    0  501  0.00000000000E+00  0.00000000000E+00  0.10450936151E+03  0.10450936163E+03  0.50400001928E-02 0. -1.
        1   -1    0    0  501    0  0.00000000000E+00  0.00000000000E+00 -0.20745783754E+04  0.20745783754E+04  0.50400001928E-02 0.  1.
    10030    2    1    2    0    0  0.00000000000E+00  0.00000000000E+00 -0.19700690139E+04  0.21790877370E+04  0.93126336028E+03 0.  0.
        2    1    3    3  502    0  0.37432742291E+03  0.22803133004E+03 -0.61733418948E+03  0.75711347137E+03  0.25500000920E-02 0. -1.
       -2    1    3    3    0  502 -0.37432742291E+03 -0.22803133004E+03 -0.13527348244E+04  0.14219742657E+04  0.25500000920E-02 0.  1.
</event>
<event>
 5   0  0.1226424E-02  0.9229644E+03  0.7818609E-02  0.9397322E-01
        1   -1    0    0  501    0  0.00000000000E+00  0.00000000000E+00  0.29039721262E+03  0.29039721266E+03  0.50400001928E-02 0.  1.
       -1   -1    0    0    0  501  0.00000000000E+00  0.00000000000E+00 -0.73336038041E+03  0.73336038043E+03  0.50400001928E-02 0. -1.
    10030    2    1    2    0    0  0.00000000000E+00  0.00000000000E+00 -0.44296316779E+03  0.10237575931E+04  0.92296437710E+03 0.  0.
        1    1    3    3  502    0 -0.70371963294E+01  0.46024643864E+03 -0.18486931929E+03  0.49603726842E+03  0.50400001928E-02 0.  1.
       -1    1    3    3    0  502  0.70371963294E+01 -0.46024643864E+03 -0.25809384850E+03  0.52772032467E+03  0.50400001928E-02 0. -1.
</event>
<event>
 5   0  0.1177712E-02  0.8852853E+03  0.7818609E-02  0.9444165E-01
       -1   -1    0    0    0  501  0.00000000000E+00  0.00000000000E+00  0.17340828527E+03  0.17340828534E+03  0.50400001928E-02 0.  1.
        1   -1    0    0  501    0  0.00000000000E+00  0.00000000000E+00 -0.11298913935E+04  0.11298913935E+04  0.50400001928E-02 0. -1.
    10030    2    1    2    0    0  0.00000000000E+00  0.00000000000E+00 -0.95648310821E+03  0.13032996788E+04  0.88528533059E+03 0.  0.
        5    1    3    3  502    0 -0.20116804185E+03 -0.36828713967E+03 -0.27105372458E+03  0.49959604674E+03  0.46999998093E+01 0.  1.
       -5    1    3    3    0  502  0.20116804185E+03  0.36828713967E+03 -0.68542938363E+03  0.80370363210E+03  0.46999998093E+01 0. -1.
</event>
<event>
 5   0  0.1162839E-02  0.9033062E+03  0.7818609E-02  0.9421458E-01
        1   -1    0    0  501    0  0.00000000000E+00  0.00000000000E+00  0.52987771357E+03  0.52987771360E+03  0.50400001928E-02 0. -1.
       -1   -1    0    0    0  501  0.00000000000E+00  0.00000000000E+00 -0.38497663084E+03  0.38497663087E+03  0.50400001928E-02 0.  1.
    10030    2    1    2    0    0  0.00000000000E+00  0.00000000000E+00  0.14490108273E+03  0.91485434447E+03  0.90330623147E+03 0.  0.
        2    1    3    3  502    0 -0.25602510364E+03 -0.64121798584E+02  0.44364679328E+03  0.51621985233E+03  0.25500000920E-02 0. -1.
       -2    1    3    3    0  502  0.25602510364E+03  0.64121798584E+02 -0.29874571054E+03  0.39863449214E+03  0.25500000920E-02 0.  1.
</event>
<event>
 5   0  0.1924218E-02  0.8989903E+03  0.7818609E-02  0.9426845E-01
        2   -1    0    0  501    0  0.00000000000E+00  0.00000000000E+00  0.55027834507E+03  0.55027834508E+03  0.25500000920E-02 0. -1.
       -2   -1    0    0    0  501  0.00000000000E+00  0.00000000000E+00 -0.36717032196E+03  0.36717032197E+03  0.25500000920E-02 0.  1.
    10030    2    1    2    0    0  0.00000000000E+00  0.00000000000E+00  0.18310802311E+03  0.91744866705E+03  0.89899027166E+03 0.  0.
        4    1    3    3  502    0 -0.29928444128E+03  0.60028638171E+02 -0.24517473629E+03  0.39151868207E+03  0.12699999809E+01 0.  1.
       -4    1    3    3    0  502  0.29928444128E+03 -0.60028638171E+02  0.42828275941E+03  0.52592998498E+03  0.12699999809E+01 0. -1.
</event>
<event>
 5   0  0.1924218E-02  0.8455452E+03  0.7818609E-02  0.9496336E-01
        2   -1    0    0  501    0  0.00000000000E+00  0.00000000000E+00  0.94391118426E+03  0.94391118426E+03  0.25500000920E-02 0.  1.
       -2   -1    0    0    0  501  0.00000000000E+00  0.00000000000E+00 -0.18935750610E+03  0.18935750611E+03  0.25500000920E-02 0. -1.
    10030    2    1    2    0    0  0.00000000000E+00  0.00000000000E+00  0.75455367816E+03  0.11332686904E+04  0.84554519179E+03 0.  0.
        4    1    3    3  502    0  0.42386120057E+02  0.32454090660E+03  0.73594099144E+03  0.80544033858E+03  0.12699999809E+01 0.  1.
       -4    1    3    3    0  502 -0.42386120057E+02 -0.32454090660E+03  0.18612686720E+02  0.32782835179E+03  0.12699999809E+01 0. -1.
</event>
<event>
 5   0  0.1924218E-02  0.8836341E+03  0.7818609E-02  0.9446274E-01
        2   -1    0    0  501    0  0.00000000000E+00  0.00000000000E+00  0.23777465997E+03  0.23777465998E+03  0.25500000920E-02 0.  1.
       -2   -1    0    0    0  501  0.00000000000E+00  0.00000000000E+00 -0.82095511210E+03  0.82095511211E+03  0.25500000920E-02 0. -1.
    10030    2    1    2    0    0  0.00000000000E+00  0.00000000000E+00 -0.58318045214E+03  0.10587297721E+04  0.88363413840E+03 0.  0.
        4    1    3    3  502    0  0.32580029431E+03  0.29118757920E+03 -0.36983501818E+03  0.57246448940E+03  0.12699999809E+01 0.  1.
       -4    1    3    3    0  502 -0.32580029431E+03 -0.29118757920E+03 -0.21334543396E+03  0.48626528269E+03  0.12699999809E+01 0. -1.
</event>
<event>
 5   0  0.1175993E-02  0.9188505E+03  0.7818609E-02  0.9402319E-01
        1   -1    0    0  501    0  0.00000000000E+00  0.00000000000E+00  0.77505716969E+03  0.77505716971E+03  0.50400001928E-02 0.  1.
       -1   -1    0    0    0  501  0.00000000000E+00  0.00000000000E+00 -0.27233032032E+03  0.27233032037E+03  0.50400001928E-02 0. -1.
    10030    2    1    2    0    0  0.00000000000E+00  0.00000000000E+00  0.50272684937E+03  0.10473874901E+04  0.91885051520E+03 0.  0.
        4    1    3    3  502    0  0.20805139845E+03  0.39352965959E+03  0.38092510820E+03  0.58588098478E+03  0.12699999809E+01 0.  1.
       -4    1    3    3    0  502 -0.20805139845E+03 -0.39352965959E+03  0.12180174118E+03  0.46150650529E+03  0.12699999809E+01 0. -1.
</event>
<event>
 5   0  0.1175993E-02  0.9499685E+03  0.7818609E-02  0.9365187E-01
        1   -1    0    0  501    0  0.00000000000E+00  0.00000000000E+00  0.42041461828E+03  0.42041461832E+03  0.50400001928E-02 0. -1.
       -1   -1    0    0    0  501  0.00000000000E+00  0.00000000000E+00 -0.53663704057E+03  0.53663704059E+03  0.50400001928E-02 0.  1.
    10030    2    1    2    0    0  0.00000000000E+00  0.00000000000E+00 -0.11622242228E+03  0.95705165891E+03  0.94996853967E+03 0.  0.
        4    1    3    3  502    0  0.77510925213E+02  0.38043404081E+03 -0.33377603550E+03  0.51200200948E+03  0.12699999809E+01 0.  1.
       -4    1    3    3    0  502 -0.77510925213E+02 -0.38043404081E+03  0.21755361322E+03  0.44504964943E+03  0.12699999809E+01 0. -1.
</event>
<event>
 5   0  0.2041861E-02  0.9217596E+03  0.7818609E-02  0.9398782E-01
        2   -1    0    0  501    0  0.00000000000E+00  0.00000000000E+00  0.14963423788E+04  0.14963423788E+04  0.25500000920E-02 0. -1.
       -2   -1    0    0    0  501  0.00000000000E+00  0.00000000000E+00 -0.14195292488E+03  0.14195292491E+03  0.25500000920E-02 0.  1.
    10030    2    1    2    0    0  0.00000000000E+00  0.00000000000E+00  0.13543894539E+04  0.16382953037E+04  0.92175957239E+03 0.  0.
        5    1    3    3  502    0  0.11249674091E+03 -0.70717156532E+02 -0.10712440092E+03  0.17074589370E+03  0.46999998093E+01 0.  1.
       -5    1    3    3    0  502 -0.11249674091E+03  0.70717156532E+02  0.14615138549E+04  0.14675494100E+04  0.46999998093E+01 0. -1.
</event>
<event>
 5   0  0.1177712E-02  0.9175263E+03  0.7818609E-02  0.9403934E-01
       -1   -1    0    0    0  501  0.00000000000E+00  0.00000000000E+00  0.34825532220E+03  0.34825532223E+03  0.50400001928E-02 0.  1.
        1   -1    0    0  501    0  0.00000000000E+00  0.00000000000E+00 -0.60433712758E+03  0.60433712760E+03  0.50400001928E-02 0. -1.
    10030    2    1    2    0    0  0.00000000000E+00  0.00000000000E+00 -0.25608180538E+03  0.95259244984E+03  0.91752628542E+03 0.  0.
        5    1    3    3  502    0  0.36864442471E+03 -0.18806455611E+03 -0.33353085149E+03  0.53153730633E+03  0.46999998093E+01 0. -1.
       -5    1    3    3    0  502 -0.36864442471E+03  0.18806455611E+03  0.77449046104E+02  0.42105514351E+03  0.46999998093E+01 0.  1.
</event>
<event>
 5   0  0.1177712E-02  0.8906781E+03  0.7818609E-02  0.9437310E-01
        1   -1    0    0  501    0  0.00000000000E+00  0.00000000000E+00  0.30719936137E+03  0.30719936141E+03  0.50400001928E-02 0.  1.
       -1   -1    0    0    0  501  0.00000000000E+00  0.00000000000E+00 -0.64559664168E+03  0.64559664170E+03  0.50400001928E-02 0. -1.
    10030    2    1    2    0    0  0.00000000000E+00  0.00000000000E+00 -0.33839728031E+03  0.95279600311E+03  0.89067811483E+03 0.  0.
        5    1    3    3  502    0  0.30492505993E+03 -0.32380498832E+03 -0.14586394914E+03  0.46811039755E+03  0.46999998093E+01 0.  1.
       -5    1    3    3    0  502 -0.30492505993E+03  0.32380498832E+03 -0.19253333117E+03  0.48468560557E+03  0.46999998093E+01 0. -1.
</event>
<event>
 5   0  0.1968763E-02  0.9039031E+03  0.7818609E-02  0.9420715E-01
        2   -1    0    0  501    0  0.00000000000E+00  0.00000000000E+00  0.63898088673E+03  0.63898088673E+03  0.25500000920E-02 0. -1.
       -2   -1    0    0    0  501  0.00000000000E+00  0.00000000000E+00 -0.31966560024E+03  0.31966560025E+03  0.25500000920E-02 0.  1.
    10030    2    1    2    0    0  0.00000000000E+00  0.00000000000E+00  0.31931528649E+03  0.95864648698E+03  0.90390311141E+03 0.  0.
        2    1    3    3  502    0 -0.27880104659E+03 -0.96435998733E+01 -0.21745753706E+03  0.35371005503E+03  0.25500000920E-02 0.  1.
       -2    1    3    3    0  502  0.27880104659E+03  0.96435998733E+01  0.53677282355E+03  0.60493643195E+03  0.25500000920E-02 0. -1.
</event>
<event>
 5   0  0.1206541E-02  0.9104342E+03  0.7818609E-02  0.9412631E-01
       -1   -1    0    0    0  501  0.00000000000E+00  0.00000000000E+00  0.64277780228E+03  0.64277780230E+03  0.50400001928E-02 0. -1.
        1   -1    0    0  501    0  0.00000000000E+00  0.00000000000E+00 -0.32238607379E+03  0.32238607383E+03  0.50400001928E-02 0.  1.
    10030    2    1    2    0    0  0.00000000000E+00  0.00000000000E+00  0.32039172849E+03  0.96516387613E+03  0.91043420855E+03 0.  0.
        3    1    3    3  502    0  0.27658991465E+03  0.45960034541E+02 -0.21998213756E+03  0.35637965248E+03  0.10100000352E+00 0.  1.
       -3    1    3    3    0  502 -0.27658991465E+03 -0.45960034541E+02  0.54037386604E+03  0.60878422365E+03  0.10100000352E+00 0. -1.
</event>
<event>
 5   0  0.2008643E-02  0.9088743E+03  0.7818609E-02  0.9414556E-01
       -2   -1    0    0    0  501  0.00000000000E+00  0.00000000000E+00  0.21230702239E+03  0.21230702240E+03  0.25500000920E-02 0.  1.
        2   -1    0    0  501    0  0.00000000000E+00  0.00000000000E+00 -0.97270987862E+03  0.97270987863E+03  0.25500000920E-02 0. -1.
    10030    2    1    2    0    0  0.00000000000E+00  0.00000000000E+00 -0.76040285624E+03  0.11850169010E+04  0.90887433232E+03 0.  0.
        3    1    3    3  502    0 -0.17986087292E+02 -0.44135704974E+03 -0.51937310747E+03  0.68181227596E+03  0.10100000352E+00 0.  1.
       -3    1    3    3    0  502  0.17986087292E+02  0.44135704974E+03 -0.24102974877E+03  0.50320462506E+03  0.10100000352E+00 0. -1.
</event>
<event>
 5   0  0.7893875E-03  0.8725268E+03  0.7818609E-02  0.9460591E-01
        3   -1    0    0  501    0  0.00000000000E+00  0.00000000000E+00  0.34940743569E+03  0.34940745029E+03  0.10100000352E+00 0.  1.
       -3   -1    0    0    0  501  0.00000000000E+00  0.00000000000E+00 -0.54471003246E+03  0.54471004182E+03  0.10100000352E+00 0. -1.
    10030    2    1    2    0    0  0.00000000000E+00  0.00000000000E+00 -0.19530259677E+03  0.89411749211E+03  0.87252678205E+03 0.  0.
        2    1    3    3  502    0 -0.38599883596E+03 -0.20163815112E+03 -0.71073019159E+02  0.44125323728E+03  0.25500000920E-02 0.  1.
       -2    1    3    3    0  502  0.38599883596E+03  0.20163815112E+03 -0.12422957761E+03  0.45286425484E+03  0.25500000920E-02 0. -1.
</event>
<event>
 5   0  0.1924218E-02  0.8803328E+03  0.7818609E-02  0.9450506E-01
       -2   -1    0    0    0  501  0.00000000000E+00  0.00000000000E+00  0.74630850921E+03  0.74630850921E+03  0.25500000920E-02 0. -1.
        2   -1    0    0  501    0  0.00000000000E+00  0.00000000000E+00 -0.25960641158E+03  0.25960641159E+03  0.25500000920E-02 0.  1.
    10030    2    1    2    0    0  0.00000000000E+00  0.00000000000E+00  0.48670209763E+03  0.10059149208E+04  0.88033283254E+03 0.  0.
        4    1    3    3  502    0  0.15047372208E+03  0.35176060731E+03 -0.53354846067E+01  0.38263291310E+03  0.12699999809E+01 0.  1.
       -4    1    3    3    0  502 -0.15047372208E+03 -0.35176060731E+03  0.49203758224E+03  0.62328200770E+03  0.12699999809E+01 0. -1.
</event>
<event>
 5   0  0.1924218E-02  0.8920382E+03  0.7818609E-02  0.9435589E-01
       -2   -1    0    0    0  501  0.00000000000E+00  0.00000000000E+00  0.77210264471E+02  0.77210264514E+02  0.25500000920E-02 0.  1.
        2   -1    0    0  501    0  0.00000000000E+00  0.00000000000E+00 -0.25765104406E+04  0.25765104406E+04  0.25500000920E-02 0. -1.
    10030    2    1    2    0    0  0.00000000000E+00  0.00000000000E+00 -0.24993001761E+04  0.26537207051E+04  0.89203823368E+03 0.  0.
        4    1    3    3  502    0 -0.43101769128E+03  0.91332618462E+02 -0.14560474490E+04  0.15212474105E+04  0.12699999809E+01 0. -1.
       -4    1    3    3    0  502  0.43101769128E+03 -0.91332618462E+02 -0.10432527271E+04  0.11324732946E+04  0.12699999809E+01 0.  1.
</event>
<event>
 5   0  0.1162839E-02  0.8297770E+03  0.7818609E-02  0.9517889E-01
        1   -1    0    0  501    0  0.00000000000E+00  0.00000000000E+00  0.54057649503E+03  0.54057649505E+03  0.50400001928E-02 0. -1.
       -1   -1    0    0    0  501  0.00000000000E+00  0.00000000000E+00 -0.31842391643E+03  0.31842391647E+03  0.50400001928E-02 0.  1.
    10030    2    1    2    0    0  0.00000000000E+00  0.00000000000E+00  0.22215257860E+03  0.85900041153E+03  0.82977704164E+03 0.  0.
        2    1    3    3  502    0 -0.17563916453E+03 -0.35858907585E+03  0.22772680886E+03  0.45966807689E+03  0.25500000920E-02 0. -1.
       -2    1    3    3    0  502  0.17563916453E+03  0.35858907585E+03 -0.55742302682E+01  0.39933233463E+03  0.25500000920E-02 0.  1.
</event>
<event>
 5   0  0.2008770E-02  0.8936517E+03  0.7818609E-02  0.9433552E-01
       -2   -1    0    0    0  501  0.00000000000E+00  0.00000000000E+00  0.22240569762E+03  0.22240569764E+03  0.25500000920E-02 0.  1.
        2   -1    0    0  501    0  0.00000000000E+00  0.00000000000E+00 -0.89769892751E+03  0.89769892751E+03  0.25500000920E-02 0. -1.
    10030    2    1    2    0    0  0.00000000000E+00  0.00000000000E+00 -0.67529322988E+03  0.11201046251E+04  0.89365173583E+03 0.  0.
        1    1    3    3  502    0  0.66357581807E+02  0.38939038651E+03 -0.59944006468E+03  0.71788341180E+03  0.50400001928E-02 0. -1.
       -1    1    3    3    0  502 -0.66357581807E+02 -0.38939038651E+03 -0.75853165203E+02  0.40222121335E+03  0.50400001928E-02 0.  1.
</event>
<event>
 5   0  0.1226424E-02  0.9265310E+03  0.7818609E-02  0.9393011E-01
        1   -1    0    0  501    0  0.00000000000E+00  0.00000000000E+00  0.43119637150E+03  0.43119637153E+03  0.50400001928E-02 0.  1.
       -1   -1    0    0    0  501  0.00000000000E+00  0.00000000000E+00 -0.49771969723E+03  0.49771969726E+03  0.50400001928E-02 0. -1.
    10030    2    1    2    0    0  0.00000000000E+00  0.00000000000E+00 -0.66523325731E+02  0.92891606878E+03  0.92653100864E+03 0.  0.
        1    1    3    3  502    0 -0.59296715580E+01 -0.16804163649E+03 -0.46604609559E+03  0.49545142632E+03  0.50400001928E-02 0. -1.
       -1    1    3    3    0  502  0.59296715580E+01  0.16804163649E+03  0.39952276986E+03  0.43346464246E+03  0.50400001928E-02 0.  1.
</event>
<event>
 5   0  0.1177712E-02  0.8840907E+03  0.7818609E-02  0.9445690E-01
       -1   -1    0    0    0  501  0.00000000000E+00  0.00000000000E+00  0.50574059984E+03  0.50574059986E+03  0.50400001928E-02 0.  1.
        1   -1    0    0  501    0  0.00000000000E+00  0.00000000000E+00 -0.38637216542E+03  0.38637216545E+03  0.50400001928E-02 0. -1.
    10030    2    1    2    0    0  0.00000000000E+00  0.00000000000E+00  0.11936843442E+03  0.89211276531E+03  0.88409069834E+03 0.  0.
        5    1    3    3  502    0  0.19911169878E+03 -0.11790451453E+03 -0.32034302241E+03  0.39520714207E+03  0.46999998093E+01 0. -1.
       -5    1    3    3    0  502 -0.19911169878E+03  0.11790451453E+03  0.43971145683E+03  0.49690562324E+03  0.46999998093E+01 0.  1.
</event>
<event>
 5   0  0.2008770E-02  0.8905679E+03  0.7818609E-02  0.9437449E-01
       -2   -1    0    0    0  501  0.00000000000E+00  0.00000000000E+00  0.70090171792E+02  0.70090171838E+02  0.25500000920E-02 0. -1.
        2   -1    0    0  501    0  0.00000000000E+00  0.00000000000E+00 -0.28288958234E+04  0.28288958234E+04  0.25500000920E-02 0.  1.
    10030    2    1    2    0    0  0.00000000000E+00  0.00000000000E+00 -0.27588056516E+04  0.28989859952E+04  0.89056789593E+03 0.  0.
        1    1    3    3  502    0  0.68901378909E+02 -0.13672008276E+03 -0.18280951468E+02  0.15418811322E+03  0.50400001928E-02 0. -1.
       -1    1    3    3    0  502 -0.68901378909E+02  0.13672008276E+03 -0.27405247001E+04  0.27447978820E+04  0.50400001928E-02 0.  1.
</event>
<event>
 5   0  0.1177712E-02  0.9198244E+03  0.7818609E-02  0.9401134E-01
        1   -1    0    0  501    0  0.00000000000E+00  0.00000000000E+00  0.65555873099E+03  0.65555873101E+03  0.50400001928E-02 0.  1.
       -1   -1    0    0    0  501  0.00000000000E+00  0.00000000000E+00 -0.32265487025E+03  0.32265487029E+03  0.50400001928E-02 0. -1.
    10030    2    1    2    0    0  0.00000000000E+00  0.00000000000E+00  0.33290386074E+03  0.97821360129E+03  0.91982436870E+03 0.  0.
        5    1    3    3  502    0  0.80352115540E+02 -0.22306205300E+03  0.58552728416E+03  0.63172575732E+03  0.46999998093E+01 0.  1.
       -5    1    3    3    0  502 -0.80352115540E+02  0.22306205300E+03 -0.25262342342E+03  0.34648784398E+03  0.46999998093E+01 0. -1.
</event>
<event>
 5   0  0.1206541E-02  0.9113844E+03  0.7818609E-02  0.9411461E-01
       -1   -1    0    0    0  501  0.00000000000E+00  0.00000000000E+00  0.17084712234E+03  0.17084712242E+03  0.50400001928E-02 0.  1.
        1   -1    0    0  501    0  0.00000000000E+00  0.00000000000E+00 -0.12154455521E+04  0.12154455521E+04  0.50400001928E-02 0. -1.
    10030    2    1    2    0    0  0.00000000000E+00  0.00000000000E+00 -0.10445984298E+04  0.13862926745E+04  0.91138438653E+03 0.  0.
        3    1    3    3  502    0  0.22007381003E+03  0.39010863387E+03 -0.64990847588E+03  0.78930239154E+03  0.10100000352E+00 0.  1.
       -3    1    3    3    0  502 -0.22007381003E+03 -0.39010863387E+03 -0.39468995388E+03  0.59699028298E+03  0.10100000352E+00 0. -1.
</event>
<event>
 5   0  0.1175993E-02  0.8925431E+03  0.7818609E-02  0.9434951E-01
       -1   -1    0    0    0  501  0.00000000000E+00  0.00000000000E+00  0.19860294115E+03  0.19860294121E+03  0.50400001928E-02 0. -1.
        1   -1    0    0  501    0  0.00000000000E+00  0.00000000000E+00 -0.10027963042E+04  0.10027963042E+04  0.50400001928E-02 0.  1.
    10030    2    1    2    0    0  0.00000000000E+00  0.00000000000E+00 -0.80419336308E+03  0.12013992455E+04  0.89254309798E+03 0.  0.
        4    1    3    3  502    0 -0.13562555979E+03 -0.35714496560E+03 -0.91601952646E+02  0.39286047084E+03  0.12699999809E+01 0. -1.
       -4    1    3    3    0  502  0.13562555979E+03  0.35714496560E+03 -0.71259141044E+03  0.80853877461E+03  0.12699999809E+01 0.  1.
</event>
<event>
 5   0  0.2041861E-02  0.9036071E+03  0.7818609E-02  0.9421084E-01
       -2   -1    0    0    0  501  0.00000000000E+00  0.00000000000E+00  0.33036777440E+03  0.33036777441E+03  0.25500000920E-02 0. -1.
        2   -1    0    0  501    0  0.00000000000E+00  0.00000000000E+00 -0.61787640877E+03  0.61787640878E+03  0.25500000920E-02 0.  1.
    10030    2    1    2    0    0  0.00000000000E+00  0.00000000000E+00 -0.28750863437E+03  0.94824418319E+03  0.90360711380E+03 0.  0.
        5    1    3    3  502    0  0.19488467368E+03 -0.25656390105E+03 -0.47609957106E+03  0.57488952236E+03  0.46999998093E+01 0.  1.
       -5    1    3    3    0  502 -0.19488467368E+03  0.25656390105E+03  0.18859093669E+03  0.37335466082E+03  0.46999998093E+01 0. -1.
</event>
<event>
 5   0  0.2008770E-02  0.9018851E+03  0.7818609E-02  0.9423228E-01
        2   -1    0    0  501    0  0.00000000000E+00  0.00000000000E+00  0.71237630695E+03  0.71237630695E+03  0.25500000920E-02 0. -1.
       -2   -1    0    0    0  501  0.00000000000E+00  0.00000000000E+00 -0.28545188951E+03  0.28545188952E+03  0.25500000920E-02 0.  1.
    10030    2    1    2    0    0  0.00000000000E+00  0.00000000000E+00  0.42692441743E+03  0.99782819647E+03  0.90188505447E+03 0.  0.
        1    1    3    3  502    0  0.40705684743E+03 -0.94063852243E+02  0.25684023852E+02  0.41857251993E+03  0.50400001928E-02 0.  1.
       -1    1    3    3    0  502 -0.40705684743E+03  0.94063852243E+02  0.40124039358E+03  0.57925567654E+03  0.50400001928E-02 0. -1.
</event>
<event>
 5   0  0.1162839E-02  0.9427977E+03  0.7818609E-02  0.9373609E-01
        1   -1    0    0  501    0  0.00000000000E+00  0.00000000000E+00  0.48994477551E+03  0.48994477554E+03  0.50400001928E-02 0.  1.
       -1   -1    0    0    0  501  0.00000000000E+00  0.00000000000E+00 -0.45355496247E+03  0.45355496250E+03  0.50400001928E-02 0. -1.
    10030    2    1    2    0    0  0.00000000000E+00  0.00000000000E+00  0.36389813044E+02  0.94349973804E+03  0.94279771806E+03 0.  0.
        2    1    3    3  502    0 -0.17813729343E+03 -0.39445745557E+01 -0.41855695171E+03  0.45490479972E+03  0.25500000920E-02 0. -1.
       -2    1    3    3    0  502  0.17813729343E+03  0.39445745557E+01  0.45494676475E+03  0.48859493831E+03  0.25500000920E-02 0.  1.
</event>
<event>
 5   0  0.1177712E-02  0.8871199E+03  0.7818609E-02  0.9441827E-01
       -1   -1    0    0    0  501  0.00000000000E+00  0.00000000000E+00  0.15934027004E+03  0.15934027012E+03  0.50400001928E-02 0.  1.
        1   -1    0    0  501    0  0.00000000000E+00  0.00000000000E+00 -0.12347501535E+04  0.12347501535E+04  0.50400001928E-02 0. -1.
    10030    2    1    2    0    0  0.00000000000E+00  0.00000000000E+00 -0.10754098835E+04  0.13940904236E+04  0.88711988583E+03 0.  0.
        5    1    3    3  502    0 -0.39150192748E+02  0.28744596897E+03 -0.10461594293E+02  0.29032646731E+03  0.46999998093E+01 0.  1.
       -5    1    3    3    0  502  0.39150192748E+02 -0.28744596897E+03 -0.10649482892E+04  0.11037639563E+04  0.46999998093E+01 0. -1.
</event>
<event>
 5   0  0.2008643E-02  0.9087989E+03  0.7818609E-02  0.9414649E-01
       -2   -1    0    0    0  501  0.00000000000E+00  0.00000000000E+00  0.87794468463E+03  0.87794468464E+03  0.25500000920E-02 0. -1.
        2   -1    0    0  501    0  0.00000000000E+00  0.00000000000E+00 -0.23518438099E+03  0.23518438101E+03  0.25500000920E-02 0.  1.
    10030    2    1    2    0    0  0.00000000000E+00  0.00000000000E+00  0.64276030364E+03  0.11131290656E+04  0.90879893752E+03 0.  0.
        3    1    3    3  502    0  0.44426080454E+02 -0.25575728062E+03 -0.13542498602E+03  0.29278900295E+03  0.10100000352E+00 0.  1.
       -3    1    3    3    0  502 -0.44426080454E+02  0.25575728062E+03  0.77818528966E+03  0.82034006269E+03  0.10100000352E+00 0. -1.
</event>
<event>
 5   0  0.2008770E-02  0.9223667E+03  0.7818609E-02  0.9398046E-01
        2   -1    0    0  501    0  0.00000000000E+00  0.00000000000E+00  0.65721565298E+03  0.65721565299E+03  0.25500000920E-02 0. -1.
       -2   -1    0    0    0  501  0.00000000000E+00  0.00000000000E+00 -0.32362298250E+03  0.32362298251E+03  0.25500000920E-02 0.  1.
    10030    2    1    2    0    0  0.00000000000E+00  0.00000000000E+00  0.33359267048E+03  0.98083863550E+03  0.92236671616E+03 0.  0.
        1    1    3    3  502    0  0.15630237649E+03 -0.12972893793E+02  0.62798472533E+03  0.64727393285E+03  0.50400001928E-02 0. -1.
       -1    1    3    3    0  502 -0.15630237649E+03  0.12972893793E+02 -0.29439205485E+03  0.33356470265E+03  0.50400001928E-02 0.  1.
</event>
<event>
 5   0  0.7893875E-03  0.9066767E+03  0.7818609E-02  0.9417273E-01
        3   -1    0    0  501    0  0.00000000000E+00  0.00000000000E+00  0.78762147918E+03  0.78762148566E+03  0.10100000352E+00 0.  1.
       -3   -1    0    0    0  501  0.00000000000E+00  0.00000000000E+00 -0.26093200443E+03  0.26093202397E+03  0.10100000352E+00 0. -1.
    10030    2    1    2    0    0  0.00000000000E+00  0.00000000000E+00  0.52668947475E+03  0.10485535096E+04  0.90667671181E+03 0.  0.
        1    1    3    3  502    0 -0.41855980513E+02 -0.44619094577E+03  0.18425146503E+03  0.48454812515E+03  0.50400001928E-02 0.  1.
       -1    1    3    3    0  502  0.41855980513E+02  0.44619094577E+03  0.34243800972E+03  0.56400538448E+03  0.50400001928E-02 0. -1.
</event>
<event>
 5   0  0.1177712E-02  0.9304900E+03  0.7818609E-02  0.9388250E-01
       -1   -1    0    0    0  501  0.00000000000E+00  0.00000000000E+00  0.16125345139E+03  0.16125345147E+03  0.50400001928E-02 0.  1.
        1   -1    0    0  501    0  0.00000000000E+00  0.00000000000E+00 -0.13423148571E+04  0.13423148571E+04  0.50400001928E-02 0. -1.
    10030    2    1    2    0    0  0.00000000000E+00  0.00000000000E+00 -0.11810614058E+04  0.15035683086E+04  0.93048998625E+03 0.  0.
        5    1    3    3  502    0  0.26021217977E+03  0.77924987802E+02 -0.12008322953E+04  0.12311795051E+04  0.46999998093E+01 0. -1.
       -5    1    3    3    0  502 -0.26021217977E+03 -0.77924987802E+02  0.19770889567E+02  0.27238880354E+03  0.46999998093E+01 0.  1.
</event>
<event>
 5   0  0.1162839E-02  0.8964856E+03  0.7818609E-02  0.9429985E-01
        1   -1    0    0  501    0  0.00000000000E+00  0.00000000000E+00  0.10936775331E+04  0.10936775331E+04  0.50400001928E-02 0.  1.
       -1   -1    0    0    0  501  0.00000000000E+00  0.00000000000E+00 -0.18371193071E+03  0.18371193078E+03  0.50400001928E-02 0. -1.
    10030    2    1    2    0    0  0.00000000000E+00  0.00000000000E+00  0.90996560241E+03  0.12773894639E+04  0.89648560778E+03 0.  0.
        2    1    3    3  502    0  0.15549279895E+03 -0.29822446555E+03  0.32760145567E+02  0.33791873212E+03  0.25500000920E-02 0. -1.
       -2    1    3    3    0  502 -0.15549279895E+03  0.29822446555E+03  0.87720545684E+03  0.93947073179E+03  0.25500000920E-02 0.  1.
</event>
<event>
 5   0  0.1177712E-02  0.9193940E+03  0.7818609E-02  0.9401658E-01
       -1   -1    0    0    0  501  0.00000000000E+00  0.00000000000E+00  0.22169563809E+03  0.22169563814E+03  0.50400001928E-02 0.  1.
        1   -1    0    0  501    0  0.00000000000E+00  0.00000000000E+00 -0.95320474767E+03  0.95320474768E+03  0.50400001928E-02 0. -1.
    10030    2    1    2    0    0  0.00000000000E+00  0.00000000000E+00 -0.73150910958E+03  0.11749003858E+04  0.91939400651E+03 0.  0.
        5    1    3    3  502    0  0.12510447646E+03 -0.37977228921E+03 -0.65553572188E+03  0.76787192574E+03  0.46999998093E+01 0. -1.
       -5    1    3    3    0  502 -0.12510447646E+03  0.37977228921E+03 -0.75973387706E+02  0.40702846009E+03  0.46999998093E+01 0.  1.
</event>
<event>
 5   0  0.1162839E-02  0.9093243E+03  0.7818609E-02  0.9414000E-01
        1   -1    0    0  501    0  0.00000000000E+00  0.00000000000E+00  0.33324537399E+03  0.33324537403E+03  0.50400001928E-02 0.  1.
       -1   -1    0    0    0  501  0.00000000000E+00  0.00000000000E+00 -0.62031674739E+03  0.62031674741E+03  0.50400001928E-02 0. -1.
    10030    2    1    2    0    0  0.00000000000E+00  0.00000000000E+00 -0.28707137340E+03  0.95356212144E+03  0.90932433489E+03 0.  0.
        2    1    3    3  502    0 -0.33353426423E+03  0.74898964792E+02  0.17081902370E+03  0.38214408173E+03  0.25500000920E-02 0.  1.
       -2    1    3    3    0  502  0.33353426423E+03 -0.74898964792E+02 -0.45789039710E+03  0.57141803971E+03  0.25500000920E-02 0. -1.
</event>
<event>
 5   0  0.1177712E-02  0.7846142E+03  0.7818609E-02  0.9582558E-01
        1   -1    0    0  501    0  0.00000000000E+00  0.00000000000E+00  0.58313425038E+03  0.58313425040E+03  0.50400001928E-02 0.  1.
       -1   -1    0    0    0  501  0.00000000000E+00  0.00000000000E+00 -0.26392696862E+03  0.26392696866E+03  0.50400001928E-02 0. -1.
    10030    2    1    2    0    0  0.00000000000E+00  0.00000000000E+00  0.31920728177E+03  0.84706121907E+03  0.78461418552E+03 0.  0.
        5    1    3    3  502    0 -0.85143272204E+02 -0.12208106195E+03  0.55143603155E+03  0.57118906623E+03  0.46999998093E+01 0.  1.
       -5    1    3    3    0  502  0.85143272204E+02  0.12208106195E+03 -0.23222874978E+03  0.27587215284E+03  0.46999998093E+01 0. -1.
</event>
<event>
 5   0  0.7893875E-03  0.9021994E+03  0.7818609E-02  0.9422836E-01
       -4   -1    0    0    0  501  0.00000000000E+00  0.00000000000E+00  0.64981690011E+03  0.64981814115E+03  0.12699999809E+01 0.  1.
        4   -1    0    0  501    0  0.00000000000E+00  0.00000000000E+00 -0.31314836442E+03  0.31315093970E+03  0.12699999809E+01 0. -1.
    10030    2    1    2    0    0  0.00000000000E+00  0.00000000000E+00  0.33666853569E+03  0.96296908085E+03  0.90219939468E+03 0.  0.
        1    1    3    3  502    0 -0.36553862375E+03 -0.23114905283E+03  0.30519996675E+03  0.52933485603E+03  0.50400001928E-02 0. -1.
       -1    1    3    3    0  502  0.36553862375E+03  0.23114905283E+03  0.31468568936E+02  0.43363422482E+03  0.50400001928E-02 0.  1.
</event>
<event>
 5   0  0.2008643E-02  0.8981527E+03  0.7818609E-02  0.9427894E-01
       -2   -1    0    0    0  501  0.00000000000E+00  0.00000000000E+00  0.12470948091E+03  0.12470948094E+03  0.25500000920E-02 0. -1.
        2   -1    0    0  501    0  0.00000000000E+00  0.00000000000E+00 -0.16171147932E+04  0.16171147932E+04  0.25500000920E-02 0.  1.
    10030    2    1    2    0    0  0.00000000000E+00  0.00000000000E+00 -0.14924053122E+04  0.17418242741E+04  0.89815265173E+03 0.  0.
        3    1    3    3  502    0  0.35098161987E+03 -0.10364451236E+03 -0.24145491234E+03  0.43844129290E+03  0.10100000352E+00 0. -1.
       -3    1    3    3    0  502 -0.35098161987E+03  0.10364451236E+03 -0.12509503999E+04  0.13033829812E+04  0.10100000352E+00 0.  1.
</event>
<event>
 5   0  0.1968763E-02  0.8547394E+03  0.7818609E-02  0.9483998E-01
        2   -1    0    0  501    0  0.00000000000E+00  0.00000000000E+00  0.17193066460E+04  0.17193066460E+04  0.25500000920E-02 0. -1.
       -2   -1    0    0    0  501  0.00000000000E+00  0.00000000000E+00 -0.10623169517E+03  0.10623169520E+03  0.25500000920E-02 0.  1.
    10030    2    1    2    0    0  0.00000000000E+00  0.00000000000E+00  0.16130749509E+04  0.18255383412E+04  0.85473939784E+03 0.  0.
        2    1    3    3  502    0 -0.12692410919E+03 -0.38850382960E+02 -0.61089668138E+02  0.14611991414E+03  0.25500000920E-02 0.  1.
       -2    1    3    3    0  502  0.12692410919E+03  0.38850382960E+02  0.16741646190E+04  0.16794184271E+04  0.25500000920E-02 0. -1.
</event>
<event>
 5   0  0.2008770E-02  0.8982969E+03  0.7818609E-02  0.9427713E-01
       -2   -1    0    0    0  501  0.00000000000E+00  0.00000000000E+00  0.64846225785E+03  0.64846225786E+03  0.25500000920E-02 0. -1.
        2   -1    0    0  501    0  0.00000000000E+00  0.00000000000E+00 -0.31109651640E+03  0.31109651641E+03  0.25500000920E-02 0.  1.
    10030    2    1    2    0    0  0.00000000000E+00  0.00000000000E+00  0.33736574145E+03  0.95955877427E+03  0.89829694298E+03 0.  0.
        1    1    3    3  502    0 -0.12005474028E+03 -0.30698110621E+03 -0.15722041042E+03  0.36519693004E+03  0.50400001928E-02 0.  1.
       -1    1    3    3    0  502  0.12005474028E+03  0.30698110621E+03  0.49458615187E+03  0.59436184423E+03  0.50400001928E-02 0. -1.
</event>
<event>
 5   0  0.1162839E-02  0.8690983E+03  0.7818609E-02  0.9465056E-01
        1   -1    0    0  501    0  0.00000000000E+00  0.00000000000E+00  0.15898175013E+04  0.15898175014E+04  0.50400001928E-02 0.  1.
       -1   -1    0    0    0  501  0.00000000000E+00  0.00000000000E+00 -0.11877649612E+03  0.11877649623E+03  0.50400001928E-02 0. -1.
    10030    2    1    2    0    0  0.00000000000E+00  0.00000000000E+00  0.14710410052E+04  0.17085939976E+04  0.86909827380E+03 0.  0.
        2    1    3    3  502    0  0.80413766304E+02 -0.30400054009E+03  0.14590190050E+03  0.34665554483E+03  0.25500000920E-02 0.  1.
       -2    1    3    3    0  502 -0.80413766304E+02  0.30400054009E+03  0.13251391047E+04  0.13619384528E+04  0.25500000920E-02 0. -1.
</event>
<event>
 5   0  0.1924218E-02  0.8879970E+03  0.7818609E-02  0.9440711E-01
       -2   -1    0    0    0  501  0.00000000000E+00  0.00000000000E+00  0.23211263131E+03  0.23211263133E+03  0.25500000920E-02 0.  1.
        2   -1    0    0  501    0  0.00000000000E+00  0.00000000000E+00 -0.84930599557E+03  0.84930599558E+03  0.25500000920E-02 0. -1.
    10030    2    1    2    0    0  0.00000000000E+00  0.00000000000E+00 -0.61719336426E+03  0.10814186269E+04  0.88799695817E+03 0.  0.
        4    1    3    3  502    0  0.12619787738E+03 -0.27820731401E+02 -0.82589434970E+03  0.83594436843E+03  0.12699999809E+01 0. -1.
       -4    1    3    3    0  502 -0.12619787738E+03  0.27820731401E+02  0.20870098543E+03  0.24547425847E+03  0.12699999809E+01 0.  1.
</event>
<event>
 5   0  0.1175993E-02  0.8820093E+03  0.7818609E-02  0.9448354E-01
       -1   -1    0    0    0  501  0.00000000000E+00  0.00000000000E+00  0.42094329493E+03  0.42094329496E+03  0.50400001928E-02 0. -1.
        1   -1    0    0  501    0  0.00000000000E+00  0.00000000000E+00 -0.46202204370E+03  0.46202204373E+03  0.50400001928E-02 0.  1.
    10030    2    1    2    0    0  0.00000000000E+00  0.00000000000E+00 -0.41078748778E+02  0.88296533869E+03  0.88200925490E+03 0.  0.
        4    1    3    3  502    0 -0.42589962253E+03  0.10818416747E+03 -0.57851292919E+02  0.44321855507E+03  0.12699999809E+01 0. -1.
       -4    1    3    3    0  502  0.42589962253E+03 -0.10818416747E+03  0.16772544141E+02  0.43974678362E+03  0.12699999809E+01 0.  1.
</event>
<event>
 5   0  0.1162839E-02  0.8987086E+03  0.7818609E-02  0.9427197E-01
        1   -1    0    0  501    0  0.00000000000E+00  0.00000000000E+00  0.10181722175E+04  0.10181722176E+04  0.50400001928E-02 0. -1.
       -1   -1    0    0    0  501  0.00000000000E+00  0.00000000000E+00 -0.19831545083E+03  0.19831545090E+03  0.50400001928E-02 0.  1.
    10030    2    1    2    0    0  0.00000000000E+00  0.00000000000E+00  0.81985676671E+03  0.12164876685E+04  0.89870858991E+03 0.  0.
        2    1    3    3  502    0 -0.22139917031E+03 -0.49556236647E+02  0.93495213622E+03  0.96208570836E+03  0.25500000920E-02 0. -1.
       -2    1    3    3    0  502  0.22139917031E+03  0.49556236647E+02 -0.11509536951E+03  0.25440196009E+03  0.25500000920E-02 0.  1.
</event>
<event>
 5   0  0.2008643E-02  0.8970202E+03  0.7818609E-02  0.9429314E-01
        2   -1    0    0  501    0  0.00000000000E+00  0.00000000000E+00  0.53371536278E+03  0.53371536279E+03  0.25500000920E-02 0.  1.
       -2   -1    0    0    0  501  0.00000000000E+00  0.00000000000E+00 -0.37690750250E+03  0.37690750251E+03  0.25500000920E-02 0. -1.
    10030    2    1    2    0    0  0.00000000000E+00  0.00000000000E+00  0.15680786028E+03  0.91062286530E+03  0.89702023264E+03 0.  0.
        3    1    3    3  502    0  0.32937647807E+03 -0.18635144448E+03 -0.16596529027E+03  0.41323142782E+03  0.10100000352E+00 0. -1.
       -3    1    3    3    0  502 -0.32937647807E+03  0.18635144448E+03  0.32277315055E+03  0.49739143748E+03  0.10100000352E+00 0.  1.
</event>
<event>
 5   0  0.1206541E-02  0.8845100E+03  0.7818609E-02  0.9445155E-01
        1   -1    0    0  501    0  0.00000000000E+00  0.00000000000E+00  0.42075840003E+03  0.42075840006E+03  0.50400001928E-02 0.  1.
       -1   -1    0    0    0  501  0.00000000000E+00  0.00000000000E+00 -0.46484986239E+03  0.46484986242E+03  0.50400001928E-02 0. -1.
    10030    2    1    2    0    0  0.00000000000E+00  0.00000000000E+00 -0.44091462360E+02  0.88560826248E+03  0.88450999854E+03 0.  0.
        3    1    3    3  502    0 -0.15840497471E+03  0.12439407357E+01  0.39137832532E+03  0.42222113535E+03  0.10100000352E+00 0.  1.
       -3    1    3    3    0  502  0.15840497471E+03 -0.12439407357E+01 -0.43546978768E+03  0.46338712713E+03  0.10100000352E+00 0. -1.
</event>
<event>
 5   0  0.2008643E-02  0.9069787E+03  0.7818609E-02  0.9416899E-01
       -2   -1    0    0    0  501  0.00000000000E+00  0.00000000000E+00  0.48124025150E+03  0.48124025151E+03  0.25500000920E-02 0. -1.
        2   -1    0    0  501    0  0.00000000000E+00  0.00000000000E+00 -0.42733873540E+03  0.42733873541E+03  0.25500000920E-02 0.  1.
    10030    2    1    2    0    0  0.00000000000E+00  0.00000000000E+00  0.53901516099E+02  0.90857898692E+03  0.90697872193E+03 0.  0.
        3    1    3    3  502    0 -0.69133236509E+02  0.36160746436E+03  0.29220697416E+03  0.47002583825E+03  0.10100000352E+00 0. -1.
       -3    1    3    3    0  502  0.69133236509E+02 -0.36160746436E+03 -0.23830545806E+03  0.43855314867E+03  0.10100000352E+00 0.  1.
</event>
<event>
 5   0  0.7893875E-03  0.8976170E+03  0.7818609E-02  0.9428565E-01
        3   -1    0    0  501    0  0.00000000000E+00  0.00000000000E+00  0.50658018757E+03  0.50658019763E+03  0.10100000352E+00 0.  1.
       -3   -1    0    0    0  501  0.00000000000E+00  0.00000000000E+00 -0.39762524338E+03  0.39762525621E+03  0.10100000352E+00 0. -1.
    10030    2    1    2    0    0  0.00000000000E+00  0.00000000000E+00  0.10895494418E+03  0.90420545384E+03  0.89761702463E+03 0.  0.
        1    1    3    3  502    0 -0.80392220601E+02  0.43331774913E+03  0.13996437436E+03  0.46240372724E+03  0.50400001928E-02 0.  1.
       -1    1    3    3    0  502  0.80392220601E+02 -0.43331774913E+03 -0.31009430180E+02  0.44180172661E+03  0.50400001928E-02 0. -1.
</event>
<event>
 5   0  0.1175993E-02  0.8980665E+03  0.7818609E-02  0.9428002E-01
        1   -1    0    0  501    0  0.00000000000E+00  0.00000000000E+00  0.41108021327E+03  0.41108021330E+03  0.50400001928E-02 0. -1.
       -1   -1    0    0    0  501  0.00000000000E+00  0.00000000000E+00 -0.49049029408E+03  0.49049029410E+03  0.50400001928E-02 0.  1.
    10030    2    1    2    0    0  0.00000000000E+00  0.00000000000E+00 -0.79410080808E+02  0.90157050741E+03  0.89806648913E+03 0.  0.
        4    1    3    3  502    0  0.42894002785E+02  0.44549420578E+03 -0.31726856806E+01  0.44756749401E+03  0.12699999809E+01 0. -1.
       -4    1    3    3    0  502 -0.42894002785E+02 -0.44549420578E+03 -0.76237395128E+02  0.45400301340E+03  0.12699999809E+01 0.  1.
</event>
<event>
 5   0  0.1177712E-02  0.8973271E+03  0.7818609E-02  0.9428929E-01
       -1   -1    0    0    0  501  0.00000000000E+00  0.00000000000E+00  0.11880532575E+03  0.11880532586E+03  0.50400001928E-02 0.  1.
        1   -1    0    0  501    0  0.00000000000E+00  0.00000000000E+00 -0.16943599703E+04  0.16943599703E+04  0.50400001928E-02 0. -1.
    10030    2    1    2    0    0  0.00000000000E+00  0.00000000000E+00 -0.15755546446E+04  0.18131652962E+04  0.89732711608E+03 0.  0.
        5    1    3    3  502    0  0.15966630824E+03  0.17383153243E+03 -0.15587106647E+04  0.15764871575E+04  0.46999998093E+01 0. -1.
       -5    1    3    3    0  502 -0.15966630824E+03 -0.17383153243E+03 -0.16843979867E+02  0.23667813863E+03  0.46999998093E+01 0.  1.
</event>
<event>
 5   0  0.2008643E-02  0.8593582E+03  0.7818609E-02  0.9477862E-01
        2   -1    0    0  501    0  0.00000000000E+00  0.00000000000E+00  0.15665651755E+04  0.15665651755E+04  0.25500000920E-02 0.  1.
       -2   -1    0    0    0  501  0.00000000000E+00  0.00000000000E+00 -0.11785280983E+03  0.11785280986E+03  0.25500000920E-02 0. -1.
    10030    2    1    2    0    0  0.00000000000E+00  0.00000000000E+00  0.14487123657E+04  0.16844179854E+04  0.85935815059E+03 0.  0.
        3    1    3    3  502    0 -0.21875089366E+02 -0.13286466251E+03 -0.75428503628E+02  0.15434055669E+03  0.10100000352E+00 0. -1.
       -3    1    3    3    0  502  0.21875089366E+02  0.13286466251E+03  0.15241408693E+04  0.15300774287E+04  0.10100000352E+00 0.  1.
</event>
<event>
 5   0  0.1226424E-02  0.9139603E+03  0.7818609E-02  0.9408297E-01
       -1   -1    0    0    0  501  0.00000000000E+00  0.00000000000E+00  0.21585941005E+03  0.21585941011E+03  0.50400001928E-02 0. -1.
        1   -1    0    0  501    0  0.00000000000E+00  0.00000000000E+00 -0.96743927934E+03  0.96743927935E+03  0.50400001928E-02 0.  1.
    10030    2    1    2    0    0  0.00000000000E+00  0.00000000000E+00 -0.75157986929E+03  0.11832986895E+04  0.91396033204E+03 0.  0.
        1    1    3    3  502    0  0.44257681800E+03  0.89132832588E+02 -0.46744812679E+03  0.64986664242E+03  0.50400001928E-02 0.  1.
       -1    1    3    3    0  502 -0.44257681800E+03 -0.89132832588E+02 -0.28413174251E+03  0.53343204703E+03  0.50400001928E-02 0. -1.
</event>
<event>
 5   0  0.2041861E-02  0.8926617E+03  0.7818609E-02  0.9434801E-01
       -2   -1    0    0    0  501  0.00000000000E+00  0.00000000000E+00  0.12526685862E+03  0.12526685864E+03  0.25500000920E-02 0.  1.
        2   -1    0    0  501    0  0.00000000000E+00  0.00000000000E+00 -0.15902946607E+04  0.15902946607E+04  0.25500000920E-02 0. -1.
    10030    2    1    2    0    0  0.00000000000E+00  0.00000000000E+00 -0.14650278021E+04  0.17155615193E+04  0.89266167486E+03 0.  0.
        5    1    3    3  502    0 -0.10596480977E+03 -0.20529119098E+03 -0.14663890215E+04  0.14844837036E+04  0.46999998093E+01 0. -1.
       -5    1    3    3    0  502  0.10596480977E+03  0.20529119098E+03  0.13612193982E+01  0.23107781572E+03  0.46999998093E+01 0.  1.
</event>
<event>
 5   0  0.1162839E-02  0.9167814E+03  0.7818609E-02  0.9404844E-01
       -1   -1    0    0    0  501  0.00000000000E+00  0.00000000000E+00  0.44566879724E+03  0.44566879727E+03  0.50400001928E-02 0.  1.
        1   -1    0    0  501    0  0.00000000000E+00  0.00000000000E+00 -0.47147579585E+03  0.47147579588E+03  0.50400001928E-02 0. -1.
    10030    2    1    2    0    0  0.00000000000E+00  0.00000000000E+00 -0.25806998613E+02  0.91714459314E+03  0.91678143718E+03 0.  0.
        2    1    3    3  502    0  0.38405204902E+03  0.22369055062E+03  0.99339929376E+02  0.45541394397E+03  0.25500000920E-02 0. -1.
       -2    1    3    3    0  502 -0.38405204902E+03 -0.22369055062E+03 -0.12514692799E+03  0.46173064917E+03  0.25500000920E-02 0.  1.
</event>
<event>
 5   0  0.1206541E-02  0.8268259E+03  0.7818609E-02  0.9521979E-01
        1   -1    0    0  501    0  0.00000000000E+00  0.00000000000E+00  0.24743400068E+03  0.24743400073E+03  0.50400001928E-02 0.  1.
       -1   -1    0    0    0  501  0.00000000000E+00  0.00000000000E+00 -0.69073066287E+03  0.69073066288E+03  0.50400001928E-02 0. -1.
    10030    2    1    2    0    0  0.00000000000E+00  0.00000000000E+00 -0.44329666219E+03  0.93816466361E+03  0.82682586156E+03 0.  0.
        3    1    3    3  502    0 -0.17905847964E+02 -0.22513137982E+03 -0.61455060418E+03  0.65473445982E+03  0.10100000352E+00 0. -1.
       -3    1    3    3    0  502  0.17905847964E+02  0.22513137982E+03  0.17125394200E+03  0.28343020379E+03  0.10100000352E+00 0.  1.
</event>
<event>
 5   0  0.7893875E-03  0.9702478E+03  0.7818609E-02  0.9341792E-01
       -3   -1    0    0    0  501  0.00000000000E+00  0.00000000000E+00  0.39779630108E+03  0.39779631390E+03  0.10100000352E+00 0. -1.
        3   -1    0    0  501    0  0.00000000000E+00  0.00000000000E+00 -0.59162232324E+03  0.59162233186E+03  0.10100000352E+00 0.  1.
    10030    2    1    2    0    0  0.00000000000E+00  0.00000000000E+00 -0.19382602216E+03  0.98941864576E+03  0.97024776718E+03 0.  0.
        1    1    3    3  502    0  0.18827708561E+03  0.39016316616E+03 -0.31956075930E+03  0.53832577135E+03  0.50400001928E-02 0.  1.
       -1    1    3    3    0  502 -0.18827708561E+03 -0.39016316616E+03  0.12573473713E+03  0.45109287441E+03  0.50400001928E-02 0. -1.
</event>
<event>
 5   0  0.1177712E-02  0.9571923E+03  0.7818609E-02  0.9356783E-01
        1   -1    0    0  501    0  0.00000000000E+00  0.00000000000E+00  0.38153249515E+03  0.38153249519E+03  0.50400001928E-02 0. -1.
       -1   -1    0    0    0  501  0.00000000000E+00  0.00000000000E+00 -0.60035328945E+03  0.60035328947E+03  0.50400001928E-02 0.  1.
    10030    2    1    2    0    0  0.00000000000E+00  0.00000000000E+00 -0.21882079429E+03  0.98188578466E+03  0.95719232869E+03 0.  0.
        5    1    3    3  502    0 -0.38533042000E+03 -0.27996395668E+03 -0.15722675879E+03  0.50159913606E+03  0.46999998093E+01 0. -1.
       -5    1    3    3    0  502  0.38533042000E+03  0.27996395668E+03 -0.61594035505E+02  0.48028664860E+03  0.46999998093E+01 0.  1.
</event>
<event>
 5   0  0.1968763E-02  0.9070582E+03  0.7818609E-02  0.9416801E-01
       -2   -1    0    0    0  501  0.00000000000E+00  0.00000000000E+00  0.32805343629E+03  0.32805343630E+03  0.25500000920E-02 0. -1.
        2   -1    0    0  501    0  0.00000000000E+00  0.00000000000E+00 -0.62699740766E+03  0.62699740767E+03  0.25500000920E-02 0.  1.
    10030    2    1    2    0    0  0.00000000000E+00  0.00000000000E+00 -0.29894397138E+03  0.95505084397E+03  0.90705822114E+03 0.  0.
        2    1    3    3  502    0 -0.37797724347E+03  0.12862779155E+03 -0.37597435465E+03  0.54842376015E+03  0.25500000920E-02 0.  1.
       -2    1    3    3    0  502  0.37797724347E+03 -0.12862779155E+03  0.77030383272E+02  0.40662708382E+03  0.25500000920E-02 0. -1.
</event>
<event>
 5   0  0.2008770E-02  0.8972260E+03  0.7818609E-02  0.9429056E-01
        2   -1    0    0  501    0  0.00000000000E+00  0.00000000000E+00  0.32301380215E+03  0.32301380216E+03  0.25500000920E-02 0. -1.
       -2   -1    0    0    0  501  0.00000000000E+00  0.00000000000E+00 -0.62304962517E+03  0.62304962518E+03  0.25500000920E-02 0.  1.
    10030    2    1    2    0    0  0.00000000000E+00  0.00000000000E+00 -0.30003582302E+03  0.94606342734E+03  0.89722601024E+03 0.  0.
        1    1    3    3  502    0 -0.26227769128E+03 -0.30690946541E+03 -0.35629507639E+03  0.53845073014E+03  0.50400001928E-02 0.  1.
       -1    1    3    3    0  502  0.26227769128E+03  0.30690946541E+03  0.56259253373E+02  0.40761269720E+03  0.50400001928E-02 0. -1.
</event>
<event>
 5   0  0.1175993E-02  0.8969881E+03  0.7818609E-02  0.9429354E-01
       -1   -1    0    0    0  501  0.00000000000E+00  0.00000000000E+00  0.14717642782E+03  0.14717642791E+03  0.50400001928E-02 0.  1.
        1   -1    0    0  501    0  0.00000000000E+00  0.00000000000E+00 -0.13667061558E+04  0.13667061558E+04  0.50400001928E-02 0. -1.
    10030    2    1    2    0    0  0.00000000000E+00  0.00000000000E+00 -0.12195297280E+04  0.15138825837E+04  0.89698813807E+03 0.  0.
        4    1    3    3  502    0 -0.10031457125E+03 -0.42169663839E+03 -0.41546027583E+03  0.60041645691E+03  0.12699999809E+01 0.  1.
       -4    1    3    3    0  502  0.10031457125E+03  0.42169663839E+03 -0.80406945215E+03  0.91346612680E+03  0.12699999809E+01 0. -1.
</event>
<event>
 5   0  0.1206541E-02  0.8892251E+03  0.7818609E-02  0.9439152E-01
        1   -1    0    0  501    0  0.00000000000E+00  0.00000000000E+00  0.78422017063E+03  0.78422017065E+03  0.50400001928E-02 0. -1.
       -1   -1    0    0    0  501  0.00000000000E+00  0.00000000000E+00 -0.25207247004E+03  0.25207247009E+03  0.50400001928E-02 0.  1.
    10030    2    1    2    0    0  0.00000000000E+00  0.00000000000E+00  0.53214770059E+03  0.10362926407E+04  0.88922509075E+03 0.  0.
        3    1    3    3  502    0  0.32716597939E+03 -0.22808002307E+03  0.37045428613E+02  0.40053769982E+03  0.10100000352E+00 0.  1.
       -3    1    3    3    0  502 -0.32716597939E+03  0.22808002307E+03  0.49510227198E+03  0.63575494092E+03  0.10100000352E+00 0. -1.
</event>
<event>
 5   0  0.1226424E-02  0.9060343E+03  0.7818609E-02  0.9418070E-01
        1   -1    0    0  501    0  0.00000000000E+00  0.00000000000E+00  0.66069327204E+03  0.66069327206E+03  0.50400001928E-02 0. -1.
       -1   -1    0    0    0  501  0.00000000000E+00  0.00000000000E+00 -0.31062001162E+03  0.31062001167E+03  0.50400001928E-02 0.  1.
    10030    2    1    2    0    0  0.00000000000E+00  0.00000000000E+00  0.35007326041E+03  0.97131328372E+03  0.90603433019E+03 0.  0.
        1    1    3    3  502    0  0.22140965526E+02 -0.39171507055E+03 -0.67762096347E+02  0.39814899294E+03  0.50400001928E-02 0.  1.
       -1    1    3    3    0  502 -0.22140965526E+02  0.39171507055E+03  0.41783535676E+03  0.57316429079E+03  0.50400001928E-02 0. -1.
</event>
<event>
 5   0  0.1162839E-02  0.9105200E+03  0.7818609E-02  0.9412526E-01
       -1   -1    0    0    0  501  0.00000000000E+00  0.00000000000E+00  0.18536544667E+03  0.18536544674E+03  0.50400001928E-02 0.  1.
        1   -1    0    0  501    0  0.00000000000E+00  0.00000000000E+00 -0.11181245273E+04  0.11181245273E+04  0.50400001928E-02 0. -1.
    10030    2    1    2    0    0  0.00000000000E+00  0.00000000000E+00 -0.93275908062E+03  0.13034899740E+04  0.91051996681E+03 0.  0.
        2    1    3    3  502    0 -0.41815210993E+03  0.16507640837E+03 -0.56921748197E+03  0.72533437077E+03  0.25500000920E-02 0. -1.
       -2    1    3    3    0  502  0.41815210993E+03 -0.16507640837E+03 -0.36354159865E+03  0.57815560327E+03  0.25500000920E-02 0.  1.
</event>
<event>
 5   0  0.2008770E-02  0.8977123E+03  0.7818609E-02  0.9428446E-01
        2   -1    0    0  501    0  0.00000000000E+00  0.00000000000E+00  0.34683827365E+03  0.34683827366E+03  0.25500000920E-02 0.  1.
       -2   -1    0    0    0  501  0.00000000000E+00  0.00000000000E+00 -0.58088126501E+03  0.58088126501E+03  0.25500000920E-02 0. -1.
    10030    2    1    2    0    0  0.00000000000E+00  0.00000000000E+00 -0.23404299136E+03  0.92771953867E+03  0.89771232621E+03 0.  0.
        1    1    3    3  502    0  0.29931151652E+03 -0.49175435819E+02 -0.45893765837E+03  0.55011760716E+03  0.50400001928E-02 0. -1.
       -1    1    3    3    0  502 -0.29931151652E+03  0.49175435819E+02  0.22489466701E+03  0.37760193151E+03  0.50400001928E-02 0.  1.
</event>
<event>
 5   0  0.2008643E-02  0.8843639E+03  0.7818609E-02  0.9445341E-01
       -2   -1    0    0    0  501  0.00000000000E+00  0.00000000000E+00  0.11875571036E+03  0.11875571038E+03  0.25500000920E-02 0. -1.
        2   -1    0    0  501    0  0.00000000000E+00  0.00000000000E+00 -0.16464460563E+04  0.16464460563E+04  0.25500000920E-02 0.  1.
    10030    2    1    2    0    0  0.00000000000E+00  0.00000000000E+00 -0.15276903459E+04  0.17652017667E+04  0.88436388665E+03 0.  0.
        3    1    3    3  502    0 -0.43541657343E+03  0.38300137543E+02 -0.89730021429E+03  0.99809928250E+03  0.10100000352E+00 0.  1.
       -3    1    3    3    0  502  0.43541657343E+03 -0.38300137543E+02 -0.63039013164E+03  0.76710248418E+03  0.10100000352E+00 0. -1.
</event>
<event>
 5   0  0.1206541E-02  0.9384747E+03  0.7818609E-02  0.9378724E-01
       -1   -1    0    0    0  501  0.00000000000E+00  0.00000000000E+00  0.54807688024E+03  0.54807688026E+03  0.50400001928E-02 0.  1.
        1   -1    0    0  501    0  0.00000000000E+00  0.00000000000E+00 -0.40173865622E+03  0.40173865625E+03  0.50400001928E-02 0. -1.
    10030    2    1    2    0    0  0.00000000000E+00  0.00000000000E+00  0.14633822402E+03  0.94981553652E+03  0.93847465475E+03 0.  0.
        3    1    3    3  502    0 -0.13934087119E+03 -0.22790105783E+03 -0.31727631482E+03  0.41475178203E+03  0.10100000352E+00 0. -1.
       -3    1    3    3    0  502  0.13934087119E+03  0.22790105783E+03  0.46361453884E+03  0.53506375449E+03  0.10100000352E+00 0.  1.
</event>
<event>
 5   0  0.1924218E-02  0.6553922E+03  0.7818609E-02  0.9796713E-01
        2   -1    0    0  501    0  0.00000000000E+00  0.00000000000E+00  0.17722554133E+04  0.17722554133E+04  0.25500000920E-02 0. -1.
       -2   -1    0    0    0  501  0.00000000000E+00  0.00000000000E+00 -0.60592122809E+02  0.60592122863E+02  0.25500000920E-02 0.  1.
    10030    2    1    2    0    0  0.00000000000E+00  0.00000000000E+00  0.17116632905E+04  0.18328475362E+04  0.65539215040E+03 0.  0.
        4    1    3    3  502    0  0.29225702335E+03 -0.13809370707E+03  0.70525622155E+03  0.77580409290E+03  0.12699999809E+01 0.  1.
       -4    1    3    3    0  502 -0.29225702335E+03  0.13809370707E+03  0.10064070689E+04  0.10570434433E+04  0.12699999809E+01 0. -1.
</event>
<event>
 5   0  0.1206541E-02  0.8873505E+03  0.7818609E-02  0.9441533E-01
        1   -1    0    0  501    0  0.00000000000E+00  0.00000000000E+00  0.36235881645E+03  0.36235881649E+03  0.50400001928E-02 0.  1.
       -1   -1    0    0    0  501  0.00000000000E+00  0.00000000000E+00 -0.54323984997E+03  0.54323984999E+03  0.50400001928E-02 0. -1.
    10030    2    1    2    0    0  0.00000000000E+00  0.00000000000E+00 -0.18088103351E+03  0.90559866648E+03  0.88735054880E+03 0.  0.
        3    1    3    3  502    0 -0.83761999851E+01 -0.25128293748E+03  0.28263761160E+03  0.37828204436E+03  0.10100000352E+00 0.  1.
       -3    1    3    3    0  502  0.83761999851E+01  0.25128293748E+03 -0.46351864512E+03  0.52731662212E+03  0.10100000352E+00 0. -1.
</event>
<event>
 5   0  0.1206541E-02  0.9042222E+03  0.7818609E-02  0.9420319E-01
       -1   -1    0    0    0  501  0.00000000000E+00  0.00000000000E+00  0.12799842425E+03  0.12799842435E+03  0.50400001928E-02 0.  1.
        1   -1    0    0  501    0  0.00000000000E+00  0.00000000000E+00 -0.15969295354E+04  0.15969295354E+04  0.50400001928E-02 0. -1.
    10030    2    1    2    0    0  0.00000000000E+00  0.00000000000E+00 -0.14689311111E+04  0.17249279597E+04  0.90422223874E+03 0.  0.
        3    1    3    3  502    0  0.34837030638E+03 -0.11400884581E+03 -0.22959155723E+03  0.43251841654E+03  0.10100000352E+00 0.  1.
       -3    1    3    3    0  502 -0.34837030638E+03  0.11400884581E+03 -0.12393395539E+04  0.12924095432E+04  0.10100000352E+00 0. -1.
</event>
<event>
 5   0  0.2008643E-02  0.8886870E+03  0.7818609E-02  0.9439835E-01
       -2   -1    0    0    0  501  0.00000000000E+00  0.00000000000E+00  0.24667210900E+03  0.24667210901E+03  0.25500000920E-02 0. -1.
        2   -1    0    0  501    0  0.00000000000E+00  0.00000000000E+00 -0.80041939697E+03  0.80041939697E+03  0.25500000920E-02 0.  1.
    10030    2    1    2    0    0  0.00000000000E+00  0.00000000000E+00 -0.55374728797E+03  0.10470915060E+04  0.88868698819E+03 0.  0.
        3    1    3    3  502    0  0.43476420261E+03  0.25289245303E+02 -0.38081115113E+03  0.57851240335E+03  0.10100000352E+00 0. -1.
       -3    1    3    3    0  502 -0.43476420261E+03 -0.25289245303E+02 -0.17293613683E+03  0.46857910263E+03  0.10100000352E+00 0.  1.
</event>
<event>
 5   0  0.1175993E-02  0.7420234E+03  0.7818609E-02  0.9647948E-01
       -1   -1    0    0    0  501  0.00000000000E+00  0.00000000000E+00  0.67054148259E+02  0.67054148448E+02  0.50400001928E-02 0.  1.
        1   -1    0    0  501    0  0.00000000000E+00  0.00000000000E+00 -0.20528137240E+04  0.20528137240E+04  0.50400001928E-02 0. -1.
    10030    2    1    2    0    0  0.00000000000E+00  0.00000000000E+00 -0.19857595757E+04  0.21198678725E+04  0.74202338509E+03 0.  0.
        4    1    3    3  502    0  0.11676616509E+03  0.31950266676E+02  0.90360284077E+01  0.12140189274E+03  0.12699999809E+01 0.  1.
       -4    1    3    3    0  502 -0.11676616509E+03 -0.31950266676E+02 -0.19947956042E+04  0.19984659797E+04  0.12699999809E+01 0. -1.
</event>
<event>
 5   0  0.1206541E-02  0.9365406E+03  0.7818609E-02  0.9381022E-01
        1   -1    0    0  501    0  0.00000000000E+00  0.00000000000E+00  0.30286580494E+03  0.30286580498E+03  0.50400001928E-02 0.  1.
       -1   -1    0    0    0  501  0.00000000000E+00  0.00000000000E+00 -0.72400732406E+03  0.72400732408E+03  0.50400001928E-02 0. -1.
    10030    2    1    2    0    0  0.00000000000E+00  0.00000000000E+00 -0.42114151912E+03  0.10268731291E+04  0.93654057256E+03 0.  0.
        3    1    3    3  502    0  0.26801846358E+03 -0.10958999114E+03 -0.61407931144E+03  0.67892361420E+03  0.10100000352E+00 0. -1.
       -3    1    3    3    0  502 -0.26801846358E+03  0.10958999114E+03  0.19293779233E+03  0.34794951485E+03  0.10100000352E+00 0.  1.
</event>
<event>
 5   0  0.1968763E-02  0.9128705E+03  0.7818609E-02  0.9409634E-01
       -2   -1    0    0    0  501  0.00000000000E+00  0.00000000000E+00  0.22867274640E+03  0.22867274641E+03  0.25500000920E-02 0. -1.
        2   -1    0    0  501    0  0.00000000000E+00  0.00000000000E+00 -0.91105372754E+03  0.91105372755E+03  0.25500000920E-02 0.  1.
    10030    2    1    2    0    0  0.00000000000E+00  0.00000000000E+00 -0.68238098115E+03  0.11397264740E+04  0.91287054505E+03 0.  0.
        2    1    3    3  502    0  0.49145181672E+02  0.14797806606E+03 -0.87677058634E+03  0.89052760653E+03  0.25500000920E-02 0.  1.
       -2    1    3    3    0  502 -0.49145181672E+02 -0.14797806606E+03  0.19438960519E+03  0.24919886743E+03  0.25500000920E-02 0. -1.
</event>
<event>
 5   0  0.1175993E-02  0.1092327E+04  0.7818609E-02  0.9212703E-01
       -1   -1    0    0    0  501  0.00000000000E+00  0.00000000000E+00  0.39417453310E+03  0.39417453314E+03  0.50400001928E-02 0.  1.
        1   -1    0    0  501    0  0.00000000000E+00  0.00000000000E+00 -0.75675804580E+03  0.75675804582E+03  0.50400001928E-02 0. -1.
    10030    2    1    2    0    0  0.00000000000E+00  0.00000000000E+00 -0.36258351269E+03  0.11509325790E+04  0.10923273308E+04 0.  0.
        4    1    3    3  502    0  0.11393297208E+03 -0.49740345922E+03  0.23838332523E+02  0.51084322680E+03  0.12699999809E+01 0.  1.
       -4    1    3    3    0  502 -0.11393297208E+03  0.49740345922E+03 -0.38642184522E+03  0.64008935215E+03  0.12699999809E+01 0. -1.
</event>
<event>
 5   0  0.2008770E-02  0.8858109E+03  0.7818609E-02  0.9443494E-01
       -2   -1    0    0    0  501  0.00000000000E+00  0.00000000000E+00  0.95207395941E+03  0.95207395942E+03  0.25500000920E-02 0.  1.
        2   -1    0    0  501    0  0.00000000000E+00  0.00000000000E+00 -0.20603989889E+03  0.20603989891E+03  0.25500000920E-02 0. -1.
    10030    2    1    2    0    0  0.00000000000E+00  0.00000000000E+00  0.74603406052E+03  0.11581138583E+04  0.88581086547E+03 0.  0.
        1    1    3    3  502    0  0.37825378170E+03  0.39736548080E+02  0.76289857180E+02  0.38791114828E+03  0.50400001928E-02 0. -1.
       -1    1    3    3    0  502 -0.37825378170E+03 -0.39736548080E+02  0.66974420334E+03  0.77020271005E+03  0.50400001928E-02 0.  1.
</event>
<event>
 5   0  0.7893875E-03  0.7715203E+03  0.7818609E-02  0.9602180E-01
        4   -1    0    0  501    0  0.00000000000E+00  0.00000000000E+00  0.56656664185E+03  0.56656806525E+03  0.12699999809E+01 0. -1.
       -4   -1    0    0    0  501  0.00000000000E+00  0.00000000000E+00 -0.26265056526E+03  0.26265363567E+03  0.12699999809E+01 0.  1.
    10030    2    1    2    0    0  0.00000000000E+00  0.00000000000E+00  0.30391607659E+03  0.82922170091E+03  0.77152034818E+03 0.  0.
        1    1    3    3  502    0  0.62870478925E+02  0.35694585681E+03  0.29392735226E+03  0.46664368661E+03  0.50400001928E-02 0. -1.
       -1    1    3    3    0  502 -0.62870478925E+02 -0.35694585681E+03  0.99887243300E+01  0.36257801430E+03  0.50400001928E-02 0.  1.
</event>
<event>
 5   0  0.1175993E-02  0.8915163E+03  0.7818609E-02  0.9436249E-01
       -1   -1    0    0    0  501  0.00000000000E+00  0.00000000000E+00  0.24598565475E+03  0.24598565480E+03  0.50400001928E-02 0.  1.
        1   -1    0    0  501    0  0.00000000000E+00  0.00000000000E+00 -0.80777200368E+03  0.80777200370E+03  0.50400001928E-02 0. -1.
    10030    2    1    2    0    0  0.00000000000E+00  0.00000000000E+00 -0.56178634893E+03  0.10537576585E+04  0.89151629318E+03 0.  0.
        4    1    3    3  502    0 -0.43397438172E+01 -0.27741061013E+03 -0.69327374734E+03  0.74672992550E+03  0.12699999809E+01 0. -1.
       -4    1    3    3    0  502  0.43397438172E+01  0.27741061013E+03  0.13148739841E+03  0.30702773300E+03  0.12699999809E+01 0.  1.
</event>
<event>
 5   0  0.2008643E-02  0.8807028E+03  0.7818609E-02  0.9450031E-01
        2   -1    0    0  501    0  0.00000000000E+00  0.00000000000E+00  0.18983126454E+04  0.18983126454E+04  0.25500000920E-02 0.  1.
       -2   -1    0    0    0  501  0.00000000000E+00  0.00000000000E+00 -0.10214826641E+03  0.10214826644E+03  0.25500000920E-02 0. -1.
    10030    2    1    2    0    0  0.00000000000E+00  0.00000000000E+00  0.17961643790E+04  0.20004609118E+04  0.88070277815E+03 0.  0.
        3    1    3    3  502    0 -0.49493657942E+02  0.22722595388E+03  0.48710268512E+02  0.23760041404E+03  0.10100000352E+00 0. -1.
       -3    1    3    3    0  502  0.49493657942E+02 -0.22722595388E+03  0.17474541104E+04  0.17628604978E+04  0.10100000352E+00 0.  1.
</event>
<event>
 5   0  0.1206541E-02  0.9043431E+03  0.7818609E-02  0.9420169E-01
       -1   -1    0    0    0  501  0.00000000000E+00  0.00000000000E+00  0.11575424680E+04  0.11575424680E+04  0.50400001928E-02 0.  1.
        1   -1    0    0  501    0  0.00000000000E+00  0.00000000000E+00 -0.17663204425E+03  0.17663204432E+03  0.50400001928E-02 0. -1.
    10030    2    1    2    0    0  0.00000000000E+00  0.00000000000E+00  0.98091042376E+03  0.13341745123E+04  0.90434305986E+03 0.  0.
        3    1    3    3  502    0  0.36038391628E+03 -0.19424972379E+03  0.20725369000E+03  0.45887212219E+03  0.10100000352E+00 0. -1.
       -3    1    3    3    0  502 -0.36038391628E+03  0.19424972379E+03  0.77365673376E+03  0.87530239015E+03  0.10100000352E+00 0.  1.
</event>
<event>
 5   0  0.1968763E-02  0.9150496E+03  0.7818609E-02  0.9406962E-01
        2   -1    0    0  501    0  0.00000000000E+00  0.00000000000E+00  0.41895273289E+03  0.41895273289E+03  0.25500000920E-02 0.  1.
       -2   -1    0    0    0  501  0.00000000000E+00  0.00000000000E+00 -0.49964815590E+03  0.49964815591E+03  0.25500000920E-02 0. -1.
    10030    2    1    2    0    0  0.00000000000E+00  0.00000000000E+00 -0.80695423015E+02  0.91860088880E+03  0.91504963888E+03 0.  0.
        2    1    3    3  502    0 -0.31375492329E+03  0.32045157047E+03 -0.13123968967E+03  0.46728494204E+03  0.25500000920E-02 0. -1.
       -2    1    3    3    0  502  0.31375492329E+03 -0.32045157047E+03  0.50544266657E+02  0.45131594676E+03  0.25500000920E-02 0.  1.
</event>
<event>
 5   0  0.2008643E-02  0.9062875E+03  0.7818609E-02  0.9417756E-01
        2   -1    0    0  501    0  0.00000000000E+00  0.00000000000E+00  0.42750157310E+03  0.42750157311E+03  0.25500000920E-02 0.  1.
       -2   -1    0    0    0  501  0.00000000000E+00  0.00000000000E+00 -0.48032393494E+03  0.48032393495E+03  0.25500000920E-02 0. -1.
    10030    2    1    2    0    0  0.00000000000E+00  0.00000000000E+00 -0.52822361838E+02  0.90782550806E+03  0.90628745504E+03 0.  0.
        3    1    3    3  502    0 -0.37415391273E+03 -0.14398633327E+02  0.22924883520E+03  0.43903702542E+03  0.10100000352E+00 0.  1.
       -3    1    3    3    0  502  0.37415391273E+03  0.14398633327E+02 -0.28207119704E+03  0.46878848263E+03  0.10100000352E+00 0. -1.
</event>
<event>
 5   0  0.1968763E-02  0.8025390E+03  0.7818609E-02  0.9556349E-01
        2   -1    0    0  501    0  0.00000000000E+00  0.00000000000E+00  0.17642769883E+04  0.17642769883E+04  0.25500000920E-02 0. -1.
       -2   -1    0    0    0  501  0.00000000000E+00  0.00000000000E+00 -0.91265261863E+02  0.91265261899E+02  0.25500000920E-02 0.  1.
    10030    2    1    2    0    0  0.00000000000E+00  0.00000000000E+00  0.16730117264E+04  0.18555422502E+04  0.80253897443E+03 0.  0.
        2    1    3    3  502    0  0.40018568774E+03  0.29286983381E+02  0.82887621296E+03  0.92089200696E+03  0.25500000920E-02 0.  1.
       -2    1    3    3    0  502 -0.40018568774E+03 -0.29286983381E+02  0.84413551346E+03  0.93465024322E+03  0.25500000920E-02 0. -1.
</event>
<event>
 5   0  0.1968763E-02  0.8896260E+03  0.7818609E-02  0.9438643E-01
       -2   -1    0    0    0  501  0.00000000000E+00  0.00000000000E+00  0.78955493845E+02  0.78955493886E+02  0.25500000920E-02 0.  1.
        2   -1    0    0  501    0  0.00000000000E+00  0.00000000000E+00 -0.25059511203E+04  0.25059511203E+04  0.25500000920E-02 0. -1.
    10030    2    1    2    0    0  0.00000000000E+00  0.00000000000E+00 -0.24269956265E+04  0.25849066142E+04  0.88962600751E+03 0.  0.
        2    1    3    3  502    0  0.29383604557E+03  0.26921823754E+03 -0.17876079618E+04  0.18314912793E+04  0.25500000920E-02 0. -1.
       -2    1    3    3    0  502 -0.29383604557E+03 -0.26921823754E+03 -0.63938766462E+03  0.75341533485E+03  0.25500000920E-02 0.  1.
</event>
<event>
 5   0  0.1177712E-02  0.9019376E+03  0.7818609E-02  0.9423163E-01
        1   -1    0    0  501    0  0.00000000000E+00  0.00000000000E+00  0.61229176429E+03  0.61229176432E+03  0.50400001928E-02 0.  1.
       -1   -1    0    0    0  501  0.00000000000E+00  0.00000000000E+00 -0.33215025759E+03  0.33215025763E+03  0.50400001928E-02 0. -1.
    10030    2    1    2    0    0  0.00000000000E+00  0.00000000000E+00  0.28014150670E+03  0.94444202195E+03  0.90193761926E+03 0.  0.
        5    1    3    3  502    0 -0.36258412513E+03 -0.64914195264E+01 -0.14059289542E+03  0.38897022838E+03  0.46999998093E+01 0. -1.
       -5    1    3    3    0  502  0.36258412513E+03  0.64914195264E+01  0.42073440212E+03  0.55547179357E+03  0.46999998093E+01 0.  1.
</event>
<event>
 5   0  0.1175993E-02  0.9160722E+03  0.7818609E-02  0.9405710E-01
        1   -1    0    0  501    0  0.00000000000E+00  0.00000000000E+00  0.77379671830E+03  0.77379671832E+03  0.50400001928E-02 0.  1.
       -1   -1    0    0    0  501  0.00000000000E+00  0.00000000000E+00 -0.27112684558E+03  0.27112684562E+03  0.50400001928E-02 0. -1.
    10030    2    1    2    0    0  0.00000000000E+00  0.00000000000E+00  0.50266987272E+03  0.10449235639E+04  0.91607218795E+03 0.  0.
        4    1    3    3  502    0 -0.38096763360E+03 -0.62453912226E+02  0.53249833273E+03  0.65771796103E+03  0.12699999809E+01 0. -1.
       -4    1    3    3    0  502  0.38096763360E+03  0.62453912226E+02 -0.29828460004E+02  0.38720560291E+03  0.12699999809E+01 0.  1.
</event>
<event>
 5   0  0.1968763E-02  0.8962532E+03  0.7818609E-02  0.9430277E-01
       -2   -1    0    0    0  501  0.00000000000E+00  0.00000000000E+00  0.26089386677E+03  0.26089386678E+03  0.25500000920E-02 0. -1.
        2   -1    0    0  501    0  0.00000000000E+00  0.00000000000E+00 -0.76972856848E+03  0.76972856848E+03  0.25500000920E-02 0.  1.
    10030    2    1    2    0    0  0.00000000000E+00  0.00000000000E+00 -0.50883470171E+03  0.10306224353E+04  0.89625322895E+03 0.  0.
        2    1    3    3  502    0  0.44586386546E+03 -0.44395432215E+02 -0.26270331722E+03  0.51940213112E+03  0.25500000920E-02 0.  1.
       -2    1    3    3    0  502 -0.44586386546E+03  0.44395432215E+02 -0.24613138449E+03  0.51122030414E+03  0.25500000920E-02 0. -1.
</event>
<event>
 5   0  0.1968763E-02  0.8740224E+03  0.7818609E-02  0.9458650E-01
        2   -1    0    0  501    0  0.00000000000E+00  0.00000000000E+00  0.12280475181E+04  0.12280475181E+04  0.25500000920E-02 0.  1.
       -2   -1    0    0    0  501  0.00000000000E+00  0.00000000000E+00 -0.15551415638E+03  0.15551415640E+03  0.25500000920E-02 0. -1.
    10030    2    1    2    0    0  0.00000000000E+00  0.00000000000E+00  0.10725333617E+04  0.13835616745E+04  0.87402236536E+03 0.  0.
        2    1    3    3  502    0 -0.26537569670E+03  0.33575979062E+03  0.67624988221E+03  0.80029544581E+03  0.25500000920E-02 0.  1.
       -2    1    3    3    0  502  0.26537569670E+03 -0.33575979062E+03  0.39628347954E+03  0.58326622871E+03  0.25500000920E-02 0. -1.
</event>
<event>
 5   0  0.1177712E-02  0.9043520E+03  0.7818609E-02  0.9420158E-01
       -1   -1    0    0    0  501  0.00000000000E+00  0.00000000000E+00  0.61614922010E+03  0.61614922012E+03  0.50400001928E-02 0. -1.
        1   -1    0    0  501    0  0.00000000000E+00  0.00000000000E+00 -0.33184029376E+03  0.33184029380E+03  0.50400001928E-02 0.  1.
    10030    2    1    2    0    0  0.00000000000E+00  0.00000000000E+00  0.28430892634E+03  0.94798951392E+03  0.90435200719E+03 0.  0.
        5    1    3    3  502    0  0.21516462251E+02  0.24979564245E+03 -0.25227316582E+03  0.35570305218E+03  0.46999998093E+01 0.  1.
       -5    1    3    3    0  502 -0.21516462251E+02 -0.24979564245E+03  0.53658209216E+03  0.59228646174E+03  0.46999998093E+01 0. -1.
</event>
<event>
 5   0  0.2008643E-02  0.8873273E+03  0.7818609E-02  0.9441563E-01
        2   -1    0    0  501    0  0.00000000000E+00  0.00000000000E+00  0.72942145688E+03  0.72942145688E+03  0.25500000920E-02 0.  1.
       -2   -1    0    0    0  501  0.00000000000E+00  0.00000000000E+00 -0.26985416951E+03  0.26985416952E+03  0.25500000920E-02 0. -1.
    10030    2    1    2    0    0  0.00000000000E+00  0.00000000000E+00  0.45956728737E+03  0.99927562641E+03  0.88732727103E+03 0.  0.
        3    1    3    3  502    0 -0.57284521983E+02  0.14737369950E+02  0.72496110350E+03  0.72737013846E+03  0.10100000352E+00 0.  1.
       -3    1    3    3    0  502  0.57284521983E+02 -0.14737369950E+02 -0.26539381613E+03  0.27190548794E+03  0.10100000352E+00 0. -1.
</event>
<event>
 5   0  0.7893875E-03  0.8464850E+03  0.7818609E-02  0.9495067E-01
        4   -1    0    0  501    0  0.00000000000E+00  0.00000000000E+00  0.51659566087E+03  0.51659722195E+03  0.12699999809E+01 0.  1.
       -4   -1    0    0    0  501  0.00000000000E+00  0.00000000000E+00 -0.34675575610E+03  0.34675808179E+03  0.12699999809E+01 0. -1.
    10030    2    1    2    0    0  0.00000000000E+00  0.00000000000E+00  0.16983990477E+03  0.86335530374E+03  0.84648495985E+03 0.  0.
        4    1    3    3  502    0  0.26618043255E+03 -0.27883009845E+03 -0.93303382385E+02  0.39661742339E+03  0.12699999809E+01 0. -1.
       -4    1    3    3    0  502 -0.26618043255E+03  0.27883009845E+03  0.26314328715E+03  0.46673788035E+03  0.12699999809E+01 0.  1.
</event>
<event>
 5   0  0.1175993E-02  0.9131649E+03  0.7818609E-02  0.9409273E-01
        1   -1    0    0  501    0  0.00000000000E+00  0.00000000000E+00  0.85534717669E+03  0.85534717671E+03  0.50400001928E-02 0.  1.
       -1   -1    0    0    0  501  0.00000000000E+00  0.00000000000E+00 -0.24372272667E+03  0.24372272672E+03  0.50400001928E-02 0. -1.
    10030    2    1    2    0    0  0.00000000000E+00  0.00000000000E+00  0.61162445002E+03  0.10990699034E+04  0.91316492746E+03 0.  0.
        4    1    3    3  502    0  0.43750763839E+03 -0.12044263820E+03  0.36654931050E+03  0.58333470038E+03  0.12699999809E+01 0.  1.
       -4    1    3    3    0  502 -0.43750763839E+03  0.12044263820E+03  0.24507513952E+03  0.51573520304E+03  0.12699999809E+01 0. -1.
</event>
<event>
 5   0  0.1968763E-02  0.9133720E+03  0.7818609E-02  0.9409018E-01
        2   -1    0    0  501    0  0.00000000000E+00  0.00000000000E+00  0.16624532542E+04  0.16624532542E+04  0.25500000920E-02 0. -1.
       -2   -1    0    0    0  501  0.00000000000E+00  0.00000000000E+00 -0.12545442126E+03  0.12545442128E+03  0.25500000920E-02 0.  1.
    10030    2    1    2    0    0  0.00000000000E+00  0.00000000000E+00  0.15369988329E+04  0.17879076755E+04  0.91337201817E+03 0.  0.
        2    1    3    3  502    0  0.64342188897E+02  0.22238773192E+03 -0.20765224426E+01  0.23151788814E+03  0.25500000920E-02 0.  1.
       -2    1    3    3    0  502 -0.64342188897E+02 -0.22238773192E+03  0.15390753554E+04  0.15563897873E+04  0.25500000920E-02 0. -1.
</event>
<event>
 5   0  0.2041861E-02  0.9014098E+03  0.7818609E-02  0.9423821E-01
       -2   -1    0    0    0  501  0.00000000000E+00  0.00000000000E+00  0.36180866606E+03  0.36180866607E+03  0.25500000920E-02 0. -1.
        2   -1    0    0  501    0  0.00000000000E+00  0.00000000000E+00 -0.56144289567E+03  0.56144289568E+03  0.25500000920E-02 0.  1.
    10030    2    1    2    0    0  0.00000000000E+00  0.00000000000E+00 -0.19963422961E+03  0.92325156175E+03  0.90140979618E+03 0.  0.
        5    1    3    3  502    0 -0.21774575246E+03  0.35897945365E+03  0.67960980581E+02  0.42534720610E+03  0.46999998093E+01 0. -1.
       -5    1    3    3    0  502  0.21774575246E+03 -0.35897945365E+03 -0.26759521019E+03  0.49790435565E+03  0.46999998093E+01 0.  1.
</event>
<event>
 5   0  0.7893875E-03  0.9304284E+03  0.7818609E-02  0.9388324E-01
        4   -1    0    0  501    0  0.00000000000E+00  0.00000000000E+00  0.19627266102E+03  0.19627676980E+03  0.12699999809E+01 0. -1.
       -4   -1    0    0    0  501  0.00000000000E+00  0.00000000000E+00 -0.11026553301E+04  0.11026560615E+04  0.12699999809E+01 0.  1.
    10030    2    1    2    0    0  0.00000000000E+00  0.00000000000E+00 -0.90638266912E+03  0.12989328313E+04  0.93042837304E+03 0.  0.
        2    1    3    3  502    0 -0.78671476237E+02 -0.44423650571E+03 -0.61168531530E+03  0.76006197059E+03  0.25500000920E-02 0. -1.
       -2    1    3    3    0  502  0.78671476237E+02  0.44423650571E+03 -0.29469735381E+03  0.53887086071E+03  0.25500000920E-02 0.  1.
</event>
<event>
 5   0  0.1177712E-02  0.8647233E+03  0.7818609E-02  0.9470786E-01
        1   -1    0    0  501    0  0.00000000000E+00  0.00000000000E+00  0.51535175826E+03  0.51535175829E+03  0.50400001928E-02 0.  1.
       -1   -1    0    0    0  501  0.00000000000E+00  0.00000000000E+00 -0.36273595976E+03  0.36273595979E+03  0.50400001928E-02 0. -1.
    10030    2    1    2    0    0  0.00000000000E+00  0.00000000000E+00  0.15261579851E+03  0.87808771808E+03  0.86472334228E+03 0.  0.
        5    1    3    3  502    0 -0.32317797884E+03 -0.84107269606E+02 -0.20252002937E+03  0.39058224627E+03  0.46999998093E+01 0. -1.
       -5    1    3    3    0  502  0.32317797884E+03  0.84107269606E+02  0.35513582788E+03  0.48750547181E+03  0.46999998093E+01 0.  1.
</event>
<event>
 5   0  0.1924218E-02  0.9029293E+03  0.7818609E-02  0.9421927E-01
       -2   -1    0    0    0  501  0.00000000000E+00  0.00000000000E+00  0.12782666275E+03  0.12782666278E+03  0.25500000920E-02 0.  1.
        2   -1    0    0  501    0  0.00000000000E+00  0.00000000000E+00 -0.15945056729E+04  0.15945056729E+04  0.25500000920E-02 0. -1.
    10030    2    1    2    0    0  0.00000000000E+00  0.00000000000E+00 -0.14666790101E+04  0.17223323357E+04  0.90292931934E+03 0.  0.
        4    1    3    3  502    0 -0.69851146475E+02  0.85635596316E+02  0.10162468891E+03  0.15013936298E+03  0.12699999809E+01 0.  1.
       -4    1    3    3    0  502  0.69851146475E+02 -0.85635596316E+02 -0.15683036991E+04  0.15721929727E+04  0.12699999809E+01 0. -1.
</event>
<event>
 5   0  0.1206541E-02  0.9286846E+03  0.7818609E-02  0.9390418E-01
        1   -1    0    0  501    0  0.00000000000E+00  0.00000000000E+00  0.82504742970E+03  0.82504742972E+03  0.50400001928E-02 0.  1.
       -1   -1    0    0    0  501  0.00000000000E+00  0.00000000000E+00 -0.26133500514E+03  0.26133500519E+03  0.50400001928E-02 0. -1.
    10030    2    1    2    0    0  0.00000000000E+00  0.00000000000E+00  0.56371242456E+03  0.10863824349E+04  0.92868460591E+03 0.  0.
        3    1    3    3  502    0 -0.30555525787E+03 -0.25009242113E+03  0.56769060997E+03  0.69150768149E+03  0.10100000352E+00 0.  1.
       -3    1    3    3    0  502  0.30555525787E+03  0.25009242113E+03 -0.39781854062E+01  0.39487475341E+03  0.10100000352E+00 0. -1.
</event>
<event>
 5   0  0.1162839E-02  0.9126605E+03  0.7818609E-02  0.9409892E-01
       -1   -1    0    0    0  501  0.00000000000E+00  0.00000000000E+00  0.20578688190E+03  0.20578688196E+03  0.50400001928E-02 0.  1.
        1   -1    0    0  501    0  0.00000000000E+00  0.00000000000E+00 -0.10119074689E+04  0.10119074689E+04  0.50400001928E-02 0. -1.
    10030    2    1    2    0    0  0.00000000000E+00  0.00000000000E+00 -0.80612058699E+03  0.12176943509E+04  0.91266046883E+03 0.  0.
        2    1    3    3  502    0  0.45557943994E+03  0.22174369991E+02 -0.42159373220E+03  0.62111641728E+03  0.25500000920E-02 0. -1.
       -2    1    3    3    0  502 -0.45557943994E+03 -0.22174369991E+02 -0.38452685479E+03  0.59657793359E+03  0.25500000920E-02 0.  1.
</event>
<event>
 5   0  0.1968763E-02  0.8663033E+03  0.7818609E-02  0.9468713E-01
       -2   -1    0    0    0  501  0.00000000000E+00  0.00000000000E+00  0.13404034481E+03  0.13404034484E+03  0.25500000920E-02 0.  1.
        2   -1    0    0  501    0  0.00000000000E+00  0.00000000000E+00 -0.13997305694E+04  0.13997305694E+04  0.25500000920E-02 0. -1.
    10030    2    1    2    0    0  0.00000000000E+00  0.00000000000E+00 -0.12656902246E+04  0.15337709142E+04  0.86630333759E+03 0.  0.
        2    1    3    3  502    0 -0.33436767550E+03 -0.45472832405E+02 -0.15203453054E+03  0.37011352231E+03  0.25500000920E-02 0.  1.
       -2    1    3    3    0  502  0.33436767550E+03  0.45472832405E+02 -0.11136556940E+04  0.11636573919E+04  0.25500000920E-02 0. -1.
</event>
<event>
 5   0  0.2008643E-02  0.8932541E+03  0.7818609E-02  0.9434054E-01
       -2   -1    0    0    0  501  0.00000000000E+00  0.00000000000E+00  0.35215892895E+03  0.35215892896E+03  0.25500000920E-02 0. -1.
        2   -1    0    0  501    0  0.00000000000E+00  0.00000000000E+00 -0.56643661167E+03  0.56643661168E+03  0.25500000920E-02 0.  1.
    10030    2    1    2    0    0  0.00000000000E+00  0.00000000000E+00 -0.21427768273E+03  0.91859554064E+03  0.89325407470E+03 0.  0.
        3    1    3    3  502    0 -0.20160188848E+03  0.57289085310E+02  0.29844888908E+03  0.36468768876E+03  0.10100000352E+00 0. -1.
       -3    1    3    3    0  502  0.20160188848E+03 -0.57289085310E+02 -0.51272657181E+03  0.55390785188E+03  0.10100000352E+00 0.  1.
</event>
<event>
 5   0  0.1175993E-02  0.9774673E+03  0.7818609E-02  0.9333609E-01
       -1   -1    0    0    0  501  0.00000000000E+00  0.00000000000E+00  0.35608689200E+03  0.35608689204E+03  0.50400001928E-02 0. -1.
        1   -1    0    0  501    0  0.00000000000E+00  0.00000000000E+00 -0.67079295021E+03  0.67079295023E+03  0.50400001928E-02 0.  1.
    10030    2    1    2    0    0  0.00000000000E+00  0.00000000000E+00 -0.31470605821E+03  0.10268798423E+04  0.97746729223E+03 0.  0.
        4    1    3    3  502    0  0.27334055489E+02  0.20216420149E+02 -0.66954742965E+03  0.67041123773E+03  0.12699999809E+01 0.  1.
       -4    1    3    3    0  502 -0.27334055489E+02 -0.20216420149E+02  0.35484137144E+03  0.35646860454E+03  0.12699999809E+01 0. -1.
</event>
<event>
 5   0  0.2008643E-02  0.9163541E+03  0.7818609E-02  0.9405366E-01
       -2   -1    0    0    0  501  0.00000000000E+00  0.00000000000E+00  0.43432232764E+03  0.43432232765E+03  0.25500000920E-02 0. -1.
        2   -1    0    0  501    0  0.00000000000E+00  0.00000000000E+00 -0.48334193147E+03  0.48334193147E+03  0.25500000920E-02 0.  1.
    10030    2    1    2    0    0  0.00000000000E+00  0.00000000000E+00 -0.49019603824E+02  0.91766425913E+03  0.91635406417E+03 0.  0.
        3    1    3    3  502    0  0.14650606598E+03  0.69401791822E+02  0.40464176973E+03  0.43590779769E+03  0.10100000352E+00 0. -1.
       -3    1    3    3    0  502 -0.14650606598E+03 -0.69401791822E+02 -0.45366137355E+03  0.48175646143E+03  0.10100000352E+00 0.  1.
</event>
<event>
 5   0  0.7893875E-03  0.8843250E+03  0.7818609E-02  0.9445391E-01
        3   -1    0    0  501    0  0.00000000000E+00  0.00000000000E+00  0.46615936629E+03  0.46615937724E+03  0.10100000352E+00 0. -1.
       -3   -1    0    0    0  501  0.00000000000E+00  0.00000000000E+00 -0.41940089222E+03  0.41940090438E+03  0.10100000352E+00 0.  1.
    10030    2    1    2    0    0  0.00000000000E+00  0.00000000000E+00  0.46758474078E+02  0.88556028162E+03  0.88432497278E+03 0.  0.
        3    1    3    3  502    0 -0.55248191348E+02 -0.21986615106E+03 -0.35677477514E+03  0.42270762639E+03  0.10100000352E+00 0.  1.
       -3    1    3    3    0  502  0.55248191348E+02  0.21986615106E+03  0.40353324922E+03  0.46285265523E+03  0.10100000352E+00 0. -1.
</event>
<event>
 5   0  0.1206541E-02  0.9058753E+03  0.7818609E-02  0.9418267E-01
       -1   -1    0    0    0  501  0.00000000000E+00  0.00000000000E+00  0.17474745679E+03  0.17474745687E+03  0.50400001928E-02 0. -1.
        1   -1    0    0  501    0  0.00000000000E+00  0.00000000000E+00 -0.11739943470E+04  0.11739943470E+04  0.50400001928E-02 0.  1.
    10030    2    1    2    0    0  0.00000000000E+00  0.00000000000E+00 -0.99924689018E+03  0.13487418039E+04  0.90587532582E+03 0.  0.
        3    1    3    3  502    0  0.31524038347E+03  0.19661359246E+03 -0.88535350932E+03  0.96014803587E+03  0.10100000352E+00 0. -1.
       -3    1    3    3    0  502 -0.31524038347E+03 -0.19661359246E+03 -0.11389338086E+03  0.38859376798E+03  0.10100000352E+00 0.  1.
</event>
<event>
 5   0  0.1968763E-02  0.9188285E+03  0.7818609E-02  0.9402346E-01
        2   -1    0    0  501    0  0.00000000000E+00  0.00000000000E+00  0.45062219048E+03  0.45062219049E+03  0.25500000920E-02 0. -1.
       -2   -1    0    0    0  501  0.00000000000E+00  0.00000000000E+00 -0.46837789059E+03  0.46837789059E+03  0.25500000920E-02 0.  1.
    10030    2    1    2    0    0  0.00000000000E+00  0.00000000000E+00 -0.17755700101E+02  0.91900008108E+03  0.91882853904E+03 0.  0.
        2    1    3    3  502    0 -0.22557419338E+02 -0.40646495378E+03  0.20409117588E+03  0.45538533562E+03  0.25500000920E-02 0. -1.
       -2    1    3    3    0  502  0.22557419338E+02  0.40646495378E+03 -0.22184687598E+03  0.46361474546E+03  0.25500000920E-02 0.  1.
</event>
<event>
 5   0  0.2008643E-02  0.9226291E+03  0.7818609E-02  0.9397728E-01
        2   -1    0    0  501    0  0.00000000000E+00  0.00000000000E+00  0.16289708313E+04  0.16289708313E+04  0.25500000920E-02 0. -1.
       -2   -1    0    0    0  501  0.00000000000E+00  0.00000000000E+00 -0.13064144877E+03  0.13064144879E+03  0.25500000920E-02 0.  1.
    10030    2    1    2    0    0  0.00000000000E+00  0.00000000000E+00  0.14983293825E+04  0.17596122801E+04  0.92262909000E+03 0.  0.
        3    1    3    3  502    0  0.69751239112E+02  0.43796713444E+03  0.99138793478E+03  0.10860619198E+04  0.10100000352E+00 0. -1.
       -3    1    3    3    0  502 -0.69751239112E+02 -0.43796713444E+03  0.50694144775E+03  0.67355036030E+03  0.10100000352E+00 0.  1.
</event>
<event>
 5   0  0.2008770E-02  0.9053424E+03  0.7818609E-02  0.9418928E-01
       -2   -1    0    0    0  501  0.00000000000E+00  0.00000000000E+00  0.16916535460E+03  0.16916535462E+03  0.25500000920E-02 0.  1.
        2   -1    0    0  501    0  0.00000000000E+00  0.00000000000E+00 -0.12113071827E+04  0.12113071827E+04  0.25500000920E-02 0. -1.
    10030    2    1    2    0    0  0.00000000000E+00  0.00000000000E+00 -0.10421418281E+04  0.13804725373E+04  0.90534238630E+03 0.  0.
        1    1    3    3  502    0 -0.41339228922E+03 -0.14401418945E+03 -0.34536748869E+03  0.55759481151E+03  0.50400001928E-02 0.  1.
       -1    1    3    3    0  502  0.41339228922E+03  0.14401418945E+03 -0.69677433944E+03  0.82287772583E+03  0.50400001928E-02 0. -1.
</event>
<event>
 5   0  0.1175993E-02  0.8470500E+03  0.7818609E-02  0.9494305E-01
        1   -1    0    0  501    0  0.00000000000E+00  0.00000000000E+00  0.41965864106E+03  0.41965864109E+03  0.50400001928E-02 0. -1.
       -1   -1    0    0    0  501  0.00000000000E+00  0.00000000000E+00 -0.42742700626E+03  0.42742700628E+03  0.50400001928E-02 0.  1.
    10030    2    1    2    0    0  0.00000000000E+00  0.00000000000E+00 -0.77683651911E+01  0.84708564738E+03  0.84705002597E+03 0.  0.
        4    1    3    3  502    0 -0.27331019287E+03  0.30303619170E+03  0.10944502315E+03  0.42250351596E+03  0.12699999809E+01 0.  1.
       -4    1    3    3    0  502  0.27331019287E+03 -0.30303619170E+03 -0.11721338834E+03  0.42458213141E+03  0.12699999809E+01 0. -1.
</event>
<event>
 5   0  0.2008643E-02  0.8816619E+03  0.7818609E-02  0.9448800E-01
       -2   -1    0    0    0  501  0.00000000000E+00  0.00000000000E+00  0.22382931683E+03  0.22382931685E+03  0.25500000920E-02 0. -1.
        2   -1    0    0  501    0  0.00000000000E+00  0.00000000000E+00 -0.86821475589E+03  0.86821475589E+03  0.25500000920E-02 0.  1.
    10030    2    1    2    0    0  0.00000000000E+00  0.00000000000E+00 -0.64438543905E+03  0.10920440727E+04  0.88166187552E+03 0.  0.
        3    1    3    3  502    0  0.21837497010E+03  0.31248892776E+03 -0.48026619267E+02  0.38424409416E+03  0.10100000352E+00 0. -1.
       -3    1    3    3    0  502 -0.21837497010E+03 -0.31248892776E+03 -0.59635881979E+03  0.70779997858E+03  0.10100000352E+00 0.  1.
</event>
<event>
 5   0  0.1175993E-02  0.9070040E+03  0.7818609E-02  0.9416868E-01
        1   -1    0    0  501    0  0.00000000000E+00  0.00000000000E+00  0.78893749169E+03  0.78893749171E+03  0.50400001928E-02 0. -1.
       -1   -1    0    0    0  501  0.00000000000E+00  0.00000000000E+00 -0.26068485374E+03  0.26068485379E+03  0.50400001928E-02 0.  1.
    10030    2    1    2    0    0  0.00000000000E+00  0.00000000000E+00  0.52825263795E+03  0.10496223455E+04  0.90700397941E+03 0.  0.
        4    1    3    3  502    0  0.14634702588E+01  0.86728318110E+02  0.77924619735E+03  0.78406006906E+03  0.12699999809E+01 0. -1.
       -4    1    3    3    0  502 -0.14634702588E+01 -0.86728318110E+02 -0.25099355940E+03  0.26556227644E+03  0.12699999809E+01 0.  1.
</event>
<event>
 5   0  0.2041861E-02  0.7057982E+03  0.7818609E-02  0.9707368E-01
        2   -1    0    0  501    0  0.00000000000E+00  0.00000000000E+00  0.68781645702E+03  0.68781645703E+03  0.25500000920E-02 0. -1.
       -2   -1    0    0    0  501  0.00000000000E+00  0.00000000000E+00 -0.18106252379E+03  0.18106252381E+03  0.25500000920E-02 0.  1.
    10030    2    1    2    0    0  0.00000000000E+00  0.00000000000E+00  0.50675393323E+03  0.86887898083E+03  0.70579822505E+03 0.  0.
        5    1    3    3  502    0 -0.33024380365E+03  0.46107391049E+02  0.39550337483E+03  0.51733149030E+03  0.46999998093E+01 0. -1.
       -5    1    3    3    0  502  0.33024380365E+03 -0.46107391049E+02  0.11125055840E+03  0.35154749053E+03  0.46999998093E+01 0.  1.
</event>
<event>
 5   0  0.1175993E-02  0.8829063E+03  0.7818609E-02  0.9447205E-01
       -1   -1    0    0    0  501  0.00000000000E+00  0.00000000000E+00  0.16440199373E+03  0.16440199380E+03  0.50400001928E-02 0.  1.
        1   -1    0    0  501    0  0.00000000000E+00  0.00000000000E+00 -0.11853925322E+04  0.11853925322E+04  0.50400001928E-02 0. -1.
    10030    2    1    2    0    0  0.00000000000E+00  0.00000000000E+00 -0.10209905384E+04  0.13497945260E+04  0.88290632730E+03 0.  0.
        4    1    3    3  502    0  0.97895637119E+01 -0.26432918533E+03 -0.10508236412E+04  0.10836040290E+04  0.12699999809E+01 0. -1.
       -4    1    3    3    0  502 -0.97895637119E+01  0.26432918533E+03  0.29833102782E+02  0.26619049700E+03  0.12699999809E+01 0.  1.
</event>
<event>
 5   0  0.1206541E-02  0.9146901E+03  0.7818609E-02  0.9407402E-01
        1   -1    0    0  501    0  0.00000000000E+00  0.00000000000E+00  0.86452998934E+03  0.86452998935E+03  0.50400001928E-02 0. -1.
       -1   -1    0    0    0  501  0.00000000000E+00  0.00000000000E+00 -0.24194013352E+03  0.24194013357E+03  0.50400001928E-02 0.  1.
    10030    2    1    2    0    0  0.00000000000E+00  0.00000000000E+00  0.62258985582E+03  0.11064701229E+04  0.91469011383E+03 0.  0.
        3    1    3    3  502    0  0.25198474622E+03  0.28715282167E+03  0.61542791897E+03  0.72436495564E+03  0.10100000352E+00 0.  1.
       -3    1    3    3    0  502 -0.25198474622E+03 -0.28715282167E+03  0.71619368519E+01  0.38210516728E+03  0.10100000352E+00 0. -1.
</event>
<event>
 5   0  0.2008770E-02  0.9021226E+03  0.7818609E-02  0.9422932E-01
       -2   -1    0    0    0  501  0.00000000000E+00  0.00000000000E+00  0.13047790975E+03  0.13047790977E+03  0.25500000920E-02 0. -1.
        2   -1    0    0  501    0  0.00000000000E+00  0.00000000000E+00 -0.15593159583E+04  0.15593159583E+04  0.25500000920E-02 0.  1.
    10030    2    1    2    0    0  0.00000000000E+00  0.00000000000E+00 -0.14288380485E+04  0.16897938680E+04  0.90212257901E+03 0.  0.
        1    1    3    3  502    0 -0.26779942434E+03 -0.25384939860E+03 -0.22848593047E+03  0.43400676181E+03  0.50400001928E-02 0. -1.
       -1    1    3    3    0  502  0.26779942434E+03  0.25384939860E+03 -0.12003521180E+04  0.12557871062E+04  0.50400001928E-02 0.  1.
</event>
<event>
 5   0  0.1924218E-02  0.8838833E+03  0.7818609E-02  0.9445955E-01
        2   -1    0    0  501    0  0.00000000000E+00  0.00000000000E+00  0.12320366270E+04  0.12320366270E+04  0.25500000920E-02 0. -1.
       -2   -1    0    0    0  501  0.00000000000E+00  0.00000000000E+00 -0.15852809985E+03  0.15852809987E+03  0.25500000920E-02 0.  1.
    10030    2    1    2    0    0  0.00000000000E+00  0.00000000000E+00  0.10735085271E+04  0.13905647269E+04  0.88388330778E+03 0.  0.
        4    1    3    3  502    0 -0.16417829575E+03  0.37730991442E+03  0.79040077455E+03  0.89109611245E+03  0.12699999809E+01 0.  1.
       -4    1    3    3    0  502  0.16417829575E+03 -0.37730991442E+03  0.28310775259E+03  0.49946861442E+03  0.12699999809E+01 0. -1.
</event>
<event>
 5   0  0.2008643E-02  0.8980942E+03  0.7818609E-02  0.9427967E-01
       -2   -1    0    0    0  501  0.00000000000E+00  0.00000000000E+00  0.24920783592E+03  0.24920783593E+03  0.25500000920E-02 0.  1.
        2   -1    0    0  501    0  0.00000000000E+00  0.00000000000E+00 -0.80913706158E+03  0.80913706159E+03  0.25500000920E-02 0. -1.
    10030    2    1    2    0    0  0.00000000000E+00  0.00000000000E+00 -0.55992922566E+03  0.10583448975E+04  0.89809419570E+03 0.  0.
        3    1    3    3  502    0 -0.30112567976E+03  0.26500042300E+03 -0.42103616292E+02  0.40332942356E+03  0.10100000352E+00 0.  1.
       -3    1    3    3    0  502  0.30112567976E+03 -0.26500042300E+03 -0.51782560937E+03  0.65501547396E+03  0.10100000352E+00 0. -1.
</event>
<event>
 5   0  0.1162839E-02  0.8723008E+03  0.7818609E-02  0.9460885E-01
       -1   -1    0    0    0  501  0.00000000000E+00  0.00000000000E+00  0.12680039768E+03  0.12680039778E+03  0.50400001928E-02 0.  1.
        1   -1    0    0  501    0  0.00000000000E+00  0.00000000000E+00 -0.15002095035E+04  0.15002095035E+04  0.50400001928E-02 0. -1.
    10030    2    1    2    0    0  0.00000000000E+00  0.00000000000E+00 -0.13734091058E+04  0.16270099013E+04  0.87230077779E+03 0.  0.
        2    1    3    3  502    0 -0.14373871492E+03  0.59813919095E+02  0.73207123485E+02  0.17204012910E+03  0.25500000920E-02 0.  1.
       -2    1    3    3    0  502  0.14373871492E+03 -0.59813919095E+02 -0.14466162293E+04  0.14549697722E+04  0.25500000920E-02 0. -1.
</event>
<event>
 5   0  0.1162839E-02  0.9116116E+03  0.7818609E-02  0.9411182E-01
        1   -1    0    0  501    0  0.00000000000E+00  0.00000000000E+00  0.29839247492E+03  0.29839247497E+03  0.50400001928E-02 0.  1.
       -1   -1    0    0    0  501  0.00000000000E+00  0.00000000000E+00 -0.69626064241E+03  0.69626064242E+03  0.50400001928E-02 0. -1.
    10030    2    1    2    0    0  0.00000000000E+00  0.00000000000E+00 -0.39786816748E+03  0.99465311739E+03  0.91161161974E+03 0.  0.
        2    1    3    3  502    0  0.61306609607E+01 -0.10726634719E+03 -0.68224678726E+03  0.69065500286E+03  0.25500000920E-02 0. -1.
       -2    1    3    3    0  502 -0.61306609607E+01  0.10726634719E+03  0.28437861978E+03  0.30399811453E+03  0.25500000920E-02 0.  1.
</event>
<event>
 5   0  0.2041861E-02  0.8940273E+03  0.7818609E-02  0.9433079E-01
        2   -1    0    0  501    0  0.00000000000E+00  0.00000000000E+00  0.25202014334E+03  0.25202014336E+03  0.25500000920E-02 0.  1.
       -2   -1    0    0    0  501  0.00000000000E+00  0.00000000000E+00 -0.79287784020E+03  0.79287784020E+03  0.25500000920E-02 0. -1.
    10030    2    1    2    0    0  0.00000000000E+00  0.00000000000E+00 -0.54085769686E+03  0.10448979836E+04  0.89402726345E+03 0.  0.
        5    1    3    3  502    0  0.11381680332E+03  0.24983231567E+03  0.14184265436E+03  0.30904996241E+03  0.46999998093E+01 0.  1.
       -5    1    3    3    0  502 -0.11381680332E+03 -0.24983231567E+03 -0.68270035122E+03  0.73584802115E+03  0.46999998093E+01 0. -1.
</event>
<event>
 5   0  0.1226424E-02  0.8324508E+03  0.7818609E-02  0.9514198E-01
        1   -1    0    0  501    0  0.00000000000E+00  0.00000000000E+00  0.38592753313E+03  0.38592753316E+03  0.50400001928E-02 0.  1.
       -1   -1    0    0    0  501  0.00000000000E+00  0.00000000000E+00 -0.44890185741E+03  0.44890185744E+03  0.50400001928E-02 0. -1.
    10030    2    1    2    0    0  0.00000000000E+00  0.00000000000E+00 -0.62974324283E+02  0.83482939060E+03  0.83245080688E+03 0.  0.
        1    1    3    3  502    0 -0.23905794049E+03  0.13036010555E+03  0.28421565392E+03  0.39360004318E+03  0.50400001928E-02 0.  1.
       -1    1    3    3    0  502  0.23905794049E+03 -0.13036010555E+03 -0.34718997821E+03  0.44122934742E+03  0.50400001928E-02 0. -1.
</event>
<event>
 5   0  0.2008770E-02  0.9293858E+03  0.7818609E-02  0.9389575E-01
       -2   -1    0    0    0  501  0.00000000000E+00  0.00000000000E+00  0.28529404123E+03  0.28529404124E+03  0.25500000920E-02 0.  1.
        2   -1    0    0  501    0  0.00000000000E+00  0.00000000000E+00 -0.75690149601E+03  0.75690149602E+03  0.25500000920E-02 0. -1.
    10030    2    1    2    0    0  0.00000000000E+00  0.00000000000E+00 -0.47160745478E+03  0.10421955373E+04  0.92938578990E+03 0.  0.
        1    1    3    3  502    0  0.22940745258E+03  0.38872319620E+03 -0.11191277832E+03  0.46503545299E+03  0.50400001928E-02 0.  1.
       -1    1    3    3    0  502 -0.22940745258E+03 -0.38872319620E+03 -0.35969467647E+03  0.57716008427E+03  0.50400001928E-02 0. -1.
</event>
<event>
 5   0  0.7893875E-03  0.9185473E+03  0.7818609E-02  0.9402689E-01
        4   -1    0    0  501    0  0.00000000000E+00  0.00000000000E+00  0.29474453902E+03  0.29474727511E+03  0.12699999809E+01 0. -1.
       -4   -1    0    0    0  501  0.00000000000E+00  0.00000000000E+00 -0.71563774555E+03  0.71563887244E+03  0.12699999809E+01 0.  1.
    10030    2    1    2    0    0  0.00000000000E+00  0.00000000000E+00 -0.42089320653E+03  0.10103861476E+04  0.91854726382E+03 0.  0.
        1    1    3    3  502    0  0.12796502106E+03  0.24882676823E+03  0.19016835613E+03  0.33831022879E+03  0.50400001928E-02 0. -1.
       -1    1    3    3    0  502 -0.12796502106E+03 -0.24882676823E+03 -0.61106156266E+03  0.67207591877E+03  0.50400001928E-02 0.  1.
</event>
<event>
 5   0  0.1175993E-02  0.9106236E+03  0.7818609E-02  0.9412398E-01
       -1   -1    0    0    0  501  0.00000000000E+00  0.00000000000E+00  0.14792805793E+03  0.14792805802E+03  0.50400001928E-02 0.  1.
        1   -1    0    0  501    0  0.00000000000E+00  0.00000000000E+00 -0.14014167397E+04  0.14014167397E+04  0.50400001928E-02 0. -1.
    10030    2    1    2    0    0  0.00000000000E+00  0.00000000000E+00 -0.12534886818E+04  0.15493447978E+04  0.91062364726E+03 0.  0.
        4    1    3    3  502    0 -0.34876136273E+03  0.12849298881E+02 -0.11242655999E+04  0.11771891712E+04  0.12699999809E+01 0.  1.
       -4    1    3    3    0  502  0.34876136273E+03 -0.12849298881E+02 -0.12922308186E+03  0.37215562659E+03  0.12699999809E+01 0. -1.
</event>
<event>
 5   0  0.1177712E-02  0.8094456E+03  0.7818609E-02  0.9546445E-01
        1   -1    0    0  501    0  0.00000000000E+00  0.00000000000E+00  0.78460393703E+03  0.78460393705E+03  0.50400001928E-02 0. -1.
       -1   -1    0    0    0  501  0.00000000000E+00  0.00000000000E+00 -0.20876846069E+03  0.20876846075E+03  0.50400001928E-02 0.  1.
    10030    2    1    2    0    0  0.00000000000E+00  0.00000000000E+00  0.57583547635E+03  0.99337239780E+03  0.80944562813E+03 0.  0.
        5    1    3    3  502    0 -0.11297901417E+03  0.26746248109E+03 -0.58059838919E+02  0.29613083482E+03  0.46999998093E+01 0.  1.
       -5    1    3    3    0  502  0.11297901417E+03 -0.26746248109E+03  0.63389531526E+03  0.69724156298E+03  0.46999998093E+01 0. -1.
</event>
<event>
 5   0  0.1924218E-02  0.9023028E+03  0.7818609E-02  0.9422707E-01
       -2   -1    0    0    0  501  0.00000000000E+00  0.00000000000E+00  0.33628963446E+03  0.33628963447E+03  0.25500000920E-02 0. -1.
        2   -1    0    0  501    0  0.00000000000E+00  0.00000000000E+00 -0.60524490265E+03  0.60524490265E+03  0.25500000920E-02 0.  1.
    10030    2    1    2    0    0  0.00000000000E+00  0.00000000000E+00 -0.26895526818E+03  0.94153453713E+03  0.90230280301E+03 0.  0.
        4    1    3    3  502    0  0.34982271682E+03  0.14854266383E+03 -0.38814216816E+03  0.54322813973E+03  0.12699999809E+01 0.  1.
       -4    1    3    3    0  502 -0.34982271682E+03 -0.14854266383E+03  0.11918689998E+03  0.39830639740E+03  0.12699999809E+01 0. -1.
</event>
<event>
 5   0  0.1177712E-02  0.7521425E+03  0.7818609E-02  0.9631995E-01
        1   -1    0    0  501    0  0.00000000000E+00  0.00000000000E+00  0.22892628100E+04  0.22892628100E+04  0.50400001928E-02 0. -1.
       -1   -1    0    0    0  501  0.00000000000E+00  0.00000000000E+00 -0.61779534699E+02  0.61779534905E+02  0.50400001928E-02 0.  1.
    10030    2    1    2    0    0  0.00000000000E+00  0.00000000000E+00  0.22274832753E+04  0.23510423449E+04  0.75214251696E+03 0.  0.
        5    1    3    3  502    0 -0.19720110308E+03  0.27517068497E+03  0.16254591812E+04  0.16603453919E+04  0.46999998093E+01 0. -1.
       -5    1    3    3    0  502  0.19720110308E+03 -0.27517068497E+03  0.60202409416E+03  0.69069695299E+03  0.46999998093E+01 0.  1.
</event>
<event>
 5   0  0.1968763E-02  0.9515127E+03  0.7818609E-02  0.9363384E-01
       -2   -1    0    0    0  501  0.00000000000E+00  0.00000000000E+00  0.12457170617E+03  0.12457170620E+03  0.25500000920E-02 0.  1.
        2   -1    0    0  501    0  0.00000000000E+00  0.00000000000E+00 -0.18169785520E+04  0.18169785520E+04  0.25500000920E-02 0. -1.
    10030    2    1    2    0    0  0.00000000000E+00  0.00000000000E+00 -0.16924068458E+04  0.19415502582E+04  0.95151272893E+03 0.  0.
        2    1    3    3  502    0 -0.17892018765E+03  0.39354299232E+03 -0.12515143846E+04  0.13240758193E+04  0.25500000920E-02 0. -1.
       -2    1    3    3    0  502  0.17892018765E+03 -0.39354299232E+03 -0.44089246127E+03  0.61747443895E+03  0.25500000920E-02 0.  1.
</event>
<event>
 5   0  0.1162839E-02  0.9188677E+03  0.7818609E-02  0.9402298E-01
       -1   -1    0    0    0  501  0.00000000000E+00  0.00000000000E+00  0.11284774076E+03  0.11284774088E+03  0.50400001928E-02 0.  1.
        1   -1    0    0  501    0  0.00000000000E+00  0.00000000000E+00 -0.18704800720E+04  0.18704800720E+04  0.50400001928E-02 0. -1.
    10030    2    1    2    0    0  0.00000000000E+00  0.00000000000E+00 -0.17576323312E+04  0.19833278129E+04  0.91886767358E+03 0.  0.
        2    1    3    3  502    0 -0.22409525239E+03 -0.13422018227E+03 -0.63032262681E+02  0.26871324050E+03  0.25500000920E-02 0.  1.
       -2    1    3    3    0  502  0.22409525239E+03  0.13422018227E+03 -0.16946000685E+04  0.17146145724E+04  0.25500000920E-02 0. -1.
</event>
<event>
 5   0  0.1175993E-02  0.9169982E+03  0.7818609E-02  0.9404579E-01
       -1   -1    0    0    0  501  0.00000000000E+00  0.00000000000E+00  0.30816279199E+03  0.30816279203E+03  0.50400001928E-02 0.  1.
        1   -1    0    0  501    0  0.00000000000E+00  0.00000000000E+00 -0.68217657205E+03  0.68217657207E+03  0.50400001928E-02 0. -1.
    10030    2    1    2    0    0  0.00000000000E+00  0.00000000000E+00 -0.37401378006E+03  0.99033936410E+03  0.91699822705E+03 0.  0.
        4    1    3    3  502    0  0.39992112508E+02 -0.40774289035E+03  0.35285836725E+02  0.41121811350E+03  0.12699999809E+01 0.  1.
       -4    1    3    3    0  502 -0.39992112508E+02  0.40774289035E+03 -0.40929961678E+03  0.57912125060E+03  0.12699999809E+01 0. -1.
</event>
<event>
 5   0  0.1968763E-02  0.8900671E+03  0.7818609E-02  0.9438084E-01
        2   -1    0    0  501    0  0.00000000000E+00  0.00000000000E+00  0.63726869138E+03  0.63726869138E+03  0.25500000920E-02 0.  1.
       -2   -1    0    0    0  501  0.00000000000E+00  0.00000000000E+00 -0.31078707329E+03  0.31078707330E+03  0.25500000920E-02 0. -1.
    10030    2    1    2    0    0  0.00000000000E+00  0.00000000000E+00  0.32648161809E+03  0.94805576468E+03  0.89006712443E+03 0.  0.
        2    1    3    3  502    0  0.19054088530E+03 -0.29871834091E+03 -0.12359226479E+03  0.37525128126E+03  0.25500000920E-02 0. -1.
       -2    1    3    3    0  502 -0.19054088530E+03  0.29871834091E+03  0.45007388288E+03  0.57280448342E+03  0.25500000920E-02 0.  1.
</event>
<event>
 5   0  0.1924218E-02  0.9210598E+03  0.7818609E-02  0.9399632E-01
        2   -1    0    0  501    0  0.00000000000E+00  0.00000000000E+00  0.48574385190E+03  0.48574385191E+03  0.25500000920E-02 0. -1.
       -2   -1    0    0    0  501  0.00000000000E+00  0.00000000000E+00 -0.43662477176E+03  0.43662477177E+03  0.25500000920E-02 0.  1.
    10030    2    1    2    0    0  0.00000000000E+00  0.00000000000E+00  0.49119080145E+02  0.92236862368E+03  0.92105982103E+03 0.  0.
        4    1    3    3  502    0 -0.92442687474E+02 -0.91307921482E+02 -0.41788655935E+03  0.43762264153E+03  0.12699999809E+01 0.  1.
       -4    1    3    3    0  502  0.92442687474E+02  0.91307921482E+02  0.46700563949E+03  0.48474598215E+03  0.12699999809E+01 0. -1.
</event>
<event>
 5   0  0.1162839E-02  0.9129270E+03  0.7818609E-02  0.9409565E-01
        1   -1    0    0  501    0  0.00000000000E+00  0.00000000000E+00  0.65252157572E+03  0.65252157574E+03  0.50400001928E-02 0. -1.
       -1   -1    0    0    0  501  0.00000000000E+00  0.00000000000E+00 -0.31931345606E+03  0.31931345610E+03  0.50400001928E-02 0.  1.
    10030    2    1    2    0    0  0.00000000000E+00  0.00000000000E+00  0.33320811966E+03  0.97183503184E+03  0.91292698400E+03 0.  0.
        2    1    3    3  502    0 -0.23029679387E+03 -0.24402354925E+03 -0.16284036616E+03  0.37296258621E+03  0.25500000920E-02 0.  1.
       -2    1    3    3    0  502  0.23029679387E+03  0.24402354925E+03  0.49604848581E+03  0.59887244563E+03  0.25500000920E-02 0. -1.
</event>
<event>
 5   0  0.1226424E-02  0.9076305E+03  0.7818609E-02  0.9416093E-01
       -1   -1    0    0    0  501  0.00000000000E+00  0.00000000000E+00  0.35226108190E+03  0.35226108193E+03  0.50400001928E-02 0.  1.
        1   -1    0    0  501    0  0.00000000000E+00  0.00000000000E+00 -0.58464666506E+03  0.58464666508E+03  0.50400001928E-02 0. -1.
    10030    2    1    2    0    0  0.00000000000E+00  0.00000000000E+00 -0.23238558316E+03  0.93690774701E+03  0.90763046839E+03 0.  0.
        1    1    3    3  502    0  0.41719168915E+03 -0.17612994771E+03 -0.85612842425E+02  0.46086898658E+03  0.50400001928E-02 0. -1.
       -1    1    3    3    0  502 -0.41719168915E+03  0.17612994771E+03 -0.14677274074E+03  0.47603876043E+03  0.50400001928E-02 0.  1.
</event>
<event>
 5   0  0.1175993E-02  0.9046926E+03  0.7818609E-02  0.9419734E-01
        1   -1    0    0  501    0  0.00000000000E+00  0.00000000000E+00  0.59651912280E+03  0.59651912282E+03  0.50400001928E-02 0. -1.
       -1   -1    0    0    0  501  0.00000000000E+00  0.00000000000E+00 -0.34301862090E+03  0.34301862094E+03  0.50400001928E-02 0.  1.
    10030    2    1    2    0    0  0.00000000000E+00  0.00000000000E+00  0.25350050190E+03  0.93953774376E+03  0.90469258176E+03 0.  0.
        4    1    3    3  502    0 -0.15000405391E+03  0.41940179749E+03  0.20863162557E+03  0.49186161877E+03  0.12699999809E+01 0. -1.
       -4    1    3    3    0  502  0.15000405391E+03 -0.41940179749E+03  0.44868876327E+02  0.44767612499E+03  0.12699999809E+01 0.  1.
</event>
<event>
 5   0  0.1924218E-02  0.9056802E+03  0.7818609E-02  0.9418509E-01
       -2   -1    0    0    0  501  0.00000000000E+00  0.00000000000E+00  0.30560695238E+03  0.30560695239E+03  0.25500000920E-02 0. -1.
        2   -1    0    0  501    0  0.00000000000E+00  0.00000000000E+00 -0.67100621160E+03  0.67100621161E+03  0.25500000920E-02 0.  1.
    10030    2    1    2    0    0  0.00000000000E+00  0.00000000000E+00 -0.36539925922E+03  0.97661316400E+03  0.90568021590E+03 0.  0.
        4    1    3    3  502    0  0.37543668104E+03  0.95565776452E+02 -0.43553529470E+03  0.58290490213E+03  0.12699999809E+01 0. -1.
       -4    1    3    3    0  502 -0.37543668104E+03 -0.95565776452E+02  0.70136035474E+02  0.39370826188E+03  0.12699999809E+01 0.  1.
</event>
<event>
 5   0  0.1206541E-02  0.8851951E+03  0.7818609E-02  0.9444280E-01
        1   -1    0    0  501    0  0.00000000000E+00  0.00000000000E+00  0.10013027587E+04  0.10013027588E+04  0.50400001928E-02 0. -1.
       -1   -1    0    0    0  501  0.00000000000E+00  0.00000000000E+00 -0.19563770339E+03  0.19563770346E+03  0.50400001928E-02 0.  1.
    10030    2    1    2    0    0  0.00000000000E+00  0.00000000000E+00  0.80566505535E+03  0.11969404622E+04  0.88519505684E+03 0.  0.
        3    1    3    3  502    0 -0.29888367798E+01  0.18058944713E+03  0.94920423425E+03  0.96623504909E+03  0.10100000352E+00 0. -1.
       -3    1    3    3    0  502  0.29888367798E+01 -0.18058944713E+03 -0.14353917891E+03  0.23070541312E+03  0.10100000352E+00 0.  1.
</event>
<event>
 5   0  0.1226424E-02  0.9194122E+03  0.7818609E-02  0.9401635E-01
       -1   -1    0    0    0  501  0.00000000000E+00  0.00000000000E+00  0.21109354586E+03  0.21109354592E+03  0.50400001928E-02 0.  1.
        1   -1    0    0  501    0  0.00000000000E+00  0.00000000000E+00 -0.10011187107E+04  0.10011187107E+04  0.50400001928E-02 0. -1.
    10030    2    1    2    0    0  0.00000000000E+00  0.00000000000E+00 -0.79002516481E+03  0.12122122566E+04  0.91941220028E+03 0.  0.
        1    1    3    3  502    0 -0.35220648354E+03  0.28851648493E+03 -0.31122492846E+03  0.55149988690E+03  0.50400001928E-02 0.  1.
       -1    1    3    3    0  502  0.35220648354E+03 -0.28851648493E+03 -0.47880023635E+03  0.66071236970E+03  0.50400001928E-02 0. -1.
</event>
<event>
 5   0  0.1226424E-02  0.9394176E+03  0.7818609E-02  0.9377606E-01
       -1   -1    0    0    0  501  0.00000000000E+00  0.00000000000E+00  0.31877705287E+03  0.31877705291E+03  0.50400001928E-02 0. -1.
        1   -1    0    0  501    0  0.00000000000E+00  0.00000000000E+00 -0.69210240541E+03  0.69210240543E+03  0.50400001928E-02 0.  1.
    10030    2    1    2    0    0  0.00000000000E+00  0.00000000000E+00 -0.37332535254E+03  0.10108794583E+04  0.93941761769E+03 0.  0.
        1    1    3    3  502    0  0.39599490973E+03 -0.24153524359E+03 -0.26628550405E+03  0.53484503561E+03  0.50400001928E-02 0.  1.
       -1    1    3    3    0  502 -0.39599490973E+03  0.24153524359E+03 -0.10703984849E+03  0.47603442272E+03  0.50400001928E-02 0. -1.
</event>
<event>
 5   0  0.1924218E-02  0.8509174E+03  0.7818609E-02  0.9489106E-01
        2   -1    0    0  501    0  0.00000000000E+00  0.00000000000E+00  0.81593589315E+03  0.81593589316E+03  0.25500000920E-02 0. -1.
       -2   -1    0    0    0  501  0.00000000000E+00  0.00000000000E+00 -0.22184966165E+03  0.22184966167E+03  0.25500000920E-02 0.  1.
    10030    2    1    2    0    0  0.00000000000E+00  0.00000000000E+00  0.59408623150E+03  0.10377855548E+04  0.85091739161E+03 0.  0.
        4    1    3    3  502    0 -0.41998612965E+03 -0.29966609500E+02  0.37150057285E+03  0.56151637136E+03  0.12699999809E+01 0. -1.
       -4    1    3    3    0  502  0.41998612965E+03  0.29966609500E+02  0.22258565865E+03  0.47626918346E+03  0.12699999809E+01 0.  1.
</event>
<event>
 5   0  0.2008643E-02  0.6001565E+03  0.7818609E-02  0.9905081E-01
       -2   -1    0    0    0  501  0.00000000000E+00  0.00000000000E+00  0.12864448640E+03  0.12864448643E+03  0.25500000920E-02 0.  1.
        2   -1    0    0  501    0  0.00000000000E+00  0.00000000000E+00 -0.69996750263E+03  0.69996750264E+03  0.25500000920E-02 0. -1.
    10030    2    1    2    0    0  0.00000000000E+00  0.00000000000E+00 -0.57132301623E+03  0.82861198907E+03  0.60015651255E+03 0.  0.
        3    1    3    3  502    0 -0.13690857099E+03  0.19750813245E+03 -0.37551402823E+02  0.24323555918E+03  0.10100000352E+00 0.  1.
       -3    1    3    3    0  502  0.13690857099E+03 -0.19750813245E+03 -0.53377161341E+03  0.58537642989E+03  0.10100000352E+00 0. -1.
</event>
<event>
 5   0  0.7893875E-03  0.9361899E+03  0.7818609E-02  0.9381440E-01
       -3   -1    0    0    0  501  0.00000000000E+00  0.00000000000E+00  0.12609394585E+04  0.12609394626E+04  0.10100000352E+00 0.  1.
        3   -1    0    0  501    0  0.00000000000E+00  0.00000000000E+00 -0.17376952428E+03  0.17376955364E+03  0.10100000352E+00 0. -1.
    10030    2    1    2    0    0  0.00000000000E+00  0.00000000000E+00  0.10871699342E+04  0.14347090162E+04  0.93618988205E+03 0.  0.
        3    1    3    3  502    0  0.14170964269E+01 -0.46919660352E+02 -0.17015344752E+03  0.17650968414E+03  0.10100000352E+00 0. -1.
       -3    1    3    3    0  502 -0.14170964269E+01  0.46919660352E+02  0.12573233818E+04  0.12581993321E+04  0.10100000352E+00 0.  1.
</event>
<event>
 5   0  0.2041861E-02  0.8998894E+03  0.7818609E-02  0.9425720E-01
        2   -1    0    0  501    0  0.00000000000E+00  0.00000000000E+00  0.95491394195E+03  0.95491394195E+03  0.25500000920E-02 0. -1.
       -2   -1    0    0    0  501  0.00000000000E+00  0.00000000000E+00 -0.21200888242E+03  0.21200888244E+03  0.25500000920E-02 0.  1.
    10030    2    1    2    0    0  0.00000000000E+00  0.00000000000E+00  0.74290505952E+03  0.11669228244E+04  0.89988941022E+03 0.  0.
        5    1    3    3  502    0 -0.14810821714E+03 -0.34188095934E+03  0.69850243658E+03  0.79167315115E+03  0.46999998093E+01 0. -1.
       -5    1    3    3    0  502  0.14810821714E+03  0.34188095934E+03  0.44402622948E+02  0.37524967324E+03  0.46999998093E+01 0.  1.
</event>
<event>
 5   0  0.2008643E-02  0.9063950E+03  0.7818609E-02  0.9417623E-01
        2   -1    0    0  501    0  0.00000000000E+00  0.00000000000E+00  0.43911957104E+03  0.43911957105E+03  0.25500000920E-02 0. -1.
       -2   -1    0    0    0  501  0.00000000000E+00  0.00000000000E+00 -0.46772674120E+03  0.46772674121E+03  0.25500000920E-02 0.  1.
    10030    2    1    2    0    0  0.00000000000E+00  0.00000000000E+00 -0.28607170166E+02  0.90684631226E+03  0.90639498226E+03 0.  0.
        3    1    3    3  502    0  0.10231170136E+03  0.16879205071E+03  0.39385729021E+03  0.44054740480E+03  0.10100000352E+00 0. -1.
       -3    1    3    3    0  502 -0.10231170136E+03 -0.16879205071E+03 -0.42246446038E+03  0.46629890746E+03  0.10100000352E+00 0.  1.
</event>
<event>
 5   0  0.1206541E-02  0.8924196E+03  0.7818609E-02  0.9435107E-01
       -1   -1    0    0    0  501  0.00000000000E+00  0.00000000000E+00  0.16612866663E+03  0.16612866671E+03  0.50400001928E-02 0. -1.
        1   -1    0    0  501    0  0.00000000000E+00  0.00000000000E+00 -0.11984877308E+04  0.11984877308E+04  0.50400001928E-02 0.  1.
    10030    2    1    2    0    0  0.00000000000E+00  0.00000000000E+00 -0.10323590642E+04  0.13646163975E+04  0.89241956222E+03 0.  0.
        3    1    3    3  502    0  0.82996113111E+02 -0.24166181055E+03  0.43182373077E+02  0.25913994870E+03  0.10100000352E+00 0. -1.
       -3    1    3    3    0  502 -0.82996113111E+02  0.24166181055E+03 -0.10755414373E+04  0.11054764488E+04  0.10100000352E+00 0.  1.
</event>
<event>
 5   0  0.2041861E-02  0.9095575E+03  0.7818609E-02  0.9413712E-01
        2   -1    0    0  501    0  0.00000000000E+00  0.00000000000E+00  0.15605092335E+04  0.15605092335E+04  0.25500000920E-02 0.  1.
       -2   -1    0    0    0  501  0.00000000000E+00  0.00000000000E+00 -0.13253603235E+03  0.13253603237E+03  0.25500000920E-02 0. -1.
    10030    2    1    2    0    0  0.00000000000E+00  0.00000000000E+00  0.14279732012E+04  0.16930452659E+04  0.90955747983E+03 0.  0.
        5    1    3    3  502    0 -0.33723819440E+03  0.13921280758E+03  0.20868808520E+03  0.42033630876E+03  0.46999998093E+01 0.  1.
       -5    1    3    3    0  502  0.33723819440E+03 -0.13921280758E+03  0.12192851160E+04  0.12727089571E+04  0.46999998093E+01 0. -1.
</event>
<event>
 5   0  0.1968763E-02  0.9067936E+03  0.7818609E-02  0.9417129E-01
        2   -1    0    0  501    0  0.00000000000E+00  0.00000000000E+00  0.12071904417E+04  0.12071904417E+04  0.25500000920E-02 0.  1.
       -2   -1    0    0    0  501  0.00000000000E+00  0.00000000000E+00 -0.17028686255E+03  0.17028686257E+03  0.25500000920E-02 0. -1.
    10030    2    1    2    0    0  0.00000000000E+00  0.00000000000E+00  0.10369035792E+04  0.13774773043E+04  0.90679363218E+03 0.  0.
        2    1    3    3  502    0  0.12123305007E+03  0.16839395840E+03 -0.93930058571E+02  0.22776486464E+03  0.25500000920E-02 0. -1.
       -2    1    3    3    0  502 -0.12123305007E+03 -0.16839395840E+03  0.11308336377E+04  0.11497124396E+04  0.25500000920E-02 0.  1.
</event>
<event>
 5   0  0.2041861E-02  0.9091079E+03  0.7818609E-02  0.9414267E-01
        2   -1    0    0  501    0  0.00000000000E+00  0.00000000000E+00  0.10985946913E+04  0.10985946913E+04  0.25500000920E-02 0.  1.
       -2   -1    0    0    0  501  0.00000000000E+00  0.00000000000E+00 -0.18807599138E+03  0.18807599140E+03  0.25500000920E-02 0. -1.
    10030    2    1    2    0    0  0.00000000000E+00  0.00000000000E+00  0.91051869989E+03  0.12866706827E+04  0.90910788292E+03 0.  0.
        5    1    3    3  502    0  0.17323454196E+03 -0.11896398545E+03 -0.11515599382E+03  0.23967817855E+03  0.46999998093E+01 0. -1.
       -5    1    3    3    0  502 -0.17323454196E+03  0.11896398545E+03  0.10256746937E+04  0.10469925041E+04  0.46999998093E+01 0.  1.
</event>
<event>
 5   0  0.1226424E-02  0.8943516E+03  0.7818609E-02  0.9432670E-01
       -1   -1    0    0    0  501  0.00000000000E+00  0.00000000000E+00  0.94638764473E+03  0.94638764474E+03  0.50400001928E-02 0. -1.
        1   -1    0    0  501    0  0.00000000000E+00  0.00000000000E+00 -0.21129416791E+03  0.21129416797E+03  0.50400001928E-02 0.  1.
    10030    2    1    2    0    0  0.00000000000E+00  0.00000000000E+00  0.73509347682E+03  0.11576818127E+04  0.89435158625E+03 0.  0.
        1    1    3    3  502    0 -0.36077978783E+03 -0.11184964900E+03  0.67738475746E+03  0.77557882188E+03  0.50400001928E-02 0. -1.
       -1    1    3    3    0  502  0.36077978783E+03  0.11184964900E+03  0.57708719361E+02  0.38210299084E+03  0.50400001928E-02 0.  1.
</event>
<event>
 5   0  0.7893875E-03  0.8989878E+03  0.7818609E-02  0.9426848E-01
       -3   -1    0    0    0  501  0.00000000000E+00  0.00000000000E+00  0.37883380235E+03  0.37883381581E+03  0.10100000352E+00 0. -1.
        3   -1    0    0  501    0  0.00000000000E+00  0.00000000000E+00 -0.53333350218E+03  0.53333351174E+03  0.10100000352E+00 0.  1.
    10030    2    1    2    0    0  0.00000000000E+00  0.00000000000E+00 -0.15449969983E+03  0.91216732755E+03  0.89898780648E+03 0.  0.
        5    1    3    3  502    0  0.14120837264E+02  0.39493395984E+03  0.14001651825E+03  0.41928384904E+03  0.46999998093E+01 0. -1.
       -5    1    3    3    0  502 -0.14120837264E+02 -0.39493395984E+03 -0.29451621808E+03  0.49288347852E+03  0.46999998093E+01 0.  1.
</event>
<event>
 5   0  0.1968763E-02  0.9124532E+03  0.7818609E-02  0.9410147E-01
       -2   -1    0    0    0  501  0.00000000000E+00  0.00000000000E+00  0.49063907380E+03  0.49063907381E+03  0.25500000920E-02 0. -1.
        2   -1    0    0  501    0  0.00000000000E+00  0.00000000000E+00 -0.42422775590E+03  0.42422775591E+03  0.25500000920E-02 0.  1.
    10030    2    1    2    0    0  0.00000000000E+00  0.00000000000E+00  0.66411317897E+02  0.91486682972E+03  0.91245320591E+03 0.  0.
        2    1    3    3  502    0  0.14760997798E+03  0.39820160066E+03 -0.13393710940E+03  0.44530031400E+03  0.25500000920E-02 0.  1.
       -2    1    3    3    0  502 -0.14760997798E+03 -0.39820160066E+03  0.20034842730E+03  0.46956651573E+03  0.25500000920E-02 0. -1.
</event>
<event>
 5   0  0.1177712E-02  0.9104526E+03  0.7818609E-02  0.9412609E-01
        1   -1    0    0  501    0  0.00000000000E+00  0.00000000000E+00  0.82981305128E+03  0.82981305130E+03  0.50400001928E-02 0. -1.
       -1   -1    0    0    0  501  0.00000000000E+00  0.00000000000E+00 -0.24973210848E+03  0.24973210853E+03  0.50400001928E-02 0.  1.
    10030    2    1    2    0    0  0.00000000000E+00  0.00000000000E+00  0.58008094281E+03  0.10795451598E+04  0.91045255334E+03 0.  0.
        5    1    3    3  502    0  0.17873670607E+03 -0.20242633716E+03 -0.14446803640E+03  0.30629452430E+03  0.46999998093E+01 0.  1.
       -5    1    3    3    0  502 -0.17873670607E+03  0.20242633716E+03  0.72454897920E+03  0.77325063552E+03  0.46999998093E+01 0. -1.
</event>
<event>
 5   0  0.1206541E-02  0.9193089E+03  0.7818609E-02  0.9401761E-01
       -1   -1    0    0    0  501  0.00000000000E+00  0.00000000000E+00  0.68946253069E+03  0.68946253070E+03  0.50400001928E-02 0.  1.
        1   -1    0    0  501    0  0.00000000000E+00  0.00000000000E+00 -0.30644481649E+03  0.30644481653E+03  0.50400001928E-02 0. -1.
    10030    2    1    2    0    0  0.00000000000E+00  0.00000000000E+00  0.38301771420E+03  0.99590734723E+03  0.91930891156E+03 0.  0.
        3    1    3    3  502    0  0.19954885269E+03  0.39242340740E+03  0.33468093797E+03  0.55301646967E+03  0.10100000352E+00 0. -1.
       -3    1    3    3    0  502 -0.19954885269E+03 -0.39242340740E+03  0.48336776227E+02  0.44289087756E+03  0.10100000352E+00 0.  1.
</event>
<event>
 5   0  0.1924218E-02  0.9010585E+03  0.7818609E-02  0.9424259E-01
        2   -1    0    0  501    0  0.00000000000E+00  0.00000000000E+00  0.38721465721E+03  0.38721465721E+03  0.25500000920E-02 0.  1.
       -2   -1    0    0    0  501  0.00000000000E+00  0.00000000000E+00 -0.52419658156E+03  0.52419658157E+03  0.25500000920E-02 0. -1.
    10030    2    1    2    0    0  0.00000000000E+00  0.00000000000E+00 -0.13698192436E+03  0.91141123878E+03  0.90105848788E+03 0.  0.
        4    1    3    3  502    0 -0.13201854086E+03  0.29142780882E+03  0.25235365480E+03  0.40748379462E+03  0.12699999809E+01 0.  1.
       -4    1    3    3    0  502  0.13201854086E+03 -0.29142780882E+03 -0.38933557916E+03  0.50392744416E+03  0.12699999809E+01 0. -1.
</event>
<event>
 5   0  0.1206541E-02  0.7559928E+03  0.7818609E-02  0.9625995E-01
       -1   -1    0    0    0  501  0.00000000000E+00  0.00000000000E+00  0.24065816243E+03  0.24065816248E+03  0.50400001928E-02 0.  1.
        1   -1    0    0  501    0  0.00000000000E+00  0.00000000000E+00 -0.59371052067E+03  0.59371052069E+03  0.50400001928E-02 0. -1.
    10030    2    1    2    0    0  0.00000000000E+00  0.00000000000E+00 -0.35305235824E+03  0.83436868317E+03  0.75599281200E+03 0.  0.
        3    1    3    3  502    0  0.33168661573E+03 -0.29682306827E+02  0.20856130698E+02  0.33366456027E+03  0.10100000352E+00 0.  1.
       -3    1    3    3    0  502 -0.33168661573E+03  0.29682306827E+02 -0.37390848894E+03  0.50070412291E+03  0.10100000352E+00 0. -1.
</event>
<event>
 5   0  0.1175993E-02  0.8822514E+03  0.7818609E-02  0.9448044E-01
        1   -1    0    0  501    0  0.00000000000E+00  0.00000000000E+00  0.75168365791E+03  0.75168365792E+03  0.50400001928E-02 0. -1.
       -1   -1    0    0    0  501  0.00000000000E+00  0.00000000000E+00 -0.25887472809E+03  0.25887472814E+03  0.50400001928E-02 0.  1.
    10030    2    1    2    0    0  0.00000000000E+00  0.00000000000E+00  0.49280892982E+03  0.10105583861E+04  0.88225144394E+03 0.  0.
        4    1    3    3  502    0  0.11908714508E+03  0.35513877805E+02  0.73121737200E+03  0.74170306839E+03  0.12699999809E+01 0. -1.
       -4    1    3    3    0  502 -0.11908714508E+03 -0.35513877805E+02 -0.23840844218E+03  0.26885531768E+03  0.12699999809E+01 0.  1.
</event>
<event>
 5   0  0.1206541E-02  0.8754154E+03  0.7818609E-02  0.9456846E-01
       -1   -1    0    0    0  501  0.00000000000E+00  0.00000000000E+00  0.11404282114E+03  0.11404282125E+03  0.50400001928E-02 0. -1.
        1   -1    0    0  501    0  0.00000000000E+00  0.00000000000E+00 -0.16799657715E+04  0.16799657715E+04  0.50400001928E-02 0.  1.
    10030    2    1    2    0    0  0.00000000000E+00  0.00000000000E+00 -0.15659229503E+04  0.17940085927E+04  0.87541541249E+03 0.  0.
        3    1    3    3  502    0 -0.16717870684E+03 -0.10166391827E+03  0.19430773531E+02  0.19662613625E+03  0.10100000352E+00 0. -1.
       -3    1    3    3    0  502  0.16717870684E+03  0.10166391827E+03 -0.15853537239E+04  0.15973824565E+04  0.10100000352E+00 0.  1.
</event>
<event>
 5   0  0.2008643E-02  0.9039575E+03  0.7818609E-02  0.9420648E-01
        2   -1    0    0  501    0  0.00000000000E+00  0.00000000000E+00  0.76946393585E+03  0.76946393586E+03  0.25500000920E-02 0. -1.
       -2   -1    0    0    0  501  0.00000000000E+00  0.00000000000E+00 -0.26548972755E+03  0.26548972757E+03  0.25500000920E-02 0.  1.
    10030    2    1    2    0    0  0.00000000000E+00  0.00000000000E+00  0.50397420830E+03  0.10349536634E+04  0.90395745630E+03 0.  0.
        3    1    3    3  502    0  0.19604935883E+02  0.14033579224E+02  0.76872715505E+03  0.76910515794E+03  0.10100000352E+00 0. -1.
       -3    1    3    3    0  502 -0.19604935883E+02 -0.14033579224E+02 -0.26475294675E+03  0.26584850549E+03  0.10100000352E+00 0.  1.
</event>
<event>
 5   0  0.1175993E-02  0.9034346E+03  0.7818609E-02  0.9421298E-01
       -1   -1    0    0    0  501  0.00000000000E+00  0.00000000000E+00  0.38584100199E+03  0.38584100202E+03  0.50400001928E-02 0.  1.
        1   -1    0    0  501    0  0.00000000000E+00  0.00000000000E+00 -0.52884098416E+03  0.52884098418E+03  0.50400001928E-02 0. -1.
    10030    2    1    2    0    0  0.00000000000E+00  0.00000000000E+00 -0.14299998217E+03  0.91468198620E+03  0.90343463570E+03 0.  0.
        4    1    3    3  502    0  0.44171965815E+03 -0.82868796961E+02 -0.25509494792E+02  0.45015090928E+03  0.12699999809E+01 0.  1.
       -4    1    3    3    0  502 -0.44171965815E+03  0.82868796961E+02 -0.11749048738E+03  0.46453107692E+03  0.12699999809E+01 0. -1.
</event>
<event>
 5   0  0.1177712E-02  0.9035103E+03  0.7818609E-02  0.9421204E-01
        1   -1    0    0  501    0  0.00000000000E+00  0.00000000000E+00  0.24675982807E+03  0.24675982812E+03  0.50400001928E-02 0. -1.
       -1   -1    0    0    0  501  0.00000000000E+00  0.00000000000E+00 -0.82705003547E+03  0.82705003549E+03  0.50400001928E-02 0.  1.
    10030    2    1    2    0    0  0.00000000000E+00  0.00000000000E+00 -0.58029020740E+03  0.10738098636E+04  0.90351032002E+03 0.  0.
        5    1    3    3  502    0 -0.12333520581E+02  0.11943797364E+03  0.22741737264E+03  0.25721255151E+03  0.46999998093E+01 0. -1.
       -5    1    3    3    0  502  0.12333520581E+02 -0.11943797364E+03 -0.80770758004E+03  0.81659731210E+03  0.46999998093E+01 0.  1.
</event>
<event>
 5   0  0.2041861E-02  0.9194290E+03  0.7818609E-02  0.9401615E-01
        2   -1    0    0  501    0  0.00000000000E+00  0.00000000000E+00  0.19637396829E+04  0.19637396829E+04  0.25500000920E-02 0.  1.
       -2   -1    0    0    0  501  0.00000000000E+00  0.00000000000E+00 -0.10761988489E+03  0.10761988492E+03  0.25500000920E-02 0. -1.
    10030    2    1    2    0    0  0.00000000000E+00  0.00000000000E+00  0.18561197980E+04  0.20713595678E+04  0.91942903732E+03 0.  0.
        5    1    3    3  502    0  0.14853570072E+03  0.43358377017E+03  0.84816666220E+03  0.96408843837E+03  0.46999998093E+01 0.  1.
       -5    1    3    3    0  502 -0.14853570072E+03 -0.43358377017E+03  0.10079531358E+04  0.11072711294E+04  0.46999998093E+01 0. -1.
</event>
<event>
 5   0  0.1177712E-02  0.8927962E+03  0.7818609E-02  0.9434632E-01
       -1   -1    0    0    0  501  0.00000000000E+00  0.00000000000E+00  0.42709994752E+03  0.42709994755E+03  0.50400001928E-02 0.  1.
        1   -1    0    0  501    0  0.00000000000E+00  0.00000000000E+00 -0.46656823624E+03  0.46656823627E+03  0.50400001928E-02 0. -1.
    10030    2    1    2    0    0  0.00000000000E+00  0.00000000000E+00 -0.39468288725E+02  0.89366818382E+03  0.89279621245E+03 0.  0.
        5    1    3    3  502    0  0.25877673985E+03 -0.20078887515E+03 -0.32329194503E+03  0.46024052971E+03  0.46999998093E+01 0. -1.
       -5    1    3    3    0  502 -0.25877673985E+03  0.20078887515E+03  0.28382365631E+03  0.43342765411E+03  0.46999998093E+01 0.  1.
</event>
<event>
 5   0  0.1924218E-02  0.8930514E+03  0.7818609E-02  0.9434309E-01
       -2   -1    0    0    0  501  0.00000000000E+00  0.00000000000E+00  0.13920702750E+03  0.13920702752E+03  0.25500000920E-02 0. -1.
        2   -1    0    0  501    0  0.00000000000E+00  0.00000000000E+00 -0.14322924922E+04  0.14322924922E+04  0.25500000920E-02 0.  1.
    10030    2    1    2    0    0  0.00000000000E+00  0.00000000000E+00 -0.12930854647E+04  0.15714995197E+04  0.89305135431E+03 0.  0.
        4    1    3    3  502    0 -0.21586291499E+03 -0.34179403859E+03 -0.98025289001E+03  0.10603382970E+04  0.12699999809E+01 0.  1.
       -4    1    3    3    0  502  0.21586291499E+03  0.34179403859E+03 -0.31283257467E+03  0.51116122267E+03  0.12699999809E+01 0. -1.
</event>
<event>
 5   0  0.1162839E-02  0.8742127E+03  0.7818609E-02  0.9458404E-01
        1   -1    0    0  501    0  0.00000000000E+00  0.00000000000E+00  0.59341708175E+03  0.59341708177E+03  0.50400001928E-02 0. -1.
       -1   -1    0    0    0  501  0.00000000000E+00  0.00000000000E+00 -0.32196912938E+03  0.32196912942E+03  0.50400001928E-02 0.  1.
    10030    2    1    2    0    0  0.00000000000E+00  0.00000000000E+00  0.27144795237E+03  0.91538621119E+03  0.87421274572E+03 0.  0.
        2    1    3    3  502    0 -0.16953484068E+03  0.99138406856E+02  0.54461732252E+03  0.57894603714E+03  0.25500000920E-02 0. -1.
       -2    1    3    3    0  502  0.16953484068E+03 -0.99138406856E+02 -0.27316937015E+03  0.33644017405E+03  0.25500000920E-02 0.  1.
</event>
<event>
 5   0  0.1162839E-02  0.9154280E+03  0.7818609E-02  0.9406499E-01
        1   -1    0    0  501    0  0.00000000000E+00  0.00000000000E+00  0.14240262728E+04  0.14240262728E+04  0.50400001928E-02 0.  1.
       -1   -1    0    0    0  501  0.00000000000E+00  0.00000000000E+00 -0.14711955767E+03  0.14711955775E+03  0.50400001928E-02 0. -1.
    10030    2    1    2    0    0  0.00000000000E+00  0.00000000000E+00  0.12769067151E+04  0.15711458305E+04  0.91542802105E+03 0.  0.
        2    1    3    3  502    0 -0.49860203115E+02 -0.24401262031E+03  0.12975512192E+04  0.13212370586E+04  0.25500000920E-02 0.  1.
       -2    1    3    3    0  502  0.49860203115E+02  0.24401262031E+03 -0.20644504052E+02  0.24990877191E+03  0.25500000920E-02 0. -1.
</event>
<event>
 5   0  0.1226424E-02  0.8998284E+03  0.7818609E-02  0.9425796E-01
        1   -1    0    0  501    0  0.00000000000E+00  0.00000000000E+00  0.14220221857E+04  0.14220221857E+04  0.50400001928E-02 0.  1.
       -1   -1    0    0    0  501  0.00000000000E+00  0.00000000000E+00 -0.14234854050E+03  0.14234854059E+03  0.50400001928E-02 0. -1.
    10030    2    1    2    0    0  0.00000000000E+00  0.00000000000E+00  0.12796736452E+04  0.15643707263E+04  0.89982838977E+03 0.  0.
        1    1    3    3  502    0 -0.17941836764E+03  0.16228025035E+02 -0.76907380086E+02  0.19588017914E+03  0.50400001928E-02 0. -1.
       -1    1    3    3    0  502  0.17941836764E+03 -0.16228025035E+02  0.13565810253E+04  0.13684905471E+04  0.50400001928E-02 0.  1.
</event>
<event>
 5   0  0.2008643E-02  0.9029536E+03  0.7818609E-02  0.9421897E-01
       -2   -1    0    0    0  501  0.00000000000E+00  0.00000000000E+00  0.33263450637E+03  0.33263450638E+03  0.25500000920E-02 0. -1.
        2   -1    0    0  501    0  0.00000000000E+00  0.00000000000E+00 -0.61277854284E+03  0.61277854284E+03  0.25500000920E-02 0.  1.
    10030    2    1    2    0    0  0.00000000000E+00  0.00000000000E+00 -0.28014403647E+03  0.94541304922E+03  0.90295357160E+03 0.  0.
        3    1    3    3  502    0 -0.16756658738E+03  0.15144007444E+03  0.26923039933E+03  0.35142236052E+03  0.10100000352E+00 0. -1.
       -3    1    3    3    0  502  0.16756658738E+03 -0.15144007444E+03 -0.54937443580E+03  0.59399068870E+03  0.10100000352E+00 0.  1.
</event>
<event>
 5   0  0.1162839E-02  0.8991611E+03  0.7818609E-02  0.9426631E-01
        1   -1    0    0  501    0  0.00000000000E+00  0.00000000000E+00  0.79875907054E+03  0.79875907056E+03  0.50400001928E-02 0. -1.
       -1   -1    0    0    0  501  0.00000000000E+00  0.00000000000E+00 -0.25304585570E+03  0.25304585575E+03  0.50400001928E-02 0.  1.
    10030    2    1    2    0    0  0.00000000000E+00  0.00000000000E+00  0.54571321484E+03  0.10518049263E+04  0.89916110356E+03 0.  0.
        2    1    3    3  502    0  0.39612829720E+03  0.17531721901E+03  0.41356360875E+03  0.59890618098E+03  0.25500000920E-02 0.  1.
       -2    1    3    3    0  502 -0.39612829720E+03 -0.17531721901E+03  0.13214960609E+03  0.45289874533E+03  0.25500000920E-02 0. -1.
</event>
<event>
 5   0  0.7893875E-03  0.8297603E+03  0.7818609E-02  0.9517912E-01
       -3   -1    0    0    0  501  0.00000000000E+00  0.00000000000E+00  0.42365944245E+03  0.42365945449E+03  0.10100000352E+00 0.  1.
        3   -1    0    0  501    0  0.00000000000E+00  0.00000000000E+00 -0.40628280885E+03  0.40628282141E+03  0.10100000352E+00 0. -1.
    10030    2    1    2    0    0  0.00000000000E+00  0.00000000000E+00  0.17376633598E+02  0.82994227590E+03  0.82976034728E+03 0.  0.
        4    1    3    3  502    0  0.40486754601E+03 -0.26896717752E+02  0.95210360069E+02  0.41678266375E+03  0.12699999809E+01 0.  1.
       -4    1    3    3    0  502 -0.40486754601E+03  0.26896717752E+02 -0.77833726471E+02  0.41315961215E+03  0.12699999809E+01 0. -1.
</event>
<event>
 5   0  0.1162839E-02  0.9217500E+03  0.7818609E-02  0.9398794E-01
        1   -1    0    0  501    0  0.00000000000E+00  0.00000000000E+00  0.45380000260E+03  0.45380000263E+03  0.50400001928E-02 0.  1.
       -1   -1    0    0    0  501  0.00000000000E+00  0.00000000000E+00 -0.46806032242E+03  0.46806032245E+03  0.50400001928E-02 0. -1.
    10030    2    1    2    0    0  0.00000000000E+00  0.00000000000E+00 -0.14260319825E+02  0.92186032507E+03  0.92175002155E+03 0.  0.
        2    1    3    3  502    0  0.32588963406E+03  0.13302153409E+03  0.29040669078E+03  0.45632754484E+03  0.25500000920E-02 0.  1.
       -2    1    3    3    0  502 -0.32588963406E+03 -0.13302153409E+03 -0.30466701061E+03  0.46553278024E+03  0.25500000920E-02 0. -1.
</event>
<event>
 5   0  0.2041861E-02  0.8956034E+03  0.7818609E-02  0.9431094E-01
        2   -1    0    0  501    0  0.00000000000E+00  0.00000000000E+00  0.30584924638E+03  0.30584924639E+03  0.25500000920E-02 0. -1.
       -2   -1    0    0    0  501  0.00000000000E+00  0.00000000000E+00 -0.65563790746E+03  0.65563790746E+03  0.25500000920E-02 0.  1.
    10030    2    1    2    0    0  0.00000000000E+00  0.00000000000E+00 -0.34978866108E+03  0.96148715385E+03  0.89560339414E+03 0.  0.
        5    1    3    3  502    0  0.20234229565E+03 -0.29842372641E+03 -0.45995556386E+03  0.58444874525E+03  0.46999998093E+01 0.  1.
       -5    1    3    3    0  502 -0.20234229565E+03  0.29842372641E+03  0.11016690278E+03  0.37703840860E+03  0.46999998093E+01 0. -1.
</event>
<event>
 5   0  0.1924218E-02  0.8962679E+03  0.7818609E-02  0.9430259E-01
        2   -1    0    0  501    0  0.00000000000E+00  0.00000000000E+00  0.44183558377E+03  0.44183558378E+03  0.25500000920E-02 0. -1.
       -2   -1    0    0    0  501  0.00000000000E+00  0.00000000000E+00 -0.45452207618E+03  0.45452207619E+03  0.25500000920E-02 0.  1.
    10030    2    1    2    0    0  0.00000000000E+00  0.00000000000E+00 -0.12686492411E+02  0.89635765997E+03  0.89626787708E+03 0.  0.
        4    1    3    3  502    0  0.25491924412E+03 -0.74345467310E+02 -0.36736603414E+03  0.45328852343E+03  0.12699999809E+01 0.  1.
       -4    1    3    3    0  502 -0.25491924412E+03  0.74345467310E+02  0.35467954173E+03  0.44306913654E+03  0.12699999809E+01 0. -1.
</event>
<event>
 5   0  0.1162839E-02  0.8616220E+03  0.7818609E-02  0.9474870E-01
       -1   -1    0    0    0  501  0.00000000000E+00  0.00000000000E+00  0.27575392632E+03  0.27575392637E+03  0.50400001928E-02 0. -1.
        1   -1    0    0  501    0  0.00000000000E+00  0.00000000000E+00 -0.67305705376E+03  0.67305705378E+03  0.50400001928E-02 0.  1.
    10030    2    1    2    0    0  0.00000000000E+00  0.00000000000E+00 -0.39730312744E+03  0.94881098015E+03  0.86162201747E+03 0.  0.
        2    1    3    3  502    0 -0.39129048917E+03 -0.34715415683E+01 -0.19914612805E+00  0.39130593937E+03  0.25500000920E-02 0. -1.
       -2    1    3    3    0  502  0.39129048917E+03  0.34715415683E+01 -0.39710398131E+03  0.55750504078E+03  0.25500000920E-02 0.  1.
</event>
<event>
 5   0  0.1226424E-02  0.8313483E+03  0.7818609E-02  0.9515718E-01
        1   -1    0    0  501    0  0.00000000000E+00  0.00000000000E+00  0.52451412107E+03  0.52451412110E+03  0.50400001928E-02 0.  1.
       -1   -1    0    0    0  501  0.00000000000E+00  0.00000000000E+00 -0.32941919039E+03  0.32941919043E+03  0.50400001928E-02 0. -1.
    10030    2    1    2    0    0  0.00000000000E+00  0.00000000000E+00  0.19509493068E+03  0.85393331153E+03  0.83134834369E+03 0.  0.
        1    1    3    3  502    0  0.47076241493E+02  0.40789988211E+03  0.16400864777E+03  0.44215079205E+03  0.50400001928E-02 0.  1.
       -1    1    3    3    0  502 -0.47076241493E+02 -0.40789988211E+03  0.31086282913E+02  0.41178251948E+03  0.50400001928E-02 0. -1.
</event>
<event>
 5   0  0.1206541E-02  0.9337748E+03  0.7818609E-02  0.9384319E-01
        1   -1    0    0  501    0  0.00000000000E+00  0.00000000000E+00  0.10127591458E+04  0.10127591458E+04  0.50400001928E-02 0.  1.
       -1   -1    0    0    0  501  0.00000000000E+00  0.00000000000E+00 -0.21523761433E+03  0.21523761439E+03  0.50400001928E-02 0. -1.
    10030    2    1    2    0    0  0.00000000000E+00  0.00000000000E+00  0.79752153149E+03  0.12279967602E+04  0.93377483899E+03 0.  0.
        3    1    3    3  502    0 -0.44132195074E+03 -0.89625188416E+02  0.23669981709E+03  0.50874802429E+03  0.10100000352E+00 0. -1.
       -3    1    3    3    0  502  0.44132195074E+03  0.89625188416E+02  0.56082171439E+03  0.71924873593E+03  0.10100000352E+00 0.  1.
</event>
<event>
 5   0  0.1968763E-02  0.8927293E+03  0.7818609E-02  0.9434716E-01
        2   -1    0    0  501    0  0.00000000000E+00  0.00000000000E+00  0.11658521951E+04  0.11658521951E+04  0.25500000920E-02 0.  1.
       -2   -1    0    0    0  501  0.00000000000E+00  0.00000000000E+00 -0.17089766853E+03  0.17089766855E+03  0.25500000920E-02 0. -1.
    10030    2    1    2    0    0  0.00000000000E+00  0.00000000000E+00  0.99495452659E+03  0.13367498637E+04  0.89272934759E+03 0.  0.
        2    1    3    3  502    0  0.61241171235E+02 -0.37267283206E+02  0.11571756818E+04  0.11593941909E+04  0.25500000920E-02 0.  1.
       -2    1    3    3    0  502 -0.61241171235E+02  0.37267283206E+02 -0.16222115520E+03  0.17735567274E+03  0.25500000920E-02 0. -1.
</event>
<event>
 5   0  0.1226424E-02  0.8953009E+03  0.7818609E-02  0.9431475E-01
        1   -1    0    0  501    0  0.00000000000E+00  0.00000000000E+00  0.33857701931E+03  0.33857701935E+03  0.50400001928E-02 0.  1.
       -1   -1    0    0    0  501  0.00000000000E+00  0.00000000000E+00 -0.59186217227E+03  0.59186217229E+03  0.50400001928E-02 0. -1.
    10030    2    1    2    0    0  0.00000000000E+00  0.00000000000E+00 -0.25328515296E+03  0.93043919164E+03  0.89530091066E+03 0.  0.
        1    1    3    3  502    0  0.15079273558E+03 -0.11127300409E+03  0.29584800642E+03  0.35020875699E+03  0.50400001928E-02 0.  1.
       -1    1    3    3    0  502 -0.15079273558E+03  0.11127300409E+03 -0.54913315938E+03  0.58023043465E+03  0.50400001928E-02 0. -1.
</event>
<event>
 5   0  0.2041861E-02  0.8705515E+03  0.7818609E-02  0.9463161E-01
        2   -1    0    0  501    0  0.00000000000E+00  0.00000000000E+00  0.83611088050E+03  0.83611088050E+03  0.25500000920E-02 0. -1.
       -2   -1    0    0    0  501  0.00000000000E+00  0.00000000000E+00 -0.22660269350E+03  0.22660269351E+03  0.25500000920E-02 0.  1.
    10030    2    1    2    0    0  0.00000000000E+00  0.00000000000E+00  0.60950818700E+03  0.10627135740E+04  0.87055149784E+03 0.  0.
        5    1    3    3  502    0  0.43445936957E+03 -0.25824519038E+02  0.31035326864E+03  0.53456813499E+03  0.46999998093E+01 0. -1.
       -5    1    3    3    0  502 -0.43445936957E+03  0.25824519038E+02  0.29915491836E+03  0.52814543903E+03  0.46999998093E+01 0.  1.
</event>
<event>
 5   0  0.1226424E-02  0.8773400E+03  0.7818609E-02  0.9454359E-01
       -1   -1    0    0    0  501  0.00000000000E+00  0.00000000000E+00  0.24657013512E+03  0.24657013517E+03  0.50400001928E-02 0. -1.
        1   -1    0    0  501    0  0.00000000000E+00  0.00000000000E+00 -0.78043261029E+03  0.78043261030E+03  0.50400001928E-02 0.  1.
    10030    2    1    2    0    0  0.00000000000E+00  0.00000000000E+00 -0.53386247517E+03  0.10270027455E+04  0.87734001209E+03 0.  0.
        1    1    3    3  502    0  0.20600119311E+03  0.32910087315E+03 -0.27926459648E+02  0.38926053415E+03  0.50400001928E-02 0. -1.
       -1    1    3    3    0  502 -0.20600119311E+03 -0.32910087315E+03 -0.50593601552E+03  0.63774221132E+03  0.50400001928E-02 0.  1.
</event>
<event>
 5   0  0.1968763E-02  0.8140874E+03  0.7818609E-02  0.9539847E-01
       -2   -1    0    0    0  501  0.00000000000E+00  0.00000000000E+00  0.27649921347E+03  0.27649921349E+03  0.25500000920E-02 0.  1.
        2   -1    0    0  501    0  0.00000000000E+00  0.00000000000E+00 -0.59922254595E+03  0.59922254595E+03  0.25500000920E-02 0. -1.
    10030    2    1    2    0    0  0.00000000000E+00  0.00000000000E+00 -0.32272333247E+03  0.87572175944E+03  0.81408737285E+03 0.  0.
        2    1    3    3  502    0  0.17039782177E+03  0.36089737457E+03 -0.24743344120E+03  0.46958028117E+03  0.25500000920E-02 0. -1.
       -2    1    3    3    0  502 -0.17039782177E+03 -0.36089737457E+03 -0.75289891268E+02  0.40614147827E+03  0.25500000920E-02 0.  1.
</event>
<event>
 5   0  0.1177712E-02  0.9213554E+03  0.7818609E-02  0.9399273E-01
       -1   -1    0    0    0  501  0.00000000000E+00  0.00000000000E+00  0.16991330861E+04  0.16991330861E+04  0.50400001928E-02 0. -1.
        1   -1    0    0  501    0  0.00000000000E+00  0.00000000000E+00 -0.12490130095E+03  0.12490130105E+03  0.50400001928E-02 0.  1.
    10030    2    1    2    0    0  0.00000000000E+00  0.00000000000E+00  0.15742317852E+04  0.18240343872E+04  0.92135537777E+03 0.  0.
        5    1    3    3  502    0  0.20866619065E+03 -0.34852075137E+03  0.12171938347E+04  0.12831957039E+04  0.46999998093E+01 0. -1.
       -5    1    3    3    0  502 -0.20866619065E+03  0.34852075137E+03  0.35703795048E+03  0.54083868328E+03  0.46999998093E+01 0.  1.
</event>
<event>
 5   0  0.2041861E-02  0.8988613E+03  0.7818609E-02  0.9427006E-01
       -2   -1    0    0    0  501  0.00000000000E+00  0.00000000000E+00  0.19708994422E+03  0.19708994424E+03  0.25500000920E-02 0.  1.
        2   -1    0    0  501    0  0.00000000000E+00  0.00000000000E+00 -0.10248513426E+04  0.10248513426E+04  0.25500000920E-02 0. -1.
    10030    2    1    2    0    0  0.00000000000E+00  0.00000000000E+00 -0.82776139835E+03  0.12219412868E+04  0.89886126618E+03 0.  0.
        5    1    3    3  502    0  0.19150915530E+03 -0.23852827493E+03 -0.86145064311E+03  0.91416125219E+03  0.46999998093E+01 0. -1.
       -5    1    3    3    0  502 -0.19150915530E+03  0.23852827493E+03  0.33689244752E+02  0.30778003463E+03  0.46999998093E+01 0.  1.
</event>
<event>
 5   0  0.1226424E-02  0.8094584E+03  0.7818609E-02  0.9546427E-01
       -1   -1    0    0    0  501  0.00000000000E+00  0.00000000000E+00  0.20063395954E+03  0.20063395960E+03  0.50400001928E-02 0. -1.
        1   -1    0    0  501    0  0.00000000000E+00  0.00000000000E+00 -0.81644059095E+03  0.81644059096E+03  0.50400001928E-02 0.  1.
    10030    2    1    2    0    0  0.00000000000E+00  0.00000000000E+00 -0.61580663141E+03  0.10170745506E+04  0.80945835848E+03 0.  0.
        1    1    3    3  502    0 -0.21350105090E+03  0.29891222703E+03 -0.52141194815E+03  0.63781003277E+03  0.50400001928E-02 0.  1.
       -1    1    3    3    0  502  0.21350105090E+03 -0.29891222703E+03 -0.94394683257E+02  0.37926451779E+03  0.50400001928E-02 0. -1.
</event>
<event>
 5   0  0.1162839E-02  0.9067473E+03  0.7818609E-02  0.9417186E-01
       -1   -1    0    0    0  501  0.00000000000E+00  0.00000000000E+00  0.32415011659E+03  0.32415011663E+03  0.50400001928E-02 0. -1.
        1   -1    0    0  501    0  0.00000000000E+00  0.00000000000E+00 -0.63411261356E+03  0.63411261358E+03  0.50400001928E-02 0.  1.
    10030    2    1    2    0    0  0.00000000000E+00  0.00000000000E+00 -0.30996249697E+03  0.95826273022E+03  0.90674732456E+03 0.  0.
        2    1    3    3  502    0  0.38335552942E+03 -0.10977399017E+03  0.72996422032E+02  0.40538903351E+03  0.25500000920E-02 0.  1.
       -2    1    3    3    0  502 -0.38335552942E+03  0.10977399017E+03 -0.38295891900E+03  0.55287369670E+03  0.25500000920E-02 0. -1.
</event>
<event>
 5   0  0.2008643E-02  0.9256582E+03  0.7818609E-02  0.9394064E-01
        2   -1    0    0  501    0  0.00000000000E+00  0.00000000000E+00  0.10636917673E+04  0.10636917673E+04  0.25500000920E-02 0.  1.
       -2   -1    0    0    0  501  0.00000000000E+00  0.00000000000E+00 -0.20138424768E+03  0.20138424770E+03  0.25500000920E-02 0. -1.
    10030    2    1    2    0    0  0.00000000000E+00  0.00000000000E+00  0.86230751958E+03  0.12650760150E+04  0.92565817951E+03 0.  0.
        3    1    3    3  502    0  0.17550660670E+03  0.39773310443E+03  0.64817834765E+03  0.78046740605E+03  0.10100000352E+00 0.  1.
       -3    1    3    3    0  502 -0.17550660670E+03 -0.39773310443E+03  0.21412917194E+03  0.48460860891E+03  0.10100000352E+00 0. -1.
</event>
<event>
 5   0  0.1206541E-02  0.8330615E+03  0.7818609E-02  0.9513357E-01
       -1   -1    0    0    0  501  0.00000000000E+00  0.00000000000E+00  0.58046733035E+03  0.58046733038E+03  0.50400001928E-02 0.  1.
        1   -1    0    0  501    0  0.00000000000E+00  0.00000000000E+00 -0.29889344181E+03  0.29889344185E+03  0.50400001928E-02 0. -1.
    10030    2    1    2    0    0  0.00000000000E+00  0.00000000000E+00  0.28157388854E+03  0.87936077223E+03  0.83306153016E+03 0.  0.
        3    1    3    3  502    0 -0.18016882676E+03 -0.25139644726E+03 -0.15371132107E+03  0.34538118110E+03  0.10100000352E+00 0. -1.
       -3    1    3    3    0  502  0.18016882676E+03  0.25139644726E+03  0.43528520962E+03  0.53397959113E+03  0.10100000352E+00 0.  1.
</event>
<event>
 5   0  0.2008770E-02  0.9006520E+03  0.7818609E-02  0.9424767E-01
        2   -1    0    0  501    0  0.00000000000E+00  0.00000000000E+00  0.55900095069E+03  0.55900095070E+03  0.25500000920E-02 0.  1.
       -2   -1    0    0    0  501  0.00000000000E+00  0.00000000000E+00 -0.36277845238E+03  0.36277845239E+03  0.25500000920E-02 0. -1.
    10030    2    1    2    0    0  0.00000000000E+00  0.00000000000E+00  0.19622249831E+03  0.92177940309E+03  0.90065198557E+03 0.  0.
        1    1    3    3  502    0  0.26400937004E+03  0.38520983951E+02 -0.27317790712E+03  0.38185204286E+03  0.50400001928E-02 0. -1.
       -1    1    3    3    0  502 -0.26400937004E+03 -0.38520983951E+02  0.46940040543E+03  0.53992736023E+03  0.50400001928E-02 0.  1.
</event>
<event>
 5   0  0.1226424E-02  0.8433055E+03  0.7818609E-02  0.9499366E-01
       -1   -1    0    0    0  501  0.00000000000E+00  0.00000000000E+00  0.19996865045E+03  0.19996865051E+03  0.50400001928E-02 0. -1.
        1   -1    0    0  501    0  0.00000000000E+00  0.00000000000E+00 -0.88909457980E+03  0.88909457982E+03  0.50400001928E-02 0.  1.
    10030    2    1    2    0    0  0.00000000000E+00  0.00000000000E+00 -0.68912592935E+03  0.10890632303E+04  0.84330550404E+03 0.  0.
        1    1    3    3  502    0 -0.11090043800E+03 -0.33528078669E+03 -0.64209192249E+03  0.73279884690E+03  0.50400001928E-02 0.  1.
       -1    1    3    3    0  502  0.11090043800E+03  0.33528078669E+03 -0.47034006867E+02  0.35626438343E+03  0.50400001928E-02 0. -1.
</event>
<event>
 5   0  0.1968763E-02  0.8234316E+03  0.7818609E-02  0.9526707E-01
        2   -1    0    0  501    0  0.00000000000E+00  0.00000000000E+00  0.66728821436E+03  0.66728821436E+03  0.25500000920E-02 0. -1.
       -2   -1    0    0    0  501  0.00000000000E+00  0.00000000000E+00 -0.25402799566E+03  0.25402799568E+03  0.25500000920E-02 0.  1.
    10030    2    1    2    0    0  0.00000000000E+00  0.00000000000E+00  0.41326021869E+03  0.92131621004E+03  0.82343157003E+03 0.  0.
        2    1    3    3  502    0 -0.61403942295E+02 -0.36313067577E+03  0.69783614606E+00  0.36828632719E+03  0.25500000920E-02 0.  1.
       -2    1    3    3    0  502  0.61403942295E+02  0.36313067577E+03  0.41256238255E+03  0.55302988284E+03  0.25500000920E-02 0. -1.
</event>
<event>
 5   0  0.1206541E-02  0.8764735E+03  0.7818609E-02  0.9455478E-01
        1   -1    0    0  501    0  0.00000000000E+00  0.00000000000E+00  0.16442528032E+04  0.16442528032E+04  0.50400001928E-02 0. -1.
       -1   -1    0    0    0  501  0.00000000000E+00  0.00000000000E+00 -0.11680165058E+03  0.11680165069E+03  0.50400001928E-02 0.  1.
    10030    2    1    2    0    0  0.00000000000E+00  0.00000000000E+00  0.15274511526E+04  0.17610544538E+04  0.87647348273E+03 0.  0.
        3    1    3    3  502    0  0.36593038288E+03 -0.19099628240E+03  0.10594801394E+04  0.11370500433E+04  0.10100000352E+00 0. -1.
       -3    1    3    3    0  502 -0.36593038288E+03  0.19099628240E+03  0.46797101316E+03  0.62400441053E+03  0.10100000352E+00 0.  1.
</event>
<event>
 5   0  0.1924218E-02  0.8561408E+03  0.7818609E-02  0.9482132E-01
        2   -1    0    0  501    0  0.00000000000E+00  0.00000000000E+00  0.24077111775E+03  0.24077111776E+03  0.25500000920E-02 0.  1.
       -2   -1    0    0    0  501  0.00000000000E+00  0.00000000000E+00 -0.76107244287E+03  0.76107244287E+03  0.25500000920E-02 0. -1.
    10030    2    1    2    0    0  0.00000000000E+00  0.00000000000E+00 -0.52030132512E+03  0.10018435606E+04  0.85614078928E+03 0.  0.
        4    1    3    3  502    0  0.21476599238E+03 -0.18325790044E+03  0.11637780225E+03  0.30537402528E+03  0.12699999809E+01 0.  1.
       -4    1    3    3    0  502 -0.21476599238E+03  0.18325790044E+03 -0.63667912737E+03  0.69646953536E+03  0.12699999809E+01 0. -1.
</event>
<event>
 5   0  0.2008770E-02  0.8805740E+03  0.7818609E-02  0.9450196E-01
       -2   -1    0    0    0  501  0.00000000000E+00  0.00000000000E+00  0.97175783625E+03  0.97175783625E+03  0.25500000920E-02 0. -1.
        2   -1    0    0  501    0  0.00000000000E+00  0.00000000000E+00 -0.19948658202E+03  0.19948658203E+03  0.25500000920E-02 0.  1.
    10030    2    1    2    0    0  0.00000000000E+00  0.00000000000E+00  0.77227125423E+03  0.11712444183E+04  0.88057401577E+03 0.  0.
        1    1    3    3  502    0  0.30981755649E+03 -0.15520732692E+03  0.74741273777E+03  0.82383374127E+03  0.50400001928E-02 0. -1.
       -1    1    3    3    0  502 -0.30981755649E+03  0.15520732692E+03  0.24858516457E+02  0.34741067702E+03  0.50400001928E-02 0.  1.
</event>
<event>
 5   0  0.1206541E-02  0.8642967E+03  0.7818609E-02  0.9471347E-01
        1   -1    0    0  501    0  0.00000000000E+00  0.00000000000E+00  0.31736297113E+03  0.31736297117E+03  0.50400001928E-02 0.  1.
       -1   -1    0    0    0  501  0.00000000000E+00  0.00000000000E+00 -0.58844983539E+03  0.58844983541E+03  0.50400001928E-02 0. -1.
    10030    2    1    2    0    0  0.00000000000E+00  0.00000000000E+00 -0.27108686426E+03  0.90581280658E+03  0.86429668089E+03 0.  0.
        3    1    3    3  502    0 -0.10108919315E+03  0.13816548853E+03  0.28030772210E+03  0.32845267005E+03  0.10100000352E+00 0.  1.
       -3    1    3    3    0  502  0.10108919315E+03 -0.13816548853E+03 -0.55139458636E+03  0.57736013653E+03  0.10100000352E+00 0. -1.
</event>
<event>
 5   0  0.1177712E-02  0.8842728E+03  0.7818609E-02  0.9445458E-01
       -1   -1    0    0    0  501  0.00000000000E+00  0.00000000000E+00  0.10098397560E+03  0.10098397572E+03  0.50400001928E-02 0. -1.
        1   -1    0    0  501    0  0.00000000000E+00  0.00000000000E+00 -0.19357983651E+04  0.19357983651E+04  0.50400001928E-02 0.  1.
    10030    2    1    2    0    0  0.00000000000E+00  0.00000000000E+00 -0.18348143895E+04  0.20367823408E+04  0.88427284250E+03 0.  0.
        5    1    3    3  502    0 -0.80925612455E+02  0.29258011148E+03 -0.17706848567E+03  0.35146467105E+03  0.46999998093E+01 0. -1.
       -5    1    3    3    0  502  0.80925612455E+02 -0.29258011148E+03 -0.16577459038E+04  0.16853176698E+04  0.46999998093E+01 0.  1.
</event>
<event>
 5   0  0.1206541E-02  0.9025543E+03  0.7818609E-02  0.9422394E-01
       -1   -1    0    0    0  501  0.00000000000E+00  0.00000000000E+00  0.31808366920E+03  0.31808366924E+03  0.50400001928E-02 0. -1.
        1   -1    0    0  501    0  0.00000000000E+00  0.00000000000E+00 -0.64024374687E+03  0.64024374689E+03  0.50400001928E-02 0.  1.
    10030    2    1    2    0    0  0.00000000000E+00  0.00000000000E+00 -0.32216007768E+03  0.95832741613E+03  0.90255433125E+03 0.  0.
        3    1    3    3  502    0  0.23396485239E+03  0.57262697352E+02  0.24412021853E+03  0.34294789686E+03  0.10100000352E+00 0. -1.
       -3    1    3    3    0  502 -0.23396485239E+03 -0.57262697352E+02 -0.56628029621E+03  0.61537951927E+03  0.10100000352E+00 0.  1.
</event>
<event>
 5   0  0.1177712E-02  0.9101477E+03  0.7818609E-02  0.9412984E-01
       -1   -1    0    0    0  501  0.00000000000E+00  0.00000000000E+00  0.51761327781E+03  0.51761327783E+03  0.50400001928E-02 0.  1.
        1   -1    0    0  501    0  0.00000000000E+00  0.00000000000E+00 -0.40009060359E+03  0.40009060362E+03  0.50400001928E-02 0. -1.
    10030    2    1    2    0    0  0.00000000000E+00  0.00000000000E+00  0.11752267422E+03  0.91770388145E+03  0.91014769959E+03 0.  0.
        5    1    3    3  502    0 -0.41779704248E+03  0.18007692419E+03  0.49299860563E+02  0.45764028842E+03  0.46999998093E+01 0. -1.
       -5    1    3    3    0  502  0.41779704248E+03 -0.18007692419E+03  0.68222813655E+02  0.46006359303E+03  0.46999998093E+01 0.  1.
</event>
<event>
 5   0  0.1968763E-02  0.8967848E+03  0.7818609E-02  0.9429609E-01
       -2   -1    0    0    0  501  0.00000000000E+00  0.00000000000E+00  0.36005511788E+03  0.36005511789E+03  0.25500000920E-02 0. -1.
        2   -1    0    0  501    0  0.00000000000E+00  0.00000000000E+00 -0.55840270931E+03  0.55840270932E+03  0.25500000920E-02 0.  1.
    10030    2    1    2    0    0  0.00000000000E+00  0.00000000000E+00 -0.19834759143E+03  0.91845782721E+03  0.89678481998E+03 0.  0.
        2    1    3    3  502    0 -0.32009851941E+03 -0.90436461773E+02 -0.40712979080E+03  0.52573423163E+03  0.25500000920E-02 0.  1.
       -2    1    3    3    0  502  0.32009851941E+03  0.90436461773E+02  0.20878219937E+03  0.39272359558E+03  0.25500000920E-02 0. -1.
</event>
<event>
 5   0  0.1226424E-02  0.8789756E+03  0.7818609E-02  0.9452251E-01
       -1   -1    0    0    0  501  0.00000000000E+00  0.00000000000E+00  0.16079560950E+03  0.16079560958E+03  0.50400001928E-02 0. -1.
        1   -1    0    0  501    0  0.00000000000E+00  0.00000000000E+00 -0.12012115279E+04  0.12012115279E+04  0.50400001928E-02 0.  1.
    10030    2    1    2    0    0  0.00000000000E+00  0.00000000000E+00 -0.10404159184E+04  0.13620071375E+04  0.87897563068E+03 0.  0.
        1    1    3    3  502    0  0.17051985047E+03  0.23083032899E+03 -0.44420961449E+01  0.28701810471E+03  0.50400001928E-02 0. -1.
       -1    1    3    3    0  502 -0.17051985047E+03 -0.23083032899E+03 -0.10359738223E+04  0.10749890328E+04  0.50400001928E-02 0.  1.
</event>
<event>
 5   0  0.2008770E-02  0.9103923E+03  0.7818609E-02  0.9412683E-01
       -2   -1    0    0    0  501  0.00000000000E+00  0.00000000000E+00  0.20717639248E+03  0.20717639250E+03  0.25500000920E-02 0. -1.
        2   -1    0    0  501    0  0.00000000000E+00  0.00000000000E+00 -0.10001310696E+04  0.10001310696E+04  0.25500000920E-02 0.  1.
    10030    2    1    2    0    0  0.00000000000E+00  0.00000000000E+00 -0.79295467712E+03  0.12073074621E+04  0.91039232646E+03 0.  0.
        1    1    3    3  502    0 -0.24618108518E+03  0.15925609563E+03 -0.85822525671E+03  0.90692790340E+03  0.50400001928E-02 0.  1.
       -1    1    3    3    0  502  0.24618108518E+03 -0.15925609563E+03  0.65270579593E+02  0.30037955869E+03  0.50400001928E-02 0. -1.
</event>
<event>
 5   0  0.1924218E-02  0.9105279E+03  0.7818609E-02  0.9412516E-01
        2   -1    0    0  501    0  0.00000000000E+00  0.00000000000E+00  0.69741872950E+03  0.69741872950E+03  0.25500000920E-02 0. -1.
       -2   -1    0    0    0  501  0.00000000000E+00  0.00000000000E+00 -0.29718911102E+03  0.29718911104E+03  0.25500000920E-02 0.  1.
    10030    2    1    2    0    0  0.00000000000E+00  0.00000000000E+00  0.40022961847E+03  0.99460784054E+03  0.91052787379E+03 0.  0.
        4    1    3    3  502    0 -0.74637768746E+02 -0.83903562637E+02  0.68205064743E+03  0.69123462219E+03  0.12699999809E+01 0. -1.
       -4    1    3    3    0  502  0.74637768746E+02  0.83903562637E+02 -0.28182102896E+03  0.30337321835E+03  0.12699999809E+01 0.  1.
</event>
<event>
 5   0  0.1206541E-02  0.9080403E+03  0.7818609E-02  0.9415586E-01
        1   -1    0    0  501    0  0.00000000000E+00  0.00000000000E+00  0.10119314439E+04  0.10119314440E+04  0.50400001928E-02 0.  1.
       -1   -1    0    0    0  501  0.00000000000E+00  0.00000000000E+00 -0.20370379755E+03  0.20370379761E+03  0.50400001928E-02 0. -1.
    10030    2    1    2    0    0  0.00000000000E+00  0.00000000000E+00  0.80822764640E+03  0.12156352416E+04  0.90804025910E+03 0.  0.
        3    1    3    3  502    0  0.17101669702E+03  0.28708108908E+03 -0.73671376920E+01  0.33424025384E+03  0.10100000352E+00 0. -1.
       -3    1    3    3    0  502 -0.17101669702E+03 -0.28708108908E+03  0.81559478409E+03  0.88139498773E+03  0.10100000352E+00 0.  1.
</event>
<event>
 5   0  0.2008643E-02  0.8704938E+03  0.7818609E-02  0.9463236E-01
       -2   -1    0    0    0  501  0.00000000000E+00  0.00000000000E+00  0.45770427812E+03  0.45770427813E+03  0.25500000920E-02 0. -1.
        2   -1    0    0  501    0  0.00000000000E+00  0.00000000000E+00 -0.41389143263E+03  0.41389143264E+03  0.25500000920E-02 0.  1.
    10030    2    1    2    0    0  0.00000000000E+00  0.00000000000E+00  0.43812845495E+02  0.87159571077E+03  0.87049383548E+03 0.  0.
        3    1    3    3  502    0  0.43149903627E+03 -0.51030109765E+02  0.47323172051E+02  0.43707548915E+03  0.10100000352E+00 0. -1.
       -3    1    3    3    0  502 -0.43149903627E+03  0.51030109765E+02 -0.35103265558E+01  0.43452022162E+03  0.10100000352E+00 0.  1.
</event>
<event>
 5   0  0.2008770E-02  0.9088779E+03  0.7818609E-02  0.9414551E-01
        2   -1    0    0  501    0  0.00000000000E+00  0.00000000000E+00  0.42467991047E+03  0.42467991048E+03  0.25500000920E-02 0. -1.
       -2   -1    0    0    0  501  0.00000000000E+00  0.00000000000E+00 -0.48628335120E+03  0.48628335120E+03  0.25500000920E-02 0.  1.
    10030    2    1    2    0    0  0.00000000000E+00  0.00000000000E+00 -0.61603440728E+02  0.91096326168E+03  0.90887792372E+03 0.  0.
        1    1    3    3  502    0  0.92050640120E+02 -0.36210450707E+03 -0.29008770114E+03  0.47301571725E+03  0.50400001928E-02 0.  1.
       -1    1    3    3    0  502 -0.92050640120E+02  0.36210450707E+03  0.22848426042E+03  0.43794754443E+03  0.50400001928E-02 0. -1.
</event>
<event>
 5   0  0.1162839E-02  0.7848782E+03  0.7818609E-02  0.9582167E-01
       -1   -1    0    0    0  501  0.00000000000E+00  0.00000000000E+00  0.43005720611E+03  0.43005720614E+03  0.50400001928E-02 0. -1.
        1   -1    0    0  501    0  0.00000000000E+00  0.00000000000E+00 -0.35811152593E+03  0.35811152597E+03  0.50400001928E-02 0.  1.
    10030    2    1    2    0    0  0.00000000000E+00  0.00000000000E+00  0.71945680178E+02  0.78816873210E+03  0.78487818760E+03 0.  0.
        2    1    3    3  502    0  0.39031093732E+02 -0.13682056226E+03 -0.33129967749E+03  0.36055896722E+03  0.25500000920E-02 0.  1.
       -2    1    3    3    0  502 -0.39031093732E+02  0.13682056226E+03  0.40324535766E+03  0.42760976488E+03  0.25500000920E-02 0. -1.
</event>
<event>
 5   0  0.1177712E-02  0.8920911E+03  0.7818609E-02  0.9435522E-01
       -1   -1    0    0    0  501  0.00000000000E+00  0.00000000000E+00  0.30592811549E+03  0.30592811553E+03  0.50400001928E-02 0.  1.
        1   -1    0    0  501    0  0.00000000000E+00  0.00000000000E+00 -0.65033789933E+03  0.65033789935E+03  0.50400001928E-02 0. -1.
    10030    2    1    2    0    0  0.00000000000E+00  0.00000000000E+00 -0.34440978384E+03  0.95626601488E+03  0.89209113436E+03 0.  0.
        5    1    3    3  502    0  0.13754013988E+03  0.42227884154E+03 -0.12803575728E+03  0.46222500498E+03  0.46999998093E+01 0. -1.
       -5    1    3    3    0  502 -0.13754013988E+03 -0.42227884154E+03 -0.21637402656E+03  0.49404100990E+03  0.46999998093E+01 0.  1.
</event>
<event>
 5   0  0.1226424E-02  0.7688683E+03  0.7818609E-02  0.9606205E-01
       -1   -1    0    0    0  501  0.00000000000E+00  0.00000000000E+00  0.21363197415E+03  0.21363197421E+03  0.50400001928E-02 0. -1.
        1   -1    0    0  501    0  0.00000000000E+00  0.00000000000E+00 -0.69179537083E+03  0.69179537085E+03  0.50400001928E-02 0.  1.
    10030    2    1    2    0    0  0.00000000000E+00  0.00000000000E+00 -0.47816339667E+03  0.90542734506E+03  0.76886828733E+03 0.  0.
        1    1    3    3  502    0  0.36544656026E+03  0.10011060960E+03 -0.31554742221E+03  0.49309583070E+03  0.50400001928E-02 0.  1.
       -1    1    3    3    0  502 -0.36544656026E+03 -0.10011060960E+03 -0.16261597446E+03  0.41233151436E+03  0.50400001928E-02 0. -1.
</event>
<event>
 5   0  0.2041861E-02  0.8975004E+03  0.7818609E-02  0.9428711E-01
        2   -1    0    0  501    0  0.00000000000E+00  0.00000000000E+00  0.18835949690E+04  0.18835949690E+04  0.25500000920E-02 0.  1.
       -2   -1    0    0    0  501  0.00000000000E+00  0.00000000000E+00 -0.10691085838E+03  0.10691085841E+03  0.25500000920E-02 0. -1.
    10030    2    1    2    0    0  0.00000000000E+00  0.00000000000E+00  0.17766841106E+04  0.19905058274E+04  0.89750042899E+03 0.  0.
        5    1    3    3  502    0  0.42493770578E+03 -0.14403829743E+03  0.87511289353E+03  0.98344483899E+03  0.46999998093E+01 0. -1.
       -5    1    3    3    0  502 -0.42493770578E+03  0.14403829743E+03  0.90157121708E+03  0.10070609884E+04  0.46999998093E+01 0.  1.
</event>
<event>
 5   0  0.2008643E-02  0.7652150E+03  0.7818609E-02  0.9611778E-01
       -2   -1    0    0    0  501  0.00000000000E+00  0.00000000000E+00  0.60214088465E+03  0.60214088465E+03  0.25500000920E-02 0. -1.
        2   -1    0    0  501    0  0.00000000000E+00  0.00000000000E+00 -0.24311337424E+03  0.24311337425E+03  0.25500000920E-02 0.  1.
    10030    2    1    2    0    0  0.00000000000E+00  0.00000000000E+00  0.35902751041E+03  0.84525425891E+03  0.76521500833E+03 0.  0.
        3    1    3    3  502    0 -0.31393287195E+03  0.21033144748E+03  0.11328096742E+03  0.39449430119E+03  0.10100000352E+00 0. -1.
       -3    1    3    3    0  502  0.31393287195E+03 -0.21033144748E+03  0.24574654299E+03  0.45075995772E+03  0.10100000352E+00 0.  1.
</event>
<event>
 5   0  0.1924218E-02  0.8974339E+03  0.7818609E-02  0.9428795E-01
        2   -1    0    0  501    0  0.00000000000E+00  0.00000000000E+00  0.81203029299E+03  0.81203029299E+03  0.25500000920E-02 0. -1.
       -2   -1    0    0    0  501  0.00000000000E+00  0.00000000000E+00 -0.24795490195E+03  0.24795490196E+03  0.25500000920E-02 0.  1.
    10030    2    1    2    0    0  0.00000000000E+00  0.00000000000E+00  0.56407539104E+03  0.10599851950E+04  0.89743387877E+03 0.  0.
        4    1    3    3  502    0 -0.10755922307E+03 -0.32784095969E+03  0.62087270678E+03  0.71030501352E+03  0.12699999809E+01 0. -1.
       -4    1    3    3    0  502  0.10755922307E+03  0.32784095969E+03 -0.56797315738E+02  0.34968018144E+03  0.12699999809E+01 0.  1.
</event>
<event>
 5   0  0.2008643E-02  0.8904015E+03  0.7818609E-02  0.9437660E-01
       -2   -1    0    0    0  501  0.00000000000E+00  0.00000000000E+00  0.17661495330E+03  0.17661495331E+03  0.25500000920E-02 0.  1.
        2   -1    0    0  501    0  0.00000000000E+00  0.00000000000E+00 -0.11222362869E+04  0.11222362870E+04  0.25500000920E-02 0. -1.
    10030    2    1    2    0    0  0.00000000000E+00  0.00000000000E+00 -0.94562133365E+03  0.12988512403E+04  0.89040150364E+03 0.  0.
        3    1    3    3  502    0 -0.21842933138E+03  0.36477812295E+03 -0.28022992896E+03  0.50921829806E+03  0.10100000352E+00 0.  1.
       -3    1    3    3    0  502  0.21842933138E+03 -0.36477812295E+03 -0.66539140469E+03  0.78963294221E+03  0.10100000352E+00 0. -1.
</event>
<event>
 5   0  0.1177712E-02  0.9072111E+03  0.7818609E-02  0.9416612E-01
       -1   -1    0    0    0  501  0.00000000000E+00  0.00000000000E+00  0.16874134856E+03  0.16874134864E+03  0.50400001928E-02 0.  1.
        1   -1    0    0  501    0  0.00000000000E+00  0.00000000000E+00 -0.12193691112E+04  0.12193691112E+04  0.50400001928E-02 0. -1.
    10030    2    1    2    0    0  0.00000000000E+00  0.00000000000E+00 -0.10506277626E+04  0.13881104598E+04  0.90721108519E+03 0.  0.
        5    1    3    3  502    0 -0.21380020699E+03 -0.22401337814E+03 -0.10324243955E+04  0.10778751062E+04  0.46999998093E+01 0. -1.
       -5    1    3    3    0  502  0.21380020699E+03  0.22401337814E+03 -0.18203367142E+02  0.31023535367E+03  0.46999998093E+01 0.  1.
</event>
<event>
 5   0  0.1175993E-02  0.9010208E+03  0.7818609E-02  0.9424306E-01
       -1   -1    0    0    0  501  0.00000000000E+00  0.00000000000E+00  0.26197468780E+03  0.26197468785E+03  0.50400001928E-02 0.  1.
        1   -1    0    0  501    0  0.00000000000E+00  0.00000000000E+00 -0.77472995885E+03  0.77472995887E+03  0.50400001928E-02 0. -1.
    10030    2    1    2    0    0  0.00000000000E+00  0.00000000000E+00 -0.51275527106E+03  0.10367046467E+04  0.90102084134E+03 0.  0.
        4    1    3    3  502    0 -0.31515733804E+03 -0.11885298495E+03 -0.60060925704E+03  0.68860966614E+03  0.12699999809E+01 0. -1.
       -4    1    3    3    0  502  0.31515733804E+03  0.11885298495E+03  0.87853985984E+02  0.34809498058E+03  0.12699999809E+01 0.  1.
</event>
<event>
 5   0  0.1177712E-02  0.8988265E+03  0.7818609E-02  0.9427049E-01
        1   -1    0    0  501    0  0.00000000000E+00  0.00000000000E+00  0.12347293843E+04  0.12347293843E+04  0.50400001928E-02 0.  1.
       -1   -1    0    0    0  501  0.00000000000E+00  0.00000000000E+00 -0.16357616005E+03  0.16357616013E+03  0.50400001928E-02 0. -1.
    10030    2    1    2    0    0  0.00000000000E+00  0.00000000000E+00  0.10711532242E+04  0.13983055444E+04  0.89882654933E+03 0.  0.
        5    1    3    3  502    0 -0.21465424950E+03  0.23163529064E+03  0.10329604580E+04  0.10801670021E+04  0.46999998093E+01 0.  1.
       -5    1    3    3    0  502  0.21465424950E+03 -0.23163529064E+03  0.38192766227E+02  0.31813854229E+03  0.46999998093E+01 0. -1.
</event>
<event>
 5   0  0.1175993E-02  0.8984628E+03  0.7818609E-02  0.9427505E-01
       -1   -1    0    0    0  501  0.00000000000E+00  0.00000000000E+00  0.19654462319E+03  0.19654462325E+03  0.50400001928E-02 0.  1.
        1   -1    0    0  501    0  0.00000000000E+00  0.00000000000E+00 -0.10267839876E+04  0.10267839877E+04  0.50400001928E-02 0. -1.
    10030    2    1    2    0    0  0.00000000000E+00  0.00000000000E+00 -0.83023936446E+03  0.12233286109E+04  0.89846284730E+03 0.  0.
        4    1    3    3  502    0  0.44065627091E+03  0.40207141955E+02 -0.30954066292E+03  0.54001073902E+03  0.12699999809E+01 0.  1.
       -4    1    3    3    0  502 -0.44065627091E+03 -0.40207141955E+02 -0.52069870154E+03  0.68331787189E+03  0.12699999809E+01 0. -1.
</event>
<event>
 5   0  0.2008643E-02  0.8946707E+03  0.7818609E-02  0.9432268E-01
       -2   -1    0    0    0  501  0.00000000000E+00  0.00000000000E+00  0.57541272355E+03  0.57541272356E+03  0.25500000920E-02 0. -1.
        2   -1    0    0  501    0  0.00000000000E+00  0.00000000000E+00 -0.34776588643E+03  0.34776588644E+03  0.25500000920E-02 0.  1.
    10030    2    1    2    0    0  0.00000000000E+00  0.00000000000E+00  0.22764683712E+03  0.92317861000E+03  0.89467070116E+03 0.  0.
        3    1    3    3  502    0 -0.35704081951E+02  0.23183455409E+03 -0.27921641261E+03  0.36466951780E+03  0.10100000352E+00 0.  1.
       -3    1    3    3    0  502  0.35704081951E+02 -0.23183455409E+03  0.50686324973E+03  0.55850909220E+03  0.10100000352E+00 0. -1.
</event>
<event>
 5   0  0.1206541E-02  0.9151139E+03  0.7818609E-02  0.9406883E-01
        1   -1    0    0  501    0  0.00000000000E+00  0.00000000000E+00  0.64762612166E+03  0.64762612168E+03  0.50400001928E-02 0. -1.
       -1   -1    0    0    0  501  0.00000000000E+00  0.00000000000E+00 -0.32327039341E+03  0.32327039345E+03  0.50400001928E-02 0.  1.
    10030    2    1    2    0    0  0.00000000000E+00  0.00000000000E+00  0.32435572826E+03  0.97089651513E+03  0.91511387523E+03 0.  0.
        3    1    3    3  502    0  0.65381832443E+02  0.39474660577E+03  0.39764980374E+03  0.56411438857E+03  0.10100000352E+00 0. -1.
       -3    1    3    3    0  502 -0.65381832443E+02 -0.39474660577E+03 -0.73294075482E+02  0.40678212655E+03  0.10100000352E+00 0.  1.
</event>
<event>
 5   0  0.2041861E-02  0.8969812E+03  0.7818609E-02  0.9429363E-01
       -2   -1    0    0    0  501  0.00000000000E+00  0.00000000000E+00  0.24730345921E+03  0.24730345922E+03  0.25500000920E-02 0.  1.
        2   -1    0    0  501    0  0.00000000000E+00  0.00000000000E+00 -0.81334822205E+03  0.81334822205E+03  0.25500000920E-02 0. -1.
    10030    2    1    2    0    0  0.00000000000E+00  0.00000000000E+00 -0.56604476284E+03  0.10606516813E+04  0.89698122358E+03 0.  0.
        5    1    3    3  502    0  0.13092845518E+03 -0.33761111710E+03  0.29825275237E+02  0.36336643187E+03  0.46999998093E+01 0.  1.
       -5    1    3    3    0  502 -0.13092845518E+03  0.33761111710E+03 -0.59587003808E+03  0.69728524941E+03  0.46999998093E+01 0. -1.
</event>
<event>
 5   0  0.2008643E-02  0.9121480E+03  0.7818609E-02  0.9410522E-01
        2   -1    0    0  501    0  0.00000000000E+00  0.00000000000E+00  0.10024795398E+04  0.10024795398E+04  0.25500000920E-02 0. -1.
       -2   -1    0    0    0  501  0.00000000000E+00  0.00000000000E+00 -0.20748903772E+03  0.20748903774E+03  0.25500000920E-02 0.  1.
    10030    2    1    2    0    0  0.00000000000E+00  0.00000000000E+00  0.79499050212E+03  0.12099685776E+04  0.91214804734E+03 0.  0.
        3    1    3    3  502    0 -0.21579779683E+03 -0.27779819345E+03  0.12436351887E+02  0.35198749757E+03  0.10100000352E+00 0.  1.
       -3    1    3    3    0  502  0.21579779683E+03  0.27779819345E+03  0.78255415023E+03  0.85798108000E+03  0.10100000352E+00 0. -1.
</event>
<event>
 5   0  0.1206541E-02  0.7991929E+03  0.7818609E-02  0.9561186E-01
       -1   -1    0    0    0  501  0.00000000000E+00  0.00000000000E+00  0.77763662993E+02  0.77763663157E+02  0.50400001928E-02 0. -1.
        1   -1    0    0  501    0  0.00000000000E+00  0.00000000000E+00 -0.20533665772E+04  0.20533665772E+04  0.50400001928E-02 0.  1.
    10030    2    1    2    0    0  0.00000000000E+00  0.00000000000E+00 -0.19756029142E+04  0.21311302403E+04  0.79919285955E+03 0.  0.
        3    1    3    3  502    0  0.14797316129E+03 -0.11212508717E+03 -0.44226240447E+02  0.19085088991E+03  0.10100000352E+00 0. -1.
       -3    1    3    3    0  502 -0.14797316129E+03  0.11212508717E+03 -0.19313766737E+04  0.19402793504E+04  0.10100000352E+00 0.  1.
</event>
<event>
 5   0  0.1924218E-02  0.8917846E+03  0.7818609E-02  0.9435910E-01
        2   -1    0    0  501    0  0.00000000000E+00  0.00000000000E+00  0.73033282536E+03  0.73033282536E+03  0.25500000920E-02 0.  1.
       -2   -1    0    0    0  501  0.00000000000E+00  0.00000000000E+00 -0.27223195824E+03  0.27223195825E+03  0.25500000920E-02 0. -1.
    10030    2    1    2    0    0  0.00000000000E+00  0.00000000000E+00  0.45810086712E+03  0.10025647836E+04  0.89178458210E+03 0.  0.
        4    1    3    3  502    0  0.30796456321E+03 -0.21910014206E+03 -0.36921062977E+02  0.37975231696E+03  0.12699999809E+01 0. -1.
       -4    1    3    3    0  502 -0.30796456321E+03  0.21910014206E+03  0.49502193010E+03  0.62281246665E+03  0.12699999809E+01 0.  1.
</event>
<event>
 5   0  0.2041861E-02  0.8569409E+03  0.7818609E-02  0.9481068E-01
       -2   -1    0    0    0  501  0.00000000000E+00  0.00000000000E+00  0.41585695410E+03  0.41585695411E+03  0.25500000920E-02 0. -1.
        2   -1    0    0  501    0  0.00000000000E+00  0.00000000000E+00 -0.44146651766E+03  0.44146651767E+03  0.25500000920E-02 0.  1.
    10030    2    1    2    0    0  0.00000000000E+00  0.00000000000E+00 -0.25609563561E+02  0.85732347178E+03  0.85694088800E+03 0.  0.
        5    1    3    3  502    0  0.61394022029E+02  0.17716926650E+03 -0.39821261669E+03  0.44017445748E+03  0.46999998093E+01 0.  1.
       -5    1    3    3    0  502 -0.61394022029E+02 -0.17716926650E+03  0.37260305313E+03  0.41714901430E+03  0.46999998093E+01 0. -1.
</event>
<event>
 5   0  0.1162839E-02  0.9129375E+03  0.7818609E-02  0.9409552E-01
       -1   -1    0    0    0  501  0.00000000000E+00  0.00000000000E+00  0.23298976888E+03  0.23298976894E+03  0.50400001928E-02 0.  1.
        1   -1    0    0  501    0  0.00000000000E+00  0.00000000000E+00 -0.89430414940E+03  0.89430414942E+03  0.50400001928E-02 0. -1.
    10030    2    1    2    0    0  0.00000000000E+00  0.00000000000E+00 -0.66131438052E+03  0.11272939184E+04  0.91293749429E+03 0.  0.
        2    1    3    3  502    0 -0.15824198041E+03  0.29168161520E+03  0.56378852628E+02  0.33659658946E+03  0.25500000920E-02 0.  1.
       -2    1    3    3    0  502  0.15824198041E+03 -0.29168161520E+03 -0.71769323315E+03  0.79069732889E+03  0.25500000920E-02 0. -1.
</event>
<event>
 5   0  0.1175993E-02  0.7719427E+03  0.7818609E-02  0.9601541E-01
       -1   -1    0    0    0  501  0.00000000000E+00  0.00000000000E+00  0.16210780122E+03  0.16210780130E+03  0.50400001928E-02 0. -1.
        1   -1    0    0  501    0  0.00000000000E+00  0.00000000000E+00 -0.91898034242E+03  0.91898034243E+03  0.50400001928E-02 0.  1.
    10030    2    1    2    0    0  0.00000000000E+00  0.00000000000E+00 -0.75687254120E+03  0.10810881437E+04  0.77194269923E+03 0.  0.
        4    1    3    3  502    0  0.37811845896E+02 -0.15294166494E+03  0.11502357461E+03  0.19507158733E+03  0.12699999809E+01 0. -1.
       -4    1    3    3    0  502 -0.37811845896E+02  0.15294166494E+03 -0.87189611581E+03  0.88601655641E+03  0.12699999809E+01 0.  1.
</event>
<event>
 5   0  0.1206541E-02  0.8980686E+03  0.7818609E-02  0.9427999E-01
       -1   -1    0    0    0  501  0.00000000000E+00  0.00000000000E+00  0.43599453800E+03  0.43599453803E+03  0.50400001928E-02 0. -1.
        1   -1    0    0  501    0  0.00000000000E+00  0.00000000000E+00 -0.46246409388E+03  0.46246409391E+03  0.50400001928E-02 0.  1.
    10030    2    1    2    0    0  0.00000000000E+00  0.00000000000E+00 -0.26469555882E+02  0.89845863194E+03  0.89806863653E+03 0.  0.
        3    1    3    3  502    0  0.36976006557E+03 -0.13755482006E+03 -0.22777597287E+03  0.45554992990E+03  0.10100000352E+00 0.  1.
       -3    1    3    3    0  502 -0.36976006557E+03  0.13755482006E+03  0.20130641699E+03  0.44290870203E+03  0.10100000352E+00 0. -1.
</event>
<event>
 5   0  0.1177712E-02  0.9231149E+03  0.7818609E-02  0.9397139E-01
        1   -1    0    0  501    0  0.00000000000E+00  0.00000000000E+00  0.10692252991E+04  0.10692252991E+04  0.50400001928E-02 0.  1.
       -1   -1    0    0    0  501  0.00000000000E+00  0.00000000000E+00 -0.19924266242E+03  0.19924266248E+03  0.50400001928E-02 0. -1.
    10030    2    1    2    0    0  0.00000000000E+00  0.00000000000E+00  0.86998263663E+03  0.12684679615E+04  0.92311493403E+03 0.  0.
        5    1    3    3  502    0 -0.23047289240E+03 -0.32034613586E+03  0.10613836859E+03  0.40868917795E+03  0.46999998093E+01 0. -1.
       -5    1    3    3    0  502  0.23047289240E+03  0.32034613586E+03  0.76384426805E+03  0.85977878359E+03  0.46999998093E+01 0.  1.
</event>
<event>
 5   0  0.2008770E-02  0.9048290E+03  0.7818609E-02  0.9419565E-01
       -2   -1    0    0    0  501  0.00000000000E+00  0.00000000000E+00  0.43584016174E+03  0.43584016175E+03  0.25500000920E-02 0. -1.
        2   -1    0    0  501    0  0.00000000000E+00  0.00000000000E+00 -0.46961914627E+03  0.46961914628E+03  0.25500000920E-02 0.  1.
    10030    2    1    2    0    0  0.00000000000E+00  0.00000000000E+00 -0.33778984533E+02  0.90545930802E+03  0.90482901075E+03 0.  0.
        1    1    3    3  502    0 -0.87515399044E+02  0.71027996194E+02  0.42156519547E+03  0.43637270237E+03  0.50400001928E-02 0. -1.
       -1    1    3    3    0  502  0.87515399044E+02 -0.71027996194E+02 -0.45534418001E+03  0.46908660565E+03  0.50400001928E-02 0.  1.
</event>
<event>
 5   0  0.1226424E-02  0.9039738E+03  0.7818609E-02  0.9420628E-01
       -1   -1    0    0    0  501  0.00000000000E+00  0.00000000000E+00  0.30164818615E+03  0.30164818619E+03  0.50400001928E-02 0. -1.
        1   -1    0    0  501    0  0.00000000000E+00  0.00000000000E+00 -0.67725302353E+03  0.67725302355E+03  0.50400001928E-02 0.  1.
    10030    2    1    2    0    0  0.00000000000E+00  0.00000000000E+00 -0.37560483738E+03  0.97890120974E+03  0.90397377427E+03 0.  0.
        1    1    3    3  502    0  0.39040152173E+03  0.22092406776E+03 -0.24781578499E+03  0.51247776069E+03  0.50400001928E-02 0.  1.
       -1    1    3    3    0  502 -0.39040152173E+03 -0.22092406776E+03 -0.12778905239E+03  0.46642344905E+03  0.50400001928E-02 0. -1.
</event>
<event>
 5   0  0.2008770E-02  0.8562061E+03  0.7818609E-02  0.9482045E-01
        2   -1    0    0  501    0  0.00000000000E+00  0.00000000000E+00  0.17224677264E+04  0.17224677264E+04  0.25500000920E-02 0.  1.
       -2   -1    0    0    0  501  0.00000000000E+00  0.00000000000E+00 -0.10640097072E+03  0.10640097075E+03  0.25500000920E-02 0. -1.
    10030    2    1    2    0    0  0.00000000000E+00  0.00000000000E+00  0.16160667557E+04  0.18288686972E+04  0.85620613909E+03 0.  0.
        1    1    3    3  502    0 -0.35658526235E+03 -0.75151540086E+02  0.12879071510E+04  0.13384713792E+04  0.50400001928E-02 0.  1.
       -1    1    3    3    0  502  0.35658526235E+03  0.75151540086E+02  0.32815960471E+03  0.49039731798E+03  0.50400001928E-02 0. -1.
</event>
<event>
 5   0  0.1206541E-02  0.9093463E+03  0.7818609E-02  0.9413973E-01
       -1   -1    0    0    0  501  0.00000000000E+00  0.00000000000E+00  0.31746053066E+03  0.31746053070E+03  0.50400001928E-02 0. -1.
        1   -1    0    0  501    0  0.00000000000E+00  0.00000000000E+00 -0.65119174706E+03  0.65119174708E+03  0.50400001928E-02 0.  1.
    10030    2    1    2    0    0  0.00000000000E+00  0.00000000000E+00 -0.33373121641E+03  0.96865227778E+03  0.90934630942E+03 0.  0.
        3    1    3    3  502    0 -0.21204142325E+03  0.56567095522E+02 -0.59103955977E+03  0.63046742413E+03  0.10100000352E+00 0.  1.
       -3    1    3    3    0  502  0.21204142325E+03 -0.56567095522E+02  0.25730834337E+03  0.33818485365E+03  0.10100000352E+00 0. -1.
</event>
<event>
 5   0  0.1162839E-02  0.9085945E+03  0.7818609E-02  0.9414901E-01
       -1   -1    0    0    0  501  0.00000000000E+00  0.00000000000E+00  0.43781194756E+03  0.43781194759E+03  0.50400001928E-02 0. -1.
        1   -1    0    0  501    0  0.00000000000E+00  0.00000000000E+00 -0.47140325864E+03  0.47140325867E+03  0.50400001928E-02 0.  1.
    10030    2    1    2    0    0  0.00000000000E+00  0.00000000000E+00 -0.33591311088E+02  0.90921520626E+03  0.90859447231E+03 0.  0.
        2    1    3    3  502    0 -0.59334847257E+02  0.14607446662E+03 -0.44314729657E+03  0.47035933111E+03  0.25500000920E-02 0.  1.
       -2    1    3    3    0  502  0.59334847257E+02 -0.14607446662E+03  0.40955598548E+03  0.43885587515E+03  0.25500000920E-02 0. -1.
</event>
<event>
 5   0  0.1177712E-02  0.8998122E+03  0.7818609E-02  0.9425816E-01
       -1   -1    0    0    0  501  0.00000000000E+00  0.00000000000E+00  0.23504563056E+03  0.23504563062E+03  0.50400001928E-02 0. -1.
        1   -1    0    0  501    0  0.00000000000E+00  0.00000000000E+00 -0.86117536169E+03  0.86117536171E+03  0.50400001928E-02 0.  1.
    10030    2    1    2    0    0  0.00000000000E+00  0.00000000000E+00 -0.62612973113E+03  0.10962209923E+04  0.89981221586E+03 0.  0.
        5    1    3    3  502    0 -0.18940559395E+03 -0.28927910845E+03 -0.66370142000E+03  0.74838395661E+03  0.46999998093E+01 0.  1.
       -5    1    3    3    0  502  0.18940559395E+03  0.28927910845E+03  0.37571688872E+02  0.34783703571E+03  0.46999998093E+01 0. -1.
</event>
<event>
 5   0  0.2041861E-02  0.9178149E+03  0.7818609E-02  0.9403582E-01
        2   -1    0    0  501    0  0.00000000000E+00  0.00000000000E+00  0.59027301903E+03  0.59027301904E+03  0.25500000920E-02 0. -1.
       -2   -1    0    0    0  501  0.00000000000E+00  0.00000000000E+00 -0.35677738573E+03  0.35677738574E+03  0.25500000920E-02 0.  1.
    10030    2    1    2    0    0  0.00000000000E+00  0.00000000000E+00  0.23349563330E+03  0.94705040478E+03  0.91781493691E+03 0.  0.
        5    1    3    3  502    0 -0.61907995535E+02  0.93514719740E+02  0.57588935909E+03  0.58672672227E+03  0.46999998093E+01 0. -1.
       -5    1    3    3    0  502  0.61907995535E+02 -0.93514719740E+02 -0.34239372579E+03  0.36032368251E+03  0.46999998093E+01 0.  1.
</event>
<event>
 5   0  0.2041861E-02  0.8978068E+03  0.7818609E-02  0.9428327E-01
        2   -1    0    0  501    0  0.00000000000E+00  0.00000000000E+00  0.27258086682E+03  0.27258086683E+03  0.25500000920E-02 0. -1.
       -2   -1    0    0    0  501  0.00000000000E+00  0.00000000000E+00 -0.73928244735E+03  0.73928244735E+03  0.25500000920E-02 0.  1.
    10030    2    1    2    0    0  0.00000000000E+00  0.00000000000E+00 -0.46670158053E+03  0.10118633142E+04  0.89780677281E+03 0.  0.
        5    1    3    3  502    0 -0.12582968113E+02 -0.44834813928E+03 -0.21325990817E+03  0.49666514224E+03  0.46999998093E+01 0. -1.
       -5    1    3    3    0  502  0.12582968113E+02  0.44834813928E+03 -0.25344167236E+03  0.51519817194E+03  0.46999998093E+01 0.  1.
</event>
<event>
 5   0  0.2041861E-02  0.8864170E+03  0.7818609E-02  0.9442722E-01
       -2   -1    0    0    0  501  0.00000000000E+00  0.00000000000E+00  0.18064963351E+03  0.18064963353E+03  0.25500000920E-02 0.  1.
        2   -1    0    0  501    0  0.00000000000E+00  0.00000000000E+00 -0.10873742370E+04  0.10873742370E+04  0.25500000920E-02 0. -1.
    10030    2    1    2    0    0  0.00000000000E+00  0.00000000000E+00 -0.90672460344E+03  0.12680238705E+04  0.88641696150E+03 0.  0.
        5    1    3    3  502    0 -0.34886931858E+03  0.13250758122E+03 -0.79532063864E+03  0.87853575270E+03  0.46999998093E+01 0. -1.
       -5    1    3    3    0  502  0.34886931858E+03 -0.13250758122E+03 -0.11140396480E+03  0.38948811779E+03  0.46999998093E+01 0.  1.
</event>
<event>
 5   0  0.1175993E-02  0.8893239E+03  0.7818609E-02  0.9439026E-01
        1   -1    0    0  501    0  0.00000000000E+00  0.00000000000E+00  0.88875600743E+03  0.88875600744E+03  0.50400001928E-02 0.  1.
       -1   -1    0    0    0  501  0.00000000000E+00  0.00000000000E+00 -0.22247302290E+03  0.22247302295E+03  0.50400001928E-02 0. -1.
    10030    2    1    2    0    0  0.00000000000E+00  0.00000000000E+00  0.66628298453E+03  0.11112290304E+04  0.88932386818E+03 0.  0.
        4    1    3    3  502    0  0.28384499300E+03  0.20644559499E+03  0.67427418896E+03  0.76015462804E+03  0.12699999809E+01 0.  1.
       -4    1    3    3    0  502 -0.28384499300E+03 -0.20644559499E+03 -0.79912044275E+01  0.35107440235E+03  0.12699999809E+01 0. -1.
</event>
<event>
 5   0  0.1968763E-02  0.8984357E+03  0.7818609E-02  0.9427539E-01
       -2   -1    0    0    0  501  0.00000000000E+00  0.00000000000E+00  0.48142685182E+03  0.48142685183E+03  0.25500000920E-02 0. -1.
        2   -1    0    0  501    0  0.00000000000E+00  0.00000000000E+00 -0.41916368718E+03  0.41916368719E+03  0.25500000920E-02 0.  1.
    10030    2    1    2    0    0  0.00000000000E+00  0.00000000000E+00  0.62263164642E+02  0.90059053902E+03  0.89843565006E+03 0.  0.
        2    1    3    3  502    0 -0.43884257609E+03  0.87705442634E+02 -0.79697081028E+01  0.44759196542E+03  0.25500000920E-02 0.  1.
       -2    1    3    3    0  502  0.43884257609E+03 -0.87705442634E+02  0.70232872745E+02  0.45299857359E+03  0.25500000920E-02 0. -1.
</event>
<event>
 5   0  0.2008643E-02  0.8891411E+03  0.7818609E-02  0.9439258E-01
        2   -1    0    0  501    0  0.00000000000E+00  0.00000000000E+00  0.13969899054E+03  0.13969899056E+03  0.25500000920E-02 0. -1.
       -2   -1    0    0    0  501  0.00000000000E+00  0.00000000000E+00 -0.14147772392E+04  0.14147772392E+04  0.25500000920E-02 0.  1.
    10030    2    1    2    0    0  0.00000000000E+00  0.00000000000E+00 -0.12750782487E+04  0.15544762298E+04  0.88914105107E+03 0.  0.
        3    1    3    3  502    0 -0.34709380007E+03  0.27426399183E+03 -0.56037438324E+03  0.71394278682E+03  0.10100000352E+00 0.  1.
       -3    1    3    3    0  502  0.34709380007E+03 -0.27426399183E+03 -0.71470386542E+03  0.84053344294E+03  0.10100000352E+00 0. -1.
</event>
<event>
 5   0  0.1226424E-02  0.8865436E+03  0.7818609E-02  0.9442561E-01
       -1   -1    0    0    0  501  0.00000000000E+00  0.00000000000E+00  0.50513007605E+03  0.50513007608E+03  0.50400001928E-02 0. -1.
        1   -1    0    0  501    0  0.00000000000E+00  0.00000000000E+00 -0.38898872299E+03  0.38898872302E+03  0.50400001928E-02 0.  1.
    10030    2    1    2    0    0  0.00000000000E+00  0.00000000000E+00  0.11614135307E+03  0.89411879910E+03  0.88654363288E+03 0.  0.
        1    1    3    3  502    0  0.40500429056E+03 -0.13660215974E+03  0.17655332678E+03  0.46244967579E+03  0.50400001928E-02 0.  1.
       -1    1    3    3    0  502 -0.40500429056E+03  0.13660215974E+03 -0.60411973711E+02  0.43166912330E+03  0.50400001928E-02 0. -1.
</event>
<event>
 5   0  0.2008643E-02  0.8951816E+03  0.7818609E-02  0.9431625E-01
       -2   -1    0    0    0  501  0.00000000000E+00  0.00000000000E+00  0.12712293445E+03  0.12712293447E+03  0.25500000920E-02 0.  1.
        2   -1    0    0  501    0  0.00000000000E+00  0.00000000000E+00 -0.15759353297E+04  0.15759353297E+04  0.25500000920E-02 0. -1.
    10030    2    1    2    0    0  0.00000000000E+00  0.00000000000E+00 -0.14488123952E+04  0.17030582641E+04  0.89518159862E+03 0.  0.
        3    1    3    3  502    0 -0.19231282804E+03 -0.10479974938E+03  0.18217021969E+02  0.21977051984E+03  0.10100000352E+00 0.  1.
       -3    1    3    3    0  502  0.19231282804E+03  0.10479974938E+03 -0.14670294172E+04  0.14832877443E+04  0.10100000352E+00 0. -1.
</event>
<event>
 5   0  0.1175993E-02  0.9025546E+03  0.7818609E-02  0.9422394E-01
        1   -1    0    0  501    0  0.00000000000E+00  0.00000000000E+00  0.42909393680E+03  0.42909393683E+03  0.50400001928E-02 0.  1.
       -1   -1    0    0    0  501  0.00000000000E+00  0.00000000000E+00 -0.47460751990E+03  0.47460751992E+03  0.50400001928E-02 0. -1.
    10030    2    1    2    0    0  0.00000000000E+00  0.00000000000E+00 -0.45513583096E+02  0.90370145675E+03  0.90255461701E+03 0.  0.
        4    1    3    3  502    0 -0.32643977578E+03  0.95249244011E+02  0.27429213539E+03  0.43689029989E+03  0.12699999809E+01 0.  1.
       -4    1    3    3    0  502  0.32643977578E+03 -0.95249244011E+02 -0.31980571849E+03  0.46681115687E+03  0.12699999809E+01 0. -1.
</event>
<event>
 5   0  0.2041861E-02  0.9169401E+03  0.7818609E-02  0.9404650E-01
        2   -1    0    0  501    0  0.00000000000E+00  0.00000000000E+00  0.22129988464E+04  0.22129988464E+04  0.25500000920E-02 0.  1.
       -2   -1    0    0    0  501  0.00000000000E+00  0.00000000000E+00 -0.94981868447E+02  0.94981868481E+02  0.25500000920E-02 0. -1.
    10030    2    1    2    0    0  0.00000000000E+00  0.00000000000E+00  0.21180169779E+04  0.23079807148E+04  0.91694005331E+03 0.  0.
        5    1    3    3  502    0  0.34909653798E+03  0.26465851475E+03  0.71887966388E+03  0.84185662877E+03  0.46999998093E+01 0. -1.
       -5    1    3    3    0  502 -0.34909653798E+03 -0.26465851475E+03  0.13991373140E+04  0.14661240861E+04  0.46999998093E+01 0.  1.
</event>
<event>
 5   0  0.1206541E-02  0.8843287E+03  0.7818609E-02  0.9445386E-01
       -1   -1    0    0    0  501  0.00000000000E+00  0.00000000000E+00  0.58070841284E+03  0.58070841286E+03  0.50400001928E-02 0.  1.
        1   -1    0    0  501    0  0.00000000000E+00  0.00000000000E+00 -0.33667379982E+03  0.33667379986E+03  0.50400001928E-02 0. -1.
    10030    2    1    2    0    0  0.00000000000E+00  0.00000000000E+00  0.24403461302E+03  0.91738221272E+03  0.88432868994E+03 0.  0.
        3    1    3    3  502    0 -0.28205316351E+02 -0.23297482808E+03  0.51077283619E+03  0.56210471514E+03  0.10100000352E+00 0.  1.
       -3    1    3    3    0  502  0.28205316351E+02  0.23297482808E+03 -0.26673822317E+03  0.35527749758E+03  0.10100000352E+00 0. -1.
</event>
<event>
 5   0  0.1968763E-02  0.8996171E+03  0.7818609E-02  0.9426060E-01
       -2   -1    0    0    0  501  0.00000000000E+00  0.00000000000E+00  0.19466880386E+03  0.19466880388E+03  0.25500000920E-02 0. -1.
        2   -1    0    0  501    0  0.00000000000E+00  0.00000000000E+00 -0.10393433466E+04  0.10393433466E+04  0.25500000920E-02 0.  1.
    10030    2    1    2    0    0  0.00000000000E+00  0.00000000000E+00 -0.84467454272E+03  0.12340121505E+04  0.89961708763E+03 0.  0.
        2    1    3    3  502    0 -0.19224238660E+03 -0.19115961554E+03  0.70005845313E+02  0.27999991465E+03  0.25500000920E-02 0. -1.
       -2    1    3    3    0  502  0.19224238660E+03  0.19115961554E+03 -0.91468038803E+03  0.95401223581E+03  0.25500000920E-02 0.  1.
</event>
<event>
 5   0  0.1177712E-02  0.7808558E+03  0.7818609E-02  0.9588149E-01
       -1   -1    0    0    0  501  0.00000000000E+00  0.00000000000E+00  0.10598897226E+04  0.10598897226E+04  0.50400001928E-02 0. -1.
        1   -1    0    0  501    0  0.00000000000E+00  0.00000000000E+00 -0.14382056712E+03  0.14382056721E+03  0.50400001928E-02 0.  1.
    10030    2    1    2    0    0  0.00000000000E+00  0.00000000000E+00  0.91606915543E+03  0.12037102898E+04  0.78085578961E+03 0.  0.
        5    1    3    3  502    0 -0.29958678670E+03 -0.41708548863E+02  0.83851393941E+03  0.89141436066E+03  0.46999998093E+01 0.  1.
       -5    1    3    3    0  502  0.29958678670E+03  0.41708548863E+02  0.77555216029E+02  0.31229592912E+03  0.46999998093E+01 0. -1.
</event>
<event>
 5   0  0.1162839E-02  0.9080302E+03  0.7818609E-02  0.9415599E-01
        1   -1    0    0  501    0  0.00000000000E+00  0.00000000000E+00  0.42914366236E+03  0.42914366239E+03  0.50400001928E-02 0. -1.
       -1   -1    0    0    0  501  0.00000000000E+00  0.00000000000E+00 -0.48032801525E+03  0.48032801528E+03  0.50400001928E-02 0.  1.
    10030    2    1    2    0    0  0.00000000000E+00  0.00000000000E+00 -0.51184352894E+02  0.90947167767E+03  0.90803022775E+03 0.  0.
        2    1    3    3  502    0 -0.25823952929E+03 -0.36311801502E+03 -0.11283599877E+03  0.45964585275E+03  0.25500000920E-02 0.  1.
       -2    1    3    3    0  502  0.25823952929E+03  0.36311801502E+03  0.61651645880E+02  0.44982582492E+03  0.25500000920E-02 0. -1.
</event>
<event>
 5   0  0.1177712E-02  0.8880360E+03  0.7818609E-02  0.9440662E-01
       -1   -1    0    0    0  501  0.00000000000E+00  0.00000000000E+00  0.92096825887E+03  0.92096825889E+03  0.50400001928E-02 0.  1.
        1   -1    0    0  501    0  0.00000000000E+00  0.00000000000E+00 -0.21407031858E+03  0.21407031864E+03  0.50400001928E-02 0. -1.
    10030    2    1    2    0    0  0.00000000000E+00  0.00000000000E+00  0.70689794029E+03  0.11350385775E+04  0.88803596463E+03 0.  0.
        5    1    3    3  502    0  0.20942676690E+03  0.20949938644E+03  0.77616591075E+03  0.83078587772E+03  0.46999998093E+01 0.  1.
       -5    1    3    3    0  502 -0.20942676690E+03 -0.20949938644E+03 -0.69267970456E+02  0.30425269981E+03  0.46999998093E+01 0. -1.
</event>
<event>
 5   0  0.2008643E-02  0.9496889E+03  0.7818609E-02  0.9365514E-01
        2   -1    0    0  501    0  0.00000000000E+00  0.00000000000E+00  0.78893903374E+03  0.78893903375E+03  0.25500000920E-02 0.  1.
       -2   -1    0    0    0  501  0.00000000000E+00  0.00000000000E+00 -0.28579807292E+03  0.28579807293E+03  0.25500000920E-02 0. -1.
    10030    2    1    2    0    0  0.00000000000E+00  0.00000000000E+00  0.50314096082E+03  0.10747371067E+04  0.94968890802E+03 0.  0.
        3    1    3    3  502    0 -0.86042222833E+02  0.37288491306E+03 -0.66570144495E+02  0.38843019558E+03  0.10100000352E+00 0. -1.
       -3    1    3    3    0  502  0.86042222833E+02 -0.37288491306E+03  0.56971110532E+03  0.68630691110E+03  0.10100000352E+00 0.  1.
</event>
<event>
 5   0  0.1177712E-02  0.9094708E+03  0.7818609E-02  0.9413819E-01
        1   -1    0    0  501    0  0.00000000000E+00  0.00000000000E+00  0.10538822464E+04  0.10538822464E+04  0.50400001928E-02 0.  1.
       -1   -1    0    0    0  501  0.00000000000E+00  0.00000000000E+00 -0.19621196395E+03  0.19621196401E+03  0.50400001928E-02 0. -1.
    10030    2    1    2    0    0  0.00000000000E+00  0.00000000000E+00  0.85767028243E+03  0.12500942104E+04  0.90947084699E+03 0.  0.
        5    1    3    3  502    0  0.10989435582E+03 -0.32667613464E+03  0.83651258983E+03  0.90474829059E+03  0.46999998093E+01 0.  1.
       -5    1    3    3    0  502 -0.10989435582E+03  0.32667613464E+03  0.21157692608E+02  0.34534591982E+03  0.46999998093E+01 0. -1.
</event>
<event>
 5   0  0.2008770E-02  0.9346337E+03  0.7818609E-02  0.9383294E-01
        2   -1    0    0  501    0  0.00000000000E+00  0.00000000000E+00  0.27666085902E+03  0.27666085903E+03  0.25500000920E-02 0. -1.
       -2   -1    0    0    0  501  0.00000000000E+00  0.00000000000E+00 -0.78936007304E+03  0.78936007304E+03  0.25500000920E-02 0.  1.
    10030    2    1    2    0    0  0.00000000000E+00  0.00000000000E+00 -0.51269921402E+03  0.10660209321E+04  0.93463369486E+03 0.  0.
        1    1    3    3  502    0  0.35574603101E+03 -0.20212402733E+03 -0.51386653958E+03  0.65686237640E+03  0.50400001928E-02 0.  1.
       -1    1    3    3    0  502 -0.35574603101E+03  0.20212402733E+03  0.11673255651E+01  0.40915855567E+03  0.50400001928E-02 0. -1.
</event>
<event>
 5   0  0.2041861E-02  0.8914595E+03  0.7818609E-02  0.9436321E-01
        2   -1    0    0  501    0  0.00000000000E+00  0.00000000000E+00  0.12645242288E+04  0.12645242288E+04  0.25500000920E-02 0.  1.
       -2   -1    0    0    0  501  0.00000000000E+00  0.00000000000E+00 -0.15711443682E+03  0.15711443684E+03  0.25500000920E-02 0. -1.
    10030    2    1    2    0    0  0.00000000000E+00  0.00000000000E+00  0.11074097919E+04  0.14216386656E+04  0.89145950455E+03 0.  0.
        5    1    3    3  502    0 -0.14372822769E+03 -0.33196291777E+03  0.96893497827E+03  0.10342699185E+04  0.46999998093E+01 0.  1.
       -5    1    3    3    0  502  0.14372822769E+03  0.33196291777E+03  0.13847481367E+03  0.38736874710E+03  0.46999998093E+01 0. -1.
</event>
<event>
 5   0  0.2041861E-02  0.9028818E+03  0.7818609E-02  0.9421986E-01
       -2   -1    0    0    0  501  0.00000000000E+00  0.00000000000E+00  0.79211002556E+03  0.79211002556E+03  0.25500000920E-02 0. -1.
        2   -1    0    0  501    0  0.00000000000E+00  0.00000000000E+00 -0.25728605906E+03  0.25728605907E+03  0.25500000920E-02 0.  1.
    10030    2    1    2    0    0  0.00000000000E+00  0.00000000000E+00  0.53482396650E+03  0.10493960846E+04  0.90288175709E+03 0.  0.
        5    1    3    3  502    0 -0.42370937461E+03 -0.12795561058E+03  0.16427363386E+03  0.47213365607E+03  0.46999998093E+01 0. -1.
       -5    1    3    3    0  502  0.42370937461E+03  0.12795561058E+03  0.37055033264E+03  0.57726242856E+03  0.46999998093E+01 0.  1.
</event>
<event>
 5   0  0.1206541E-02  0.9024978E+03  0.7818609E-02  0.9422464E-01
       -1   -1    0    0    0  501  0.00000000000E+00  0.00000000000E+00  0.33129852178E+03  0.33129852182E+03  0.50400001928E-02 0.  1.
        1   -1    0    0  501    0  0.00000000000E+00  0.00000000000E+00 -0.61462866099E+03  0.61462866101E+03  0.50400001928E-02 0. -1.
    10030    2    1    2    0    0  0.00000000000E+00  0.00000000000E+00 -0.28333013921E+03  0.94592718282E+03  0.90249779358E+03 0.  0.
        3    1    3    3  502    0  0.40189094741E+02  0.14325553492E+03 -0.58817981732E+03  0.60670653477E+03  0.10100000352E+00 0. -1.
       -3    1    3    3    0  502 -0.40189094741E+02 -0.14325553492E+03  0.30484967811E+03  0.33922064806E+03  0.10100000352E+00 0.  1.
</event>
<event>
 5   0  0.1177712E-02  0.9310026E+03  0.7818609E-02  0.9387635E-01
        1   -1    0    0  501    0  0.00000000000E+00  0.00000000000E+00  0.33562200959E+03  0.33562200963E+03  0.50400001928E-02 0.  1.
       -1   -1    0    0    0  501  0.00000000000E+00  0.00000000000E+00 -0.64564133829E+03  0.64564133831E+03  0.50400001928E-02 0. -1.
    10030    2    1    2    0    0  0.00000000000E+00  0.00000000000E+00 -0.31001932870E+03  0.98126334793E+03  0.93100256382E+03 0.  0.
        5    1    3    3  502    0 -0.20802152581E+03  0.15146175558E+03 -0.56383619702E+03  0.61979590646E+03  0.46999998093E+01 0. -1.
       -5    1    3    3    0  502  0.20802152581E+03 -0.15146175558E+03  0.25381686831E+03  0.36146744147E+03  0.46999998093E+01 0.  1.
</event>
<event>
 5   0  0.2041861E-02  0.9071491E+03  0.7818609E-02  0.9416689E-01
       -2   -1    0    0    0  501  0.00000000000E+00  0.00000000000E+00  0.12254342612E+04  0.12254342612E+04  0.25500000920E-02 0.  1.
        2   -1    0    0  501    0  0.00000000000E+00  0.00000000000E+00 -0.16788322867E+03  0.16788322869E+03  0.25500000920E-02 0. -1.
    10030    2    1    2    0    0  0.00000000000E+00  0.00000000000E+00  0.10575510325E+04  0.13933174899E+04  0.90714907333E+03 0.  0.
        5    1    3    3  502    0  0.15180428716E+03  0.14301251451E+03 -0.89826183414E+02  0.22712981779E+03  0.46999998093E+01 0. -1.
       -5    1    3    3    0  502 -0.15180428716E+03 -0.14301251451E+03  0.11473772159E+04  0.11661876721E+04  0.46999998093E+01 0.  1.
</event>
<event>
 5   0  0.1162839E-02  0.9170909E+03  0.7818609E-02  0.9404466E-01
       -1   -1    0    0    0  501  0.00000000000E+00  0.00000000000E+00  0.76792922359E+03  0.76792922361E+03  0.50400001928E-02 0.  1.
        1   -1    0    0  501    0  0.00000000000E+00  0.00000000000E+00 -0.27380640681E+03  0.27380640685E+03  0.50400001928E-02 0. -1.
    10030    2    1    2    0    0  0.00000000000E+00  0.00000000000E+00  0.49412281678E+03  0.10417356305E+04  0.91709092554E+03 0.  0.
        2    1    3    3  502    0  0.39541743343E+03  0.17110886939E+03  0.68789080022E+02  0.43630852545E+03  0.25500000920E-02 0. -1.
       -2    1    3    3    0  502 -0.39541743343E+03 -0.17110886939E+03  0.42533373676E+03  0.60542710501E+03  0.25500000920E-02 0.  1.
</event>
<event>
 5   0  0.2008770E-02  0.8958933E+03  0.7818609E-02  0.9430730E-01
        2   -1    0    0  501    0  0.00000000000E+00  0.00000000000E+00  0.83448866318E+03  0.83448866319E+03  0.25500000920E-02 0. -1.
       -2   -1    0    0    0  501  0.00000000000E+00  0.00000000000E+00 -0.24045408032E+03  0.24045408034E+03  0.25500000920E-02 0.  1.
    10030    2    1    2    0    0  0.00000000000E+00  0.00000000000E+00  0.59403458286E+03  0.10749427435E+04  0.89589330627E+03 0.  0.
        1    1    3    3  502    0 -0.42817156590E+03  0.96741979743E+02  0.18992518385E+03  0.47829015877E+03  0.50400001928E-02 0.  1.
       -1    1    3    3    0  502  0.42817156590E+03 -0.96741979743E+02  0.40410939901E+03  0.59665258475E+03  0.50400001928E-02 0. -1.
</event>
<event>
 5   0  0.1177712E-02  0.9100140E+03  0.7818609E-02  0.9413149E-01
        1   -1    0    0  501    0  0.00000000000E+00  0.00000000000E+00  0.20735368591E+03  0.20735368597E+03  0.50400001928E-02 0.  1.
       -1   -1    0    0    0  501  0.00000000000E+00  0.00000000000E+00 -0.99844555105E+03  0.99844555106E+03  0.50400001928E-02 0. -1.
    10030    2    1    2    0    0  0.00000000000E+00  0.00000000000E+00 -0.79109186514E+03  0.12057992370E+04  0.91001398942E+03 0.  0.
        5    1    3    3  502    0  0.34214818099E+03 -0.27740154437E+03 -0.54657816193E+03  0.70198772900E+03  0.46999998093E+01 0. -1.
       -5    1    3    3    0  502 -0.34214818099E+03  0.27740154437E+03 -0.24451370321E+03  0.50381150804E+03  0.46999998093E+01 0.  1.
</event>
<event>
 5   0  0.1226424E-02  0.8242491E+03  0.7818609E-02  0.9525566E-01
        1   -1    0    0  501    0  0.00000000000E+00  0.00000000000E+00  0.10829083958E+03  0.10829083970E+03  0.50400001928E-02 0. -1.
       -1   -1    0    0    0  501  0.00000000000E+00  0.00000000000E+00 -0.15684303033E+04  0.15684303033E+04  0.50400001928E-02 0.  1.
    10030    2    1    2    0    0  0.00000000000E+00  0.00000000000E+00 -0.14601394637E+04  0.16767211430E+04  0.82424907515E+03 0.  0.
        1    1    3    3  502    0 -0.37866679137E+03 -0.10090999456E+03 -0.47055234829E+03  0.61236498789E+03  0.50400001928E-02 0. -1.
       -1    1    3    3    0  502  0.37866679137E+03  0.10090999456E+03 -0.98958711538E+03  0.10643561551E+04  0.50400001928E-02 0.  1.
</event>
<event>
 5   0  0.1226424E-02  0.8874262E+03  0.7818609E-02  0.9441437E-01
        1   -1    0    0  501    0  0.00000000000E+00  0.00000000000E+00  0.28651817723E+03  0.28651817727E+03  0.50400001928E-02 0. -1.
       -1   -1    0    0    0  501  0.00000000000E+00  0.00000000000E+00 -0.68715128189E+03  0.68715128191E+03  0.50400001928E-02 0.  1.
    10030    2    1    2    0    0  0.00000000000E+00  0.00000000000E+00 -0.40063310466E+03  0.97366945918E+03  0.88742623986E+03 0.  0.
        1    1    3    3  502    0  0.40133447171E+03 -0.10757412805E+03 -0.37113848564E+03  0.55712236246E+03  0.50400001928E-02 0.  1.
       -1    1    3    3    0  502 -0.40133447171E+03  0.10757412805E+03 -0.29494619018E+02  0.41654709672E+03  0.50400001928E-02 0. -1.
</event>
<event>
 5   0  0.1162839E-02  0.9010236E+03  0.7818609E-02  0.9424303E-01
        1   -1    0    0  501    0  0.00000000000E+00  0.00000000000E+00  0.80801633254E+03  0.80801633256E+03  0.50400001928E-02 0. -1.
       -1   -1    0    0    0  501  0.00000000000E+00  0.00000000000E+00 -0.25118411628E+03  0.25118411634E+03  0.50400001928E-02 0.  1.
    10030    2    1    2    0    0  0.00000000000E+00  0.00000000000E+00  0.55683221625E+03  0.10592004489E+04  0.90102357010E+03 0.  0.
        2    1    3    3  502    0 -0.34873824082E+03  0.15654280134E+03 -0.18412602370E+01  0.38226613701E+03  0.25500000920E-02 0.  1.
       -2    1    3    3    0  502  0.34873824082E+03 -0.15654280134E+03  0.55867347649E+03  0.67693431188E+03  0.25500000920E-02 0. -1.
</event>
<event>
 5   0  0.1924218E-02  0.8839002E+03  0.7818609E-02  0.9445934E-01
       -2   -1    0    0    0  501  0.00000000000E+00  0.00000000000E+00  0.17549378218E+03  0.17549378220E+03  0.25500000920E-02 0. -1.
        2   -1    0    0  501    0  0.00000000000E+00  0.00000000000E+00 -0.11129733137E+04  0.11129733137E+04  0.25500000920E-02 0.  1.
    10030    2    1    2    0    0  0.00000000000E+00  0.00000000000E+00 -0.93747953150E+03  0.12884670959E+04  0.88390021223E+03 0.  0.
        4    1    3    3  502    0 -0.42271398403E+03 -0.11823393023E+03 -0.54380682278E+03  0.69885180686E+03  0.12699999809E+01 0.  1.
       -4    1    3    3    0  502  0.42271398403E+03  0.11823393023E+03 -0.39367270872E+03  0.58961528902E+03  0.12699999809E+01 0. -1.
</event>
<event>
 5   0  0.2008770E-02  0.8892198E+03  0.7818609E-02  0.9439158E-01
        2   -1    0    0  501    0  0.00000000000E+00  0.00000000000E+00  0.17477547794E+04  0.17477547794E+04  0.25500000920E-02 0. -1.
       -2   -1    0    0    0  501  0.00000000000E+00  0.00000000000E+00 -0.11310394263E+03  0.11310394266E+03  0.25500000920E-02 0.  1.
    10030    2    1    2    0    0  0.00000000000E+00  0.00000000000E+00  0.16346508368E+04  0.18608587221E+04  0.88921978461E+03 0.  0.
        1    1    3    3  502    0 -0.12177174121E+03  0.42342117859E+03  0.94225909550E+03  0.10401759729E+04  0.50400001928E-02 0. -1.
       -1    1    3    3    0  502  0.12177174121E+03 -0.42342117859E+03  0.69239174130E+03  0.82068274923E+03  0.50400001928E-02 0.  1.
</event>
<event>
 5   0  0.1175993E-02  0.8661337E+03  0.7818609E-02  0.9468935E-01
        1   -1    0    0  501    0  0.00000000000E+00  0.00000000000E+00  0.60503633753E+03  0.60503633755E+03  0.50400001928E-02 0.  1.
       -1   -1    0    0    0  501  0.00000000000E+00  0.00000000000E+00 -0.30997627357E+03  0.30997627361E+03  0.50400001928E-02 0. -1.
    10030    2    1    2    0    0  0.00000000000E+00  0.00000000000E+00  0.29506006396E+03  0.91501261116E+03  0.86613372942E+03 0.  0.
        4    1    3    3  502    0 -0.40025335475E+03  0.25547813031E+02  0.32011988435E+03  0.51316059084E+03  0.12699999809E+01 0.  1.
       -4    1    3    3    0  502  0.40025335475E+03 -0.25547813031E+02 -0.25059820388E+02  0.40185202032E+03  0.12699999809E+01 0. -1.
</event>
<event>
 5   0  0.2041861E-02  0.7455164E+03  0.7818609E-02  0.9642411E-01
        2   -1    0    0  501    0  0.00000000000E+00  0.00000000000E+00  0.60344856737E+03  0.60344856737E+03  0.25500000920E-02 0.  1.
       -2   -1    0    0    0  501  0.00000000000E+00  0.00000000000E+00 -0.23025767883E+03  0.23025767885E+03  0.25500000920E-02 0. -1.
    10030    2    1    2    0    0  0.00000000000E+00  0.00000000000E+00  0.37319088853E+03  0.83370624622E+03  0.74551637520E+03 0.  0.
        5    1    3    3  502    0 -0.21111100725E+03  0.12942242505E+03  0.49813318541E+03  0.55630637413E+03  0.46999998093E+01 0.  1.
       -5    1    3    3    0  502  0.21111100725E+03 -0.12942242505E+03 -0.12494229687E+03  0.27739987209E+03  0.46999998093E+01 0. -1.
</event>
<event>
 5   0  0.2008643E-02  0.9038304E+03  0.7818609E-02  0.9420806E-01
        2   -1    0    0  501    0  0.00000000000E+00  0.00000000000E+00  0.49080487715E+03  0.49080487716E+03  0.25500000920E-02 0. -1.
       -2   -1    0    0    0  501  0.00000000000E+00  0.00000000000E+00 -0.41610704146E+03  0.41610704147E+03  0.25500000920E-02 0.  1.
    10030    2    1    2    0    0  0.00000000000E+00  0.00000000000E+00  0.74697835693E+02  0.90691191863E+03  0.90383043846E+03 0.  0.
        3    1    3    3  502    0  0.90119487202E+02 -0.24744060645E+03  0.40585977022E+03  0.48380837010E+03  0.10100000352E+00 0. -1.
       -3    1    3    3    0  502 -0.90119487202E+02  0.24744060645E+03 -0.33116193453E+03  0.42310354853E+03  0.10100000352E+00 0.  1.
</event>
<event>
 5   0  0.1924218E-02  0.9013631E+03  0.7818609E-02  0.9423879E-01
       -2   -1    0    0    0  501  0.00000000000E+00  0.00000000000E+00  0.99071655781E+03  0.99071655781E+03  0.25500000920E-02 0. -1.
        2   -1    0    0  501    0  0.00000000000E+00  0.00000000000E+00 -0.20501710539E+03  0.20501710541E+03  0.25500000920E-02 0.  1.
    10030    2    1    2    0    0  0.00000000000E+00  0.00000000000E+00  0.78569945241E+03  0.11957336632E+04  0.90136305883E+03 0.  0.
        4    1    3    3  502    0  0.37769115926E+03  0.12615356561E+03  0.67284030346E+03  0.78184462700E+03  0.12699999809E+01 0. -1.
       -4    1    3    3    0  502 -0.37769115926E+03 -0.12615356561E+03  0.11285914895E+03  0.41388903622E+03  0.12699999809E+01 0.  1.
</event>
<event>
 5   0  0.1968763E-02  0.9054394E+03  0.7818609E-02  0.9418807E-01
       -2   -1    0    0    0  501  0.00000000000E+00  0.00000000000E+00  0.23159451756E+03  0.23159451758E+03  0.25500000920E-02 0. -1.
        2   -1    0    0  501    0  0.00000000000E+00  0.00000000000E+00 -0.88497401157E+03  0.88497401158E+03  0.25500000920E-02 0.  1.
    10030    2    1    2    0    0  0.00000000000E+00  0.00000000000E+00 -0.65337949401E+03  0.11165685292E+04  0.90543940554E+03 0.  0.
        2    1    3    3  502    0 -0.80464030548E+02 -0.36769376454E+03 -0.63690701453E+03  0.73981329392E+03  0.25500000920E-02 0.  1.
       -2    1    3    3    0  502  0.80464030548E+02  0.36769376454E+03 -0.16472479482E+02  0.37675523524E+03  0.25500000920E-02 0. -1.
</event>
<event>
 5   0  0.1968763E-02  0.9213714E+03  0.7818609E-02  0.9399254E-01
        2   -1    0    0  501    0  0.00000000000E+00  0.00000000000E+00  0.58227663890E+03  0.58227663891E+03  0.25500000920E-02 0.  1.
       -2   -1    0    0    0  501  0.00000000000E+00  0.00000000000E+00 -0.36448533844E+03  0.36448533845E+03  0.25500000920E-02 0. -1.
    10030    2    1    2    0    0  0.00000000000E+00  0.00000000000E+00  0.21779130047E+03  0.94676197735E+03  0.92137136444E+03 0.  0.
        2    1    3    3  502    0  0.22376605989E+02 -0.23451964429E+03  0.51569824878E+03  0.56696107437E+03  0.25500000920E-02 0.  1.
       -2    1    3    3    0  502 -0.22376605989E+02  0.23451964429E+03 -0.29790694831E+03  0.37980090299E+03  0.25500000920E-02 0. -1.
</event>
<event>
 5   0  0.1968763E-02  0.8930737E+03  0.7818609E-02  0.9434281E-01
        2   -1    0    0  501    0  0.00000000000E+00  0.00000000000E+00  0.96417387099E+03  0.96417387099E+03  0.25500000920E-02 0.  1.
       -2   -1    0    0    0  501  0.00000000000E+00  0.00000000000E+00 -0.20680416144E+03  0.20680416146E+03  0.25500000920E-02 0. -1.
    10030    2    1    2    0    0  0.00000000000E+00  0.00000000000E+00  0.75736970954E+03  0.11709780325E+04  0.89307372347E+03 0.  0.
        2    1    3    3  502    0  0.35342302399E+00 -0.38732030114E+03  0.67004376793E+03  0.77393526314E+03  0.25500000920E-02 0.  1.
       -2    1    3    3    0  502 -0.35342302399E+00  0.38732030114E+03  0.87325941614E+02  0.39704276931E+03  0.25500000920E-02 0. -1.
</event>
<event>
 5   0  0.2008643E-02  0.9055182E+03  0.7818609E-02  0.9418710E-01
        2   -1    0    0  501    0  0.00000000000E+00  0.00000000000E+00  0.16311089535E+04  0.16311089535E+04  0.25500000920E-02 0.  1.
       -2   -1    0    0    0  501  0.00000000000E+00  0.00000000000E+00 -0.12567571989E+03  0.12567571992E+03  0.25500000920E-02 0. -1.
    10030    2    1    2    0    0  0.00000000000E+00  0.00000000000E+00  0.15054332336E+04  0.17567846734E+04  0.90551817646E+03 0.  0.
        3    1    3    3  502    0 -0.37759321962E+03  0.24741080899E+03  0.81998015559E+03  0.93603216488E+03  0.10100000352E+00 0. -1.
       -3    1    3    3    0  502  0.37759321962E+03 -0.24741080899E+03  0.68545307799E+03  0.82075250852E+03  0.10100000352E+00 0.  1.
</event>
<event>
 5   0  0.1924218E-02  0.8740780E+03  0.7818609E-02  0.9458578E-01
       -2   -1    0    0    0  501  0.00000000000E+00  0.00000000000E+00  0.61494563564E+02  0.61494563617E+02  0.25500000920E-02 0. -1.
        2   -1    0    0  501    0  0.00000000000E+00  0.00000000000E+00 -0.31060157237E+04  0.31060157237E+04  0.25500000920E-02 0.  1.
    10030    2    1    2    0    0  0.00000000000E+00  0.00000000000E+00 -0.30445211601E+04  0.31675102873E+04  0.87407798607E+03 0.  0.
        4    1    3    3  502    0  0.38286678853E+03  0.96895780548E+02 -0.84405516366E+03  0.93188330935E+03  0.12699999809E+01 0. -1.
       -4    1    3    3    0  502 -0.38286678853E+03 -0.96895780548E+02 -0.22004659964E+04  0.22356269779E+04  0.12699999809E+01 0.  1.
</event>
<event>
 5   0  0.2008770E-02  0.8967003E+03  0.7818609E-02  0.9429716E-01
       -2   -1    0    0    0  501  0.00000000000E+00  0.00000000000E+00  0.19895161540E+03  0.19895161541E+03  0.25500000920E-02 0. -1.
        2   -1    0    0  501    0  0.00000000000E+00  0.00000000000E+00 -0.10103856663E+04  0.10103856663E+04  0.25500000920E-02 0.  1.
    10030    2    1    2    0    0  0.00000000000E+00  0.00000000000E+00 -0.81143405092E+03  0.12093372817E+04  0.89670030779E+03 0.  0.
        1    1    3    3  502    0 -0.11104733638E+03  0.16044042111E+03  0.13868650929E+03  0.23938794357E+03  0.50400001928E-02 0. -1.
       -1    1    3    3    0  502  0.11104733638E+03 -0.16044042111E+03 -0.95012056020E+03  0.96994933816E+03  0.50400001928E-02 0.  1.
</event>
<event>
 5   0  0.1226424E-02  0.8909777E+03  0.7818609E-02  0.9436931E-01
        1   -1    0    0  501    0  0.00000000000E+00  0.00000000000E+00  0.19427384867E+04  0.19427384867E+04  0.50400001928E-02 0.  1.
       -1   -1    0    0    0  501  0.00000000000E+00  0.00000000000E+00 -0.10215493402E+03  0.10215493414E+03  0.50400001928E-02 0. -1.
    10030    2    1    2    0    0  0.00000000000E+00  0.00000000000E+00  0.18405835527E+04  0.20448934209E+04  0.89097771478E+03 0.  0.
        1    1    3    3  502    0  0.41383978809E+03 -0.11388144007E+03  0.64652843185E+03  0.77603567303E+03  0.50400001928E-02 0. -1.
       -1    1    3    3    0  502 -0.41383978809E+03  0.11388144007E+03  0.11940551208E+04  0.12688577478E+04  0.50400001928E-02 0.  1.
</event>
<event>
 5   0  0.1206541E-02  0.9100263E+03  0.7818609E-02  0.9413134E-01
       -1   -1    0    0    0  501  0.00000000000E+00  0.00000000000E+00  0.26602336362E+03  0.26602336366E+03  0.50400001928E-02 0. -1.
        1   -1    0    0  501    0  0.00000000000E+00  0.00000000000E+00 -0.77826609869E+03  0.77826609871E+03  0.50400001928E-02 0.  1.
    10030    2    1    2    0    0  0.00000000000E+00  0.00000000000E+00 -0.51224273507E+03  0.10442894624E+04  0.91002629719E+03 0.  0.
        3    1    3    3  502    0  0.33584600559E+03  0.23638245134E+03 -0.31345266946E+02  0.41188801722E+03  0.10100000352E+00 0. -1.
       -3    1    3    3    0  502 -0.33584600559E+03 -0.23638245134E+03 -0.48089746813E+03  0.63240144515E+03  0.10100000352E+00 0.  1.
</event>
<event>
 5   0  0.1175993E-02  0.8922571E+03  0.7818609E-02  0.9435313E-01
        1   -1    0    0  501    0  0.00000000000E+00  0.00000000000E+00  0.30964928050E+03  0.30964928055E+03  0.50400001928E-02 0. -1.
       -1   -1    0    0    0  501  0.00000000000E+00  0.00000000000E+00 -0.64276158357E+03  0.64276158359E+03  0.50400001928E-02 0.  1.
    10030    2    1    2    0    0  0.00000000000E+00  0.00000000000E+00 -0.33311230307E+03  0.95241086414E+03  0.89225705246E+03 0.  0.
        4    1    3    3  502    0 -0.44874734415E+02 -0.28006314544E+03 -0.53412607496E+03  0.60476556126E+03  0.12699999809E+01 0.  1.
       -4    1    3    3    0  502  0.44874734415E+02  0.28006314544E+03  0.20101377190E+03  0.34764530288E+03  0.12699999809E+01 0. -1.
</event>
<event>
 5   0  0.1924218E-02  0.9029883E+03  0.7818609E-02  0.9421854E-01
        2   -1    0    0  501    0  0.00000000000E+00  0.00000000000E+00  0.17528028987E+04  0.17528028987E+04  0.25500000920E-02 0. -1.
       -2   -1    0    0    0  501  0.00000000000E+00  0.00000000000E+00 -0.11629770000E+03  0.11629770003E+03  0.25500000920E-02 0.  1.
    10030    2    1    2    0    0  0.00000000000E+00  0.00000000000E+00  0.16365051987E+04  0.18691005988E+04  0.90298825178E+03 0.  0.
        4    1    3    3  502    0  0.34151721606E+03 -0.29525041966E+03  0.83109830174E+03  0.94579745148E+03  0.12699999809E+01 0.  1.
       -4    1    3    3    0  502 -0.34151721606E+03  0.29525041966E+03  0.80540689700E+03  0.92330314730E+03  0.12699999809E+01 0. -1.
</event>
<event>
 5   0  0.1968763E-02  0.9158658E+03  0.7818609E-02  0.9405963E-01
       -2   -1    0    0    0  501  0.00000000000E+00  0.00000000000E+00  0.14590495049E+03  0.14590495051E+03  0.25500000920E-02 0.  1.
        2   -1    0    0  501    0  0.00000000000E+00  0.00000000000E+00 -0.14372543353E+04  0.14372543353E+04  0.25500000920E-02 0. -1.
    10030    2    1    2    0    0  0.00000000000E+00  0.00000000000E+00 -0.12913493848E+04  0.15831592858E+04  0.91586576015E+03 0.  0.
        2    1    3    3  502    0 -0.31460287342E+03 -0.32895963103E+03 -0.55901861166E+03  0.72089611942E+03  0.25500000920E-02 0. -1.
       -2    1    3    3    0  502  0.31460287342E+03  0.32895963103E+03 -0.73233077317E+03  0.86226316641E+03  0.25500000920E-02 0.  1.
</event>
<event>
 5   0  0.1968763E-02  0.8832568E+03  0.7818609E-02  0.9446757E-01
       -2   -1    0    0    0  501  0.00000000000E+00  0.00000000000E+00  0.13002351126E+03  0.13002351128E+03  0.25500000920E-02 0. -1.
        2   -1    0    0  501    0  0.00000000000E+00  0.00000000000E+00 -0.15000030486E+04  0.15000030486E+04  0.25500000920E-02 0.  1.
    10030    2    1    2    0    0  0.00000000000E+00  0.00000000000E+00 -0.13699795374E+04  0.16300265599E+04  0.88325684441E+03 0.  0.
        2    1    3    3  502    0 -0.24216768799E+02  0.20102286850E+03  0.39317827231E+02  0.20625842309E+03  0.25500000920E-02 0. -1.
       -2    1    3    3    0  502  0.24216768799E+02 -0.20102286850E+03 -0.14092973646E+04  0.14237681368E+04  0.25500000920E-02 0.  1.
</event>
<event>
 5   0  0.2008770E-02  0.9106891E+03  0.7818609E-02  0.9412317E-01
        2   -1    0    0  501    0  0.00000000000E+00  0.00000000000E+00  0.79480271693E+03  0.79480271694E+03  0.25500000920E-02 0. -1.
       -2   -1    0    0    0  501  0.00000000000E+00  0.00000000000E+00 -0.26086808520E+03  0.26086808521E+03  0.25500000920E-02 0.  1.
    10030    2    1    2    0    0  0.00000000000E+00  0.00000000000E+00  0.53393463173E+03  0.10556708021E+04  0.91068910806E+03 0.  0.
        1    1    3    3  502    0  0.15021809342E+03  0.42303989797E+03  0.35532871392E+03  0.57252661583E+03  0.50400001928E-02 0. -1.
       -1    1    3    3    0  502 -0.15021809342E+03 -0.42303989797E+03  0.17860591781E+03  0.48314418632E+03  0.50400001928E-02 0.  1.
</event>
<event>
 5   0  0.2041861E-02  0.9116463E+03  0.7818609E-02  0.9411139E-01
       -2   -1    0    0    0  501  0.00000000000E+00  0.00000000000E+00  0.27992706714E+03  0.27992706715E+03  0.25500000920E-02 0. -1.
        2   -1    0    0  501    0  0.00000000000E+00  0.00000000000E+00 -0.74224602565E+03  0.74224602565E+03  0.25500000920E-02 0.  1.
    10030    2    1    2    0    0  0.00000000000E+00  0.00000000000E+00 -0.46231895851E+03  0.10221730928E+04  0.91164631971E+03 0.  0.
        5    1    3    3  502    0 -0.31640462593E+03 -0.35408858122E+02 -0.59687409676E+03  0.67649571464E+03  0.46999998093E+01 0.  1.
       -5    1    3    3    0  502  0.31640462593E+03  0.35408858122E+02  0.13455513825E+03  0.34567737816E+03  0.46999998093E+01 0. -1.
</event>
<event>
 5   0  0.1162839E-02  0.9195118E+03  0.7818609E-02  0.9401514E-01
        1   -1    0    0  501    0  0.00000000000E+00  0.00000000000E+00  0.45829484715E+03  0.45829484718E+03  0.50400001928E-02 0.  1.
       -1   -1    0    0    0  501  0.00000000000E+00  0.00000000000E+00 -0.46122165506E+03  0.46122165508E+03  0.50400001928E-02 0. -1.
    10030    2    1    2    0    0  0.00000000000E+00  0.00000000000E+00 -0.29268079072E+01  0.91951650226E+03  0.91951184426E+03 0.  0.
        2    1    3    3  502    0  0.29527052072E+03 -0.94090813367E+02  0.33815243034E+03  0.45867725878E+03  0.25500000920E-02 0.  1.
       -2    1    3    3    0  502 -0.29527052072E+03  0.94090813367E+02 -0.34107923825E+03  0.46083924349E+03  0.25500000920E-02 0. -1.
</event>
<event>
 5   0  0.1206541E-02  0.9018148E+03  0.7818609E-02  0.9423316E-01
        1   -1    0    0  501    0  0.00000000000E+00  0.00000000000E+00  0.16705620379E+04  0.16705620379E+04  0.50400001928E-02 0. -1.
       -1   -1    0    0    0  501  0.00000000000E+00  0.00000000000E+00 -0.12170603124E+03  0.12170603135E+03  0.50400001928E-02 0.  1.
    10030    2    1    2    0    0  0.00000000000E+00  0.00000000000E+00  0.15488560067E+04  0.17922680693E+04  0.90181478293E+03 0.  0.
        3    1    3    3  502    0 -0.37329247930E+03  0.65668787422E+01  0.27193733005E+03  0.46188777931E+03  0.10100000352E+00 0.  1.
       -3    1    3    3    0  502  0.37329247930E+03 -0.65668787422E+01  0.12769186766E+04  0.13303802899E+04  0.10100000352E+00 0. -1.
</event>
<event>
 5   0  0.1226424E-02  0.9148413E+03  0.7818609E-02  0.9407217E-01
        1   -1    0    0  501    0  0.00000000000E+00  0.00000000000E+00  0.77932470584E+03  0.77932470585E+03  0.50400001928E-02 0.  1.
       -1   -1    0    0    0  501  0.00000000000E+00  0.00000000000E+00 -0.26848070178E+03  0.26848070183E+03  0.50400001928E-02 0. -1.
    10030    2    1    2    0    0  0.00000000000E+00  0.00000000000E+00  0.51084400405E+03  0.10478054077E+04  0.91484128453E+03 0.  0.
        1    1    3    3  502    0  0.32321343072E+03 -0.25820247719E+03  0.47897841150E+03  0.63289474617E+03  0.50400001928E-02 0.  1.
       -1    1    3    3    0  502 -0.32321343072E+03  0.25820247719E+03  0.31865592554E+02  0.41491066151E+03  0.50400001928E-02 0. -1.
</event>
<event>
 5   0  0.1162839E-02  0.9080981E+03  0.7818609E-02  0.9415515E-01
        1   -1    0    0  501    0  0.00000000000E+00  0.00000000000E+00  0.10065482504E+04  0.10065482504E+04  0.50400001928E-02 0.  1.
       -1   -1    0    0    0  501  0.00000000000E+00  0.00000000000E+00 -0.20481933880E+03  0.20481933886E+03  0.50400001928E-02 0. -1.
    10030    2    1    2    0    0  0.00000000000E+00  0.00000000000E+00  0.80172891161E+03  0.12113675893E+04  0.90809811621E+03 0.  0.
        2    1    3    3  502    0 -0.42150407331E+03  0.13965742904E+03  0.52734947866E+03  0.68939636926E+03  0.25500000920E-02 0.  1.
       -2    1    3    3    0  502  0.42150407331E+03 -0.13965742904E+03  0.27437943295E+03  0.52197122002E+03  0.25500000920E-02 0. -1.
</event>
<event>
 5   0  0.2008643E-02  0.9017969E+03  0.7818609E-02  0.9423338E-01
       -2   -1    0    0    0  501  0.00000000000E+00  0.00000000000E+00  0.60655723568E+03  0.60655723568E+03  0.25500000920E-02 0. -1.
        2   -1    0    0  501    0  0.00000000000E+00  0.00000000000E+00 -0.33518588630E+03  0.33518588631E+03  0.25500000920E-02 0.  1.
    10030    2    1    2    0    0  0.00000000000E+00  0.00000000000E+00  0.27137134938E+03  0.94174312199E+03  0.90179692756E+03 0.  0.
        3    1    3    3  502    0 -0.41287895074E+03 -0.17295974282E+03  0.19216765806E+03  0.48714732844E+03  0.10100000352E+00 0. -1.
       -3    1    3    3    0  502  0.41287895074E+03  0.17295974282E+03  0.79203691313E+02  0.45459579355E+03  0.10100000352E+00 0.  1.
</event>
<event>
 5   0  0.1162839E-02  0.9016961E+03  0.7818609E-02  0.9423464E-01
        1   -1    0    0  501    0  0.00000000000E+00  0.00000000000E+00  0.53977919537E+03  0.53977919540E+03  0.50400001928E-02 0. -1.
       -1   -1    0    0    0  501  0.00000000000E+00  0.00000000000E+00 -0.37656875901E+03  0.37656875904E+03  0.50400001928E-02 0.  1.
    10030    2    1    2    0    0  0.00000000000E+00  0.00000000000E+00  0.16321043637E+03  0.91634795444E+03  0.90169613899E+03 0.  0.
        2    1    3    3  502    0  0.39439240951E+03 -0.51680186253E+02 -0.13408817407E+03  0.41975689722E+03  0.25500000920E-02 0.  1.
       -2    1    3    3    0  502 -0.39439240951E+03  0.51680186253E+02  0.29729861044E+03  0.49659105722E+03  0.25500000920E-02 0. -1.
</event>
<event>
 5   0  0.2041861E-02  0.8899616E+03  0.7818609E-02  0.9438218E-01
       -2   -1    0    0    0  501  0.00000000000E+00  0.00000000000E+00  0.16481272452E+03  0.16481272454E+03  0.25500000920E-02 0.  1.
        2   -1    0    0  501    0  0.00000000000E+00  0.00000000000E+00 -0.12014115456E+04  0.12014115456E+04  0.25500000920E-02 0. -1.
    10030    2    1    2    0    0  0.00000000000E+00  0.00000000000E+00 -0.10365988211E+04  0.13662242702E+04  0.88996159495E+03 0.  0.
        5    1    3    3  502    0 -0.16028105233E+03  0.11775170958E+03 -0.11293397841E+04  0.11467283544E+04  0.46999998093E+01 0. -1.
       -5    1    3    3    0  502  0.16028105233E+03 -0.11775170958E+03  0.92740962956E+02  0.21949591580E+03  0.46999998093E+01 0.  1.
</event>
<event>
 5   0  0.1924218E-02  0.9098303E+03  0.7818609E-02  0.9413376E-01
       -2   -1    0    0    0  501  0.00000000000E+00  0.00000000000E+00  0.17301393716E+03  0.17301393718E+03  0.25500000920E-02 0. -1.
        2   -1    0    0  501    0  0.00000000000E+00  0.00000000000E+00 -0.11961337107E+04  0.11961337107E+04  0.25500000920E-02 0.  1.
    10030    2    1    2    0    0  0.00000000000E+00  0.00000000000E+00 -0.10231197735E+04  0.13691476478E+04  0.90983031971E+03 0.  0.
        4    1    3    3  502    0 -0.99354466433E+02  0.26609986470E+03 -0.10462875429E+04  0.10841585140E+04  0.12699999809E+01 0.  1.
       -4    1    3    3    0  502  0.99354466433E+02 -0.26609986470E+03  0.23167769425E+02  0.28498913389E+03  0.12699999809E+01 0. -1.
</event>
<event>
 5   0  0.1177712E-02  0.7748385E+03  0.7818609E-02  0.9597169E-01
       -1   -1    0    0    0  501  0.00000000000E+00  0.00000000000E+00  0.30558707957E+03  0.30558707962E+03  0.50400001928E-02 0. -1.
        1   -1    0    0  501    0  0.00000000000E+00  0.00000000000E+00 -0.49116498528E+03  0.49116498531E+03  0.50400001928E-02 0.  1.
    10030    2    1    2    0    0  0.00000000000E+00  0.00000000000E+00 -0.18557790571E+03  0.79675206492E+03  0.77483849535E+03 0.  0.
        5    1    3    3  502    0 -0.21501325609E+02 -0.12903121431E+03  0.28216062995E+03  0.31104352165E+03  0.46999998093E+01 0. -1.
       -5    1    3    3    0  502  0.21501325609E+02  0.12903121431E+03 -0.46773853566E+03  0.48570854327E+03  0.46999998093E+01 0.  1.
</event>
<event>
 5   0  0.1206541E-02  0.8903758E+03  0.7818609E-02  0.9437693E-01
       -1   -1    0    0    0  501  0.00000000000E+00  0.00000000000E+00  0.16549570674E+03  0.16549570682E+03  0.50400001928E-02 0.  1.
        1   -1    0    0  501    0  0.00000000000E+00  0.00000000000E+00 -0.11975674052E+04  0.11975674052E+04  0.50400001928E-02 0. -1.
    10030    2    1    2    0    0  0.00000000000E+00  0.00000000000E+00 -0.10320716985E+04  0.13630631121E+04  0.89037579517E+03 0.  0.
        3    1    3    3  502    0 -0.27514714576E+03 -0.33425669552E+03 -0.35724561010E+03  0.56130021063E+03  0.10100000352E+00 0.  1.
       -3    1    3    3    0  502  0.27514714576E+03  0.33425669552E+03 -0.67482608839E+03  0.80176290142E+03  0.10100000352E+00 0. -1.
</event>
<event>
 5   0  0.1175993E-02  0.8990717E+03  0.7818609E-02  0.9426743E-01
        1   -1    0    0  501    0  0.00000000000E+00  0.00000000000E+00  0.17466421833E+04  0.17466421833E+04  0.50400001928E-02 0. -1.
       -1   -1    0    0    0  501  0.00000000000E+00  0.00000000000E+00 -0.11569770308E+03  0.11569770319E+03  0.50400001928E-02 0.  1.
    10030    2    1    2    0    0  0.00000000000E+00  0.00000000000E+00  0.16309444802E+04  0.18623398864E+04  0.89907171863E+03 0.  0.
        4    1    3    3  502    0  0.26822311971E+03  0.13074374386E+02  0.15622304001E+04  0.15851435320E+04  0.12699999809E+01 0. -1.
       -4    1    3    3    0  502 -0.26822311971E+03 -0.13074374386E+02  0.68714080091E+02  0.27719635444E+03  0.12699999809E+01 0.  1.
</event>
<event>
 5   0  0.1177712E-02  0.8872004E+03  0.7818609E-02  0.9441725E-01
       -1   -1    0    0    0  501  0.00000000000E+00  0.00000000000E+00  0.25852463738E+03  0.25852463743E+03  0.50400001928E-02 0. -1.
        1   -1    0    0  501    0  0.00000000000E+00  0.00000000000E+00 -0.76116969255E+03  0.76116969257E+03  0.50400001928E-02 0.  1.
    10030    2    1    2    0    0  0.00000000000E+00  0.00000000000E+00 -0.50264505517E+03  0.10196943300E+04  0.88720035795E+03 0.  0.
        5    1    3    3  502    0 -0.90034430256E+02  0.40914425734E+03 -0.41888110353E+03  0.59244298531E+03  0.46999998093E+01 0.  1.
       -5    1    3    3    0  502  0.90034430256E+02 -0.40914425734E+03 -0.83763951643E+02  0.42725134469E+03  0.46999998093E+01 0. -1.
</event>
<event>
 5   0  0.1968763E-02  0.9005958E+03  0.7818609E-02  0.9424837E-01
        2   -1    0    0  501    0  0.00000000000E+00  0.00000000000E+00  0.34645565058E+03  0.34645565059E+03  0.25500000920E-02 0.  1.
       -2   -1    0    0    0  501  0.00000000000E+00  0.00000000000E+00 -0.58526447528E+03  0.58526447528E+03  0.25500000920E-02 0. -1.
    10030    2    1    2    0    0  0.00000000000E+00  0.00000000000E+00 -0.23880882469E+03  0.93172012587E+03  0.90059576848E+03 0.  0.
        2    1    3    3  502    0 -0.19647575689E+03  0.26853177514E+03  0.19448883426E+03  0.38540620644E+03  0.25500000920E-02 0.  1.
       -2    1    3    3    0  502  0.19647575689E+03 -0.26853177514E+03 -0.43329765895E+03  0.54631391943E+03  0.25500000920E-02 0. -1.
</event>
<event>
 5   0  0.1162839E-02  0.9336277E+03  0.7818609E-02  0.9384495E-01
        1   -1    0    0  501    0  0.00000000000E+00  0.00000000000E+00  0.18469750209E+04  0.18469750209E+04  0.50400001928E-02 0. -1.
       -1   -1    0    0    0  501  0.00000000000E+00  0.00000000000E+00 -0.11798489820E+03  0.11798489831E+03  0.50400001928E-02 0.  1.
    10030    2    1    2    0    0  0.00000000000E+00  0.00000000000E+00  0.17289901227E+04  0.19649599192E+04  0.93362767725E+03 0.  0.
        2    1    3    3  502    0  0.16626207136E+02 -0.17831231354E+03 -0.42810568238E+02  0.18413162869E+03  0.25500000920E-02 0.  1.
       -2    1    3    3    0  502 -0.16626207136E+02  0.17831231354E+03  0.17718006909E+04  0.17808282905E+04  0.25500000920E-02 0. -1.
</event>
<event>
 5   0  0.2041861E-02  0.8948651E+03  0.7818609E-02  0.9432023E-01
       -2   -1    0    0    0  501  0.00000000000E+00  0.00000000000E+00  0.15552067979E+03  0.15552067981E+03  0.25500000920E-02 0.  1.
        2   -1    0    0  501    0  0.00000000000E+00  0.00000000000E+00 -0.12872620956E+04  0.12872620956E+04  0.25500000920E-02 0. -1.
    10030    2    1    2    0    0  0.00000000000E+00  0.00000000000E+00 -0.11317414158E+04  0.14427827754E+04  0.89486507630E+03 0.  0.
        5    1    3    3  502    0  0.12326763329E+03 -0.21909451927E+03  0.30843490891E+02  0.25331942034E+03  0.46999998093E+01 0.  1.
       -5    1    3    3    0  502 -0.12326763329E+03  0.21909451927E+03 -0.11625849067E+04  0.11894633551E+04  0.46999998093E+01 0. -1.
</event>
<event>
 5   0  0.1226424E-02  0.8970026E+03  0.7818609E-02  0.9429336E-01
        1   -1    0    0  501    0  0.00000000000E+00  0.00000000000E+00  0.48235150144E+03  0.48235150146E+03  0.50400001928E-02 0. -1.
       -1   -1    0    0    0  501  0.00000000000E+00  0.00000000000E+00 -0.41702666589E+03  0.41702666592E+03  0.50400001928E-02 0.  1.
    10030    2    1    2    0    0  0.00000000000E+00  0.00000000000E+00  0.65324835546E+02  0.89937816738E+03  0.89700264984E+03 0.  0.
        1    1    3    3  502    0  0.31920774071E+03  0.29347892979E+03 -0.82227139425E+02  0.44134427202E+03  0.50400001928E-02 0.  1.
       -1    1    3    3    0  502 -0.31920774071E+03 -0.29347892979E+03  0.14755197497E+03  0.45803389536E+03  0.50400001928E-02 0. -1.
</event>
<event>
 5   0  0.2008643E-02  0.8908996E+03  0.7818609E-02  0.9437029E-01
        2   -1    0    0  501    0  0.00000000000E+00  0.00000000000E+00  0.51053889382E+03  0.51053889383E+03  0.25500000920E-02 0.  1.
       -2   -1    0    0    0  501  0.00000000000E+00  0.00000000000E+00 -0.38865895899E+03  0.38865895900E+03  0.25500000920E-02 0. -1.
    10030    2    1    2    0    0  0.00000000000E+00  0.00000000000E+00  0.12187993484E+03  0.89919785282E+03  0.89089957908E+03 0.  0.
        3    1    3    3  502    0  0.13656628662E+03 -0.36631187888E+02 -0.36540827173E+03  0.39181042587E+03  0.10100000352E+00 0. -1.
       -3    1    3    3    0  502 -0.13656628662E+03  0.36631187888E+02  0.48728820657E+03  0.50738742695E+03  0.10100000352E+00 0.  1.
</event>
<event>
 5   0  0.2041861E-02  0.8849133E+03  0.7818609E-02  0.9444639E-01
        2   -1    0    0  501    0  0.00000000000E+00  0.00000000000E+00  0.75810542940E+03  0.75810542940E+03  0.25500000920E-02 0. -1.
       -2   -1    0    0    0  501  0.00000000000E+00  0.00000000000E+00 -0.25823308045E+03  0.25823308046E+03  0.25500000920E-02 0.  1.
    10030    2    1    2    0    0  0.00000000000E+00  0.00000000000E+00  0.49987234895E+03  0.10163385099E+04  0.88491332988E+03 0.  0.
        5    1    3    3  502    0  0.46332006000E+02 -0.26790417441E+03  0.65081077862E+03  0.70533400670E+03  0.46999998093E+01 0. -1.
       -5    1    3    3    0  502 -0.46332006000E+02  0.26790417441E+03 -0.15093842967E+03  0.31100450317E+03  0.46999998093E+01 0.  1.
</event>
<event>
 5   0  0.2041861E-02  0.8892331E+03  0.7818609E-02  0.9439141E-01
        2   -1    0    0  501    0  0.00000000000E+00  0.00000000000E+00  0.12638935308E+04  0.12638935308E+04  0.25500000920E-02 0.  1.
       -2   -1    0    0    0  501  0.00000000000E+00  0.00000000000E+00 -0.15640866270E+03  0.15640866272E+03  0.25500000920E-02 0. -1.
    10030    2    1    2    0    0  0.00000000000E+00  0.00000000000E+00  0.11074848681E+04  0.14203021935E+04  0.88923314593E+03 0.  0.
        5    1    3    3  502    0  0.40822371908E+03 -0.16750570103E+03  0.64059724525E+03  0.77787639463E+03  0.46999998093E+01 0. -1.
       -5    1    3    3    0  502 -0.40822371908E+03  0.16750570103E+03  0.46688762284E+03  0.64242579887E+03  0.46999998093E+01 0.  1.
</event>
<event>
 5   0  0.2008643E-02  0.8733337E+03  0.7818609E-02  0.9459543E-01
       -2   -1    0    0    0  501  0.00000000000E+00  0.00000000000E+00  0.17178038804E+03  0.17178038806E+03  0.25500000920E-02 0. -1.
        2   -1    0    0  501    0  0.00000000000E+00  0.00000000000E+00 -0.11100100010E+04  0.11100100010E+04  0.25500000920E-02 0.  1.
    10030    2    1    2    0    0  0.00000000000E+00  0.00000000000E+00 -0.93822961298E+03  0.12817903891E+04  0.87333372479E+03 0.  0.
        3    1    3    3  502    0  0.65288048534E+02 -0.18259180247E+03 -0.10433500262E+04  0.10612170292E+04  0.10100000352E+00 0.  1.
       -3    1    3    3    0  502 -0.65288048534E+02  0.18259180247E+03  0.10512041324E+03  0.22057335989E+03  0.10100000352E+00 0. -1.
</event>
<event>
 5   0  0.1226424E-02  0.9926402E+03  0.7818609E-02  0.9316654E-01
       -1   -1    0    0    0  501  0.00000000000E+00  0.00000000000E+00  0.17155753009E+03  0.17155753016E+03  0.50400001928E-02 0.  1.
        1   -1    0    0  501    0  0.00000000000E+00  0.00000000000E+00 -0.14358662403E+04  0.14358662403E+04  0.50400001928E-02 0. -1.
    10030    2    1    2    0    0  0.00000000000E+00  0.00000000000E+00 -0.12643087102E+04  0.16074237705E+04  0.99264024860E+03 0.  0.
        1    1    3    3  502    0  0.27140734561E+02  0.10987459604E+03 -0.14146912852E+04  0.14192112171E+04  0.50400001928E-02 0. -1.
       -1    1    3    3    0  502 -0.27140734561E+02 -0.10987459604E+03  0.15038257503E+03  0.18821255332E+03  0.50400001928E-02 0.  1.
</event>
<event>
 5   0  0.1162839E-02  0.8994401E+03  0.7818609E-02  0.9426282E-01
        1   -1    0    0  501    0  0.00000000000E+00  0.00000000000E+00  0.61442955137E+03  0.61442955139E+03  0.50400001928E-02 0. -1.
       -1   -1    0    0    0  501  0.00000000000E+00  0.00000000000E+00 -0.32916407198E+03  0.32916407202E+03  0.50400001928E-02 0.  1.
    10030    2    1    2    0    0  0.00000000000E+00  0.00000000000E+00  0.28526547938E+03  0.94359362341E+03  0.89944012164E+03 0.  0.
        2    1    3    3  502    0 -0.12464765426E+03  0.42124991791E+02  0.59378605436E+03  0.60818864754E+03  0.25500000920E-02 0. -1.
       -2    1    3    3    0  502  0.12464765426E+03 -0.42124991791E+02 -0.30852057497E+03  0.33540497586E+03  0.25500000920E-02 0.  1.
</event>
<event>
 5   0  0.1177712E-02  0.8887542E+03  0.7818609E-02  0.9439749E-01
       -1   -1    0    0    0  501  0.00000000000E+00  0.00000000000E+00  0.19657271719E+03  0.19657271725E+03  0.50400001928E-02 0. -1.
        1   -1    0    0  501    0  0.00000000000E+00  0.00000000000E+00 -0.10045697962E+04  0.10045697963E+04  0.50400001928E-02 0.  1.
    10030    2    1    2    0    0  0.00000000000E+00  0.00000000000E+00 -0.80799707906E+03  0.12011425135E+04  0.88875421687E+03 0.  0.
        5    1    3    3  502    0 -0.66474408788E+02  0.43025107278E+03 -0.28376838434E+03  0.51969358144E+03  0.46999998093E+01 0. -1.
       -5    1    3    3    0  502  0.66474408788E+02 -0.43025107278E+03 -0.52422869472E+03  0.68144893206E+03  0.46999998093E+01 0.  1.
</event>
<event>
 5   0  0.1968763E-02  0.8853264E+03  0.7818609E-02  0.9444112E-01
       -2   -1    0    0    0  501  0.00000000000E+00  0.00000000000E+00  0.65811115597E+03  0.65811115598E+03  0.25500000920E-02 0.  1.
        2   -1    0    0  501    0  0.00000000000E+00  0.00000000000E+00 -0.29774715697E+03  0.29774715698E+03  0.25500000920E-02 0. -1.
    10030    2    1    2    0    0  0.00000000000E+00  0.00000000000E+00  0.36036399900E+03  0.95585831296E+03  0.88532643848E+03 0.  0.
        2    1    3    3  502    0 -0.25220704896E+03  0.42132941895E+02 -0.20994592947E+03  0.33084871715E+03  0.25500000920E-02 0. -1.
       -2    1    3    3    0  502  0.25220704896E+03 -0.42132941895E+02  0.57030992847E+03  0.62500959581E+03  0.25500000920E-02 0.  1.
</event>
<event>
 5   0  0.1206541E-02  0.9050777E+03  0.7818609E-02  0.9419256E-01
        1   -1    0    0  501    0  0.00000000000E+00  0.00000000000E+00  0.59834716778E+03  0.59834716780E+03  0.50400001928E-02 0. -1.
       -1   -1    0    0    0  501  0.00000000000E+00  0.00000000000E+00 -0.34226184907E+03  0.34226184910E+03  0.50400001928E-02 0.  1.
    10030    2    1    2    0    0  0.00000000000E+00  0.00000000000E+00  0.25608531871E+03  0.94060901691E+03  0.90507769403E+03 0.  0.
        3    1    3    3  502    0  0.37828755443E+03 -0.76340460451E+02 -0.11758752951E+03  0.40343051079E+03  0.10100000352E+00 0.  1.
       -3    1    3    3    0  502 -0.37828755443E+03  0.76340460451E+02  0.37367284822E+03  0.53717850612E+03  0.10100000352E+00 0. -1.
</event>
<event>
 5   0  0.1175993E-02  0.9211581E+03  0.7818609E-02  0.9399513E-01
        1   -1    0    0  501    0  0.00000000000E+00  0.00000000000E+00  0.28431951045E+03  0.28431951049E+03  0.50400001928E-02 0. -1.
       -1   -1    0    0    0  501  0.00000000000E+00  0.00000000000E+00 -0.74610792896E+03  0.74610792898E+03  0.50400001928E-02 0.  1.
    10030    2    1    2    0    0  0.00000000000E+00  0.00000000000E+00 -0.46178841852E+03  0.10304274395E+04  0.92115805622E+03 0.  0.
        4    1    3    3  502    0  0.22390334728E+03  0.21263835205E+03 -0.61316778930E+03  0.68653050072E+03  0.12699999809E+01 0.  1.
       -4    1    3    3    0  502 -0.22390334728E+03 -0.21263835205E+03  0.15137937078E+03  0.34389693875E+03  0.12699999809E+01 0. -1.
</event>
<event>
 5   0  0.1924218E-02  0.8972380E+03  0.7818609E-02  0.9429041E-01
        2   -1    0    0  501    0  0.00000000000E+00  0.00000000000E+00  0.34926388363E+03  0.34926388364E+03  0.25500000920E-02 0. -1.
       -2   -1    0    0    0  501  0.00000000000E+00  0.00000000000E+00 -0.57623769333E+03  0.57623769334E+03  0.25500000920E-02 0.  1.
    10030    2    1    2    0    0  0.00000000000E+00  0.00000000000E+00 -0.22697380970E+03  0.92550157698E+03  0.89723801675E+03 0.  0.
        4    1    3    3  502    0 -0.24135383262E+03 -0.14167683172E+02  0.27631253643E+03  0.36715477179E+03  0.12699999809E+01 0. -1.
       -4    1    3    3    0  502  0.24135383262E+03  0.14167683172E+02 -0.50328634612E+03  0.55834680518E+03  0.12699999809E+01 0.  1.
</event>
<event>
 5   0  0.7893875E-03  0.9295789E+03  0.7818609E-02  0.9389343E-01
       -3   -1    0    0    0  501  0.00000000000E+00  0.00000000000E+00  0.83726341738E+03  0.83726342347E+03  0.10100000352E+00 0. -1.
        3   -1    0    0  501    0  0.00000000000E+00  0.00000000000E+00 -0.25801824154E+03  0.25801826130E+03  0.10100000352E+00 0.  1.
    10030    2    1    2    0    0  0.00000000000E+00  0.00000000000E+00  0.57924517584E+03  0.10952816848E+04  0.92957893439E+03 0.  0.
        1    1    3    3  502    0  0.20547717954E+03 -0.70111376667E+02 -0.19460004450E+03  0.29155729076E+03  0.50400001928E-02 0.  1.
       -1    1    3    3    0  502 -0.20547717954E+03  0.70111376667E+02  0.77384522035E+03  0.80372439401E+03  0.50400001928E-02 0. -1.
</event>
<event>
 5   0  0.1175993E-02  0.8263800E+03  0.7818609E-02  0.9522599E-01
        1   -1    0    0  501    0  0.00000000000E+00  0.00000000000E+00  0.24704876625E+03  0.24704876630E+03  0.50400001928E-02 0.  1.
       -1   -1    0    0    0  501  0.00000000000E+00  0.00000000000E+00 -0.69106182120E+03  0.69106182122E+03  0.50400001928E-02 0. -1.
    10030    2    1    2    0    0  0.00000000000E+00  0.00000000000E+00 -0.44401305495E+03  0.93811058752E+03  0.82637998612E+03 0.  0.
        4    1    3    3  502    0  0.14984697946E+03 -0.54089789594E+02 -0.65479292265E+03  0.67389554609E+03  0.12699999809E+01 0. -1.
       -4    1    3    3    0  502 -0.14984697946E+03  0.54089789594E+02  0.21077986770E+03  0.26421504143E+03  0.12699999809E+01 0.  1.
</event>
<event>
 5   0  0.1175993E-02  0.8850002E+03  0.7818609E-02  0.9444529E-01
        1   -1    0    0  501    0  0.00000000000E+00  0.00000000000E+00  0.14340760422E+04  0.14340760422E+04  0.50400001928E-02 0.  1.
       -1   -1    0    0    0  501  0.00000000000E+00  0.00000000000E+00 -0.13653831985E+03  0.13653831995E+03  0.50400001928E-02 0. -1.
    10030    2    1    2    0    0  0.00000000000E+00  0.00000000000E+00  0.12975377224E+04  0.15706143622E+04  0.88500018853E+03 0.  0.
        4    1    3    3  502    0 -0.92894783145E+02  0.27648987661E+01  0.14165573167E+04  0.14196032297E+04  0.12699999809E+01 0.  1.
       -4    1    3    3    0  502  0.92894783145E+02 -0.27648987661E+01 -0.11901959432E+03  0.15101113248E+03  0.12699999809E+01 0. -1.
</event>
<event>
 5   0  0.1226424E-02  0.9041287E+03  0.7818609E-02  0.9420435E-01
       -1   -1    0    0    0  501  0.00000000000E+00  0.00000000000E+00  0.20416706824E+03  0.20416706830E+03  0.50400001928E-02 0.  1.
        1   -1    0    0  501    0  0.00000000000E+00  0.00000000000E+00 -0.10009555833E+04  0.10009555833E+04  0.50400001928E-02 0. -1.
    10030    2    1    2    0    0  0.00000000000E+00  0.00000000000E+00 -0.79678851503E+03  0.12051226516E+04  0.90412867872E+03 0.  0.
        1    1    3    3  502    0 -0.41882005278E+03  0.39547726007E+02 -0.61898152036E+03  0.74840656185E+03  0.50400001928E-02 0. -1.
       -1    1    3    3    0  502  0.41882005278E+03 -0.39547726007E+02 -0.17780699466E+03  0.45671608973E+03  0.50400001928E-02 0.  1.
</event>
<event>
 5   0  0.2008770E-02  0.9034815E+03  0.7818609E-02  0.9421240E-01
        2   -1    0    0  501    0  0.00000000000E+00  0.00000000000E+00  0.18700884156E+04  0.18700884156E+04  0.25500000920E-02 0. -1.
       -2   -1    0    0    0  501  0.00000000000E+00  0.00000000000E+00 -0.10912301589E+03  0.10912301592E+03  0.25500000920E-02 0.  1.
    10030    2    1    2    0    0  0.00000000000E+00  0.00000000000E+00  0.17609653997E+04  0.19792114315E+04  0.90348146172E+03 0.  0.
        1    1    3    3  502    0 -0.32050375137E+03 -0.16963096938E+03  0.29033789222E+03  0.46453569518E+03  0.50400001928E-02 0.  1.
       -1    1    3    3    0  502  0.32050375137E+03  0.16963096938E+03  0.14706275075E+04  0.15146757364E+04  0.50400001928E-02 0. -1.
</event>
<event>
 5   0  0.1206541E-02  0.7935720E+03  0.7818609E-02  0.9569368E-01
        1   -1    0    0  501    0  0.00000000000E+00  0.00000000000E+00  0.14589009912E+03  0.14589009921E+03  0.50400001928E-02 0.  1.
       -1   -1    0    0    0  501  0.00000000000E+00  0.00000000000E+00 -0.10791625813E+04  0.10791625813E+04  0.50400001928E-02 0. -1.
    10030    2    1    2    0    0  0.00000000000E+00  0.00000000000E+00 -0.93327248221E+03  0.12250526805E+04  0.79357201567E+03 0.  0.
        3    1    3    3  502    0  0.15235278049E+03  0.33127882601E+03 -0.70817827252E+03  0.79653845240E+03  0.10100000352E+00 0. -1.
       -3    1    3    3    0  502 -0.15235278049E+03 -0.33127882601E+03 -0.22509420969E+03  0.42851422815E+03  0.10100000352E+00 0.  1.
</event>
<event>
 5   0  0.1968763E-02  0.8927489E+03  0.7818609E-02  0.9434691E-01
        2   -1    0    0  501    0  0.00000000000E+00  0.00000000000E+00  0.40826688075E+03  0.40826688075E+03  0.25500000920E-02 0. -1.
       -2   -1    0    0    0  501  0.00000000000E+00  0.00000000000E+00 -0.48803899156E+03  0.48803899157E+03  0.25500000920E-02 0.  1.
    10030    2    1    2    0    0  0.00000000000E+00  0.00000000000E+00 -0.79772110814E+02  0.89630587232E+03  0.89274891604E+03 0.  0.
        2    1    3    3  502    0  0.25272203433E+03 -0.33260257744E+03  0.11808523311E+03  0.43409333494E+03  0.25500000920E-02 0. -1.
       -2    1    3    3    0  502 -0.25272203433E+03  0.33260257744E+03 -0.19785734392E+03  0.46221253738E+03  0.25500000920E-02 0.  1.
</event>
<event>
 5   0  0.2008643E-02  0.6082779E+03  0.7818609E-02  0.9888379E-01
       -2   -1    0    0    0  501  0.00000000000E+00  0.00000000000E+00  0.52757762652E+02  0.52757762714E+02  0.25500000920E-02 0.  1.
        2   -1    0    0  501    0  0.00000000000E+00  0.00000000000E+00 -0.17533058152E+04  0.17533058152E+04  0.25500000920E-02 0. -1.
    10030    2    1    2    0    0  0.00000000000E+00  0.00000000000E+00 -0.17005480526E+04  0.18060635779E+04  0.60827787109E+03 0.  0.
        3    1    3    3  502    0 -0.10826922181E+03  0.11701473726E+03 -0.81238598610E+02  0.17892566399E+03  0.10100000352E+00 0.  1.
       -3    1    3    3    0  502  0.10826922181E+03 -0.11701473726E+03 -0.16193094540E+04  0.16271379140E+04  0.10100000352E+00 0. -1.
</event>
<event>
 5   0  0.7893875E-03  0.8672618E+03  0.7818609E-02  0.9467457E-01
        3   -1    0    0  501    0  0.00000000000E+00  0.00000000000E+00  0.86868113839E+03  0.86868114426E+03  0.10100000352E+00 0.  1.
       -3   -1    0    0    0  501  0.00000000000E+00  0.00000000000E+00 -0.21646118031E+03  0.21646120387E+03  0.10100000352E+00 0. -1.
    10030    2    1    2    0    0  0.00000000000E+00  0.00000000000E+00  0.65221995808E+03  0.10851423481E+04  0.86726180707E+03 0.  0.
        2    1    3    3  502    0  0.25869601738E+03 -0.11039124438E+03  0.73906436033E+03  0.79077555916E+03  0.25500000920E-02 0.  1.
       -2    1    3    3    0  502 -0.25869601738E+03  0.11039124438E+03 -0.86844402250E+02  0.29436678898E+03  0.25500000920E-02 0. -1.
</event>
<event>
 5   0  0.1177712E-02  0.9162681E+03  0.7818609E-02  0.9405471E-01
       -1   -1    0    0    0  501  0.00000000000E+00  0.00000000000E+00  0.73289403920E+03  0.73289403922E+03  0.50400001928E-02 0.  1.
        1   -1    0    0  501    0  0.00000000000E+00  0.00000000000E+00 -0.28638085375E+03  0.28638085380E+03  0.50400001928E-02 0. -1.
    10030    2    1    2    0    0  0.00000000000E+00  0.00000000000E+00  0.44651318545E+03  0.10192748930E+04  0.91626812820E+03 0.  0.
        5    1    3    3  502    0  0.13885265272E+03 -0.12439746048E+03  0.68876137857E+03  0.71356086912E+03  0.46999998093E+01 0.  1.
       -5    1    3    3    0  502 -0.13885265272E+03  0.12439746048E+03 -0.24224819311E+03  0.30571402389E+03  0.46999998093E+01 0. -1.
</event>
<event>
 5   0  0.1924218E-02  0.9092113E+03  0.7818609E-02  0.9414140E-01
        2   -1    0    0  501    0  0.00000000000E+00  0.00000000000E+00  0.19552730285E+04  0.19552730285E+04  0.25500000920E-02 0. -1.
       -2   -1    0    0    0  501  0.00000000000E+00  0.00000000000E+00 -0.10569688834E+03  0.10569688837E+03  0.25500000920E-02 0.  1.
    10030    2    1    2    0    0  0.00000000000E+00  0.00000000000E+00  0.18495761402E+04  0.20609699169E+04  0.90921125156E+03 0.  0.
        4    1    3    3  502    0  0.29354365289E+03  0.33192599814E+03  0.11550844160E+04  0.12371597978E+04  0.12699999809E+01 0. -1.
       -4    1    3    3    0  502 -0.29354365289E+03 -0.33192599814E+03  0.69449172421E+03  0.82381011907E+03  0.12699999809E+01 0.  1.
</event>
<event>
 5   0  0.1924218E-02  0.8852855E+03  0.7818609E-02  0.9444165E-01
        2   -1    0    0  501    0  0.00000000000E+00  0.00000000000E+00  0.37746547113E+03  0.37746547114E+03  0.25500000920E-02 0.  1.
       -2   -1    0    0    0  501  0.00000000000E+00  0.00000000000E+00 -0.51907423888E+03  0.51907423889E+03  0.25500000920E-02 0. -1.
    10030    2    1    2    0    0  0.00000000000E+00  0.00000000000E+00 -0.14160876775E+03  0.89653971002E+03  0.88528549550E+03 0.  0.
        4    1    3    3  502    0  0.33089640114E+02 -0.39327072371E+03  0.13217868555E+03  0.41620860662E+03  0.12699999809E+01 0.  1.
       -4    1    3    3    0  502 -0.33089640114E+02  0.39327072371E+03 -0.27378745331E+03  0.48033110340E+03  0.12699999809E+01 0. -1.
</event>
<event>
 5   0  0.1968763E-02  0.8303433E+03  0.7818609E-02  0.9517106E-01
       -2   -1    0    0    0  501  0.00000000000E+00  0.00000000000E+00  0.22580175144E+03  0.22580175145E+03  0.25500000920E-02 0.  1.
        2   -1    0    0  501    0  0.00000000000E+00  0.00000000000E+00 -0.76335763031E+03  0.76335763032E+03  0.25500000920E-02 0. -1.
    10030    2    1    2    0    0  0.00000000000E+00  0.00000000000E+00 -0.53755587887E+03  0.98915938177E+03  0.83034327819E+03 0.  0.
        2    1    3    3  502    0 -0.89883423161E+01 -0.33601078240E+03  0.21518244132E+02  0.33681904789E+03  0.25500000920E-02 0.  1.
       -2    1    3    3    0  502  0.89883423161E+01  0.33601078240E+03 -0.55907412300E+03  0.65234033388E+03  0.25500000920E-02 0. -1.
</event>
<event>
 5   0  0.1206541E-02  0.9160907E+03  0.7818609E-02  0.9405688E-01
       -1   -1    0    0    0  501  0.00000000000E+00  0.00000000000E+00  0.56548317105E+03  0.56548317108E+03  0.50400001928E-02 0. -1.
        1   -1    0    0  501    0  0.00000000000E+00  0.00000000000E+00 -0.37101995597E+03  0.37101995601E+03  0.50400001928E-02 0.  1.
    10030    2    1    2    0    0  0.00000000000E+00  0.00000000000E+00  0.19446321508E+03  0.93650312708E+03  0.91609069694E+03 0.  0.
        3    1    3    3  502    0 -0.50607320471E+02  0.38125080274E+03 -0.15709331106E+03  0.41544144480E+03  0.10100000352E+00 0. -1.
       -3    1    3    3    0  502  0.50607320471E+02 -0.38125080274E+03  0.35155652614E+03  0.52106168229E+03  0.10100000352E+00 0.  1.
</event>
<event>
 5   0  0.2008643E-02  0.8057695E+03  0.7818609E-02  0.9551703E-01
       -2   -1    0    0    0  501  0.00000000000E+00  0.00000000000E+00  0.10178181082E+03  0.10178181085E+03  0.25500000920E-02 0. -1.
        2   -1    0    0  501    0  0.00000000000E+00  0.00000000000E+00 -0.15947460167E+04  0.15947460167E+04  0.25500000920E-02 0.  1.
    10030    2    1    2    0    0  0.00000000000E+00  0.00000000000E+00 -0.14929642059E+04  0.16965278275E+04  0.80576953876E+03 0.  0.
        3    1    3    3  502    0  0.38083605423E+02  0.39876848564E+03 -0.83702882591E+03  0.92794608235E+03  0.10100000352E+00 0.  1.
       -3    1    3    3    0  502 -0.38083605423E+02 -0.39876848564E+03 -0.65593537995E+03  0.76858174518E+03  0.10100000352E+00 0. -1.
</event>
<event>
 5   0  0.1177712E-02  0.9024600E+03  0.7818609E-02  0.9422512E-01
       -1   -1    0    0    0  501  0.00000000000E+00  0.00000000000E+00  0.35403085181E+03  0.35403085185E+03  0.50400001928E-02 0.  1.
        1   -1    0    0  501    0  0.00000000000E+00  0.00000000000E+00 -0.57511511035E+03  0.57511511037E+03  0.50400001928E-02 0. -1.
    10030    2    1    2    0    0  0.00000000000E+00  0.00000000000E+00 -0.22108425854E+03  0.92914596222E+03  0.90245995464E+03 0.  0.
        5    1    3    3  502    0  0.21389454932E+03  0.35656907799E+03 -0.29091983868E+03  0.50749268777E+03  0.46999998093E+01 0. -1.
       -5    1    3    3    0  502 -0.21389454932E+03 -0.35656907799E+03  0.69835580135E+02  0.42165327445E+03  0.46999998093E+01 0.  1.
</event>
<event>
 5   0  0.1206541E-02  0.9039601E+03  0.7818609E-02  0.9420645E-01
       -1   -1    0    0    0  501  0.00000000000E+00  0.00000000000E+00  0.12761593036E+04  0.12761593037E+04  0.50400001928E-02 0. -1.
        1   -1    0    0  501    0  0.00000000000E+00  0.00000000000E+00 -0.16007873046E+03  0.16007873054E+03  0.50400001928E-02 0.  1.
    10030    2    1    2    0    0  0.00000000000E+00  0.00000000000E+00  0.11160805732E+04  0.14362380342E+04  0.90396009040E+03 0.  0.
        3    1    3    3  502    0  0.21311109521E+03 -0.36757466351E+03  0.80293898822E+03  0.90842638731E+03  0.10100000352E+00 0. -1.
       -3    1    3    3    0  502 -0.21311109521E+03  0.36757466351E+03  0.31314158496E+03  0.52781164688E+03  0.10100000352E+00 0.  1.
</event>
<event>
 5   0  0.1177712E-02  0.8987752E+03  0.7818609E-02  0.9427114E-01
       -1   -1    0    0    0  501  0.00000000000E+00  0.00000000000E+00  0.88563395836E+02  0.88563395979E+02  0.50400001928E-02 0.  1.
        1   -1    0    0  501    0  0.00000000000E+00  0.00000000000E+00 -0.22802785566E+04  0.22802785566E+04  0.50400001928E-02 0. -1.
    10030    2    1    2    0    0  0.00000000000E+00  0.00000000000E+00 -0.21917151608E+04  0.23688419526E+04  0.89877519459E+03 0.  0.
        5    1    3    3  502    0  0.41482119794E+03 -0.98020667758E+02 -0.72087033816E+03  0.83747287240E+03  0.46999998093E+01 0. -1.
       -5    1    3    3    0  502 -0.41482119794E+03  0.98020667758E+02 -0.14708448226E+04  0.15313690802E+04  0.46999998093E+01 0.  1.
</event>
<event>
 5   0  0.1924218E-02  0.8744514E+03  0.7818609E-02  0.9458094E-01
        2   -1    0    0  501    0  0.00000000000E+00  0.00000000000E+00  0.85430489454E+03  0.85430489454E+03  0.25500000920E-02 0.  1.
       -2   -1    0    0    0  501  0.00000000000E+00  0.00000000000E+00 -0.22376826411E+03  0.22376826412E+03  0.25500000920E-02 0. -1.
    10030    2    1    2    0    0  0.00000000000E+00  0.00000000000E+00  0.63053663043E+03  0.10780731587E+04  0.87445142410E+03 0.  0.
        4    1    3    3  502    0 -0.18596839826E+03  0.16329395338E+03  0.75963665829E+03  0.79893593353E+03  0.12699999809E+01 0.  1.
       -4    1    3    3    0  502  0.18596839826E+03 -0.16329395338E+03 -0.12910002786E+03  0.27913722514E+03  0.12699999809E+01 0. -1.
</event>
<event>
 5   0  0.1175993E-02  0.8874354E+03  0.7818609E-02  0.9441425E-01
       -1   -1    0    0    0  501  0.00000000000E+00  0.00000000000E+00  0.11299781745E+04  0.11299781745E+04  0.50400001928E-02 0.  1.
        1   -1    0    0  501    0  0.00000000000E+00  0.00000000000E+00 -0.17423824630E+03  0.17423824637E+03  0.50400001928E-02 0. -1.
    10030    2    1    2    0    0  0.00000000000E+00  0.00000000000E+00  0.95573992819E+03  0.13042164209E+04  0.88743544110E+03 0.  0.
        4    1    3    3  502    0  0.30901917773E+03  0.26732112909E+03  0.73212460973E+03  0.83842799055E+03  0.12699999809E+01 0.  1.
       -4    1    3    3    0  502 -0.30901917773E+03 -0.26732112909E+03  0.22361531846E+03  0.46578843032E+03  0.12699999809E+01 0. -1.
</event>
<event>
 5   0  0.1206541E-02  0.8966396E+03  0.7818609E-02  0.9429792E-01
        1   -1    0    0  501    0  0.00000000000E+00  0.00000000000E+00  0.21055489056E+03  0.21055489062E+03  0.50400001928E-02 0.  1.
       -1   -1    0    0    0  501  0.00000000000E+00  0.00000000000E+00 -0.95457608711E+03  0.95457608713E+03  0.50400001928E-02 0. -1.
    10030    2    1    2    0    0  0.00000000000E+00  0.00000000000E+00 -0.74402119656E+03  0.11651309777E+04  0.89663964577E+03 0.  0.
        3    1    3    3  502    0  0.37172316245E+03  0.25047338805E+03 -0.38331094347E+03  0.58978158433E+03  0.10100000352E+00 0.  1.
       -3    1    3    3    0  502 -0.37172316245E+03 -0.25047338805E+03 -0.36071025308E+03  0.57534939342E+03  0.10100000352E+00 0. -1.
</event>
<event>
 5   0  0.1968763E-02  0.7100343E+03  0.7818609E-02  0.9700224E-01
        2   -1    0    0  501    0  0.00000000000E+00  0.00000000000E+00  0.37661178963E+03  0.37661178964E+03  0.25500000920E-02 0.  1.
       -2   -1    0    0    0  501  0.00000000000E+00  0.00000000000E+00 -0.33466069659E+03  0.33466069660E+03  0.25500000920E-02 0. -1.
    10030    2    1    2    0    0  0.00000000000E+00  0.00000000000E+00  0.41951093034E+02  0.71127248624E+03  0.71003426359E+03 0.  0.
        2    1    3    3  502    0 -0.29098090796E+03  0.22937231117E+02 -0.18146883544E+03  0.34369600465E+03  0.25500000920E-02 0. -1.
       -2    1    3    3    0  502  0.29098090796E+03 -0.22937231117E+02  0.22341992848E+03  0.36757648159E+03  0.25500000920E-02 0.  1.
</event>
<event>
 5   0  0.1206541E-02  0.5888917E+03  0.7818609E-02  0.9928724E-01
        1   -1    0    0  501    0  0.00000000000E+00  0.00000000000E+00  0.18611707300E+04  0.18611707300E+04  0.50400001928E-02 0. -1.
       -1   -1    0    0    0  501  0.00000000000E+00  0.00000000000E+00 -0.46582694850E+02  0.46582695122E+02  0.50400001928E-02 0.  1.
    10030    2    1    2    0    0  0.00000000000E+00  0.00000000000E+00  0.18145880352E+04  0.19077534251E+04  0.58889166557E+03 0.  0.
        3    1    3    3  502    0 -0.86429079053E+01  0.23428771178E+03  0.14843816407E+04  0.15027821856E+04  0.10100000352E+00 0. -1.
       -3    1    3    3    0  502  0.86429079053E+01 -0.23428771178E+03  0.33020639442E+03  0.40497123955E+03  0.10100000352E+00 0.  1.
</event>
<event>
 5   0  0.1924218E-02  0.8948672E+03  0.7818609E-02  0.9432020E-01
        2   -1    0    0  501    0  0.00000000000E+00  0.00000000000E+00  0.25405417854E+04  0.25405417854E+04  0.25500000920E-02 0.  1.
       -2   -1    0    0    0  501  0.00000000000E+00  0.00000000000E+00 -0.78800842261E+02  0.78800842302E+02  0.25500000920E-02 0. -1.
    10030    2    1    2    0    0  0.00000000000E+00  0.00000000000E+00  0.24617409431E+04  0.26193426277E+04  0.89486721371E+03 0.  0.
        4    1    3    3  502    0 -0.15247678672E+03  0.10256051487E+03  0.24249853657E+04  0.24319382119E+04  0.12699999809E+01 0.  1.
       -4    1    3    3    0  502  0.15247678672E+03 -0.10256051487E+03  0.36755577457E+02  0.18740441583E+03  0.12699999809E+01 0. -1.
</event>
<event>
 5   0  0.2008770E-02  0.8972395E+03  0.7818609E-02  0.9429039E-01
        2   -1    0    0  501    0  0.00000000000E+00  0.00000000000E+00  0.79586812256E+03  0.79586812257E+03  0.25500000920E-02 0. -1.
       -2   -1    0    0    0  501  0.00000000000E+00  0.00000000000E+00 -0.25288070125E+03  0.25288070127E+03  0.25500000920E-02 0.  1.
    10030    2    1    2    0    0  0.00000000000E+00  0.00000000000E+00  0.54298742131E+03  0.10487488238E+04  0.89723951975E+03 0.  0.
        1    1    3    3  502    0 -0.31224073858E+03  0.25072075750E+03  0.50789437879E+03  0.64677034340E+03  0.50400001928E-02 0. -1.
       -1    1    3    3    0  502  0.31224073858E+03 -0.25072075750E+03  0.35093042525E+02  0.40197848043E+03  0.50400001928E-02 0.  1.
</event>
<event>
 5   0  0.2008770E-02  0.8766225E+03  0.7818609E-02  0.9455286E-01
        2   -1    0    0  501    0  0.00000000000E+00  0.00000000000E+00  0.25527063044E+03  0.25527063045E+03  0.25500000920E-02 0.  1.
       -2   -1    0    0    0  501  0.00000000000E+00  0.00000000000E+00 -0.75260023257E+03  0.75260023257E+03  0.25500000920E-02 0. -1.
    10030    2    1    2    0    0  0.00000000000E+00  0.00000000000E+00 -0.49732960213E+03  0.10078708630E+04  0.87662246342E+03 0.  0.
        1    1    3    3  502    0  0.34775813074E+03  0.83014507395E+02 -0.54018099837E+03  0.64778286251E+03  0.50400001928E-02 0. -1.
       -1    1    3    3    0  502 -0.34775813074E+03 -0.83014507395E+02  0.42851396234E+02  0.36008800052E+03  0.50400001928E-02 0.  1.
</event>
<event>
 5   0  0.2008643E-02  0.7221277E+03  0.7818609E-02  0.9680122E-01
       -2   -1    0    0    0  501  0.00000000000E+00  0.00000000000E+00  0.13703569727E+03  0.13703569730E+03  0.25500000920E-02 0. -1.
        2   -1    0    0  501    0  0.00000000000E+00  0.00000000000E+00 -0.95133669894E+03  0.95133669894E+03  0.25500000920E-02 0.  1.
    10030    2    1    2    0    0  0.00000000000E+00  0.00000000000E+00 -0.81430100166E+03  0.10883723962E+04  0.72212765601E+03 0.  0.
        3    1    3    3  502    0 -0.19872290866E+03 -0.97862378719E+02  0.22590487574E+02  0.22266158161E+03  0.10100000352E+00 0. -1.
       -3    1    3    3    0  502  0.19872290866E+03  0.97862378719E+02 -0.83689148924E+03  0.86571081462E+03  0.10100000352E+00 0.  1.
</event>
<event>
 5   0  0.2041861E-02  0.8964789E+03  0.7818609E-02  0.9429994E-01
       -2   -1    0    0    0  501  0.00000000000E+00  0.00000000000E+00  0.14542492906E+03  0.14542492909E+03  0.25500000920E-02 0. -1.
        2   -1    0    0  501    0  0.00000000000E+00  0.00000000000E+00 -0.13815966383E+04  0.13815966383E+04  0.25500000920E-02 0.  1.
    10030    2    1    2    0    0  0.00000000000E+00  0.00000000000E+00 -0.12361717092E+04  0.15270215674E+04  0.89647887457E+03 0.  0.
        5    1    3    3  502    0  0.12729974039E+03 -0.32847823635E+03 -0.14605884036E+03  0.38139015522E+03  0.46999998093E+01 0. -1.
       -5    1    3    3    0  502 -0.12729974039E+03  0.32847823635E+03 -0.10901128689E+04  0.11456314122E+04  0.46999998093E+01 0.  1.
</event>
<event>
 5   0  0.1206541E-02  0.8997555E+03  0.7818609E-02  0.9425887E-01
        1   -1    0    0  501    0  0.00000000000E+00  0.00000000000E+00  0.25759285866E+03  0.25759285871E+03  0.50400001928E-02 0. -1.
       -1   -1    0    0    0  501  0.00000000000E+00  0.00000000000E+00 -0.78569713304E+03  0.78569713306E+03  0.50400001928E-02 0.  1.
    10030    2    1    2    0    0  0.00000000000E+00  0.00000000000E+00 -0.52810427439E+03  0.10432899918E+04  0.89975545694E+03 0.  0.
        3    1    3    3  502    0  0.14211356954E+03 -0.83354741884E+02  0.22135282678E+03  0.27593724607E+03  0.10100000352E+00 0. -1.
       -3    1    3    3    0  502 -0.14211356954E+03  0.83354741884E+02 -0.74945710117E+03  0.76735274570E+03  0.10100000352E+00 0.  1.
</event>
<event>
 5   0  0.1175993E-02  0.9171758E+03  0.7818609E-02  0.9404362E-01
        1   -1    0    0  501    0  0.00000000000E+00  0.00000000000E+00  0.84205760349E+03  0.84205760350E+03  0.50400001928E-02 0.  1.
       -1   -1    0    0    0  501  0.00000000000E+00  0.00000000000E+00 -0.24974879584E+03  0.24974879589E+03  0.50400001928E-02 0. -1.
    10030    2    1    2    0    0  0.00000000000E+00  0.00000000000E+00  0.59230880765E+03  0.10918063994E+04  0.91717582291E+03 0.  0.
        4    1    3    3  502    0 -0.31802065124E+03  0.58060351309E+02 -0.91033473600E+02  0.33585241584E+03  0.12699999809E+01 0. -1.
       -4    1    3    3    0  502  0.31802065124E+03 -0.58060351309E+02  0.68334228125E+03  0.75595398355E+03  0.12699999809E+01 0.  1.
</event>
<event>
 5   0  0.1924218E-02  0.8960172E+03  0.7818609E-02  0.9430574E-01
       -2   -1    0    0    0  501  0.00000000000E+00  0.00000000000E+00  0.18580084726E+03  0.18580084728E+03  0.25500000920E-02 0.  1.
        2   -1    0    0  501    0  0.00000000000E+00  0.00000000000E+00 -0.10802517989E+04  0.10802517989E+04  0.25500000920E-02 0. -1.
    10030    2    1    2    0    0  0.00000000000E+00  0.00000000000E+00 -0.89445095167E+03  0.12660526462E+04  0.89601718625E+03 0.  0.
        4    1    3    3  502    0  0.28585287127E+03 -0.31367804340E+02 -0.93262876226E+03  0.97595790086E+03  0.12699999809E+01 0. -1.
       -4    1    3    3    0  502 -0.28585287127E+03  0.31367804340E+02  0.38177810588E+02  0.29009474536E+03  0.12699999809E+01 0.  1.
</event>
<event>
 5   0  0.1206541E-02  0.7993003E+03  0.7818609E-02  0.9561030E-01
       -1   -1    0    0    0  501  0.00000000000E+00  0.00000000000E+00  0.16962541199E+03  0.16962541206E+03  0.50400001928E-02 0. -1.
        1   -1    0    0  501    0  0.00000000000E+00  0.00000000000E+00 -0.94160571216E+03  0.94160571217E+03  0.50400001928E-02 0.  1.
    10030    2    1    2    0    0  0.00000000000E+00  0.00000000000E+00 -0.77198030017E+03  0.11112311242E+04  0.79930033630E+03 0.  0.
        3    1    3    3  502    0  0.35833003379E+02 -0.35221674080E+03 -0.64376757122E+03  0.73469540123E+03  0.10100000352E+00 0.  1.
       -3    1    3    3    0  502 -0.35833003379E+02  0.35221674080E+03 -0.12821272895E+03  0.37653572300E+03  0.10100000352E+00 0. -1.
</event>
<event>
 5   0  0.1162839E-02  0.8835355E+03  0.7818609E-02  0.9446400E-01
       -1   -1    0    0    0  501  0.00000000000E+00  0.00000000000E+00  0.25033226709E+03  0.25033226714E+03  0.50400001928E-02 0.  1.
        1   -1    0    0  501    0  0.00000000000E+00  0.00000000000E+00 -0.77959887489E+03  0.77959887490E+03  0.50400001928E-02 0. -1.
    10030    2    1    2    0    0  0.00000000000E+00  0.00000000000E+00 -0.52926660780E+03  0.10299311420E+04  0.88353552007E+03 0.  0.
        2    1    3    3  502    0 -0.23981962508E+03  0.22014656416E+03 -0.61274597978E+03  0.69385560315E+03  0.25500000920E-02 0. -1.
       -2    1    3    3    0  502  0.23981962508E+03 -0.22014656416E+03  0.83479371982E+02  0.33607553889E+03  0.25500000920E-02 0.  1.
</event>
<event>
 5   0  0.1206541E-02  0.8965228E+03  0.7818609E-02  0.9429939E-01
       -1   -1    0    0    0  501  0.00000000000E+00  0.00000000000E+00  0.29691132215E+03  0.29691132219E+03  0.50400001928E-02 0.  1.
        1   -1    0    0  501    0  0.00000000000E+00  0.00000000000E+00 -0.67676198552E+03  0.67676198554E+03  0.50400001928E-02 0. -1.
    10030    2    1    2    0    0  0.00000000000E+00  0.00000000000E+00 -0.37985066337E+03  0.97367330773E+03  0.89652282944E+03 0.  0.
        3    1    3    3  502    0 -0.83581191086E+02 -0.42678634503E+03 -0.30793054723E+03  0.53287299793E+03  0.10100000352E+00 0. -1.
       -3    1    3    3    0  502  0.83581191086E+02  0.42678634503E+03 -0.71920116141E+02  0.44080030979E+03  0.10100000352E+00 0.  1.
</event>
<event>
 5   0  0.1226424E-02  0.9026552E+03  0.7818609E-02  0.9422268E-01
       -1   -1    0    0    0  501  0.00000000000E+00  0.00000000000E+00  0.33967796315E+03  0.33967796318E+03  0.50400001928E-02 0.  1.
        1   -1    0    0  501    0  0.00000000000E+00  0.00000000000E+00 -0.59967566117E+03  0.59967566119E+03  0.50400001928E-02 0. -1.
    10030    2    1    2    0    0  0.00000000000E+00  0.00000000000E+00 -0.25999769803E+03  0.93935362438E+03  0.90265521029E+03 0.  0.
        1    1    3    3  502    0  0.10410058442E+03 -0.43653586036E+03 -0.80132872174E+02  0.45587472653E+03  0.50400001928E-02 0. -1.
       -1    1    3    3    0  502 -0.10410058442E+03  0.43653586036E+03 -0.17986482585E+03  0.48347889785E+03  0.50400001928E-02 0.  1.
</event>
<event>
 5   0  0.1177712E-02  0.8881765E+03  0.7818609E-02  0.9440483E-01
        1   -1    0    0  501    0  0.00000000000E+00  0.00000000000E+00  0.77091375260E+03  0.77091375262E+03  0.50400001928E-02 0.  1.
       -1   -1    0    0    0  501  0.00000000000E+00  0.00000000000E+00 -0.25581898664E+03  0.25581898669E+03  0.50400001928E-02 0. -1.
    10030    2    1    2    0    0  0.00000000000E+00  0.00000000000E+00  0.51509476597E+03  0.10267327393E+04  0.88817650275E+03 0.  0.
        5    1    3    3  502    0  0.24272858596E+03 -0.29815139093E+03  0.51443163722E+03  0.64224093433E+03  0.46999998093E+01 0.  1.
       -5    1    3    3    0  502 -0.24272858596E+03  0.29815139093E+03  0.66312875076E+00  0.38449180498E+03  0.46999998093E+01 0. -1.
</event>
<event>
 5   0  0.1162839E-02  0.8993541E+03  0.7818609E-02  0.9426389E-01
       -1   -1    0    0    0  501  0.00000000000E+00  0.00000000000E+00  0.12604704537E+04  0.12604704538E+04  0.50400001928E-02 0.  1.
        1   -1    0    0  501    0  0.00000000000E+00  0.00000000000E+00 -0.16042378207E+03  0.16042378215E+03  0.50400001928E-02 0. -1.
    10030    2    1    2    0    0  0.00000000000E+00  0.00000000000E+00  0.11000466717E+04  0.14208942359E+04  0.89935407364E+03 0.  0.
        2    1    3    3  502    0  0.32500817291E+03  0.10566380648E+03  0.10117620627E+04  0.10679221058E+04  0.25500000920E-02 0.  1.
       -2    1    3    3    0  502 -0.32500817291E+03 -0.10566380648E+03  0.88284608944E+02  0.35297213012E+03  0.25500000920E-02 0. -1.
</event>
<event>
 5   0  0.7893875E-03  0.8243880E+03  0.7818609E-02  0.9525372E-01
        3   -1    0    0  501    0  0.00000000000E+00  0.00000000000E+00  0.30836041352E+03  0.30836043006E+03  0.10100000352E+00 0. -1.
       -3   -1    0    0    0  501  0.00000000000E+00  0.00000000000E+00 -0.55099121585E+03  0.55099122511E+03  0.10100000352E+00 0.  1.
    10030    2    1    2    0    0  0.00000000000E+00  0.00000000000E+00 -0.24263080233E+03  0.85935165517E+03  0.82438799179E+03 0.  0.
        2    1    3    3  502    0 -0.38092196513E+03 -0.30550201990E+00  0.42851209045E+02  0.38332474871E+03  0.25500000920E-02 0. -1.
       -2    1    3    3    0  502  0.38092196513E+03  0.30550201990E+00 -0.28548201138E+03  0.47602690646E+03  0.25500000920E-02 0.  1.
</event>
<event>
 5   0  0.7893875E-03  0.9442487E+03  0.7818609E-02  0.9371898E-01
       -4   -1    0    0    0  501  0.00000000000E+00  0.00000000000E+00  0.40841869189E+03  0.40842066645E+03  0.12699999809E+01 0. -1.
        4   -1    0    0  501    0  0.00000000000E+00  0.00000000000E+00 -0.54576288345E+03  0.54576436110E+03  0.12699999809E+01 0.  1.
    10030    2    1    2    0    0  0.00000000000E+00  0.00000000000E+00 -0.13734419156E+03  0.95418502755E+03  0.94424871716E+03 0.  0.
        4    1    3    3  502    0 -0.27953530221E+03 -0.12578062273E+02  0.31559460327E+03  0.42178164890E+03  0.12699999809E+01 0. -1.
       -4    1    3    3    0  502  0.27953530221E+03  0.12578062273E+02 -0.45293879484E+03  0.53240337865E+03  0.12699999809E+01 0.  1.
</event>
<event>
 5   0  0.2041861E-02  0.8033760E+03  0.7818609E-02  0.9555143E-01
        2   -1    0    0  501    0  0.00000000000E+00  0.00000000000E+00  0.78064930003E+03  0.78064930004E+03  0.25500000920E-02 0. -1.
       -2   -1    0    0    0  501  0.00000000000E+00  0.00000000000E+00 -0.20669108532E+03  0.20669108534E+03  0.25500000920E-02 0.  1.
    10030    2    1    2    0    0  0.00000000000E+00  0.00000000000E+00  0.57395821471E+03  0.98734038537E+03  0.80337600435E+03 0.  0.
        5    1    3    3  502    0 -0.42826468167E+01 -0.37961683564E+03  0.44817769195E+03  0.58737774603E+03  0.46999998093E+01 0. -1.
       -5    1    3    3    0  502  0.42826468167E+01  0.37961683564E+03  0.12578052276E+03  0.39996263934E+03  0.46999998093E+01 0.  1.
</event>
<event>
 5   0  0.1226424E-02  0.8925364E+03  0.7818609E-02  0.9434960E-01
       -1   -1    0    0    0  501  0.00000000000E+00  0.00000000000E+00  0.25164561273E+03  0.25164561278E+03  0.50400001928E-02 0. -1.
        1   -1    0    0  501    0  0.00000000000E+00  0.00000000000E+00 -0.79141178293E+03  0.79141178295E+03  0.50400001928E-02 0.  1.
    10030    2    1    2    0    0  0.00000000000E+00  0.00000000000E+00 -0.53976617021E+03  0.10430573957E+04  0.89253639269E+03 0.  0.
        1    1    3    3  502    0 -0.33149389660E+03 -0.14998923154E+03  0.32094032040E+02  0.36526018121E+03  0.50400001928E-02 0. -1.
       -1    1    3    3    0  502  0.33149389660E+03  0.14998923154E+03 -0.57186020225E+03  0.67779721451E+03  0.50400001928E-02 0.  1.
</event>
<event>
 5   0  0.2041861E-02  0.9276545E+03  0.7818609E-02  0.9391657E-01
       -2   -1    0    0    0  501  0.00000000000E+00  0.00000000000E+00  0.21600385225E+03  0.21600385226E+03  0.25500000920E-02 0. -1.
        2   -1    0    0  501    0  0.00000000000E+00  0.00000000000E+00 -0.99598098634E+03  0.99598098635E+03  0.25500000920E-02 0.  1.
    10030    2    1    2    0    0  0.00000000000E+00  0.00000000000E+00 -0.77997713409E+03  0.12119848386E+04  0.92765452584E+03 0.  0.
        5    1    3    3  502    0 -0.12140004302E+03 -0.38716515627E+03 -0.96449791472E+02  0.41708450097E+03  0.46999998093E+01 0. -1.
       -5    1    3    3    0  502  0.12140004302E+03  0.38716515627E+03 -0.68352734262E+03  0.79490033764E+03  0.46999998093E+01 0.  1.
</event>
<event>
 5   0  0.1206541E-02  0.9162796E+03  0.7818609E-02  0.9405457E-01
        1   -1    0    0  501    0  0.00000000000E+00  0.00000000000E+00  0.11804628769E+04  0.11804628769E+04  0.50400001928E-02 0. -1.
       -1   -1    0    0    0  501  0.00000000000E+00  0.00000000000E+00 -0.17780487593E+03  0.17780487600E+03  0.50400001928E-02 0.  1.
    10030    2    1    2    0    0  0.00000000000E+00  0.00000000000E+00  0.10026580010E+04  0.13582677529E+04  0.91627955432E+03 0.  0.
        3    1    3    3  502    0  0.45867520320E+02 -0.37492024351E+03  0.88566974383E+03  0.96284989679E+03  0.10100000352E+00 0. -1.
       -3    1    3    3    0  502 -0.45867520320E+02  0.37492024351E+03  0.11698825713E+03  0.39541785610E+03  0.10100000352E+00 0.  1.
</event>
<event>
 5   0  0.1924218E-02  0.8683508E+03  0.7818609E-02  0.9466033E-01
       -2   -1    0    0    0  501  0.00000000000E+00  0.00000000000E+00  0.30987537434E+03  0.30987537435E+03  0.25500000920E-02 0. -1.
        2   -1    0    0  501    0  0.00000000000E+00  0.00000000000E+00 -0.60833574104E+03  0.60833574105E+03  0.25500000920E-02 0.  1.
    10030    2    1    2    0    0  0.00000000000E+00  0.00000000000E+00 -0.29846036670E+03  0.91821111540E+03  0.86835077126E+03 0.  0.
        4    1    3    3  502    0 -0.22682916199E+03 -0.18511014806E+02 -0.54020744956E+03  0.58619094829E+03  0.12699999809E+01 0.  1.
       -4    1    3    3    0  502  0.22682916199E+03  0.18511014806E+02  0.24174708286E+03  0.33202016711E+03  0.12699999809E+01 0. -1.
</event>
<event>
 5   0  0.1175993E-02  0.8743872E+03  0.7818609E-02  0.9458177E-01
        1   -1    0    0  501    0  0.00000000000E+00  0.00000000000E+00  0.12880928785E+04  0.12880928785E+04  0.50400001928E-02 0.  1.
       -1   -1    0    0    0  501  0.00000000000E+00  0.00000000000E+00 -0.14838857187E+03  0.14838857196E+03  0.50400001928E-02 0. -1.
    10030    2    1    2    0    0  0.00000000000E+00  0.00000000000E+00  0.11397043066E+04  0.14364814504E+04  0.87438724314E+03 0.  0.
        4    1    3    3  502    0  0.12210352685E+03 -0.34868502181E+03  0.18581262174E+03  0.41354378124E+03  0.12699999809E+01 0. -1.
       -4    1    3    3    0  502 -0.12210352685E+03  0.34868502181E+03  0.95389168487E+03  0.10229376692E+04  0.12699999809E+01 0.  1.
</event>
<event>
 5   0  0.1924218E-02  0.9530796E+03  0.7818609E-02  0.9361558E-01
        2   -1    0    0  501    0  0.00000000000E+00  0.00000000000E+00  0.11435468552E+04  0.11435468552E+04  0.25500000920E-02 0.  1.
       -2   -1    0    0    0  501  0.00000000000E+00  0.00000000000E+00 -0.19858406667E+03  0.19858406668E+03  0.25500000920E-02 0. -1.
    10030    2    1    2    0    0  0.00000000000E+00  0.00000000000E+00  0.94496278857E+03  0.13421309219E+04  0.95307960832E+03 0.  0.
        4    1    3    3  502    0  0.21129452709E+03  0.25892775972E+03  0.95085573364E+03  0.10078775724E+04  0.12699999809E+01 0.  1.
       -4    1    3    3    0  502 -0.21129452709E+03 -0.25892775972E+03 -0.58929450752E+01  0.33425334947E+03  0.12699999809E+01 0. -1.
</event>
<event>
 5   0  0.1968763E-02  0.8949092E+03  0.7818609E-02  0.9431968E-01
       -2   -1    0    0    0  501  0.00000000000E+00  0.00000000000E+00  0.26768063240E+03  0.26768063241E+03  0.25500000920E-02 0. -1.
        2   -1    0    0  501    0  0.00000000000E+00  0.00000000000E+00 -0.74796458571E+03  0.74796458572E+03  0.25500000920E-02 0.  1.
    10030    2    1    2    0    0  0.00000000000E+00  0.00000000000E+00 -0.48028395332E+03  0.10156452181E+04  0.89490923187E+03 0.  0.
        2    1    3    3  502    0 -0.11185784025E+03 -0.39876185462E+03 -0.47900637843E+02  0.41691445674E+03  0.25500000920E-02 0. -1.
       -2    1    3    3    0  502  0.11185784025E+03  0.39876185462E+03 -0.43238331547E+03  0.59873076139E+03  0.25500000920E-02 0.  1.
</event>
<event>
 5   0  0.1226424E-02  0.8724279E+03  0.7818609E-02  0.9460720E-01
       -1   -1    0    0    0  501  0.00000000000E+00  0.00000000000E+00  0.24300890637E+03  0.24300890642E+03  0.50400001928E-02 0.  1.
        1   -1    0    0  501    0  0.00000000000E+00  0.00000000000E+00 -0.78302723966E+03  0.78302723968E+03  0.50400001928E-02 0. -1.
    10030    2    1    2    0    0  0.00000000000E+00  0.00000000000E+00 -0.54001833329E+03  0.10260361461E+04  0.87242786110E+03 0.  0.
        1    1    3    3  502    0 -0.32885780949E+03 -0.11487539453E+03 -0.57880037358E+03  0.67553955296E+03  0.50400001928E-02 0. -1.
       -1    1    3    3    0  502  0.32885780949E+03  0.11487539453E+03  0.38782040283E+02  0.35049659315E+03  0.50400001928E-02 0.  1.
</event>
<event>
 5   0  0.1177712E-02  0.9386594E+03  0.7818609E-02  0.9378505E-01
        1   -1    0    0  501    0  0.00000000000E+00  0.00000000000E+00  0.12838830024E+04  0.12838830024E+04  0.50400001928E-02 0.  1.
       -1   -1    0    0    0  501  0.00000000000E+00  0.00000000000E+00 -0.17156576201E+03  0.17156576209E+03  0.50400001928E-02 0. -1.
    10030    2    1    2    0    0  0.00000000000E+00  0.00000000000E+00  0.11123172404E+04  0.14554487645E+04  0.93865939660E+03 0.  0.
        5    1    3    3  502    0  0.30655933060E+03  0.33853253919E+03  0.72362907291E+03  0.85571258517E+03  0.46999998093E+01 0.  1.
       -5    1    3    3    0  502 -0.30655933060E+03 -0.33853253919E+03  0.38868816749E+03  0.59973617934E+03  0.46999998093E+01 0. -1.
</event>
<event>
 5   0  0.1226424E-02  0.8377328E+03  0.7818609E-02  0.9506951E-01
        1   -1    0    0  501    0  0.00000000000E+00  0.00000000000E+00  0.21820628954E+04  0.21820628954E+04  0.50400001928E-02 0. -1.
       -1   -1    0    0    0  501  0.00000000000E+00  0.00000000000E+00 -0.80405131438E+02  0.80405131596E+02  0.50400001928E-02 0.  1.
    10030    2    1    2    0    0  0.00000000000E+00  0.00000000000E+00  0.21016577639E+04  0.22624680270E+04  0.83773278340E+03 0.  0.
        1    1    3    3  502    0  0.25051173660E+02  0.14011397490E+03  0.21147469875E+04  0.21195316248E+04  0.50400001928E-02 0. -1.
       -1    1    3    3    0  502 -0.25051173660E+02 -0.14011397490E+03 -0.13089223597E+02  0.14293640217E+03  0.50400001928E-02 0.  1.
</event>
<event>
 5   0  0.2041861E-02  0.8529201E+03  0.7818609E-02  0.9486426E-01
       -2   -1    0    0    0  501  0.00000000000E+00  0.00000000000E+00  0.27452854876E+03  0.27452854877E+03  0.25500000920E-02 0.  1.
        2   -1    0    0  501    0  0.00000000000E+00  0.00000000000E+00 -0.66247447105E+03  0.66247447105E+03  0.25500000920E-02 0. -1.
    10030    2    1    2    0    0  0.00000000000E+00  0.00000000000E+00 -0.38794592229E+03  0.93700301982E+03  0.85292005518E+03 0.  0.
        5    1    3    3  502    0 -0.17954140144E+03  0.79835477532E+02  0.22180421628E+03  0.29635792323E+03  0.46999998093E+01 0.  1.
       -5    1    3    3    0  502  0.17954140144E+03 -0.79835477532E+02 -0.60975013856E+03  0.64064509659E+03  0.46999998093E+01 0. -1.
</event>
<event>
 5   0  0.2008643E-02  0.9020676E+03  0.7818609E-02  0.9423000E-01
        2   -1    0    0  501    0  0.00000000000E+00  0.00000000000E+00  0.32010409562E+03  0.32010409563E+03  0.25500000920E-02 0. -1.
       -2   -1    0    0    0  501  0.00000000000E+00  0.00000000000E+00 -0.63551670954E+03  0.63551670954E+03  0.25500000920E-02 0.  1.
    10030    2    1    2    0    0  0.00000000000E+00  0.00000000000E+00 -0.31541261392E+03  0.95562080517E+03  0.90206762843E+03 0.  0.
        3    1    3    3  502    0 -0.42702652741E+03  0.13909171130E+03 -0.11360135152E+03  0.46325310203E+03  0.10100000352E+00 0. -1.
       -3    1    3    3    0  502  0.42702652741E+03 -0.13909171130E+03 -0.20181126240E+03  0.49236770315E+03  0.10100000352E+00 0.  1.
</event>
<event>
 5   0  0.2008643E-02  0.9128791E+03  0.7818609E-02  0.9409624E-01
       -2   -1    0    0    0  501  0.00000000000E+00  0.00000000000E+00  0.62423904757E+03  0.62423904757E+03  0.25500000920E-02 0.  1.
        2   -1    0    0  501    0  0.00000000000E+00  0.00000000000E+00 -0.33374563672E+03  0.33374563673E+03  0.25500000920E-02 0. -1.
    10030    2    1    2    0    0  0.00000000000E+00  0.00000000000E+00  0.29049341084E+03  0.95798468431E+03  0.91287909036E+03 0.  0.
        3    1    3    3  502    0  0.11062119759E+03  0.31407122695E+03  0.47285649309E+03  0.57833472853E+03  0.10100000352E+00 0.  1.
       -3    1    3    3    0  502 -0.11062119759E+03 -0.31407122695E+03 -0.18236308225E+03  0.37964995578E+03  0.10100000352E+00 0. -1.
</event>
<event>
 5   0  0.1162839E-02  0.8946022E+03  0.7818609E-02  0.9432354E-01
        1   -1    0    0  501    0  0.00000000000E+00  0.00000000000E+00  0.42943958816E+03  0.42943958819E+03  0.50400001928E-02 0. -1.
       -1   -1    0    0    0  501  0.00000000000E+00  0.00000000000E+00 -0.46590553605E+03  0.46590553608E+03  0.50400001928E-02 0.  1.
    10030    2    1    2    0    0  0.00000000000E+00  0.00000000000E+00 -0.36465947893E+02  0.89534512427E+03  0.89460221674E+03 0.  0.
        2    1    3    3  502    0  0.14159233356E+03 -0.11227791248E+03 -0.42774701116E+03  0.46435140154E+03  0.25500000920E-02 0.  1.
       -2    1    3    3    0  502 -0.14159233356E+03  0.11227791248E+03  0.39128106327E+03  0.43099372273E+03  0.25500000920E-02 0. -1.
</event>
<event>
 5   0  0.1924218E-02  0.8957541E+03  0.7818609E-02  0.9430905E-01
        2   -1    0    0  501    0  0.00000000000E+00  0.00000000000E+00  0.82171321504E+03  0.82171321505E+03  0.25500000920E-02 0. -1.
       -2   -1    0    0    0  501  0.00000000000E+00  0.00000000000E+00 -0.24411661844E+03  0.24411661845E+03  0.25500000920E-02 0.  1.
    10030    2    1    2    0    0  0.00000000000E+00  0.00000000000E+00  0.57759659661E+03  0.10658298335E+04  0.89575409882E+03 0.  0.
        4    1    3    3  502    0  0.40966433575E+03  0.17900083681E+03  0.32086014930E+03  0.55028993801E+03  0.12699999809E+01 0. -1.
       -4    1    3    3    0  502 -0.40966433575E+03 -0.17900083681E+03  0.25673644731E+03  0.51553989549E+03  0.12699999809E+01 0.  1.
</event>
<event>
 5   0  0.1226424E-02  0.8609074E+03  0.7818609E-02  0.9475813E-01
        1   -1    0    0  501    0  0.00000000000E+00  0.00000000000E+00  0.50799190076E+03  0.50799190078E+03  0.50400001928E-02 0. -1.
       -1   -1    0    0    0  501  0.00000000000E+00  0.00000000000E+00 -0.36475068716E+03  0.36475068720E+03  0.50400001928E-02 0.  1.
    10030    2    1    2    0    0  0.00000000000E+00  0.00000000000E+00  0.14324121360E+03  0.87274258798E+03  0.86090741640E+03 0.  0.
        1    1    3    3  502    0 -0.33916784846E+03 -0.24675661993E+03 -0.26491784112E+02  0.42026833519E+03  0.50400001928E-02 0.  1.
       -1    1    3    3    0  502  0.33916784846E+03  0.24675661993E+03  0.16973299771E+03  0.45247425280E+03  0.50400001928E-02 0. -1.
</event>
<event>
 5   0  0.2008643E-02  0.8796367E+03  0.7818609E-02  0.9451401E-01
       -2   -1    0    0    0  501  0.00000000000E+00  0.00000000000E+00  0.72832498282E+03  0.72832498283E+03  0.25500000920E-02 0.  1.
        2   -1    0    0  501    0  0.00000000000E+00  0.00000000000E+00 -0.26559594217E+03  0.26559594219E+03  0.25500000920E-02 0. -1.
    10030    2    1    2    0    0  0.00000000000E+00  0.00000000000E+00  0.46272904065E+03  0.99392092501E+03  0.87963665233E+03 0.  0.
        3    1    3    3  502    0  0.29579741480E+03  0.30844429006E+02  0.59748834210E+03  0.66741277974E+03  0.10100000352E+00 0.  1.
       -3    1    3    3    0  502 -0.29579741480E+03 -0.30844429006E+02 -0.13475930146E+03  0.32650814528E+03  0.10100000352E+00 0. -1.
</event>
<event>
 5   0  0.1226424E-02  0.8896332E+03  0.7818609E-02  0.9438634E-01
        1   -1    0    0  501    0  0.00000000000E+00  0.00000000000E+00  0.24782425887E+03  0.24782425892E+03  0.50400001928E-02 0. -1.
       -1   -1    0    0    0  501  0.00000000000E+00  0.00000000000E+00 -0.79839565128E+03  0.79839565130E+03  0.50400001928E-02 0.  1.
    10030    2    1    2    0    0  0.00000000000E+00  0.00000000000E+00 -0.55057139242E+03  0.10462199102E+04  0.88963320666E+03 0.  0.
        1    1    3    3  502    0  0.70654561669E+02 -0.11655710437E+03 -0.77323254244E+03  0.78515360941E+03  0.50400001928E-02 0.  1.
       -1    1    3    3    0  502 -0.70654561669E+02  0.11655710437E+03  0.22266115002E+03  0.26106630081E+03  0.50400001928E-02 0. -1.
</event>
<event>
 5   0  0.2041861E-02  0.8865529E+03  0.7818609E-02  0.9442549E-01
        2   -1    0    0  501    0  0.00000000000E+00  0.00000000000E+00  0.14591278625E+04  0.14591278625E+04  0.25500000920E-02 0. -1.
       -2   -1    0    0    0  501  0.00000000000E+00  0.00000000000E+00 -0.13466537582E+03  0.13466537584E+03  0.25500000920E-02 0.  1.
    10030    2    1    2    0    0  0.00000000000E+00  0.00000000000E+00  0.13244624866E+04  0.15937932383E+04  0.88655287938E+03 0.  0.
        5    1    3    3  502    0  0.24743860630E+03  0.18895171571E+02  0.13224922291E+04  0.13455819104E+04  0.46999998093E+01 0. -1.
       -5    1    3    3    0  502 -0.24743860630E+03 -0.18895171571E+02  0.19702574976E+01  0.24821132792E+03  0.46999998093E+01 0.  1.
</event>
<event>
 5   0  0.1177712E-02  0.8961030E+03  0.7818609E-02  0.9430466E-01
       -1   -1    0    0    0  501  0.00000000000E+00  0.00000000000E+00  0.31079589419E+03  0.31079589423E+03  0.50400001928E-02 0.  1.
        1   -1    0    0  501    0  0.00000000000E+00  0.00000000000E+00 -0.64592274196E+03  0.64592274198E+03  0.50400001928E-02 0. -1.
    10030    2    1    2    0    0  0.00000000000E+00  0.00000000000E+00 -0.33512684777E+03  0.95671863622E+03  0.89610297666E+03 0.  0.
        5    1    3    3  502    0 -0.43286339706E+03 -0.10947530999E+02 -0.29040034634E+03  0.52138759105E+03  0.46999998093E+01 0. -1.
       -5    1    3    3    0  502  0.43286339706E+03  0.10947530999E+02 -0.44726501436E+02  0.43533104516E+03  0.46999998093E+01 0.  1.
</event>
<event>
 5   0  0.1162839E-02  0.9098778E+03  0.7818609E-02  0.9413317E-01
       -1   -1    0    0    0  501  0.00000000000E+00  0.00000000000E+00  0.18559876180E+04  0.18559876180E+04  0.50400001928E-02 0. -1.
        1   -1    0    0  501    0  0.00000000000E+00  0.00000000000E+00 -0.11151443140E+03  0.11151443151E+03  0.50400001928E-02 0.  1.
    10030    2    1    2    0    0  0.00000000000E+00  0.00000000000E+00  0.17444731866E+04  0.19675020495E+04  0.90987780282E+03 0.  0.
        2    1    3    3  502    0  0.28734550888E+03 -0.28579887216E+03  0.13191801302E+04  0.13800306710E+04  0.25500000920E-02 0. -1.
       -2    1    3    3    0  502 -0.28734550888E+03  0.28579887216E+03  0.42529305633E+03  0.58747137851E+03  0.25500000920E-02 0.  1.
</event>
<event>
 5   0  0.1968763E-02  0.9125899E+03  0.7818609E-02  0.9409979E-01
       -2   -1    0    0    0  501  0.00000000000E+00  0.00000000000E+00  0.48287448534E+03  0.48287448535E+03  0.25500000920E-02 0.  1.
        2   -1    0    0  501    0  0.00000000000E+00  0.00000000000E+00 -0.43117846468E+03  0.43117846468E+03  0.25500000920E-02 0. -1.
    10030    2    1    2    0    0  0.00000000000E+00  0.00000000000E+00  0.51696020668E+02  0.91405295003E+03  0.91258989525E+03 0.  0.
        2    1    3    3  502    0 -0.94218680751E+02  0.27086281582E+03 -0.32963118422E+03  0.43692166622E+03  0.25500000920E-02 0. -1.
       -2    1    3    3    0  502  0.94218680751E+02 -0.27086281582E+03  0.38132720489E+03  0.47713128381E+03  0.25500000920E-02 0.  1.
</event>
<event>
 5   0  0.2008643E-02  0.8963237E+03  0.7818609E-02  0.9430189E-01
        2   -1    0    0  501    0  0.00000000000E+00  0.00000000000E+00  0.24393903045E+03  0.24393903047E+03  0.25500000920E-02 0.  1.
       -2   -1    0    0    0  501  0.00000000000E+00  0.00000000000E+00 -0.82335757989E+03  0.82335757989E+03  0.25500000920E-02 0. -1.
    10030    2    1    2    0    0  0.00000000000E+00  0.00000000000E+00 -0.57941854943E+03  0.10672966104E+04  0.89632371332E+03 0.  0.
        3    1    3    3  502    0  0.67703236846E+02  0.41548615841E+03 -0.47277726376E+03  0.63303303818E+03  0.10100000352E+00 0. -1.
       -3    1    3    3    0  502 -0.67703236846E+02 -0.41548615841E+03 -0.10664128567E+03  0.43426357217E+03  0.10100000352E+00 0.  1.
</event>
<event>
 5   0  0.1206541E-02  0.9173933E+03  0.7818609E-02  0.9404096E-01
       -1   -1    0    0    0  501  0.00000000000E+00  0.00000000000E+00  0.32105199065E+03  0.32105199069E+03  0.50400001928E-02 0. -1.
        1   -1    0    0  501    0  0.00000000000E+00  0.00000000000E+00 -0.65535371019E+03  0.65535371020E+03  0.50400001928E-02 0.  1.
    10030    2    1    2    0    0  0.00000000000E+00  0.00000000000E+00 -0.33430171954E+03  0.97640570089E+03  0.91739329246E+03 0.  0.
        3    1    3    3  502    0 -0.15808799754E+03  0.24456278969E+01  0.29113371629E+03  0.33129540749E+03  0.10100000352E+00 0. -1.
       -3    1    3    3    0  502  0.15808799754E+03 -0.24456278969E+01 -0.62543543583E+03  0.64511029340E+03  0.10100000352E+00 0.  1.
</event>
<event>
 5   0  0.2041861E-02  0.9172076E+03  0.7818609E-02  0.9404323E-01
       -2   -1    0    0    0  501  0.00000000000E+00  0.00000000000E+00  0.93405674856E+03  0.93405674857E+03  0.25500000920E-02 0. -1.
        2   -1    0    0  501    0  0.00000000000E+00  0.00000000000E+00 -0.22516562028E+03  0.22516562030E+03  0.25500000920E-02 0.  1.
    10030    2    1    2    0    0  0.00000000000E+00  0.00000000000E+00  0.70889112828E+03  0.11592223689E+04  0.91720764754E+03 0.  0.
        5    1    3    3  502    0  0.21558874347E+03  0.31227274814E+03  0.67988064801E+03  0.77862221975E+03  0.46999998093E+01 0. -1.
       -5    1    3    3    0  502 -0.21558874347E+03 -0.31227274814E+03  0.29010480271E+02  0.38060014912E+03  0.46999998093E+01 0.  1.
</event>
<event>
 5   0  0.1924218E-02  0.8913306E+03  0.7818609E-02  0.9436484E-01
       -2   -1    0    0    0  501  0.00000000000E+00  0.00000000000E+00  0.18882240582E+03  0.18882240584E+03  0.25500000920E-02 0. -1.
        2   -1    0    0  501    0  0.00000000000E+00  0.00000000000E+00 -0.10518749946E+04  0.10518749946E+04  0.25500000920E-02 0.  1.
    10030    2    1    2    0    0  0.00000000000E+00  0.00000000000E+00 -0.86305258880E+03  0.12406974005E+04  0.89133061683E+03 0.  0.
        4    1    3    3  502    0  0.89039870199E+02  0.39575394983E+03 -0.68844271924E+03  0.79906462684E+03  0.12699999809E+01 0.  1.
       -4    1    3    3    0  502 -0.89039870199E+02 -0.39575394983E+03 -0.17460986956E+03  0.44163277363E+03  0.12699999809E+01 0. -1.
</event>
<event>
 5   0  0.1968763E-02  0.8836392E+03  0.7818609E-02  0.9446267E-01
       -2   -1    0    0    0  501  0.00000000000E+00  0.00000000000E+00  0.86386641546E+03  0.86386641547E+03  0.25500000920E-02 0.  1.
        2   -1    0    0  501    0  0.00000000000E+00  0.00000000000E+00 -0.22596615714E+03  0.22596615716E+03  0.25500000920E-02 0. -1.
    10030    2    1    2    0    0  0.00000000000E+00  0.00000000000E+00  0.63790025832E+03  0.10898325726E+04  0.88363923452E+03 0.  0.
        2    1    3    3  502    0  0.76063791605E+02 -0.10961214170E+03 -0.20052715440E+03  0.24085610157E+03  0.25500000920E-02 0. -1.
       -2    1    3    3    0  502 -0.76063791605E+02  0.10961214170E+03  0.83842741272E+03  0.84897647106E+03  0.25500000920E-02 0.  1.
</event>
<event>
 5   0  0.7893875E-03  0.9301951E+03  0.7818609E-02  0.9388604E-01
       -4   -1    0    0    0  501  0.00000000000E+00  0.00000000000E+00  0.97045623022E+03  0.97045706122E+03  0.12699999809E+01 0.  1.
        4   -1    0    0  501    0  0.00000000000E+00  0.00000000000E+00 -0.22289834168E+03  0.22290195967E+03  0.12699999809E+01 0. -1.
    10030    2    1    2    0    0  0.00000000000E+00  0.00000000000E+00  0.74755788854E+03  0.11933590209E+04  0.93019511718E+03 0.  0.
        3    1    3    3  502    0  0.16035580904E+03 -0.43642287468E+03  0.35877282768E+03  0.58727920372E+03  0.10100000352E+00 0. -1.
       -3    1    3    3    0  502 -0.16035580904E+03  0.43642287468E+03  0.38878506086E+03  0.60607981717E+03  0.10100000352E+00 0.  1.
</event>
<event>
 5   0  0.1968763E-02  0.9338700E+03  0.7818609E-02  0.9384205E-01
       -2   -1    0    0    0  501  0.00000000000E+00  0.00000000000E+00  0.37429278302E+03  0.37429278302E+03  0.25500000920E-02 0.  1.
        2   -1    0    0  501    0  0.00000000000E+00  0.00000000000E+00 -0.58250730783E+03  0.58250730784E+03  0.25500000920E-02 0. -1.
    10030    2    1    2    0    0  0.00000000000E+00  0.00000000000E+00 -0.20821452481E+03  0.95680009086E+03  0.93386997249E+03 0.  0.
        2    1    3    3  502    0  0.43892603966E+03  0.11685859786E+03  0.67922634858E+01  0.45426659027E+03  0.25500000920E-02 0.  1.
       -2    1    3    3    0  502 -0.43892603966E+03 -0.11685859786E+03 -0.21500678830E+03  0.50253350059E+03  0.25500000920E-02 0. -1.
</event>
<event>
 5   0  0.2041861E-02  0.9249125E+03  0.7818609E-02  0.9394964E-01
        2   -1    0    0  501    0  0.00000000000E+00  0.00000000000E+00  0.14764602629E+04  0.14764602629E+04  0.25500000920E-02 0.  1.
       -2   -1    0    0    0  501  0.00000000000E+00  0.00000000000E+00 -0.14485035879E+03  0.14485035882E+03  0.25500000920E-02 0. -1.
    10030    2    1    2    0    0  0.00000000000E+00  0.00000000000E+00  0.13316099041E+04  0.16213106217E+04  0.92491253391E+03 0.  0.
        5    1    3    3  502    0 -0.21611447166E+02 -0.33935585800E+03  0.12151596316E+04  0.12618496239E+04  0.46999998093E+01 0.  1.
       -5    1    3    3    0  502  0.21611447166E+02  0.33935585800E+03  0.11645027252E+03  0.35946099786E+03  0.46999998093E+01 0. -1.
</event>
<event>
 5   0  0.1924218E-02  0.9107732E+03  0.7818609E-02  0.9412214E-01
        2   -1    0    0  501    0  0.00000000000E+00  0.00000000000E+00  0.97026035856E+03  0.97026035857E+03  0.25500000920E-02 0. -1.
       -2   -1    0    0    0  501  0.00000000000E+00  0.00000000000E+00 -0.21373331666E+03  0.21373331667E+03  0.25500000920E-02 0.  1.
    10030    2    1    2    0    0  0.00000000000E+00  0.00000000000E+00  0.75652704191E+03  0.11839936752E+04  0.91077321978E+03 0.  0.
        4    1    3    3  502    0 -0.17522947645E+03  0.37269912051E+03  0.12563296715E+03  0.43057549765E+03  0.12699999809E+01 0.  1.
       -4    1    3    3    0  502  0.17522947645E+03 -0.37269912051E+03  0.63089407476E+03  0.75341817758E+03  0.12699999809E+01 0. -1.
</event>
<event>
 5   0  0.1968763E-02  0.9804178E+03  0.7818609E-02  0.9330287E-01
       -2   -1    0    0    0  501  0.00000000000E+00  0.00000000000E+00  0.17513952374E+03  0.17513952375E+03  0.25500000920E-02 0.  1.
        2   -1    0    0  501    0  0.00000000000E+00  0.00000000000E+00 -0.13720761413E+04  0.13720761413E+04  0.25500000920E-02 0. -1.
    10030    2    1    2    0    0  0.00000000000E+00  0.00000000000E+00 -0.11969366176E+04  0.15472156651E+04  0.98041779245E+03 0.  0.
        2    1    3    3  502    0  0.99794277515E+02 -0.27523511819E+03 -0.12189549941E+04  0.12536205748E+04  0.25500000920E-02 0. -1.
       -2    1    3    3    0  502 -0.99794277515E+02  0.27523511819E+03  0.22018376461E+02  0.29359509025E+03  0.25500000920E-02 0.  1.
</event>
<event>
 5   0  0.2041861E-02  0.8215221E+03  0.7818609E-02  0.9529377E-01
        2   -1    0    0  501    0  0.00000000000E+00  0.00000000000E+00  0.89193842780E+03  0.89193842781E+03  0.25500000920E-02 0.  1.
       -2   -1    0    0    0  501  0.00000000000E+00  0.00000000000E+00 -0.18916625771E+03  0.18916625773E+03  0.25500000920E-02 0. -1.
    10030    2    1    2    0    0  0.00000000000E+00  0.00000000000E+00  0.70277217009E+03  0.10811046855E+04  0.82152213484E+03 0.  0.
        5    1    3    3  502    0  0.35146077456E+03 -0.17275264932E+02  0.72599250360E+02  0.35932694302E+03  0.46999998093E+01 0. -1.
       -5    1    3    3    0  502 -0.35146077456E+03  0.17275264932E+02  0.63017291973E+03  0.72177774251E+03  0.46999998093E+01 0.  1.
</event>
<event>
 5   0  0.1226424E-02  0.9086308E+03  0.7818609E-02  0.9414856E-01
       -1   -1    0    0    0  501  0.00000000000E+00  0.00000000000E+00  0.29424827193E+03  0.29424827197E+03  0.50400001928E-02 0.  1.
        1   -1    0    0  501    0  0.00000000000E+00  0.00000000000E+00 -0.70145682962E+03  0.70145682964E+03  0.50400001928E-02 0. -1.
    10030    2    1    2    0    0  0.00000000000E+00  0.00000000000E+00 -0.40720855769E+03  0.99570510162E+03  0.90863075004E+03 0.  0.
        1    1    3    3  502    0 -0.21396420491E+03 -0.16563744970E+03  0.19631525105E+03  0.33429945191E+03  0.50400001928E-02 0.  1.
       -1    1    3    3    0  502  0.21396420491E+03  0.16563744970E+03 -0.60352380874E+03  0.66140564971E+03  0.50400001928E-02 0. -1.
</event>
<event>
 5   0  0.2008643E-02  0.8971762E+03  0.7818609E-02  0.9429118E-01
       -2   -1    0    0    0  501  0.00000000000E+00  0.00000000000E+00  0.30088837535E+03  0.30088837536E+03  0.25500000920E-02 0.  1.
        2   -1    0    0  501    0  0.00000000000E+00  0.00000000000E+00 -0.66879050786E+03  0.66879050786E+03  0.25500000920E-02 0. -1.
    10030    2    1    2    0    0  0.00000000000E+00  0.00000000000E+00 -0.36790213251E+03  0.96967888322E+03  0.89717621316E+03 0.  0.
        3    1    3    3  502    0  0.17747970633E+03  0.34069690252E+03 -0.43431215737E+03  0.57982797948E+03  0.10100000352E+00 0. -1.
       -3    1    3    3    0  502 -0.17747970633E+03 -0.34069690252E+03  0.66410024856E+02  0.38985090374E+03  0.10100000352E+00 0.  1.
</event>
<event>
 5   0  0.1226424E-02  0.1031825E+04  0.7818609E-02  0.9274313E-01
       -1   -1    0    0    0  501  0.00000000000E+00  0.00000000000E+00  0.26838818993E+03  0.26838818998E+03  0.50400001928E-02 0. -1.
        1   -1    0    0  501    0  0.00000000000E+00  0.00000000000E+00 -0.99171870741E+03  0.99171870742E+03  0.50400001928E-02 0.  1.
    10030    2    1    2    0    0  0.00000000000E+00  0.00000000000E+00 -0.72333051748E+03  0.12601068974E+04  0.10318247697E+04 0.  0.
        1    1    3    3  502    0  0.21517508995E+03 -0.20093773438E+03  0.15572794187E+03  0.33305777928E+03  0.50400001928E-02 0. -1.
       -1    1    3    3    0  502 -0.21517508995E+03  0.20093773438E+03 -0.87905845935E+03  0.92704911812E+03  0.50400001928E-02 0.  1.
</event>
<event>
 5   0  0.1968763E-02  0.9189677E+03  0.7818609E-02  0.9402177E-01
       -2   -1    0    0    0  501  0.00000000000E+00  0.00000000000E+00  0.29544774134E+03  0.29544774135E+03  0.25500000920E-02 0. -1.
        2   -1    0    0  501    0  0.00000000000E+00  0.00000000000E+00 -0.71459476246E+03  0.71459476246E+03  0.25500000920E-02 0.  1.
    10030    2    1    2    0    0  0.00000000000E+00  0.00000000000E+00 -0.41914702111E+03  0.10100425038E+04  0.91896770031E+03 0.  0.
        2    1    3    3  502    0  0.81168885330E+02  0.32928222389E+03  0.13116735963E+03  0.36362074632E+03  0.25500000920E-02 0. -1.
       -2    1    3    3    0  502 -0.81168885330E+02 -0.32928222389E+03 -0.55031438074E+03  0.64642175750E+03  0.25500000920E-02 0.  1.
</event>
<event>
 5   0  0.2041861E-02  0.9262520E+03  0.7818609E-02  0.9393347E-01
        2   -1    0    0  501    0  0.00000000000E+00  0.00000000000E+00  0.77786582170E+03  0.77786582171E+03  0.25500000920E-02 0. -1.
       -2   -1    0    0    0  501  0.00000000000E+00  0.00000000000E+00 -0.27573611544E+03  0.27573611546E+03  0.25500000920E-02 0.  1.
    10030    2    1    2    0    0  0.00000000000E+00  0.00000000000E+00  0.50212970626E+03  0.10536019372E+04  0.92625201759E+03 0.  0.
        5    1    3    3  502    0  0.10883979992E+03 -0.22896474963E+03 -0.18976574925E+03  0.31670820672E+03  0.46999998093E+01 0.  1.
       -5    1    3    3    0  502 -0.10883979992E+03  0.22896474963E+03  0.69189545551E+03  0.73689373044E+03  0.46999998093E+01 0. -1.
</event>
<event>
 5   0  0.1226424E-02  0.8305305E+03  0.7818609E-02  0.9516847E-01
       -1   -1    0    0    0  501  0.00000000000E+00  0.00000000000E+00  0.10169061761E+03  0.10169061774E+03  0.50400001928E-02 0.  1.
        1   -1    0    0  501    0  0.00000000000E+00  0.00000000000E+00 -0.16957830028E+04  0.16957830028E+04  0.50400001928E-02 0. -1.
    10030    2    1    2    0    0  0.00000000000E+00  0.00000000000E+00 -0.15940923852E+04  0.17974736205E+04  0.83053048352E+03 0.  0.
        1    1    3    3  502    0 -0.16270312394E+03  0.30320672903E+02 -0.16213193572E+04  0.16297447984E+04  0.50400001928E-02 0. -1.
       -1    1    3    3    0  502  0.16270312394E+03 -0.30320672903E+02  0.27226972048E+02  0.16772882215E+03  0.50400001928E-02 0.  1.
</event>
<event>
 5   0  0.1175993E-02  0.9000231E+03  0.7818609E-02  0.9425552E-01
       -1   -1    0    0    0  501  0.00000000000E+00  0.00000000000E+00  0.26068527138E+03  0.26068527143E+03  0.50400001928E-02 0. -1.
        1   -1    0    0  501    0  0.00000000000E+00  0.00000000000E+00 -0.77683872605E+03  0.77683872607E+03  0.50400001928E-02 0.  1.
    10030    2    1    2    0    0  0.00000000000E+00  0.00000000000E+00 -0.51615345467E+03  0.10375239975E+04  0.90002314227E+03 0.  0.
        4    1    3    3  502    0  0.24968321654E+03  0.36699678296E+03 -0.34341674724E+03  0.56121744672E+03  0.12699999809E+01 0.  1.
       -4    1    3    3    0  502 -0.24968321654E+03 -0.36699678296E+03 -0.17273670743E+03  0.47630655078E+03  0.12699999809E+01 0. -1.
</event>
<event>
 5   0  0.1206541E-02  0.9128906E+03  0.7818609E-02  0.9409609E-01
       -1   -1    0    0    0  501  0.00000000000E+00  0.00000000000E+00  0.36579912564E+03  0.36579912567E+03  0.50400001928E-02 0. -1.
        1   -1    0    0  501    0  0.00000000000E+00  0.00000000000E+00 -0.56955389824E+03  0.56955389826E+03  0.50400001928E-02 0.  1.
    10030    2    1    2    0    0  0.00000000000E+00  0.00000000000E+00 -0.20375477260E+03  0.93535302394E+03  0.91289061340E+03 0.  0.
        3    1    3    3  502    0  0.24550694614E+03  0.39986984960E+02  0.29025317556E+03  0.38225585109E+03  0.10100000352E+00 0. -1.
       -3    1    3    3    0  502 -0.24550694614E+03 -0.39986984960E+02 -0.49400794816E+03  0.55309717285E+03  0.10100000352E+00 0.  1.
</event>
<event>
 5   0  0.1177712E-02  0.9089580E+03  0.7818609E-02  0.9414452E-01
       -1   -1    0    0    0  501  0.00000000000E+00  0.00000000000E+00  0.62278711467E+03  0.62278711469E+03  0.50400001928E-02 0.  1.
        1   -1    0    0  501    0  0.00000000000E+00  0.00000000000E+00 -0.33165610123E+03  0.33165610127E+03  0.50400001928E-02 0. -1.
    10030    2    1    2    0    0  0.00000000000E+00  0.00000000000E+00  0.29113101344E+03  0.95444321596E+03  0.90895796685E+03 0.  0.
        5    1    3    3  502    0  0.10269391089E+03 -0.44266221363E+03  0.13951689922E+03  0.47537661898E+03  0.46999998093E+01 0.  1.
       -5    1    3    3    0  502 -0.10269391089E+03  0.44266221363E+03  0.15161411422E+03  0.47906659698E+03  0.46999998093E+01 0. -1.
</event>
<event>
 5   0  0.1177712E-02  0.9029573E+03  0.7818609E-02  0.9421892E-01
        1   -1    0    0  501    0  0.00000000000E+00  0.00000000000E+00  0.78334144474E+03  0.78334144476E+03  0.50400001928E-02 0. -1.
       -1   -1    0    0    0  501  0.00000000000E+00  0.00000000000E+00 -0.26020961447E+03  0.26020961451E+03  0.50400001928E-02 0.  1.
    10030    2    1    2    0    0  0.00000000000E+00  0.00000000000E+00  0.52313183028E+03  0.10435510593E+04  0.90295730877E+03 0.  0.
        5    1    3    3  502    0 -0.77333187975E+02 -0.41977496261E+03  0.43149540268E+03  0.60696113033E+03  0.46999998093E+01 0. -1.
       -5    1    3    3    0  502  0.77333187975E+02  0.41977496261E+03  0.91636427599E+02  0.43658992895E+03  0.46999998093E+01 0.  1.
</event>
<event>
 5   0  0.1206541E-02  0.9128558E+03  0.7818609E-02  0.9409652E-01
       -1   -1    0    0    0  501  0.00000000000E+00  0.00000000000E+00  0.12397059309E+04  0.12397059309E+04  0.50400001928E-02 0.  1.
        1   -1    0    0  501    0  0.00000000000E+00  0.00000000000E+00 -0.16804504256E+03  0.16804504263E+03  0.50400001928E-02 0. -1.
    10030    2    1    2    0    0  0.00000000000E+00  0.00000000000E+00  0.10716608883E+04  0.14077509735E+04  0.91285581770E+03 0.  0.
        3    1    3    3  502    0  0.64646658662E+02  0.28073810321E+03 -0.10124718738E+02  0.28826306250E+03  0.10100000352E+00 0. -1.
       -3    1    3    3    0  502 -0.64646658662E+02 -0.28073810321E+03  0.10817856071E+04  0.11194879110E+04  0.10100000352E+00 0.  1.
</event>
<event>
 5   0  0.2041861E-02  0.8661789E+03  0.7818609E-02  0.9468876E-01
       -2   -1    0    0    0  501  0.00000000000E+00  0.00000000000E+00  0.16106760518E+03  0.16106760520E+03  0.25500000920E-02 0. -1.
        2   -1    0    0  501    0  0.00000000000E+00  0.00000000000E+00 -0.11645200285E+04  0.11645200285E+04  0.25500000920E-02 0.  1.
    10030    2    1    2    0    0  0.00000000000E+00  0.00000000000E+00 -0.10034524233E+04  0.13255876337E+04  0.86617885495E+03 0.  0.
        5    1    3    3  502    0 -0.10933320837E+03  0.40635316242E+03 -0.34514959772E+03  0.54426737718E+03  0.46999998093E+01 0. -1.
       -5    1    3    3    0  502  0.10933320837E+03 -0.40635316242E+03 -0.65830282560E+03  0.78132025652E+03  0.46999998093E+01 0.  1.
</event>
<event>
 5   0  0.7893875E-03  0.9018531E+03  0.7818609E-02  0.9423268E-01
        3   -1    0    0  501    0  0.00000000000E+00  0.00000000000E+00  0.20685025038E+03  0.20685027504E+03  0.10100000352E+00 0. -1.
       -3   -1    0    0    0  501  0.00000000000E+00  0.00000000000E+00 -0.98300444254E+03  0.98300444773E+03  0.10100000352E+00 0.  1.
    10030    2    1    2    0    0  0.00000000000E+00  0.00000000000E+00 -0.77615419216E+03  0.11898547228E+04  0.90185305416E+03 0.  0.
        5    1    3    3  502    0  0.24751673895E+03  0.12137131373E+03 -0.85883925513E+03  0.90201024828E+03  0.46999998093E+01 0.  1.
       -5    1    3    3    0  502 -0.24751673895E+03 -0.12137131373E+03  0.82685062970E+02  0.28784447449E+03  0.46999998093E+01 0. -1.
</event>
<event>
 5   0  0.1177712E-02  0.9435656E+03  0.7818609E-02  0.9372703E-01
        1   -1    0    0  501    0  0.00000000000E+00  0.00000000000E+00  0.46045106534E+03  0.46045106537E+03  0.50400001928E-02 0. -1.
       -1   -1    0    0    0  501  0.00000000000E+00  0.00000000000E+00 -0.48339342522E+03  0.48339342525E+03  0.50400001928E-02 0.  1.
    10030    2    1    2    0    0  0.00000000000E+00  0.00000000000E+00 -0.22942359878E+02  0.94384449062E+03  0.94356561541E+03 0.  0.
        5    1    3    3  502    0  0.54118404003E+02  0.15623392918E+02 -0.47999410862E+03  0.48331079686E+03  0.46999998093E+01 0.  1.
       -5    1    3    3    0  502 -0.54118404003E+02 -0.15623392918E+02  0.45705174874E+03  0.46053369375E+03  0.46999998093E+01 0. -1.
</event>
<event>
 5   0  0.2041861E-02  0.8140356E+03  0.7818609E-02  0.9539920E-01
        2   -1    0    0  501    0  0.00000000000E+00  0.00000000000E+00  0.16889281070E+04  0.16889281070E+04  0.25500000920E-02 0. -1.
       -2   -1    0    0    0  501  0.00000000000E+00  0.00000000000E+00 -0.98087939958E+02  0.98087939991E+02  0.25500000920E-02 0.  1.
    10030    2    1    2    0    0  0.00000000000E+00  0.00000000000E+00  0.15908401670E+04  0.17870160470E+04  0.81403557362E+03 0.  0.
        5    1    3    3  502    0  0.19814117548E+03  0.99079639235E+02  0.45925373536E+02  0.22629169288E+03  0.46999998093E+01 0.  1.
       -5    1    3    3    0  502 -0.19814117548E+03 -0.99079639235E+02  0.15449147935E+04  0.15607243541E+04  0.46999998093E+01 0. -1.
</event>
<event>
 5   0  0.1175993E-02  0.9596176E+03  0.7818609E-02  0.9353979E-01
        1   -1    0    0  501    0  0.00000000000E+00  0.00000000000E+00  0.12447748245E+04  0.12447748245E+04  0.50400001928E-02 0. -1.
       -1   -1    0    0    0  501  0.00000000000E+00  0.00000000000E+00 -0.18494627376E+03  0.18494627383E+03  0.50400001928E-02 0.  1.
    10030    2    1    2    0    0  0.00000000000E+00  0.00000000000E+00  0.10598285507E+04  0.14297210983E+04  0.95961756030E+03 0.  0.
        4    1    3    3  502    0 -0.33623351330E+03 -0.31168081592E+03  0.74070526832E+03  0.87111641810E+03  0.12699999809E+01 0. -1.
       -4    1    3    3    0  502  0.33623351330E+03  0.31168081592E+03  0.31912328239E+03  0.55860468020E+03  0.12699999809E+01 0.  1.
</event>
<event>
 5   0  0.1177712E-02  0.9084444E+03  0.7818609E-02  0.9415087E-01
        1   -1    0    0  501    0  0.00000000000E+00  0.00000000000E+00  0.63411226852E+03  0.63411226854E+03  0.50400001928E-02 0. -1.
       -1   -1    0    0    0  501  0.00000000000E+00  0.00000000000E+00 -0.32536481807E+03  0.32536481811E+03  0.50400001928E-02 0.  1.
    10030    2    1    2    0    0  0.00000000000E+00  0.00000000000E+00  0.30874745046E+03  0.95947708665E+03  0.90844443509E+03 0.  0.
        5    1    3    3  502    0 -0.37596753629E+03  0.22888218050E+03  0.36020314695E+02  0.44165393009E+03  0.46999998093E+01 0.  1.
       -5    1    3    3    0  502  0.37596753629E+03 -0.22888218050E+03  0.27272713576E+03  0.51782315656E+03  0.46999998093E+01 0. -1.
</event>
<event>
 5   0  0.2008643E-02  0.8918308E+03  0.7818609E-02  0.9435851E-01
       -2   -1    0    0    0  501  0.00000000000E+00  0.00000000000E+00  0.42460513479E+03  0.42460513480E+03  0.25500000920E-02 0.  1.
        2   -1    0    0  501    0  0.00000000000E+00  0.00000000000E+00 -0.46829518208E+03  0.46829518208E+03  0.25500000920E-02 0. -1.
    10030    2    1    2    0    0  0.00000000000E+00  0.00000000000E+00 -0.43690047286E+02  0.89290031688E+03  0.89183078869E+03 0.  0.
        3    1    3    3  502    0  0.36721719830E+02 -0.42985131362E+03  0.91072730265E+02  0.44092503776E+03  0.10100000352E+00 0.  1.
       -3    1    3    3    0  502 -0.36721719830E+02  0.42985131362E+03 -0.13476277755E+03  0.45197527912E+03  0.10100000352E+00 0. -1.
</event>
<event>
 5   0  0.2041861E-02  0.8726827E+03  0.7818609E-02  0.9460389E-01
        2   -1    0    0  501    0  0.00000000000E+00  0.00000000000E+00  0.16303010471E+04  0.16303010471E+04  0.25500000920E-02 0.  1.
       -2   -1    0    0    0  501  0.00000000000E+00  0.00000000000E+00 -0.11678441430E+03  0.11678441433E+03  0.25500000920E-02 0. -1.
    10030    2    1    2    0    0  0.00000000000E+00  0.00000000000E+00  0.15135166328E+04  0.17470854614E+04  0.87268265239E+03 0.  0.
        5    1    3    3  502    0  0.20706937600E+03  0.38123409706E+03  0.66383364667E+03  0.79304121185E+03  0.46999998093E+01 0. -1.
       -5    1    3    3    0  502 -0.20706937600E+03 -0.38123409706E+03  0.84968298614E+03  0.95404424959E+03  0.46999998093E+01 0.  1.
</event>
<event>
 5   0  0.1177712E-02  0.8887477E+03  0.7818609E-02  0.9439758E-01
        1   -1    0    0  501    0  0.00000000000E+00  0.00000000000E+00  0.12478699892E+04  0.12478699892E+04  0.50400001928E-02 0.  1.
       -1   -1    0    0    0  501  0.00000000000E+00  0.00000000000E+00 -0.15824414904E+03  0.15824414912E+03  0.50400001928E-02 0. -1.
    10030    2    1    2    0    0  0.00000000000E+00  0.00000000000E+00  0.10896258402E+04  0.14061141383E+04  0.88874771361E+03 0.  0.
        5    1    3    3  502    0 -0.98721706149E+01  0.14718255314E+03 -0.11833512930E+03  0.18917044306E+03  0.46999998093E+01 0. -1.
       -5    1    3    3    0  502  0.98721706149E+01 -0.14718255314E+03  0.12079609695E+04  0.12169436953E+04  0.46999998093E+01 0.  1.
</event>
<event>
 5   0  0.1924218E-02  0.9610108E+03  0.7818609E-02  0.9352372E-01
       -2   -1    0    0    0  501  0.00000000000E+00  0.00000000000E+00  0.19792532938E+03  0.19792532940E+03  0.25500000920E-02 0. -1.
        2   -1    0    0  501    0  0.00000000000E+00  0.00000000000E+00 -0.11665280271E+04  0.11665280271E+04  0.25500000920E-02 0.  1.
    10030    2    1    2    0    0  0.00000000000E+00  0.00000000000E+00 -0.96860269776E+03  0.13644533565E+04  0.96101080954E+03 0.  0.
        4    1    3    3  502    0  0.16399808751E+02 -0.25104621134E+03 -0.10655411550E+04  0.10948391296E+04  0.12699999809E+01 0.  1.
       -4    1    3    3    0  502 -0.16399808751E+02  0.25104621134E+03  0.96938457217E+02  0.26961422689E+03  0.12699999809E+01 0. -1.
</event>
<event>
 5   0  0.1226424E-02  0.8728490E+03  0.7818609E-02  0.9460173E-01
       -1   -1    0    0    0  501  0.00000000000E+00  0.00000000000E+00  0.52955949170E+03  0.52955949172E+03  0.50400001928E-02 0.  1.
        1   -1    0    0  501    0  0.00000000000E+00  0.00000000000E+00 -0.35966939355E+03  0.35966939359E+03  0.50400001928E-02 0. -1.
    10030    2    1    2    0    0  0.00000000000E+00  0.00000000000E+00  0.16989009815E+03  0.88922888531E+03  0.87284899325E+03 0.  0.
        1    1    3    3  502    0  0.14110706141E+03  0.33979250441E+03 -0.15418559834E+03  0.39892774733E+03  0.50400001928E-02 0. -1.
       -1    1    3    3    0  502 -0.14110706141E+03 -0.33979250441E+03  0.32407569648E+03  0.49030113798E+03  0.50400001928E-02 0.  1.
</event>
<event>
 5   0  0.1162839E-02  0.9503919E+03  0.7818609E-02  0.9364693E-01
       -1   -1    0    0    0  501  0.00000000000E+00  0.00000000000E+00  0.35645617654E+03  0.35645617658E+03  0.50400001928E-02 0. -1.
        1   -1    0    0  501    0  0.00000000000E+00  0.00000000000E+00 -0.63348935520E+03  0.63348935522E+03  0.50400001928E-02 0.  1.
    10030    2    1    2    0    0  0.00000000000E+00  0.00000000000E+00 -0.27703317866E+03  0.98994553180E+03  0.95039190540E+03 0.  0.
        2    1    3    3  502    0  0.80522518087E+02 -0.46534014418E+03 -0.83538604197E+02  0.47958734773E+03  0.25500000920E-02 0. -1.
       -2    1    3    3    0  502 -0.80522518087E+02  0.46534014418E+03 -0.19349457446E+03  0.51035818408E+03  0.25500000920E-02 0.  1.
</event>
<event>
 5   0  0.1175993E-02  0.8493675E+03  0.7818609E-02  0.9491186E-01
        1   -1    0    0  501    0  0.00000000000E+00  0.00000000000E+00  0.49852175496E+03  0.49852175499E+03  0.50400001928E-02 0. -1.
       -1   -1    0    0    0  501  0.00000000000E+00  0.00000000000E+00 -0.36178216235E+03  0.36178216238E+03  0.50400001928E-02 0.  1.
    10030    2    1    2    0    0  0.00000000000E+00  0.00000000000E+00  0.13673959262E+03  0.86030391737E+03  0.84936747881E+03 0.  0.
        4    1    3    3  502    0 -0.13202988390E+03  0.33994597109E+03 -0.15205471262E+03  0.39511694728E+03  0.12699999809E+01 0.  1.
       -4    1    3    3    0  502  0.13202988390E+03 -0.33994597109E+03  0.28879430523E+03  0.46518697008E+03  0.12699999809E+01 0. -1.
</event>
<event>
 5   0  0.1175993E-02  0.9104818E+03  0.7818609E-02  0.9412573E-01
        1   -1    0    0  501    0  0.00000000000E+00  0.00000000000E+00  0.65432037809E+03  0.65432037811E+03  0.50400001928E-02 0. -1.
       -1   -1    0    0    0  501  0.00000000000E+00  0.00000000000E+00 -0.31673213498E+03  0.31673213502E+03  0.50400001928E-02 0.  1.
    10030    2    1    2    0    0  0.00000000000E+00  0.00000000000E+00  0.33758824311E+03  0.97105251313E+03  0.91048182924E+03 0.  0.
        4    1    3    3  502    0 -0.47351986756E+02 -0.95906927943E+02  0.64072713532E+03  0.64959466155E+03  0.12699999809E+01 0. -1.
       -4    1    3    3    0  502  0.47351986756E+02  0.95906927943E+02 -0.30313889221E+03  0.32145785159E+03  0.12699999809E+01 0.  1.
</event>
<event>
 5   0  0.1226424E-02  0.8811940E+03  0.7818609E-02  0.9449400E-01
        1   -1    0    0  501    0  0.00000000000E+00  0.00000000000E+00  0.15094668563E+04  0.15094668563E+04  0.50400001928E-02 0. -1.
       -1   -1    0    0    0  501  0.00000000000E+00  0.00000000000E+00 -0.12860548008E+03  0.12860548018E+03  0.50400001928E-02 0.  1.
    10030    2    1    2    0    0  0.00000000000E+00  0.00000000000E+00  0.13808613762E+04  0.16380723365E+04  0.88119398500E+03 0.  0.
        1    1    3    3  502    0  0.97167525552E+02  0.42955976650E+03  0.71413387873E+03  0.83901747168E+03  0.50400001928E-02 0.  1.
       -1    1    3    3    0  502 -0.97167525552E+02 -0.42955976650E+03  0.66672749747E+03  0.79905486477E+03  0.50400001928E-02 0. -1.
</event>
<event>
 5   0  0.1177712E-02  0.8873915E+03  0.7818609E-02  0.9441481E-01
        1   -1    0    0  501    0  0.00000000000E+00  0.00000000000E+00  0.22251059777E+04  0.22251059777E+04  0.50400001928E-02 0.  1.
       -1   -1    0    0    0  501  0.00000000000E+00  0.00000000000E+00 -0.88474849181E+02  0.88474849324E+02  0.50400001928E-02 0. -1.
    10030    2    1    2    0    0  0.00000000000E+00  0.00000000000E+00  0.21366311285E+04  0.23135808270E+04  0.88739149412E+03 0.  0.
        5    1    3    3  502    0  0.17425768115E+03 -0.79784487498E+02  0.25080767776E+02  0.19334538731E+03  0.46999998093E+01 0. -1.
       -5    1    3    3    0  502 -0.17425768115E+03  0.79784487498E+02  0.21115503607E+04  0.21202354397E+04  0.46999998093E+01 0.  1.
</event>
<event>
 5   0  0.1924218E-02  0.9040425E+03  0.7818609E-02  0.9420542E-01
       -2   -1    0    0    0  501  0.00000000000E+00  0.00000000000E+00  0.21161428897E+03  0.21161428898E+03  0.25500000920E-02 0.  1.
        2   -1    0    0  501    0  0.00000000000E+00  0.00000000000E+00 -0.96554545573E+03  0.96554545573E+03  0.25500000920E-02 0. -1.
    10030    2    1    2    0    0  0.00000000000E+00  0.00000000000E+00 -0.75393116676E+03  0.11771597447E+04  0.90404251026E+03 0.  0.
        4    1    3    3  502    0 -0.45000142430E+03  0.37844434506E+02 -0.40261804559E+03  0.60500941036E+03  0.12699999809E+01 0.  1.
       -4    1    3    3    0  502  0.45000142430E+03 -0.37844434506E+02 -0.35131312117E+03  0.57215033435E+03  0.12699999809E+01 0. -1.
</event>
<event>
 5   0  0.1177712E-02  0.9058382E+03  0.7818609E-02  0.9418313E-01
        1   -1    0    0  501    0  0.00000000000E+00  0.00000000000E+00  0.12456680146E+04  0.12456680147E+04  0.50400001928E-02 0. -1.
       -1   -1    0    0    0  501  0.00000000000E+00  0.00000000000E+00 -0.16467928306E+03  0.16467928313E+03  0.50400001928E-02 0.  1.
    10030    2    1    2    0    0  0.00000000000E+00  0.00000000000E+00  0.10809887316E+04  0.14103472978E+04  0.90583820993E+03 0.  0.
        5    1    3    3  502    0 -0.40423225827E+03 -0.19944527139E+03  0.47206827182E+03  0.65272710850E+03  0.46999998093E+01 0.  1.
       -5    1    3    3    0  502  0.40423225827E+03  0.19944527139E+03  0.60892045977E+03  0.75762018930E+03  0.46999998093E+01 0. -1.
</event>
<event>
 5   0  0.1924218E-02  0.6511606E+03  0.7818609E-02  0.9804604E-01
        2   -1    0    0  501    0  0.00000000000E+00  0.00000000000E+00  0.99683597949E+03  0.99683597949E+03  0.25500000920E-02 0.  1.
       -2   -1    0    0    0  501  0.00000000000E+00  0.00000000000E+00 -0.10633900651E+03  0.10633900654E+03  0.25500000920E-02 0. -1.
    10030    2    1    2    0    0  0.00000000000E+00  0.00000000000E+00  0.89049697298E+03  0.11031749860E+04  0.65116064908E+03 0.  0.
        4    1    3    3  502    0 -0.16982160248E+01 -0.26068957990E+03  0.77567186606E+03  0.81830947551E+03  0.12699999809E+01 0.  1.
       -4    1    3    3    0  502  0.16982160248E+01  0.26068957990E+03  0.11482510692E+03  0.28486551052E+03  0.12699999809E+01 0. -1.
</event>
<event>
 5   0  0.1226424E-02  0.8983445E+03  0.7818609E-02  0.9427653E-01
       -1   -1    0    0    0  501  0.00000000000E+00  0.00000000000E+00  0.50064067920E+03  0.50064067923E+03  0.50400001928E-02 0.  1.
        1   -1    0    0  501    0  0.00000000000E+00  0.00000000000E+00 -0.40299501809E+03  0.40299501812E+03  0.50400001928E-02 0. -1.
    10030    2    1    2    0    0  0.00000000000E+00  0.00000000000E+00  0.97645661111E+02  0.90363569735E+03  0.89834447646E+03 0.  0.
        1    1    3    3  502    0 -0.85882635240E+02 -0.70953970562E+02  0.48652415837E+03  0.49911526692E+03  0.50400001928E-02 0.  1.
       -1    1    3    3    0  502  0.85882635240E+02  0.70953970562E+02 -0.38887849726E+03  0.40452043042E+03  0.50400001928E-02 0. -1.
</event>
<event>
 5   0  0.7893875E-03  0.9145843E+03  0.7818609E-02  0.9407532E-01
       -3   -1    0    0    0  501  0.00000000000E+00  0.00000000000E+00  0.11709235390E+04  0.11709235434E+04  0.10100000352E+00 0. -1.
        3   -1    0    0  501    0  0.00000000000E+00  0.00000000000E+00 -0.17859071497E+03  0.17859074353E+03  0.10100000352E+00 0.  1.
    10030    2    1    2    0    0  0.00000000000E+00  0.00000000000E+00  0.99233282403E+03  0.13495142869E+04  0.91458426451E+03 0.  0.
        1    1    3    3  502    0  0.17511063167E+03  0.34137689867E+03  0.86332086768E+03  0.94473532848E+03  0.50400001928E-02 0.  1.
       -1    1    3    3    0  502 -0.17511063167E+03 -0.34137689867E+03  0.12901195635E+03  0.40477895842E+03  0.50400001928E-02 0. -1.
</event>
<event>
 5   0  0.2008770E-02  0.8979401E+03  0.7818609E-02  0.9428160E-01
       -2   -1    0    0    0  501  0.00000000000E+00  0.00000000000E+00  0.21955862267E+03  0.21955862269E+03  0.25500000920E-02 0.  1.
        2   -1    0    0  501    0  0.00000000000E+00  0.00000000000E+00 -0.91808788391E+03  0.91808788391E+03  0.25500000920E-02 0. -1.
    10030    2    1    2    0    0  0.00000000000E+00  0.00000000000E+00 -0.69852926123E+03  0.11376465066E+04  0.89794011224E+03 0.  0.
        1    1    3    3  502    0 -0.28960000225E+03  0.12723616676E+03 -0.75293712238E+03  0.81668323952E+03  0.50400001928E-02 0.  1.
       -1    1    3    3    0  502  0.28960000225E+03 -0.12723616676E+03  0.54407861145E+02  0.32096326708E+03  0.50400001928E-02 0. -1.
</event>
<event>
 5   0  0.1226424E-02  0.9391769E+03  0.7818609E-02  0.9377891E-01
       -1   -1    0    0    0  501  0.00000000000E+00  0.00000000000E+00  0.30290397960E+03  0.30290397964E+03  0.50400001928E-02 0. -1.
        1   -1    0    0  501    0  0.00000000000E+00  0.00000000000E+00 -0.72799740205E+03  0.72799740207E+03  0.50400001928E-02 0.  1.
    10030    2    1    2    0    0  0.00000000000E+00  0.00000000000E+00 -0.42509342245E+03  0.10309013817E+04  0.93917689548E+03 0.  0.
        1    1    3    3  502    0 -0.31682301510E+03 -0.24827093811E+03  0.52938501915E+02  0.40597754448E+03  0.50400001928E-02 0. -1.
       -1    1    3    3    0  502  0.31682301510E+03  0.24827093811E+03 -0.47803192437E+03  0.62492383724E+03  0.50400001928E-02 0.  1.
</event>
<event>
 5   0  0.1968763E-02  0.8979558E+03  0.7818609E-02  0.9428140E-01
       -2   -1    0    0    0  501  0.00000000000E+00  0.00000000000E+00  0.35607925224E+03  0.35607925225E+03  0.25500000920E-02 0. -1.
        2   -1    0    0  501    0  0.00000000000E+00  0.00000000000E+00 -0.56611313455E+03  0.56611313456E+03  0.25500000920E-02 0.  1.
    10030    2    1    2    0    0  0.00000000000E+00  0.00000000000E+00 -0.21003388231E+03  0.92219238681E+03  0.89795577094E+03 0.  0.
        2    1    3    3  502    0  0.41681060402E+03 -0.16230824989E+03 -0.14487284205E+03  0.47017357218E+03  0.25500000920E-02 0.  1.
       -2    1    3    3    0  502 -0.41681060402E+03  0.16230824989E+03 -0.65161040257E+02  0.45201881463E+03  0.25500000920E-02 0. -1.
</event>
<event>
 5   0  0.1226424E-02  0.8846886E+03  0.7818609E-02  0.9444926E-01
        1   -1    0    0  501    0  0.00000000000E+00  0.00000000000E+00  0.85468973649E+03  0.85468973651E+03  0.50400001928E-02 0.  1.
       -1   -1    0    0    0  501  0.00000000000E+00  0.00000000000E+00 -0.22893508111E+03  0.22893508117E+03  0.50400001928E-02 0. -1.
    10030    2    1    2    0    0  0.00000000000E+00  0.00000000000E+00  0.62575465538E+03  0.10836248177E+04  0.88468856483E+03 0.  0.
        1    1    3    3  502    0 -0.12629945784E+03  0.11123807944E+03 -0.18818563890E+03  0.25246642961E+03  0.50400001928E-02 0. -1.
       -1    1    3    3    0  502  0.12629945784E+03 -0.11123807944E+03  0.81394029428E+03  0.83115838806E+03  0.50400001928E-02 0.  1.
</event>
<event>
 5   0  0.1206541E-02  0.8722145E+03  0.7818609E-02  0.9460997E-01
        1   -1    0    0  501    0  0.00000000000E+00  0.00000000000E+00  0.22669858108E+04  0.22669858108E+04  0.50400001928E-02 0.  1.
       -1   -1    0    0    0  501  0.00000000000E+00  0.00000000000E+00 -0.83895326749E+02  0.83895326901E+02  0.50400001928E-02 0. -1.
    10030    2    1    2    0    0  0.00000000000E+00  0.00000000000E+00  0.21830904841E+04  0.23508811377E+04  0.87221445877E+03 0.  0.
        3    1    3    3  502    0  0.21432499674E+03  0.29895385255E+03  0.46012575240E+03  0.58908770859E+03  0.10100000352E+00 0. -1.
       -3    1    3    3    0  502 -0.21432499674E+03 -0.29895385255E+03  0.17229647317E+04  0.17617934292E+04  0.10100000352E+00 0.  1.
</event>
<event>
 5   0  0.1226424E-02  0.8880311E+03  0.7818609E-02  0.9440668E-01
       -1   -1    0    0    0  501  0.00000000000E+00  0.00000000000E+00  0.25023485626E+03  0.25023485631E+03  0.50400001928E-02 0. -1.
        1   -1    0    0  501    0  0.00000000000E+00  0.00000000000E+00 -0.78785917954E+03  0.78785917956E+03  0.50400001928E-02 0.  1.
    10030    2    1    2    0    0  0.00000000000E+00  0.00000000000E+00 -0.53762432328E+03  0.10380940359E+04  0.88803114490E+03 0.  0.
        1    1    3    3  502    0  0.33466140491E+03  0.12669877786E+03  0.38474957106E+02  0.35990437424E+03  0.50400001928E-02 0. -1.
       -1    1    3    3    0  502 -0.33466140491E+03 -0.12669877786E+03 -0.57609928039E+03  0.67818966163E+03  0.50400001928E-02 0.  1.
</event>
<event>
 5   0  0.2041861E-02  0.8965846E+03  0.7818609E-02  0.9429861E-01
        2   -1    0    0  501    0  0.00000000000E+00  0.00000000000E+00  0.84595622719E+03  0.84595622719E+03  0.25500000920E-02 0.  1.
       -2   -1    0    0    0  501  0.00000000000E+00  0.00000000000E+00 -0.23756071620E+03  0.23756071621E+03  0.25500000920E-02 0. -1.
    10030    2    1    2    0    0  0.00000000000E+00  0.00000000000E+00  0.60839551098E+03  0.10835169434E+04  0.89658455756E+03 0.  0.
        5    1    3    3  502    0  0.44563358724E+03  0.80225193138E+01  0.24636374971E+03  0.50928463757E+03  0.46999998093E+01 0. -1.
       -5    1    3    3    0  502 -0.44563358724E+03 -0.80225193138E+01  0.36203176128E+03  0.57423230584E+03  0.46999998093E+01 0.  1.
</event>
<event>
 5   0  0.2008643E-02  0.9141823E+03  0.7818609E-02  0.9408024E-01
        2   -1    0    0  501    0  0.00000000000E+00  0.00000000000E+00  0.20535438983E+04  0.20535438983E+04  0.25500000920E-02 0. -1.
       -2   -1    0    0    0  501  0.00000000000E+00  0.00000000000E+00 -0.10174232945E+03  0.10174232948E+03  0.25500000920E-02 0.  1.
    10030    2    1    2    0    0  0.00000000000E+00  0.00000000000E+00  0.19518015688E+04  0.21552862278E+04  0.91418234479E+03 0.  0.
        3    1    3    3  502    0 -0.29631714461E+03 -0.10152816189E+03  0.19105884925E+03  0.36689959379E+03  0.10100000352E+00 0.  1.
       -3    1    3    3    0  502  0.29631714461E+03  0.10152816189E+03  0.17607427196E+04  0.17883866340E+04  0.10100000352E+00 0. -1.
</event>
<event>
 5   0  0.2008770E-02  0.9065107E+03  0.7818609E-02  0.9417479E-01
        2   -1    0    0  501    0  0.00000000000E+00  0.00000000000E+00  0.14580810368E+04  0.14580810368E+04  0.25500000920E-02 0. -1.
       -2   -1    0    0    0  501  0.00000000000E+00  0.00000000000E+00 -0.14089779064E+03  0.14089779066E+03  0.25500000920E-02 0.  1.
    10030    2    1    2    0    0  0.00000000000E+00  0.00000000000E+00  0.13171832462E+04  0.15989788275E+04  0.90651066553E+03 0.  0.
        1    1    3    3  502    0  0.96721925520E+02  0.18935958260E+03  0.13646478561E+04  0.13811140262E+04  0.50400001928E-02 0. -1.
       -1    1    3    3    0  502 -0.96721925520E+02 -0.18935958260E+03 -0.47464609898E+02  0.21786480123E+03  0.50400001928E-02 0.  1.
</event>
<event>
 5   0  0.1162839E-02  0.9069699E+03  0.7818609E-02  0.9416910E-01
       -1   -1    0    0    0  501  0.00000000000E+00  0.00000000000E+00  0.39628099670E+03  0.39628099673E+03  0.50400001928E-02 0.  1.
        1   -1    0    0  501    0  0.00000000000E+00  0.00000000000E+00 -0.51894645744E+03  0.51894645746E+03  0.50400001928E-02 0. -1.
    10030    2    1    2    0    0  0.00000000000E+00  0.00000000000E+00 -0.12266546074E+03  0.91522745420E+03  0.90696994309E+03 0.  0.
        2    1    3    3  502    0  0.11945845975E+03 -0.37253629568E+03  0.17009126735E+03  0.42659659450E+03  0.25500000920E-02 0.  1.
       -2    1    3    3    0  502 -0.11945845975E+03  0.37253629568E+03 -0.29275672809E+03  0.48863085970E+03  0.25500000920E-02 0. -1.
</event>
<event>
 5   0  0.1226424E-02  0.8933129E+03  0.7818609E-02  0.9433979E-01
        1   -1    0    0  501    0  0.00000000000E+00  0.00000000000E+00  0.28684668692E+03  0.28684668696E+03  0.50400001928E-02 0.  1.
       -1   -1    0    0    0  501  0.00000000000E+00  0.00000000000E+00 -0.69550041963E+03  0.69550041965E+03  0.50400001928E-02 0. -1.
    10030    2    1    2    0    0  0.00000000000E+00  0.00000000000E+00 -0.40865373271E+03  0.98234710661E+03  0.89331291528E+03 0.  0.
        1    1    3    3  502    0  0.22068190956E+03 -0.43164375903E+02 -0.62871632356E+03  0.66771841677E+03  0.50400001928E-02 0. -1.
       -1    1    3    3    0  502 -0.22068190956E+03  0.43164375903E+02  0.22006259085E+03  0.31462868984E+03  0.50400001928E-02 0.  1.
</event>
<event>
 5   0  0.2041861E-02  0.8518703E+03  0.7818609E-02  0.9487830E-01
        2   -1    0    0  501    0  0.00000000000E+00  0.00000000000E+00  0.65943423705E+03  0.65943423705E+03  0.25500000920E-02 0.  1.
       -2   -1    0    0    0  501  0.00000000000E+00  0.00000000000E+00 -0.27511577766E+03  0.27511577767E+03  0.25500000920E-02 0. -1.
    10030    2    1    2    0    0  0.00000000000E+00  0.00000000000E+00  0.38431845939E+03  0.93455001472E+03  0.85187032568E+03 0.  0.
        5    1    3    3  502    0  0.25406165755E+03  0.30483773931E+03  0.36184981699E+03  0.53705749525E+03  0.46999998093E+01 0.  1.
       -5    1    3    3    0  502 -0.25406165755E+03 -0.30483773931E+03  0.22468642402E+02  0.39749251947E+03  0.46999998093E+01 0. -1.
</event>
<event>
 5   0  0.1206541E-02  0.9536549E+03  0.7818609E-02  0.9360889E-01
        1   -1    0    0  501    0  0.00000000000E+00  0.00000000000E+00  0.15365795314E+04  0.15365795314E+04  0.50400001928E-02 0.  1.
       -1   -1    0    0    0  501  0.00000000000E+00  0.00000000000E+00 -0.14796789030E+03  0.14796789039E+03  0.50400001928E-02 0. -1.
    10030    2    1    2    0    0  0.00000000000E+00  0.00000000000E+00  0.13886116411E+04  0.16845474218E+04  0.95365493052E+03 0.  0.
        3    1    3    3  502    0  0.15336700697E+02  0.39521895912E+03  0.11647526863E+04  0.12300740102E+04  0.10100000352E+00 0.  1.
       -3    1    3    3    0  502 -0.15336700697E+02 -0.39521895912E+03  0.22385895478E+03  0.45447341162E+03  0.10100000352E+00 0. -1.
</event>
<event>
 5   0  0.1175993E-02  0.6987393E+03  0.7818609E-02  0.9719391E-01
       -1   -1    0    0    0  501  0.00000000000E+00  0.00000000000E+00  0.14189057091E+03  0.14189057100E+03  0.50400001928E-02 0. -1.
        1   -1    0    0  501    0  0.00000000000E+00  0.00000000000E+00 -0.86023441367E+03  0.86023441368E+03  0.50400001928E-02 0.  1.
    10030    2    1    2    0    0  0.00000000000E+00  0.00000000000E+00 -0.71834384275E+03  0.10021249847E+04  0.69873929938E+03 0.  0.
        4    1    3    3  502    0 -0.11502500689E+02 -0.16806150691E+03  0.79794664159E+02  0.18640219676E+03  0.12699999809E+01 0. -1.
       -4    1    3    3    0  502  0.11502500689E+02  0.16806150691E+03 -0.79813850691E+03  0.81572278793E+03  0.12699999809E+01 0.  1.
</event>
<event>
 5   0  0.2008643E-02  0.9034270E+03  0.7818609E-02  0.9421308E-01
       -2   -1    0    0    0  501  0.00000000000E+00  0.00000000000E+00  0.72196218037E+03  0.72196218038E+03  0.25500000920E-02 0.  1.
        2   -1    0    0  501    0  0.00000000000E+00  0.00000000000E+00 -0.28262570344E+03  0.28262570345E+03  0.25500000920E-02 0. -1.
    10030    2    1    2    0    0  0.00000000000E+00  0.00000000000E+00  0.43933647694E+03  0.10045878838E+04  0.90342696238E+03 0.  0.
        3    1    3    3  502    0 -0.12258829685E+03 -0.39705905113E+03  0.41658911770E+03  0.58841336134E+03  0.10100000352E+00 0.  1.
       -3    1    3    3    0  502  0.12258829685E+03  0.39705905113E+03  0.22747359232E+02  0.41617452249E+03  0.10100000352E+00 0. -1.
</event>
<event>
 5   0  0.1177712E-02  0.8976884E+03  0.7818609E-02  0.9428476E-01
        1   -1    0    0  501    0  0.00000000000E+00  0.00000000000E+00  0.64676562493E+03  0.64676562495E+03  0.50400001928E-02 0. -1.
       -1   -1    0    0    0  501  0.00000000000E+00  0.00000000000E+00 -0.31149014448E+03  0.31149014452E+03  0.50400001928E-02 0.  1.
    10030    2    1    2    0    0  0.00000000000E+00  0.00000000000E+00  0.33527548046E+03  0.95825576947E+03  0.89768840469E+03 0.  0.
        5    1    3    3  502    0 -0.40923848853E+02 -0.39760488942E+03  0.38555500725E+03  0.55537299458E+03  0.46999998093E+01 0. -1.
       -5    1    3    3    0  502  0.40923848853E+02  0.39760488942E+03 -0.50279526790E+02  0.40288277489E+03  0.46999998093E+01 0.  1.
</event>
<event>
 5   0  0.2041861E-02  0.9053926E+03  0.7818609E-02  0.9418865E-01
        2   -1    0    0  501    0  0.00000000000E+00  0.00000000000E+00  0.10237842166E+04  0.10237842166E+04  0.25500000920E-02 0.  1.
       -2   -1    0    0    0  501  0.00000000000E+00  0.00000000000E+00 -0.20017298864E+03  0.20017298866E+03  0.25500000920E-02 0. -1.
    10030    2    1    2    0    0  0.00000000000E+00  0.00000000000E+00  0.82361122799E+03  0.12239572053E+04  0.90539261401E+03 0.  0.
        5    1    3    3  502    0  0.36348562667E+02 -0.35957050902E+03  0.43318097681E+02  0.36402021448E+03  0.46999998093E+01 0.  1.
       -5    1    3    3    0  502 -0.36348562667E+02  0.35957050902E+03  0.78029313031E+03  0.85993699082E+03  0.46999998093E+01 0. -1.
</event>
<event>
 5   0  0.1924218E-02  0.8915576E+03  0.7818609E-02  0.9436197E-01
       -2   -1    0    0    0  501  0.00000000000E+00  0.00000000000E+00  0.21950058534E+03  0.21950058535E+03  0.25500000920E-02 0.  1.
        2   -1    0    0  501    0  0.00000000000E+00  0.00000000000E+00 -0.90532215767E+03  0.90532215767E+03  0.25500000920E-02 0. -1.
    10030    2    1    2    0    0  0.00000000000E+00  0.00000000000E+00 -0.68582157233E+03  0.11248227430E+04  0.89155761123E+03 0.  0.
        4    1    3    3  502    0  0.15690231486E+03  0.21802709955E+03 -0.79174713376E+03  0.83607373435E+03  0.12699999809E+01 0. -1.
       -4    1    3    3    0  502 -0.15690231486E+03 -0.21802709955E+03  0.10592556143E+03  0.28874900867E+03  0.12699999809E+01 0.  1.
</event>
<event>
 5   0  0.2008770E-02  0.8925283E+03  0.7818609E-02  0.9434970E-01
        2   -1    0    0  501    0  0.00000000000E+00  0.00000000000E+00  0.48288385498E+03  0.48288385499E+03  0.25500000920E-02 0. -1.
       -2   -1    0    0    0  501  0.00000000000E+00  0.00000000000E+00 -0.41242148421E+03  0.41242148422E+03  0.25500000920E-02 0.  1.
    10030    2    1    2    0    0  0.00000000000E+00  0.00000000000E+00  0.70462370765E+02  0.89530533921E+03  0.89252826550E+03 0.  0.
        1    1    3    3  502    0  0.32605982125E+03 -0.26428761319E+03  0.18732328446E+03  0.45962263047E+03  0.50400001928E-02 0. -1.
       -1    1    3    3    0  502 -0.32605982125E+03  0.26428761319E+03 -0.11686091369E+03  0.43568270874E+03  0.50400001928E-02 0.  1.
</event>
<event>
 5   0  0.2008770E-02  0.8918242E+03  0.7818609E-02  0.9435860E-01
        2   -1    0    0  501    0  0.00000000000E+00  0.00000000000E+00  0.49483247186E+03  0.49483247187E+03  0.25500000920E-02 0. -1.
       -2   -1    0    0    0  501  0.00000000000E+00  0.00000000000E+00 -0.40182811688E+03  0.40182811689E+03  0.25500000920E-02 0.  1.
    10030    2    1    2    0    0  0.00000000000E+00  0.00000000000E+00  0.93004354976E+02  0.89666058876E+03  0.89182419870E+03 0.  0.
        1    1    3    3  502    0 -0.21201024961E+03 -0.18681346450E+03  0.39332209611E+03  0.48430350791E+03  0.50400001928E-02 0. -1.
       -1    1    3    3    0  502  0.21201024961E+03  0.18681346450E+03 -0.30031774114E+03  0.41235708085E+03  0.50400001928E-02 0.  1.
</event>
<event>
 5   0  0.1162839E-02  0.8650607E+03  0.7818609E-02  0.9470343E-01
        1   -1    0    0  501    0  0.00000000000E+00  0.00000000000E+00  0.79673810919E+03  0.79673810921E+03  0.50400001928E-02 0.  1.
       -1   -1    0    0    0  501  0.00000000000E+00  0.00000000000E+00 -0.23481052237E+03  0.23481052242E+03  0.50400001928E-02 0. -1.
    10030    2    1    2    0    0  0.00000000000E+00  0.00000000000E+00  0.56192758682E+03  0.10315486316E+04  0.86506067220E+03 0.  0.
        2    1    3    3  502    0  0.38768589484E+02 -0.41139611717E+03  0.43335939607E+03  0.59879056015E+03  0.25500000920E-02 0.  1.
       -2    1    3    3    0  502 -0.38768589484E+02  0.41139611717E+03  0.12856819075E+03  0.43275807148E+03  0.25500000920E-02 0. -1.
</event>
<event>
 5   0  0.2008770E-02  0.8752115E+03  0.7818609E-02  0.9457110E-01
        2   -1    0    0  501    0  0.00000000000E+00  0.00000000000E+00  0.78611831303E+03  0.78611831303E+03  0.25500000920E-02 0.  1.
       -2   -1    0    0    0  501  0.00000000000E+00  0.00000000000E+00 -0.24360049238E+03  0.24360049240E+03  0.25500000920E-02 0. -1.
    10030    2    1    2    0    0  0.00000000000E+00  0.00000000000E+00  0.54251782064E+03  0.10297188054E+04  0.87521153588E+03 0.  0.
        1    1    3    3  502    0  0.21854996752E+03 -0.25509570146E+03 -0.58719156911E+02  0.34100710347E+03  0.50400001928E-02 0. -1.
       -1    1    3    3    0  502 -0.21854996752E+03  0.25509570146E+03  0.60123697756E+03  0.68871170196E+03  0.50400001928E-02 0.  1.
</event>
<event>
 5   0  0.1177712E-02  0.9297581E+03  0.7818609E-02  0.9389128E-01
       -1   -1    0    0    0  501  0.00000000000E+00  0.00000000000E+00  0.38829204235E+03  0.38829204239E+03  0.50400001928E-02 0. -1.
        1   -1    0    0  501    0  0.00000000000E+00  0.00000000000E+00 -0.55657213552E+03  0.55657213554E+03  0.50400001928E-02 0.  1.
    10030    2    1    2    0    0  0.00000000000E+00  0.00000000000E+00 -0.16828009316E+03  0.94486417792E+03  0.92975810024E+03 0.  0.
        5    1    3    3  502    0  0.65452304760E+02  0.37582935588E+03  0.18580464909E+03  0.42435500064E+03  0.46999998093E+01 0. -1.
       -5    1    3    3    0  502 -0.65452304760E+02 -0.37582935588E+03 -0.35408474226E+03  0.52050917729E+03  0.46999998093E+01 0.  1.
</event>
<event>
 5   0  0.1206541E-02  0.8432380E+03  0.7818609E-02  0.9499458E-01
       -1   -1    0    0    0  501  0.00000000000E+00  0.00000000000E+00  0.40408813203E+03  0.40408813206E+03  0.50400001928E-02 0.  1.
        1   -1    0    0  501    0  0.00000000000E+00  0.00000000000E+00 -0.43991041578E+03  0.43991041581E+03  0.50400001928E-02 0. -1.
    10030    2    1    2    0    0  0.00000000000E+00  0.00000000000E+00 -0.35822283744E+02  0.84399854787E+03  0.84323799297E+03 0.  0.
        3    1    3    3  502    0 -0.31683838854E+03  0.12753296838E+02 -0.29603468330E+03  0.43380382081E+03  0.10100000352E+00 0. -1.
       -3    1    3    3    0  502  0.31683838854E+03 -0.12753296838E+02  0.26021239955E+03  0.41019472706E+03  0.10100000352E+00 0.  1.
</event>
<event>
 5   0  0.1924218E-02  0.9295099E+03  0.7818609E-02  0.9389426E-01
        2   -1    0    0  501    0  0.00000000000E+00  0.00000000000E+00  0.19568553090E+04  0.19568553090E+04  0.25500000920E-02 0.  1.
       -2   -1    0    0    0  501  0.00000000000E+00  0.00000000000E+00 -0.11037973335E+03  0.11037973338E+03  0.25500000920E-02 0. -1.
    10030    2    1    2    0    0  0.00000000000E+00  0.00000000000E+00  0.18464755757E+04  0.20672350424E+04  0.92950990793E+03 0.  0.
        4    1    3    3  502    0  0.28793848009E+03 -0.34963426450E+03  0.69165413370E+03  0.82676462236E+03  0.12699999809E+01 0. -1.
       -4    1    3    3    0  502 -0.28793848009E+03  0.34963426450E+03  0.11548214420E+04  0.12404704200E+04  0.12699999809E+01 0.  1.
</event>
<event>
 5   0  0.1175993E-02  0.9142817E+03  0.7818609E-02  0.9407903E-01
        1   -1    0    0  501    0  0.00000000000E+00  0.00000000000E+00  0.33366731683E+03  0.33366731687E+03  0.50400001928E-02 0. -1.
       -1   -1    0    0    0  501  0.00000000000E+00  0.00000000000E+00 -0.62630576614E+03  0.62630576616E+03  0.50400001928E-02 0.  1.
    10030    2    1    2    0    0  0.00000000000E+00  0.00000000000E+00 -0.29263844931E+03  0.95997308304E+03  0.91428171705E+03 0.  0.
        4    1    3    3  502    0 -0.36621151652E+03  0.10462110852E+03 -0.41177757195E+03  0.56090893453E+03  0.12699999809E+01 0.  1.
       -4    1    3    3    0  502  0.36621151652E+03 -0.10462110852E+03  0.11913912263E+03  0.39906414850E+03  0.12699999809E+01 0. -1.
</event>
<event>
 5   0  0.2008770E-02  0.9182801E+03  0.7818609E-02  0.9403015E-01
        2   -1    0    0  501    0  0.00000000000E+00  0.00000000000E+00  0.97058030605E+03  0.97058030605E+03  0.25500000920E-02 0.  1.
       -2   -1    0    0    0  501  0.00000000000E+00  0.00000000000E+00 -0.21719953644E+03  0.21719953646E+03  0.25500000920E-02 0. -1.
    10030    2    1    2    0    0  0.00000000000E+00  0.00000000000E+00  0.75338076961E+03  0.11877798425E+04  0.91828011535E+03 0.  0.
        1    1    3    3  502    0  0.18581719684E+03  0.35823514652E+03  0.65992816977E+03  0.77354097508E+03  0.50400001928E-02 0.  1.
       -1    1    3    3    0  502 -0.18581719684E+03 -0.35823514652E+03  0.93452599844E+02  0.41423886743E+03  0.50400001928E-02 0. -1.
</event>
<event>
 5   0  0.2008643E-02  0.8639110E+03  0.7818609E-02  0.9471854E-01
       -2   -1    0    0    0  501  0.00000000000E+00  0.00000000000E+00  0.41120019113E+03  0.41120019114E+03  0.25500000920E-02 0.  1.
        2   -1    0    0  501    0  0.00000000000E+00  0.00000000000E+00 -0.45375842144E+03  0.45375842145E+03  0.25500000920E-02 0. -1.
    10030    2    1    2    0    0  0.00000000000E+00  0.00000000000E+00 -0.42558230314E+02  0.86495861259E+03  0.86391098993E+03 0.  0.
        3    1    3    3  502    0  0.77025459072E+02 -0.54915640472E+02  0.40070189733E+03  0.41171673470E+03  0.10100000352E+00 0.  1.
       -3    1    3    3    0  502 -0.77025459072E+02  0.54915640472E+02 -0.44326012764E+03  0.45324187789E+03  0.10100000352E+00 0. -1.
</event>
<event>
 5   0  0.2008643E-02  0.9065620E+03  0.7818609E-02  0.9417416E-01
       -2   -1    0    0    0  501  0.00000000000E+00  0.00000000000E+00  0.17701192705E+03  0.17701192707E+03  0.25500000920E-02 0.  1.
        2   -1    0    0  501    0  0.00000000000E+00  0.00000000000E+00 -0.11607333937E+04  0.11607333937E+04  0.25500000920E-02 0. -1.
    10030    2    1    2    0    0  0.00000000000E+00  0.00000000000E+00 -0.98372146665E+03  0.13377453208E+04  0.90656197763E+03 0.  0.
        3    1    3    3  502    0  0.18212279024E+03  0.14499823943E+03  0.82061410735E+02  0.24683453060E+03  0.10100000352E+00 0.  1.
       -3    1    3    3    0  502 -0.18212279024E+03 -0.14499823943E+03 -0.10657828774E+04  0.10909107902E+04  0.10100000352E+00 0. -1.
</event>
<event>
 5   0  0.1162839E-02  0.8967209E+03  0.7818609E-02  0.9429690E-01
        1   -1    0    0  501    0  0.00000000000E+00  0.00000000000E+00  0.91488465904E+03  0.91488465905E+03  0.50400001928E-02 0. -1.
       -1   -1    0    0    0  501  0.00000000000E+00  0.00000000000E+00 -0.21972943787E+03  0.21972943793E+03  0.50400001928E-02 0.  1.
    10030    2    1    2    0    0  0.00000000000E+00  0.00000000000E+00  0.69515522117E+03  0.11346140970E+04  0.89672089725E+03 0.  0.
        2    1    3    3  502    0  0.19192663844E+03 -0.80809961554E+02 -0.15482632539E+03  0.25949426867E+03  0.25500000920E-02 0.  1.
       -2    1    3    3    0  502 -0.19192663844E+03  0.80809961554E+02  0.84998154655E+03  0.87511982832E+03  0.25500000920E-02 0. -1.
</event>
<event>
 5   0  0.2041861E-02  0.9016217E+03  0.7818609E-02  0.9423557E-01
        2   -1    0    0  501    0  0.00000000000E+00  0.00000000000E+00  0.31542258801E+04  0.31542258801E+04  0.25500000920E-02 0.  1.
       -2   -1    0    0    0  501  0.00000000000E+00  0.00000000000E+00 -0.64431150871E+02  0.64431150921E+02  0.25500000920E-02 0. -1.
    10030    2    1    2    0    0  0.00000000000E+00  0.00000000000E+00  0.30897947292E+04  0.32186570310E+04  0.90162165822E+03 0.  0.
        5    1    3    3  502    0 -0.36459991888E+03  0.21275158654E+02  0.60160066669E+03  0.70379768782E+03  0.46999998093E+01 0. -1.
       -5    1    3    3    0  502  0.36459991888E+03 -0.21275158654E+02  0.24881940625E+04  0.25148593432E+04  0.46999998093E+01 0.  1.
</event>
<event>
 5   0  0.2041861E-02  0.1007411E+04  0.7818609E-02  0.9300454E-01
       -2   -1    0    0    0  501  0.00000000000E+00  0.00000000000E+00  0.17403569479E+03  0.17403569481E+03  0.25500000920E-02 0.  1.
        2   -1    0    0  501    0  0.00000000000E+00  0.00000000000E+00 -0.14578575658E+04  0.14578575658E+04  0.25500000920E-02 0. -1.
    10030    2    1    2    0    0  0.00000000000E+00  0.00000000000E+00 -0.12838218711E+04  0.16318932607E+04  0.10074110470E+04 0.  0.
        5    1    3    3  502    0  0.82859505528E+01  0.39250623098E+03 -0.11530552674E+04  0.12180674604E+04  0.46999998093E+01 0. -1.
       -5    1    3    3    0  502 -0.82859505528E+01 -0.39250623098E+03 -0.13076660362E+03  0.41382580025E+03  0.46999998093E+01 0.  1.
</event>
<event>
 5   0  0.1924218E-02  0.9105282E+03  0.7818609E-02  0.9412515E-01
       -2   -1    0    0    0  501  0.00000000000E+00  0.00000000000E+00  0.15515572325E+03  0.15515572327E+03  0.25500000920E-02 0. -1.
        2   -1    0    0  501    0  0.00000000000E+00  0.00000000000E+00 -0.13358541740E+04  0.13358541740E+04  0.25500000920E-02 0.  1.
    10030    2    1    2    0    0  0.00000000000E+00  0.00000000000E+00 -0.11806984508E+04  0.14910098973E+04  0.91052824348E+03 0.  0.
        4    1    3    3  502    0  0.53204840715E+02  0.28502754659E+03 -0.15599231877E+02  0.29037287464E+03  0.12699999809E+01 0. -1.
       -4    1    3    3    0  502 -0.53204840715E+02 -0.28502754659E+03 -0.11650992189E+04  0.12006370227E+04  0.12699999809E+01 0.  1.
</event>
<event>
 5   0  0.1924218E-02  0.9001856E+03  0.7818609E-02  0.9425349E-01
       -2   -1    0    0    0  501  0.00000000000E+00  0.00000000000E+00  0.24291515025E+03  0.24291515026E+03  0.25500000920E-02 0. -1.
        2   -1    0    0  501    0  0.00000000000E+00  0.00000000000E+00 -0.83396832561E+03  0.83396832561E+03  0.25500000920E-02 0.  1.
    10030    2    1    2    0    0  0.00000000000E+00  0.00000000000E+00 -0.59105317536E+03  0.10768834759E+04  0.90018562781E+03 0.  0.
        4    1    3    3  502    0  0.35127744432E+03 -0.19123980279E+03 -0.54247705346E+03  0.67398180353E+03  0.12699999809E+01 0.  1.
       -4    1    3    3    0  502 -0.35127744432E+03  0.19123980279E+03 -0.48576121898E+02  0.40290167234E+03  0.12699999809E+01 0. -1.
</event>
<event>
 5   0  0.1162839E-02  0.9597977E+03  0.7818609E-02  0.9353771E-01
       -1   -1    0    0    0  501  0.00000000000E+00  0.00000000000E+00  0.21184893949E+03  0.21184893955E+03  0.50400001928E-02 0. -1.
        1   -1    0    0  501    0  0.00000000000E+00  0.00000000000E+00 -0.10871090469E+04  0.10871090469E+04  0.50400001928E-02 0.  1.
    10030    2    1    2    0    0  0.00000000000E+00  0.00000000000E+00 -0.87526010741E+03  0.12989579865E+04  0.95979768440E+03 0.  0.
        2    1    3    3  502    0  0.35105898169E+03  0.95079253529E+02 -0.86134491703E+03  0.93498531496E+03  0.25500000920E-02 0.  1.
       -2    1    3    3    0  502 -0.35105898169E+03 -0.95079253529E+02 -0.13915190381E+02  0.36397267151E+03  0.25500000920E-02 0. -1.
</event>
<event>
 5   0  0.2008643E-02  0.8912401E+03  0.7818609E-02  0.9436598E-01
        2   -1    0    0  501    0  0.00000000000E+00  0.00000000000E+00  0.71588540691E+03  0.71588540692E+03  0.25500000920E-02 0.  1.
       -2   -1    0    0    0  501  0.00000000000E+00  0.00000000000E+00 -0.27738689618E+03  0.27738689619E+03  0.25500000920E-02 0. -1.
    10030    2    1    2    0    0  0.00000000000E+00  0.00000000000E+00  0.43849851073E+03  0.99327230311E+03  0.89124010469E+03 0.  0.
        3    1    3    3  502    0 -0.66756197909E+02 -0.29834097536E+03 -0.14207976147E+03  0.33712074448E+03  0.10100000352E+00 0. -1.
       -3    1    3    3    0  502  0.66756197909E+02  0.29834097536E+03  0.58057827221E+03  0.65615155863E+03  0.10100000352E+00 0.  1.
</event>
<event>
 5   0  0.1175993E-02  0.7823697E+03  0.7818609E-02  0.9585893E-01
        1   -1    0    0  501    0  0.00000000000E+00  0.00000000000E+00  0.56572371563E+03  0.56572371565E+03  0.50400001928E-02 0. -1.
       -1   -1    0    0    0  501  0.00000000000E+00  0.00000000000E+00 -0.27049527988E+03  0.27049527993E+03  0.50400001928E-02 0.  1.
    10030    2    1    2    0    0  0.00000000000E+00  0.00000000000E+00  0.29522843575E+03  0.83621899558E+03  0.78236972033E+03 0.  0.
        4    1    3    3  502    0 -0.60447665017E+02 -0.25779621969E+03  0.45537588014E+03  0.52676523823E+03  0.12699999809E+01 0. -1.
       -4    1    3    3    0  502  0.60447665017E+02  0.25779621969E+03 -0.16014744439E+03  0.30945375735E+03  0.12699999809E+01 0.  1.
</event>
<event>
 5   0  0.2008770E-02  0.8968653E+03  0.7818609E-02  0.9429509E-01
        2   -1    0    0  501    0  0.00000000000E+00  0.00000000000E+00  0.68053973812E+03  0.68053973813E+03  0.25500000920E-02 0.  1.
       -2   -1    0    0    0  501  0.00000000000E+00  0.00000000000E+00 -0.29548873236E+03  0.29548873237E+03  0.25500000920E-02 0. -1.
    10030    2    1    2    0    0  0.00000000000E+00  0.00000000000E+00  0.38505100576E+03  0.97602847050E+03  0.89686526200E+03 0.  0.
        1    1    3    3  502    0 -0.11835470017E+03 -0.61885648550E+02  0.65839277266E+03  0.67180258385E+03  0.50400001928E-02 0.  1.
       -1    1    3    3    0  502  0.11835470017E+03  0.61885648550E+02 -0.27334176690E+03  0.30422588665E+03  0.50400001928E-02 0. -1.
</event>
<event>
 5   0  0.1968763E-02  0.9072814E+03  0.7818609E-02  0.9416525E-01
        2   -1    0    0  501    0  0.00000000000E+00  0.00000000000E+00  0.19923769806E+04  0.19923769806E+04  0.25500000920E-02 0.  1.
       -2   -1    0    0    0  501  0.00000000000E+00  0.00000000000E+00 -0.10328862837E+03  0.10328862840E+03  0.25500000920E-02 0. -1.
    10030    2    1    2    0    0  0.00000000000E+00  0.00000000000E+00  0.18890883522E+04  0.20956656090E+04  0.90728140187E+03 0.  0.
        2    1    3    3  502    0  0.29123288376E+03  0.15409534517E+03  0.16647812454E+04  0.16970735291E+04  0.25500000920E-02 0.  1.
       -2    1    3    3    0  502 -0.29123288376E+03 -0.15409534517E+03  0.22430710677E+03  0.39859207988E+03  0.25500000920E-02 0. -1.
</event>
<event>
 5   0  0.1175993E-02  0.8090609E+03  0.7818609E-02  0.9546994E-01
       -1   -1    0    0    0  501  0.00000000000E+00  0.00000000000E+00  0.82859019759E+03  0.82859019760E+03  0.50400001928E-02 0. -1.
        1   -1    0    0  501    0  0.00000000000E+00  0.00000000000E+00 -0.19749797866E+03  0.19749797872E+03  0.50400001928E-02 0.  1.
    10030    2    1    2    0    0  0.00000000000E+00  0.00000000000E+00  0.63109221893E+03  0.10260881763E+04  0.80906091043E+03 0.  0.
        4    1    3    3  502    0 -0.89842925726E+02 -0.37466487455E+02 -0.18242057035E+03  0.20677129001E+03  0.12699999809E+01 0.  1.
       -4    1    3    3    0  502  0.89842925726E+02  0.37466487455E+02  0.81351278928E+03  0.81931688632E+03  0.12699999809E+01 0. -1.
</event>
<event>
 5   0  0.1162839E-02  0.8422364E+03  0.7818609E-02  0.9500817E-01
       -1   -1    0    0    0  501  0.00000000000E+00  0.00000000000E+00  0.22600543604E+03  0.22600543610E+03  0.50400001928E-02 0.  1.
        1   -1    0    0  501    0  0.00000000000E+00  0.00000000000E+00 -0.78467380966E+03  0.78467380967E+03  0.50400001928E-02 0. -1.
    10030    2    1    2    0    0  0.00000000000E+00  0.00000000000E+00 -0.55866837361E+03  0.10106792458E+04  0.84223641940E+03 0.  0.
        2    1    3    3  502    0 -0.55150239917E+02  0.15890303632E+03  0.18394587036E+03  0.24925450276E+03  0.25500000920E-02 0.  1.
       -2    1    3    3    0  502  0.55150239917E+02 -0.15890303632E+03 -0.74261424397E+03  0.76142474301E+03  0.25500000920E-02 0. -1.
</event>
<event>
 5   0  0.1924218E-02  0.8977257E+03  0.7818609E-02  0.9428429E-01
       -2   -1    0    0    0  501  0.00000000000E+00  0.00000000000E+00  0.73449230179E+03  0.73449230180E+03  0.25500000920E-02 0. -1.
        2   -1    0    0  501    0  0.00000000000E+00  0.00000000000E+00 -0.27430901572E+03  0.27430901573E+03  0.25500000920E-02 0.  1.
    10030    2    1    2    0    0  0.00000000000E+00  0.00000000000E+00  0.46018328607E+03  0.10088013175E+04  0.89772570503E+03 0.  0.
        4    1    3    3  502    0  0.29457426950E+03  0.15606335973E+02  0.61026910285E+03  0.67782560351E+03  0.12699999809E+01 0. -1.
       -4    1    3    3    0  502 -0.29457426950E+03 -0.15606335973E+02 -0.15008581678E+03  0.33097571402E+03  0.12699999809E+01 0.  1.
</event>
<event>
 5   0  0.1924218E-02  0.8838112E+03  0.7818609E-02  0.9446048E-01
        2   -1    0    0  501    0  0.00000000000E+00  0.00000000000E+00  0.74122486022E+03  0.74122486023E+03  0.25500000920E-02 0.  1.
       -2   -1    0    0    0  501  0.00000000000E+00  0.00000000000E+00 -0.26345658267E+03  0.26345658268E+03  0.25500000920E-02 0. -1.
    10030    2    1    2    0    0  0.00000000000E+00  0.00000000000E+00  0.47776827756E+03  0.10046814429E+04  0.88381122118E+03 0.  0.
        4    1    3    3  502    0  0.36051447464E+03  0.13655082155E+03  0.48444051016E+03  0.61911310281E+03  0.12699999809E+01 0.  1.
       -4    1    3    3    0  502 -0.36051447464E+03 -0.13655082155E+03 -0.66722325960E+01  0.38556834009E+03  0.12699999809E+01 0. -1.
</event>
<event>
 5   0  0.1175993E-02  0.9263021E+03  0.7818609E-02  0.9393287E-01
        1   -1    0    0  501    0  0.00000000000E+00  0.00000000000E+00  0.13981757503E+04  0.13981757503E+04  0.50400001928E-02 0. -1.
       -1   -1    0    0    0  501  0.00000000000E+00  0.00000000000E+00 -0.15342054400E+03  0.15342054409E+03  0.50400001928E-02 0.  1.
    10030    2    1    2    0    0  0.00000000000E+00  0.00000000000E+00  0.12447552063E+04  0.15515962944E+04  0.92630207664E+03 0.  0.
        4    1    3    3  502    0 -0.14728536276E+03 -0.18710427223E+03  0.12877859488E+04  0.13096164513E+04  0.12699999809E+01 0. -1.
       -4    1    3    3    0  502  0.14728536276E+03  0.18710427223E+03 -0.43030742467E+02  0.24197984310E+03  0.12699999809E+01 0.  1.
</event>
<event>
 5   0  0.1162839E-02  0.8916300E+03  0.7818609E-02  0.9436105E-01
       -1   -1    0    0    0  501  0.00000000000E+00  0.00000000000E+00  0.36493940519E+03  0.36493940523E+03  0.50400001928E-02 0.  1.
        1   -1    0    0  501    0  0.00000000000E+00  0.00000000000E+00 -0.54461368899E+03  0.54461368902E+03  0.50400001928E-02 0. -1.
    10030    2    1    2    0    0  0.00000000000E+00  0.00000000000E+00 -0.17967428380E+03  0.90955309425E+03  0.89162995856E+03 0.  0.
        2    1    3    3  502    0  0.30665067583E+03 -0.27757522420E+03  0.79844579943E+02  0.42125740235E+03  0.25500000920E-02 0.  1.
       -2    1    3    3    0  502 -0.30665067583E+03  0.27757522420E+03 -0.25951886374E+03  0.48829569190E+03  0.25500000920E-02 0. -1.
</event>
<event>
 5   0  0.2041861E-02  0.9013002E+03  0.7818609E-02  0.9423958E-01
        2   -1    0    0  501    0  0.00000000000E+00  0.00000000000E+00  0.19259382499E+03  0.19259382501E+03  0.25500000920E-02 0. -1.
       -2   -1    0    0    0  501  0.00000000000E+00  0.00000000000E+00 -0.10544756467E+04  0.10544756467E+04  0.25500000920E-02 0.  1.
    10030    2    1    2    0    0  0.00000000000E+00  0.00000000000E+00 -0.86188182173E+03  0.12470694717E+04  0.90130016792E+03 0.  0.
        5    1    3    3  502    0  0.34351504111E+03 -0.83580405845E+01 -0.83431461509E+03  0.90231668901E+03  0.46999998093E+01 0.  1.
       -5    1    3    3    0  502 -0.34351504111E+03  0.83580405845E+01 -0.27567206644E+02  0.34475278272E+03  0.46999998093E+01 0. -1.
</event>
<event>
 5   0  0.2041861E-02  0.8910288E+03  0.7818609E-02  0.9436866E-01
        2   -1    0    0  501    0  0.00000000000E+00  0.00000000000E+00  0.71631703839E+03  0.71631703840E+03  0.25500000920E-02 0. -1.
       -2   -1    0    0    0  501  0.00000000000E+00  0.00000000000E+00 -0.27708831338E+03  0.27708831339E+03  0.25500000920E-02 0.  1.
    10030    2    1    2    0    0  0.00000000000E+00  0.00000000000E+00  0.43922872501E+03  0.99340535179E+03  0.89102879868E+03 0.  0.
        5    1    3    3  502    0  0.44219939992E+03  0.86488097531E+01  0.27909052734E+03  0.52299973580E+03  0.46999998093E+01 0. -1.
       -5    1    3    3    0  502 -0.44219939992E+03 -0.86488097531E+01  0.16013819768E+03  0.47040561599E+03  0.46999998093E+01 0.  1.
</event>
<event>
 5   0  0.1206541E-02  0.8996509E+03  0.7818609E-02  0.9426018E-01
        1   -1    0    0  501    0  0.00000000000E+00  0.00000000000E+00  0.47848094820E+03  0.47848094823E+03  0.50400001928E-02 0. -1.
       -1   -1    0    0    0  501  0.00000000000E+00  0.00000000000E+00 -0.42288610454E+03  0.42288610457E+03  0.50400001928E-02 0.  1.
    10030    2    1    2    0    0  0.00000000000E+00  0.00000000000E+00  0.55594843666E+02  0.90136705280E+03  0.89965091965E+03 0.  0.
        3    1    3    3  502    0  0.12912187606E+03  0.38837457441E+03 -0.15920175944E+03  0.43914972314E+03  0.10100000352E+00 0.  1.
       -3    1    3    3    0  502 -0.12912187606E+03 -0.38837457441E+03  0.21479660311E+03  0.46221732965E+03  0.10100000352E+00 0. -1.
</event>
<event>
 5   0  0.1968763E-02  0.8958586E+03  0.7818609E-02  0.9430773E-01
        2   -1    0    0  501    0  0.00000000000E+00  0.00000000000E+00  0.15875967858E+03  0.15875967860E+03  0.25500000920E-02 0. -1.
       -2   -1    0    0    0  501  0.00000000000E+00  0.00000000000E+00 -0.12638010847E+04  0.12638010847E+04  0.25500000920E-02 0.  1.
    10030    2    1    2    0    0  0.00000000000E+00  0.00000000000E+00 -0.11050414061E+04  0.14225607633E+04  0.89585859155E+03 0.  0.
        2    1    3    3  502    0 -0.15164919622E+03  0.19268297309E+03 -0.11477645889E+04  0.11736642443E+04  0.25500000920E-02 0.  1.
       -2    1    3    3    0  502  0.15164919622E+03 -0.19268297309E+03  0.42723182749E+02  0.24889651902E+03  0.25500000920E-02 0. -1.
</event>
<event>
 5   0  0.1175993E-02  0.8732878E+03  0.7818609E-02  0.9459603E-01
       -1   -1    0    0    0  501  0.00000000000E+00  0.00000000000E+00  0.10593149831E+03  0.10593149843E+03  0.50400001928E-02 0. -1.
        1   -1    0    0  501    0  0.00000000000E+00  0.00000000000E+00 -0.17998223379E+04  0.17998223379E+04  0.50400001928E-02 0.  1.
    10030    2    1    2    0    0  0.00000000000E+00  0.00000000000E+00 -0.16938908396E+04  0.19057538364E+04  0.87328775801E+03 0.  0.
        4    1    3    3  502    0 -0.38411921674E+03  0.18315940153E+03 -0.10603326734E+04  0.11425418724E+04  0.12699999809E+01 0.  1.
       -4    1    3    3    0  502  0.38411921674E+03 -0.18315940153E+03 -0.63355816619E+03  0.76321196393E+03  0.12699999809E+01 0. -1.
</event>
<event>
 5   0  0.2008643E-02  0.9198414E+03  0.7818609E-02  0.9401113E-01
        2   -1    0    0  501    0  0.00000000000E+00  0.00000000000E+00  0.92475846808E+03  0.92475846809E+03  0.25500000920E-02 0.  1.
       -2   -1    0    0    0  501  0.00000000000E+00  0.00000000000E+00 -0.22873762154E+03  0.22873762156E+03  0.25500000920E-02 0. -1.
    10030    2    1    2    0    0  0.00000000000E+00  0.00000000000E+00  0.69602084654E+03  0.11534960896E+04  0.91984140481E+03 0.  0.
        3    1    3    3  502    0  0.14738465539E+03  0.28346930159E+03  0.76287941611E+03  0.82708046484E+03  0.10100000352E+00 0.  1.
       -3    1    3    3    0  502 -0.14738465539E+03 -0.28346930159E+03 -0.66858569572E+02  0.32641562480E+03  0.10100000352E+00 0. -1.
</event>
<event>
 5   0  0.2041861E-02  0.9026765E+03  0.7818609E-02  0.9422242E-01
        2   -1    0    0  501    0  0.00000000000E+00  0.00000000000E+00  0.10193037765E+04  0.10193037765E+04  0.25500000920E-02 0.  1.
       -2   -1    0    0    0  501  0.00000000000E+00  0.00000000000E+00 -0.19984840646E+03  0.19984840648E+03  0.25500000920E-02 0. -1.
    10030    2    1    2    0    0  0.00000000000E+00  0.00000000000E+00  0.81945537000E+03  0.12191521829E+04  0.90267654326E+03 0.  0.
        5    1    3    3  502    0  0.21255682439E+03 -0.63631435398E+02  0.94052222063E+03  0.96635060960E+03  0.46999998093E+01 0. -1.
       -5    1    3    3    0  502 -0.21255682439E+03  0.63631435398E+02 -0.12106685064E+03  0.25280157335E+03  0.46999998093E+01 0.  1.
</event>
<event>
 5   0  0.1968763E-02  0.9189672E+03  0.7818609E-02  0.9402177E-01
        2   -1    0    0  501    0  0.00000000000E+00  0.00000000000E+00  0.60380983380E+03  0.60380983380E+03  0.25500000920E-02 0.  1.
       -2   -1    0    0    0  501  0.00000000000E+00  0.00000000000E+00 -0.34965508193E+03  0.34965508194E+03  0.25500000920E-02 0. -1.
    10030    2    1    2    0    0  0.00000000000E+00  0.00000000000E+00  0.25415475187E+03  0.95346491574E+03  0.91896719618E+03 0.  0.
        2    1    3    3  502    0 -0.25686248007E+03 -0.27648515292E+03  0.39902917596E+03  0.54922368551E+03  0.25500000920E-02 0.  1.
       -2    1    3    3    0  502  0.25686248007E+03  0.27648515292E+03 -0.14487442409E+03  0.40424123023E+03  0.25500000920E-02 0. -1.
</event>
<event>
 5   0  0.1206541E-02  0.8757185E+03  0.7818609E-02  0.9456454E-01
        1   -1    0    0  501    0  0.00000000000E+00  0.00000000000E+00  0.64205131863E+03  0.64205131865E+03  0.50400001928E-02 0.  1.
       -1   -1    0    0    0  501  0.00000000000E+00  0.00000000000E+00 -0.29860656734E+03  0.29860656739E+03  0.50400001928E-02 0. -1.
    10030    2    1    2    0    0  0.00000000000E+00  0.00000000000E+00  0.34344475128E+03  0.94065788603E+03  0.87571854004E+03 0.  0.
        3    1    3    3  502    0  0.28426032749E+03 -0.16879510022E+03 -0.13666505028E+03  0.35773323275E+03  0.10100000352E+00 0. -1.
       -3    1    3    3    0  502 -0.28426032749E+03  0.16879510022E+03  0.48010980157E+03  0.58292465328E+03  0.10100000352E+00 0.  1.
</event>
<event>
 5   0  0.1968763E-02  0.8969968E+03  0.7818609E-02  0.9429343E-01
        2   -1    0    0  501    0  0.00000000000E+00  0.00000000000E+00  0.15298913562E+04  0.15298913562E+04  0.25500000920E-02 0.  1.
       -2   -1    0    0    0  501  0.00000000000E+00  0.00000000000E+00 -0.13148045922E+03  0.13148045925E+03  0.25500000920E-02 0. -1.
    10030    2    1    2    0    0  0.00000000000E+00  0.00000000000E+00  0.13984108969E+04  0.16613718154E+04  0.89699680733E+03 0.  0.
        2    1    3    3  502    0 -0.24451573284E+03 -0.32066698365E+03  0.10627911360E+04  0.11367234742E+04  0.25500000920E-02 0.  1.
       -2    1    3    3    0  502  0.24451573284E+03  0.32066698365E+03  0.33561976093E+03  0.52464834122E+03  0.25500000920E-02 0. -1.
</event>
<event>
 5   0  0.1206541E-02  0.8999910E+03  0.7818609E-02  0.9425593E-01
        1   -1    0    0  501    0  0.00000000000E+00  0.00000000000E+00  0.69598685452E+03  0.69598685454E+03  0.50400001928E-02 0.  1.
       -1   -1    0    0    0  501  0.00000000000E+00  0.00000000000E+00 -0.29094793173E+03  0.29094793178E+03  0.50400001928E-02 0. -1.
    10030    2    1    2    0    0  0.00000000000E+00  0.00000000000E+00  0.40503892279E+03  0.98693478631E+03  0.89999096855E+03 0.  0.
        3    1    3    3  502    0 -0.14793053872E+03 -0.12114438366E+03  0.64922495551E+03  0.67679572918E+03  0.10100000352E+00 0.  1.
       -3    1    3    3    0  502  0.14793053872E+03  0.12114438366E+03 -0.24418603272E+03  0.31013905713E+03  0.10100000352E+00 0. -1.
</event>
<event>
 5   0  0.1175993E-02  0.8988351E+03  0.7818609E-02  0.9427039E-01
        1   -1    0    0  501    0  0.00000000000E+00  0.00000000000E+00  0.88521120513E+03  0.88521120514E+03  0.50400001928E-02 0. -1.
       -1   -1    0    0    0  501  0.00000000000E+00  0.00000000000E+00 -0.22816716687E+03  0.22816716693E+03  0.50400001928E-02 0.  1.
    10030    2    1    2    0    0  0.00000000000E+00  0.00000000000E+00  0.65704403826E+03  0.11133783721E+04  0.89883509676E+03 0.  0.
        4    1    3    3  502    0  0.31284392649E+03  0.79281628869E+02 -0.58888408899E+02  0.32806456166E+03  0.12699999809E+01 0.  1.
       -4    1    3    3    0  502 -0.31284392649E+03 -0.79281628869E+02  0.71593244716E+03  0.78531381040E+03  0.12699999809E+01 0. -1.
</event>
<event>
 5   0  0.2008643E-02  0.8647877E+03  0.7818609E-02  0.9470702E-01
        2   -1    0    0  501    0  0.00000000000E+00  0.00000000000E+00  0.11975607803E+04  0.11975607803E+04  0.25500000920E-02 0.  1.
       -2   -1    0    0    0  501  0.00000000000E+00  0.00000000000E+00 -0.15612105116E+03  0.15612105118E+03  0.25500000920E-02 0. -1.
    10030    2    1    2    0    0  0.00000000000E+00  0.00000000000E+00  0.10414397291E+04  0.13536818315E+04  0.86478771468E+03 0.  0.
        3    1    3    3  502    0  0.14093492824E+02 -0.23472741008E+03 -0.47280502884E+02  0.23985628976E+03  0.10100000352E+00 0. -1.
       -3    1    3    3    0  502 -0.14093492824E+02  0.23472741008E+03  0.10887202320E+04  0.11138255417E+04  0.10100000352E+00 0.  1.
</event>
<event>
 5   0  0.1226424E-02  0.8732869E+03  0.7818609E-02  0.9459604E-01
        1   -1    0    0  501    0  0.00000000000E+00  0.00000000000E+00  0.40242922048E+03  0.40242922051E+03  0.50400001928E-02 0. -1.
       -1   -1    0    0    0  501  0.00000000000E+00  0.00000000000E+00 -0.47376659429E+03  0.47376659432E+03  0.50400001928E-02 0.  1.
    10030    2    1    2    0    0  0.00000000000E+00  0.00000000000E+00 -0.71337373810E+02  0.87619581483E+03  0.87328694312E+03 0.  0.
        1    1    3    3  502    0  0.13540488371E+03  0.41154203738E+03 -0.90220651019E+02  0.44253937334E+03  0.50400001928E-02 0.  1.
       -1    1    3    3    0  502 -0.13540488371E+03 -0.41154203738E+03  0.18883277209E+02  0.43365644149E+03  0.50400001928E-02 0. -1.
</event>
<event>
 5   0  0.1162839E-02  0.8937591E+03  0.7818609E-02  0.9433417E-01
        1   -1    0    0  501    0  0.00000000000E+00  0.00000000000E+00  0.37921821110E+03  0.37921821113E+03  0.50400001928E-02 0. -1.
       -1   -1    0    0    0  501  0.00000000000E+00  0.00000000000E+00 -0.52661329687E+03  0.52661329690E+03  0.50400001928E-02 0.  1.
    10030    2    1    2    0    0  0.00000000000E+00  0.00000000000E+00 -0.14739508578E+03  0.90583150803E+03  0.89375914520E+03 0.  0.
        2    1    3    3  502    0 -0.41511222744E+03 -0.14702184364E+03  0.32741140309E+01  0.44039108042E+03  0.25500000920E-02 0. -1.
       -2    1    3    3    0  502  0.41511222744E+03  0.14702184364E+03 -0.15066919981E+03  0.46544042761E+03  0.25500000920E-02 0.  1.
</event>
<event>
 5   0  0.1162839E-02  0.9633338E+03  0.7818609E-02  0.9349700E-01
       -1   -1    0    0    0  501  0.00000000000E+00  0.00000000000E+00  0.13379914573E+03  0.13379914583E+03  0.50400001928E-02 0.  1.
        1   -1    0    0  501    0  0.00000000000E+00  0.00000000000E+00 -0.17339649138E+04  0.17339649138E+04  0.50400001928E-02 0. -1.
    10030    2    1    2    0    0  0.00000000000E+00  0.00000000000E+00 -0.16001657681E+04  0.18677640596E+04  0.96333384512E+03 0.  0.
        2    1    3    3  502    0 -0.28100843382E+03 -0.33171619847E+03 -0.12021399933E+04  0.12783356131E+04  0.25500000920E-02 0. -1.
       -2    1    3    3    0  502  0.28100843382E+03  0.33171619847E+03 -0.39802577478E+03  0.58942844655E+03  0.25500000920E-02 0.  1.
</event>
<event>
 5   0  0.1924218E-02  0.9243386E+03  0.7818609E-02  0.9395658E-01
       -2   -1    0    0    0  501  0.00000000000E+00  0.00000000000E+00  0.23554381398E+03  0.23554381400E+03  0.25500000920E-02 0.  1.
        2   -1    0    0  501    0  0.00000000000E+00  0.00000000000E+00 -0.90683957843E+03  0.90683957843E+03  0.25500000920E-02 0. -1.
    10030    2    1    2    0    0  0.00000000000E+00  0.00000000000E+00 -0.67129576445E+03  0.11423833924E+04  0.92433858079E+03 0.  0.
        4    1    3    3  502    0  0.35113992925E+03 -0.27592547464E+03 -0.18855730997E+03  0.48475724803E+03  0.12699999809E+01 0. -1.
       -4    1    3    3    0  502 -0.35113992925E+03  0.27592547464E+03 -0.48273845447E+03  0.65762614440E+03  0.12699999809E+01 0.  1.
</event>
<event>
 5   0  0.1175993E-02  0.8946346E+03  0.7818609E-02  0.9432313E-01
        1   -1    0    0  501    0  0.00000000000E+00  0.00000000000E+00  0.48238400807E+03  0.48238400809E+03  0.50400001928E-02 0. -1.
       -1   -1    0    0    0  501  0.00000000000E+00  0.00000000000E+00 -0.41479970895E+03  0.41479970898E+03  0.50400001928E-02 0.  1.
    10030    2    1    2    0    0  0.00000000000E+00  0.00000000000E+00  0.67584299121E+02  0.89718371707E+03  0.89463455371E+03 0.  0.
        4    1    3    3  502    0 -0.27566624611E+03  0.22242426296E+03 -0.24016512525E+03  0.42795482506E+03  0.12699999809E+01 0.  1.
       -4    1    3    3    0  502  0.27566624611E+03 -0.22242426296E+03  0.30774942437E+03  0.46922889202E+03  0.12699999809E+01 0. -1.
</event>
<event>
 5   0  0.1175993E-02  0.8581733E+03  0.7818609E-02  0.9479432E-01
        1   -1    0    0  501    0  0.00000000000E+00  0.00000000000E+00  0.12540175114E+04  0.12540175114E+04  0.50400001928E-02 0. -1.
       -1   -1    0    0    0  501  0.00000000000E+00  0.00000000000E+00 -0.14682039078E+03  0.14682039086E+03  0.50400001928E-02 0.  1.
    10030    2    1    2    0    0  0.00000000000E+00  0.00000000000E+00  0.11071971206E+04  0.14008379023E+04  0.85817327185E+03 0.  0.
        4    1    3    3  502    0  0.22759230262E+03  0.21744315322E+03  0.10296008800E+04  0.10766426362E+04  0.12699999809E+01 0.  1.
       -4    1    3    3    0  502 -0.22759230262E+03 -0.21744315322E+03  0.77596240648E+02  0.32419526609E+03  0.12699999809E+01 0. -1.
</event>
<event>
 5   0  0.2041861E-02  0.9538435E+03  0.7818609E-02  0.9360669E-01
        2   -1    0    0  501    0  0.00000000000E+00  0.00000000000E+00  0.57105999786E+03  0.57105999786E+03  0.25500000920E-02 0. -1.
       -2   -1    0    0    0  501  0.00000000000E+00  0.00000000000E+00 -0.39830206119E+03  0.39830206120E+03  0.25500000920E-02 0.  1.
    10030    2    1    2    0    0  0.00000000000E+00  0.00000000000E+00  0.17275793667E+03  0.96936205906E+03  0.95384353898E+03 0.  0.
        5    1    3    3  502    0 -0.36591028766E+03 -0.36193681081E+02 -0.22225917746E+03  0.42967610258E+03  0.46999998093E+01 0.  1.
       -5    1    3    3    0  502  0.36591028766E+03  0.36193681081E+02  0.39501711413E+03  0.53968595648E+03  0.46999998093E+01 0. -1.
</event>
<event>
 5   0  0.2008770E-02  0.9173836E+03  0.7818609E-02  0.9404108E-01
       -2   -1    0    0    0  501  0.00000000000E+00  0.00000000000E+00  0.13323300231E+03  0.13323300233E+03  0.25500000920E-02 0. -1.
        2   -1    0    0  501    0  0.00000000000E+00  0.00000000000E+00 -0.15791745341E+04  0.15791745341E+04  0.25500000920E-02 0.  1.
    10030    2    1    2    0    0  0.00000000000E+00  0.00000000000E+00 -0.14459415318E+04  0.17124075365E+04  0.91738359342E+03 0.  0.
        1    1    3    3  502    0  0.18169188116E+03  0.35176548745E+03 -0.29062624381E+03  0.49113593990E+03  0.50400001928E-02 0.  1.
       -1    1    3    3    0  502 -0.18169188116E+03 -0.35176548745E+03 -0.11553152880E+04  0.12212715966E+04  0.50400001928E-02 0. -1.
</event>
<event>
 5   0  0.2008770E-02  0.8906426E+03  0.7818609E-02  0.9437355E-01
       -2   -1    0    0    0  501  0.00000000000E+00  0.00000000000E+00  0.92950648215E+02  0.92950648250E+02  0.25500000920E-02 0. -1.
        2   -1    0    0  501    0  0.00000000000E+00  0.00000000000E+00 -0.21335091862E+04  0.21335091862E+04  0.25500000920E-02 0.  1.
    10030    2    1    2    0    0  0.00000000000E+00  0.00000000000E+00 -0.20405585380E+04  0.22264598345E+04  0.89064260368E+03 0.  0.
        1    1    3    3  502    0  0.39218224588E+03  0.16335066324E+03 -0.13539928525E+04  0.14190796306E+04  0.50400001928E-02 0.  1.
       -1    1    3    3    0  502 -0.39218224588E+03 -0.16335066324E+03 -0.68656568549E+03  0.80738020392E+03  0.50400001928E-02 0. -1.
</event>
<event>
 5   0  0.7893875E-03  0.8969044E+03  0.7818609E-02  0.9429459E-01
        3   -1    0    0  501    0  0.00000000000E+00  0.00000000000E+00  0.46508518421E+03  0.46508519517E+03  0.10100000352E+00 0. -1.
       -3   -1    0    0    0  501  0.00000000000E+00  0.00000000000E+00 -0.43241400376E+03  0.43241401555E+03  0.10100000352E+00 0.  1.
    10030    2    1    2    0    0  0.00000000000E+00  0.00000000000E+00  0.32671180449E+02  0.89749921072E+03  0.89690435790E+03 0.  0.
        3    1    3    3  502    0  0.35282218425E+03  0.11991481040E+03 -0.23332194642E+03  0.43966145650E+03  0.10100000352E+00 0.  1.
       -3    1    3    3    0  502 -0.35282218425E+03 -0.11991481040E+03  0.26599312687E+03  0.45783775422E+03  0.10100000352E+00 0. -1.
</event>
<event>
 5   0  0.1206541E-02  0.9031625E+03  0.7818609E-02  0.9421637E-01
        1   -1    0    0  501    0  0.00000000000E+00  0.00000000000E+00  0.15515560190E+04  0.15515560190E+04  0.50400001928E-02 0.  1.
       -1   -1    0    0    0  501  0.00000000000E+00  0.00000000000E+00 -0.13143298197E+03  0.13143298206E+03  0.50400001928E-02 0. -1.
    10030    2    1    2    0    0  0.00000000000E+00  0.00000000000E+00  0.14201230370E+04  0.16829890011E+04  0.90316251994E+03 0.  0.
        3    1    3    3  502    0  0.29808525600E+03 -0.11476540476E+03  0.13049038086E+04  0.13434284045E+04  0.10100000352E+00 0.  1.
       -3    1    3    3    0  502 -0.29808525600E+03  0.11476540476E+03  0.11521922843E+03  0.33956059662E+03  0.10100000352E+00 0. -1.
</event>
<event>
 5   0  0.2041861E-02  0.8781960E+03  0.7818609E-02  0.9453256E-01
       -2   -1    0    0    0  501  0.00000000000E+00  0.00000000000E+00  0.13416996103E+03  0.13416996105E+03  0.25500000920E-02 0. -1.
        2   -1    0    0  501    0  0.00000000000E+00  0.00000000000E+00 -0.14370358555E+04  0.14370358555E+04  0.25500000920E-02 0.  1.
    10030    2    1    2    0    0  0.00000000000E+00  0.00000000000E+00 -0.13028658945E+04  0.15712058166E+04  0.87819597984E+03 0.  0.
        5    1    3    3  502    0  0.32655048051E+03  0.59623816102E+02 -0.13724981438E+03  0.35923504466E+03  0.46999998093E+01 0.  1.
       -5    1    3    3    0  502 -0.32655048051E+03 -0.59623816102E+02 -0.11656160801E+04  0.12119707719E+04  0.46999998093E+01 0. -1.
</event>
<event>
 5   0  0.1968763E-02  0.8980584E+03  0.7818609E-02  0.9428012E-01
       -2   -1    0    0    0  501  0.00000000000E+00  0.00000000000E+00  0.84292758373E+03  0.84292758373E+03  0.25500000920E-02 0.  1.
        2   -1    0    0  501    0  0.00000000000E+00  0.00000000000E+00 -0.23919873769E+03  0.23919873770E+03  0.25500000920E-02 0. -1.
    10030    2    1    2    0    0  0.00000000000E+00  0.00000000000E+00  0.60372884604E+03  0.10821263214E+04  0.89805838118E+03 0.  0.
        2    1    3    3  502    0 -0.28277560898E+03 -0.10713409241E+03 -0.98116673925E+02  0.31790979931E+03  0.25500000920E-02 0. -1.
       -2    1    3    3    0  502  0.28277560898E+03  0.10713409241E+03  0.70184551996E+03  0.76421652212E+03  0.25500000920E-02 0.  1.
</event>
<event>
 5   0  0.1177712E-02  0.8985847E+03  0.7818609E-02  0.9427352E-01
        1   -1    0    0  501    0  0.00000000000E+00  0.00000000000E+00  0.43757273754E+03  0.43757273757E+03  0.50400001928E-02 0.  1.
       -1   -1    0    0    0  501  0.00000000000E+00  0.00000000000E+00 -0.46132588721E+03  0.46132588724E+03  0.50400001928E-02 0. -1.
    10030    2    1    2    0    0  0.00000000000E+00  0.00000000000E+00 -0.23753149670E+02  0.89889862481E+03  0.89858473477E+03 0.  0.
        5    1    3    3  502    0  0.48192143225E+02 -0.42155952055E+03  0.13584568762E+03  0.44554579213E+03  0.46999998093E+01 0.  1.
       -5    1    3    3    0  502 -0.48192143225E+02  0.42155952055E+03 -0.15959883729E+03  0.45335283268E+03  0.46999998093E+01 0. -1.
</event>
<event>
 5   0  0.2008770E-02  0.9073190E+03  0.7818609E-02  0.9416478E-01
       -2   -1    0    0    0  501  0.00000000000E+00  0.00000000000E+00  0.47543635436E+03  0.47543635437E+03  0.25500000920E-02 0. -1.
        2   -1    0    0  501    0  0.00000000000E+00  0.00000000000E+00 -0.43288011564E+03  0.43288011564E+03  0.25500000920E-02 0.  1.
    10030    2    1    2    0    0  0.00000000000E+00  0.00000000000E+00  0.42556238723E+02  0.90831647001E+03  0.90731900467E+03 0.  0.
        1    1    3    3  502    0 -0.32774511964E+03 -0.27542147042E+03  0.17155341730E+03  0.46119889943E+03  0.50400001928E-02 0. -1.
       -1    1    3    3    0  502  0.32774511964E+03  0.27542147042E+03 -0.12899717858E+03  0.44711757058E+03  0.50400001928E-02 0.  1.
</event>
<event>
 5   0  0.1924218E-02  0.8775827E+03  0.7818609E-02  0.9454046E-01
        2   -1    0    0  501    0  0.00000000000E+00  0.00000000000E+00  0.12055205664E+04  0.12055205664E+04  0.25500000920E-02 0.  1.
       -2   -1    0    0    0  501  0.00000000000E+00  0.00000000000E+00 -0.15971346623E+03  0.15971346625E+03  0.25500000920E-02 0. -1.
    10030    2    1    2    0    0  0.00000000000E+00  0.00000000000E+00  0.10458071002E+04  0.13652340327E+04  0.87758274434E+03 0.  0.
        4    1    3    3  502    0 -0.31027504199E+03  0.94338681125E+02  0.63081359517E+02  0.33038047651E+03  0.12699999809E+01 0. -1.
       -4    1    3    3    0  502  0.31027504199E+03 -0.94338681125E+02  0.98272574066E+03  0.10348535562E+04  0.12699999809E+01 0.  1.
</event>
<event>
 5   0  0.2008770E-02  0.8993970E+03  0.7818609E-02  0.9426335E-01
       -2   -1    0    0    0  501  0.00000000000E+00  0.00000000000E+00  0.18561593824E+03  0.18561593826E+03  0.25500000920E-02 0.  1.
        2   -1    0    0  501    0  0.00000000000E+00  0.00000000000E+00 -0.10895010394E+04  0.10895010394E+04  0.25500000920E-02 0. -1.
    10030    2    1    2    0    0  0.00000000000E+00  0.00000000000E+00 -0.90388510115E+03  0.12751169777E+04  0.89939703725E+03 0.  0.
        1    1    3    3  502    0 -0.32155084386E+03  0.30098668338E+03 -0.58064417354E+03  0.72879049462E+03  0.50400001928E-02 0.  1.
       -1    1    3    3    0  502  0.32155084386E+03 -0.30098668338E+03 -0.32324092762E+03  0.54632648304E+03  0.50400001928E-02 0. -1.
</event>
<event>
 5   0  0.1968763E-02  0.9194420E+03  0.7818609E-02  0.9401599E-01
       -2   -1    0    0    0  501  0.00000000000E+00  0.00000000000E+00  0.20561684238E+03  0.20561684239E+03  0.25500000920E-02 0. -1.
        2   -1    0    0  501    0  0.00000000000E+00  0.00000000000E+00 -0.10278505555E+04  0.10278505555E+04  0.25500000920E-02 0.  1.
    10030    2    1    2    0    0  0.00000000000E+00  0.00000000000E+00 -0.82223371308E+03  0.12334673979E+04  0.91944197351E+03 0.  0.
        2    1    3    3  502    0  0.39606668436E+03 -0.11628446656E+02 -0.98393330372E+02  0.40827109462E+03  0.25500000920E-02 0. -1.
       -2    1    3    3    0  502 -0.39606668436E+03  0.11628446656E+02 -0.72384038271E+03  0.82519630324E+03  0.25500000920E-02 0.  1.
</event>
<event>
 5   0  0.1162839E-02  0.8953396E+03  0.7818609E-02  0.9431426E-01
       -1   -1    0    0    0  501  0.00000000000E+00  0.00000000000E+00  0.99667110793E+02  0.99667110921E+02  0.50400001928E-02 0. -1.
        1   -1    0    0  501    0  0.00000000000E+00  0.00000000000E+00 -0.20107759949E+04  0.20107759949E+04  0.50400001928E-02 0.  1.
    10030    2    1    2    0    0  0.00000000000E+00  0.00000000000E+00 -0.19111088841E+04  0.21104431059E+04  0.89533956466E+03 0.  0.
        2    1    3    3  502    0 -0.13197156722E+03 -0.12722501135E+03  0.71458476589E+01  0.18344961492E+03  0.25500000920E-02 0. -1.
       -2    1    3    3    0  502  0.13197156722E+03  0.12722501135E+03 -0.19182547318E+04  0.19269934909E+04  0.25500000920E-02 0.  1.
</event>
<event>
 5   0  0.1162839E-02  0.9080689E+03  0.7818609E-02  0.9415551E-01
        1   -1    0    0  501    0  0.00000000000E+00  0.00000000000E+00  0.52118961243E+03  0.52118961245E+03  0.50400001928E-02 0. -1.
       -1   -1    0    0    0  501  0.00000000000E+00  0.00000000000E+00 -0.39553222719E+03  0.39553222722E+03  0.50400001928E-02 0.  1.
    10030    2    1    2    0    0  0.00000000000E+00  0.00000000000E+00  0.12565738524E+03  0.91672183968E+03  0.90806891417E+03 0.  0.
        2    1    3    3  502    0  0.15186987589E+03 -0.34140460054E+03  0.32321226809E+03  0.49405235625E+03  0.25500000920E-02 0. -1.
       -2    1    3    3    0  502 -0.15186987589E+03  0.34140460054E+03 -0.19755488285E+03  0.42266948342E+03  0.25500000920E-02 0.  1.
</event>
<event>
 5   0  0.2008770E-02  0.8062987E+03  0.7818609E-02  0.9550945E-01
       -2   -1    0    0    0  501  0.00000000000E+00  0.00000000000E+00  0.57988749314E+03  0.57988749314E+03  0.25500000920E-02 0.  1.
        2   -1    0    0  501    0  0.00000000000E+00  0.00000000000E+00 -0.28027745468E+03  0.28027745469E+03  0.25500000920E-02 0. -1.
    10030    2    1    2    0    0  0.00000000000E+00  0.00000000000E+00  0.29961003845E+03  0.86016494784E+03  0.80629868060E+03 0.  0.
        1    1    3    3  502    0  0.15595991625E+03  0.17598779844E+03  0.49914832800E+03  0.55176467271E+03  0.50400001928E-02 0.  1.
       -1    1    3    3    0  502 -0.15595991625E+03 -0.17598779844E+03 -0.19953828955E+03  0.30840027513E+03  0.50400001928E-02 0. -1.
</event>
<event>
 5   0  0.1226424E-02  0.8845037E+03  0.7818609E-02  0.9445163E-01
        1   -1    0    0  501    0  0.00000000000E+00  0.00000000000E+00  0.35714555455E+03  0.35714555458E+03  0.50400001928E-02 0.  1.
       -1   -1    0    0    0  501  0.00000000000E+00  0.00000000000E+00 -0.54763866050E+03  0.54763866053E+03  0.50400001928E-02 0. -1.
    10030    2    1    2    0    0  0.00000000000E+00  0.00000000000E+00 -0.19049310596E+03  0.90478421511E+03  0.88450373232E+03 0.  0.
        1    1    3    3  502    0 -0.37923721703E+03  0.16982996352E+03  0.59630486604E+02  0.41978432349E+03  0.50400001928E-02 0.  1.
       -1    1    3    3    0  502  0.37923721703E+03 -0.16982996352E+03 -0.25012359256E+03  0.48499989162E+03  0.50400001928E-02 0. -1.
</event>
<event>
 5   0  0.1177712E-02  0.8938738E+03  0.7818609E-02  0.9433272E-01
       -1   -1    0    0    0  501  0.00000000000E+00  0.00000000000E+00  0.55250047120E+03  0.55250047122E+03  0.50400001928E-02 0. -1.
        1   -1    0    0  501    0  0.00000000000E+00  0.00000000000E+00 -0.36154284407E+03  0.36154284411E+03  0.50400001928E-02 0.  1.
    10030    2    1    2    0    0  0.00000000000E+00  0.00000000000E+00  0.19095762713E+03  0.91404331533E+03  0.89387379811E+03 0.  0.
        5    1    3    3  502    0  0.40281914840E+02  0.43160612319E+03 -0.15713101936E+02  0.43379196605E+03  0.46999998093E+01 0. -1.
       -5    1    3    3    0  502 -0.40281914840E+02 -0.43160612319E+03  0.20667072907E+03  0.48025134928E+03  0.46999998093E+01 0.  1.
</event>
<event>
 5   0  0.2008770E-02  0.1041957E+04  0.7818609E-02  0.9263687E-01
        2   -1    0    0  501    0  0.00000000000E+00  0.00000000000E+00  0.79893579731E+03  0.79893579732E+03  0.25500000920E-02 0.  1.
       -2   -1    0    0    0  501  0.00000000000E+00  0.00000000000E+00 -0.33972547140E+03  0.33972547141E+03  0.25500000920E-02 0. -1.
    10030    2    1    2    0    0  0.00000000000E+00  0.00000000000E+00  0.45921032591E+03  0.11386612687E+04  0.10419574662E+04 0.  0.
        1    1    3    3  502    0  0.26299449631E+03 -0.82385659158E+02  0.71275232777E+03  0.76417889443E+03  0.50400001928E-02 0.  1.
       -1    1    3    3    0  502 -0.26299449631E+03  0.82385659158E+02 -0.25354200186E+03  0.37448237429E+03  0.50400001928E-02 0. -1.
</event>
<event>
 5   0  0.1175993E-02  0.9071522E+03  0.7818609E-02  0.9416685E-01
        1   -1    0    0  501    0  0.00000000000E+00  0.00000000000E+00  0.93818958983E+03  0.93818958984E+03  0.50400001928E-02 0. -1.
       -1   -1    0    0    0  501  0.00000000000E+00  0.00000000000E+00 -0.21928542115E+03  0.21928542120E+03  0.50400001928E-02 0.  1.
    10030    2    1    2    0    0  0.00000000000E+00  0.00000000000E+00  0.71890416868E+03  0.11574750110E+04  0.90715224602E+03 0.  0.
        4    1    3    3  502    0 -0.85359310893E+02 -0.16394176530E+03 -0.16905130962E+03  0.25048567334E+03  0.12699999809E+01 0.  1.
       -4    1    3    3    0  502  0.85359310893E+02  0.16394176530E+03  0.88795547830E+03  0.90698933771E+03  0.12699999809E+01 0. -1.
</event>
<event>
 5   0  0.1968763E-02  0.1039412E+04  0.7818609E-02  0.9266345E-01
       -2   -1    0    0    0  501  0.00000000000E+00  0.00000000000E+00  0.42434586435E+03  0.42434586436E+03  0.25500000920E-02 0. -1.
        2   -1    0    0  501    0  0.00000000000E+00  0.00000000000E+00 -0.63649529049E+03  0.63649529049E+03  0.25500000920E-02 0.  1.
    10030    2    1    2    0    0  0.00000000000E+00  0.00000000000E+00 -0.21214942613E+03  0.10608411549E+04  0.10394116494E+04 0.  0.
        2    1    3    3  502    0  0.12469136279E+03  0.52222141449E+02 -0.61823638631E+03  0.63284383332E+03  0.25500000920E-02 0.  1.
       -2    1    3    3    0  502 -0.12469136279E+03 -0.52222141449E+02  0.40608696017E+03  0.42799732153E+03  0.25500000920E-02 0. -1.
</event>
<event>
 5   0  0.1175993E-02  0.8847376E+03  0.7818609E-02  0.9444864E-01
        1   -1    0    0  501    0  0.00000000000E+00  0.00000000000E+00  0.16076868697E+03  0.16076868705E+03  0.50400001928E-02 0.  1.
       -1   -1    0    0    0  501  0.00000000000E+00  0.00000000000E+00 -0.12172156459E+04  0.12172156459E+04  0.50400001928E-02 0. -1.
    10030    2    1    2    0    0  0.00000000000E+00  0.00000000000E+00 -0.10564469589E+04  0.13779843329E+04  0.88473761356E+03 0.  0.
        4    1    3    3  502    0  0.15246380143E+03  0.15173764381E+03 -0.11302737249E+04  0.11505606588E+04  0.12699999809E+01 0. -1.
       -4    1    3    3    0  502 -0.15246380143E+03 -0.15173764381E+03  0.73826766034E+02  0.22742367418E+03  0.12699999809E+01 0.  1.
</event>
<event>
 5   0  0.1226424E-02  0.8942630E+03  0.7818609E-02  0.9432781E-01
       -1   -1    0    0    0  501  0.00000000000E+00  0.00000000000E+00  0.12583118435E+03  0.12583118446E+03  0.50400001928E-02 0. -1.
        1   -1    0    0  501    0  0.00000000000E+00  0.00000000000E+00 -0.15888477433E+04  0.15888477433E+04  0.50400001928E-02 0.  1.
    10030    2    1    2    0    0  0.00000000000E+00  0.00000000000E+00 -0.14630165590E+04  0.17146789278E+04  0.89426303378E+03 0.  0.
        1    1    3    3  502    0 -0.42398337892E+03  0.13689238449E+03 -0.80389347914E+03  0.91910073244E+03  0.50400001928E-02 0. -1.
       -1    1    3    3    0  502  0.42398337892E+03 -0.13689238449E+03 -0.65912307984E+03  0.79557819536E+03  0.50400001928E-02 0.  1.
</event>
<event>
 5   0  0.2041861E-02  0.8863704E+03  0.7818609E-02  0.9442781E-01
       -2   -1    0    0    0  501  0.00000000000E+00  0.00000000000E+00  0.22862979688E+03  0.22862979689E+03  0.25500000920E-02 0.  1.
        2   -1    0    0  501    0  0.00000000000E+00  0.00000000000E+00 -0.85908802012E+03  0.85908802012E+03  0.25500000920E-02 0. -1.
    10030    2    1    2    0    0  0.00000000000E+00  0.00000000000E+00 -0.63045822324E+03  0.10877178170E+04  0.88637039560E+03 0.  0.
        5    1    3    3  502    0  0.38667199320E+03  0.21318766578E+03 -0.36158291224E+03  0.57072629481E+03  0.46999998093E+01 0. -1.
       -5    1    3    3    0  502 -0.38667199320E+03 -0.21318766578E+03 -0.26887531100E+03  0.51699152220E+03  0.46999998093E+01 0.  1.
</event>
<event>
 5   0  0.1206541E-02  0.9733132E+03  0.7818609E-02  0.9338309E-01
        1   -1    0    0  501    0  0.00000000000E+00  0.00000000000E+00  0.54995380907E+03  0.54995380909E+03  0.50400001928E-02 0.  1.
       -1   -1    0    0    0  501  0.00000000000E+00  0.00000000000E+00 -0.43064462187E+03  0.43064462190E+03  0.50400001928E-02 0. -1.
    10030    2    1    2    0    0  0.00000000000E+00  0.00000000000E+00  0.11930918720E+03  0.98059843099E+03  0.97331320792E+03 0.  0.
        3    1    3    3  502    0  0.14886552120E+03  0.16320328634E+03 -0.37722507309E+03  0.43714416620E+03  0.10100000352E+00 0. -1.
       -3    1    3    3    0  502 -0.14886552120E+03 -0.16320328634E+03  0.49653426029E+03  0.54345426479E+03  0.10100000352E+00 0.  1.
</event>
<event>
 5   0  0.1206541E-02  0.9189967E+03  0.7818609E-02  0.9402141E-01
       -1   -1    0    0    0  501  0.00000000000E+00  0.00000000000E+00  0.74196648755E+03  0.74196648757E+03  0.50400001928E-02 0. -1.
        1   -1    0    0  501    0  0.00000000000E+00  0.00000000000E+00 -0.28456643164E+03  0.28456643169E+03  0.50400001928E-02 0.  1.
    10030    2    1    2    0    0  0.00000000000E+00  0.00000000000E+00  0.45740005591E+03  0.10265329193E+04  0.91899674818E+03 0.  0.
        3    1    3    3  502    0 -0.20366370787E+03  0.12588580828E+03 -0.20938142543E+03  0.31806718495E+03  0.10100000352E+00 0.  1.
       -3    1    3    3    0  502  0.20366370787E+03 -0.12588580828E+03  0.66678148134E+03  0.70846573430E+03  0.10100000352E+00 0. -1.
</event>
<event>
 5   0  0.1968763E-02  0.8804467E+03  0.7818609E-02  0.9450360E-01
        2   -1    0    0  501    0  0.00000000000E+00  0.00000000000E+00  0.13322969074E+04  0.13322969074E+04  0.25500000920E-02 0. -1.
       -2   -1    0    0    0  501  0.00000000000E+00  0.00000000000E+00 -0.14546050847E+03  0.14546050850E+03  0.25500000920E-02 0.  1.
    10030    2    1    2    0    0  0.00000000000E+00  0.00000000000E+00  0.11868363990E+04  0.14777574159E+04  0.88044667212E+03 0.  0.
        2    1    3    3  502    0 -0.76020726489E+02 -0.20219409738E+03  0.12372287079E+04  0.12559444572E+04  0.25500000920E-02 0. -1.
       -2    1    3    3    0  502  0.76020726489E+02  0.20219409738E+03 -0.50392308923E+02  0.22181295877E+03  0.25500000920E-02 0.  1.
</event>
<event>
 5   0  0.1924218E-02  0.9478694E+03  0.7818609E-02  0.9367644E-01
       -2   -1    0    0    0  501  0.00000000000E+00  0.00000000000E+00  0.18929634102E+03  0.18929634104E+03  0.25500000920E-02 0. -1.
        2   -1    0    0  501    0  0.00000000000E+00  0.00000000000E+00 -0.11865739115E+04  0.11865739115E+04  0.25500000920E-02 0.  1.
    10030    2    1    2    0    0  0.00000000000E+00  0.00000000000E+00 -0.99727757052E+03  0.13758702526E+04  0.94786939991E+03 0.  0.
        4    1    3    3  502    0 -0.16669810469E+03  0.42826224003E+03 -0.33051259778E+03  0.56607154542E+03  0.12699999809E+01 0. -1.
       -4    1    3    3    0  502  0.16669810469E+03 -0.42826224003E+03 -0.66676497274E+03  0.80979870716E+03  0.12699999809E+01 0.  1.
</event>
<event>
 5   0  0.1206541E-02  0.8997123E+03  0.7818609E-02  0.9425941E-01
       -1   -1    0    0    0  501  0.00000000000E+00  0.00000000000E+00  0.53594341375E+03  0.53594341377E+03  0.50400001928E-02 0. -1.
        1   -1    0    0  501    0  0.00000000000E+00  0.00000000000E+00 -0.37759688281E+03  0.37759688284E+03  0.50400001928E-02 0.  1.
    10030    2    1    2    0    0  0.00000000000E+00  0.00000000000E+00  0.15834653093E+03  0.91354029661E+03  0.89971231495E+03 0.  0.
        3    1    3    3  502    0  0.18052979515E+03 -0.33898408731E+03  0.31701545144E+03  0.49799600906E+03  0.10100000352E+00 0. -1.
       -3    1    3    3    0  502 -0.18052979515E+03  0.33898408731E+03 -0.15866892050E+03  0.41554428756E+03  0.10100000352E+00 0.  1.
</event>
<event>
 5   0  0.1968763E-02  0.8874911E+03  0.7818609E-02  0.9441355E-01
        2   -1    0    0  501    0  0.00000000000E+00  0.00000000000E+00  0.18500675295E+04  0.18500675295E+04  0.25500000920E-02 0.  1.
       -2   -1    0    0    0  501  0.00000000000E+00  0.00000000000E+00 -0.10643400890E+03  0.10643400893E+03  0.25500000920E-02 0. -1.
    10030    2    1    2    0    0  0.00000000000E+00  0.00000000000E+00  0.17436335206E+04  0.19565015385E+04  0.88749107925E+03 0.  0.
        2    1    3    3  502    0  0.26236607179E+03  0.30190708624E+03  0.12954439791E+04  0.13557872058E+04  0.25500000920E-02 0. -1.
       -2    1    3    3    0  502 -0.26236607179E+03 -0.30190708624E+03  0.44818954152E+03  0.60071433268E+03  0.25500000920E-02 0.  1.
</event>
<event>
 5   0  0.1924218E-02  0.8951463E+03  0.7818609E-02  0.9431669E-01
        2   -1    0    0  501    0  0.00000000000E+00  0.00000000000E+00  0.63637108547E+03  0.63637108548E+03  0.25500000920E-02 0.  1.
       -2   -1    0    0    0  501  0.00000000000E+00  0.00000000000E+00 -0.31478762193E+03  0.31478762194E+03  0.25500000920E-02 0. -1.
    10030    2    1    2    0    0  0.00000000000E+00  0.00000000000E+00  0.32158346355E+03  0.95115870742E+03  0.89514633590E+03 0.  0.
        4    1    3    3  502    0 -0.20170607763E+03 -0.22310150503E+03 -0.19140047695E+03  0.35650438816E+03  0.12699999809E+01 0. -1.
       -4    1    3    3    0  502  0.20170607763E+03  0.22310150503E+03  0.51298394050E+03  0.59465431925E+03  0.12699999809E+01 0.  1.
</event>
<event>
 5   0  0.2008643E-02  0.7992564E+03  0.7818609E-02  0.9561094E-01
       -2   -1    0    0    0  501  0.00000000000E+00  0.00000000000E+00  0.45510462156E+03  0.45510462157E+03  0.25500000920E-02 0.  1.
        2   -1    0    0  501    0  0.00000000000E+00  0.00000000000E+00 -0.35091429635E+03  0.35091429636E+03  0.25500000920E-02 0. -1.
    10030    2    1    2    0    0  0.00000000000E+00  0.00000000000E+00  0.10419032521E+03  0.80601891793E+03  0.79925644958E+03 0.  0.
        3    1    3    3  502    0  0.12383915916E+03 -0.10936153210E+03 -0.31486079660E+03  0.35557476497E+03  0.10100000352E+00 0. -1.
       -3    1    3    3    0  502 -0.12383915916E+03  0.10936153210E+03  0.41905112181E+03  0.45044415296E+03  0.10100000352E+00 0.  1.
</event>
<event>
 5   0  0.1206541E-02  0.8925964E+03  0.7818609E-02  0.9434884E-01
       -1   -1    0    0    0  501  0.00000000000E+00  0.00000000000E+00  0.59460362300E+03  0.59460362302E+03  0.50400001928E-02 0. -1.
        1   -1    0    0  501    0  0.00000000000E+00  0.00000000000E+00 -0.33498299834E+03  0.33498299838E+03  0.50400001928E-02 0.  1.
    10030    2    1    2    0    0  0.00000000000E+00  0.00000000000E+00  0.25962062465E+03  0.92958662140E+03  0.89259644742E+03 0.  0.
        3    1    3    3  502    0  0.15172791319E+03  0.14626824865E+03  0.53951691089E+03  0.57921866988E+03  0.10100000352E+00 0. -1.
       -3    1    3    3    0  502 -0.15172791319E+03 -0.14626824865E+03 -0.27989628623E+03  0.35036795152E+03  0.10100000352E+00 0.  1.
</event>
<event>
 5   0  0.1968763E-02  0.9005452E+03  0.7818609E-02  0.9424900E-01
        2   -1    0    0  501    0  0.00000000000E+00  0.00000000000E+00  0.67788939660E+03  0.67788939660E+03  0.25500000920E-02 0. -1.
       -2   -1    0    0    0  501  0.00000000000E+00  0.00000000000E+00 -0.29908331886E+03  0.29908331887E+03  0.25500000920E-02 0.  1.
    10030    2    1    2    0    0  0.00000000000E+00  0.00000000000E+00  0.37880607773E+03  0.97697271547E+03  0.90054519168E+03 0.  0.
        2    1    3    3  502    0 -0.29091759175E+03 -0.26640879542E+03  0.42494365782E+03  0.57981359401E+03  0.25500000920E-02 0. -1.
       -2    1    3    3    0  502  0.29091759175E+03  0.26640879542E+03 -0.46137580089E+02  0.39715912147E+03  0.25500000920E-02 0.  1.
</event>
<event>
 5   0  0.1177712E-02  0.9229353E+03  0.7818609E-02  0.9397357E-01
        1   -1    0    0  501    0  0.00000000000E+00  0.00000000000E+00  0.70133262711E+03  0.70133262713E+03  0.50400001928E-02 0. -1.
       -1   -1    0    0    0  501  0.00000000000E+00  0.00000000000E+00 -0.30363963849E+03  0.30363963853E+03  0.50400001928E-02 0.  1.
    10030    2    1    2    0    0  0.00000000000E+00  0.00000000000E+00  0.39769298863E+03  0.10049722657E+04  0.92293528567E+03 0.  0.
        5    1    3    3  502    0  0.17927906635E+03  0.33599696581E+03  0.48257491746E+03  0.61476465873E+03  0.46999998093E+01 0. -1.
       -5    1    3    3    0  502 -0.17927906635E+03 -0.33599696581E+03 -0.84881928830E+02  0.39020760693E+03  0.46999998093E+01 0.  1.
</event>
<event>
 5   0  0.1162839E-02  0.8686093E+03  0.7818609E-02  0.9465695E-01
        1   -1    0    0  501    0  0.00000000000E+00  0.00000000000E+00  0.57167343567E+03  0.57167343569E+03  0.50400001928E-02 0.  1.
       -1   -1    0    0    0  501  0.00000000000E+00  0.00000000000E+00 -0.32994452287E+03  0.32994452290E+03  0.50400001928E-02 0. -1.
    10030    2    1    2    0    0  0.00000000000E+00  0.00000000000E+00  0.24172891280E+03  0.90161795859E+03  0.86860927693E+03 0.  0.
        2    1    3    3  502    0  0.18275728199E+03 -0.32379928973E+03 -0.11210697399E+03  0.38834801116E+03  0.25500000920E-02 0. -1.
       -2    1    3    3    0  502 -0.18275728199E+03  0.32379928973E+03  0.35383588679E+03  0.51326994743E+03  0.25500000920E-02 0.  1.
</event>
<event>
 5   0  0.1968763E-02  0.9098289E+03  0.7818609E-02  0.9413378E-01
        2   -1    0    0  501    0  0.00000000000E+00  0.00000000000E+00  0.47489038325E+03  0.47489038325E+03  0.25500000920E-02 0.  1.
       -2   -1    0    0    0  501  0.00000000000E+00  0.00000000000E+00 -0.43577875731E+03  0.43577875732E+03  0.25500000920E-02 0. -1.
    10030    2    1    2    0    0  0.00000000000E+00  0.00000000000E+00  0.39111625934E+02  0.91066914057E+03  0.90982886540E+03 0.  0.
        2    1    3    3  502    0  0.55354025962E+02 -0.36864377118E+03 -0.24142402543E+03  0.44412594867E+03  0.25500000920E-02 0. -1.
       -2    1    3    3    0  502 -0.55354025962E+02  0.36864377118E+03  0.28053565136E+03  0.46654319190E+03  0.25500000920E-02 0.  1.
</event>
<event>
 5   0  0.1206541E-02  0.9114102E+03  0.7818609E-02  0.9411429E-01
        1   -1    0    0  501    0  0.00000000000E+00  0.00000000000E+00  0.24068425515E+03  0.24068425520E+03  0.50400001928E-02 0. -1.
       -1   -1    0    0    0  501  0.00000000000E+00  0.00000000000E+00 -0.86281981245E+03  0.86281981246E+03  0.50400001928E-02 0.  1.
    10030    2    1    2    0    0  0.00000000000E+00  0.00000000000E+00 -0.62213555730E+03  0.11035040677E+04  0.91141021264E+03 0.  0.
        3    1    3    3  502    0 -0.10079516390E+03  0.21235252090E+03 -0.78375330114E+03  0.81824354898E+03  0.10100000352E+00 0.  1.
       -3    1    3    3    0  502  0.10079516390E+03 -0.21235252090E+03  0.16161774384E+03  0.28526051869E+03  0.10100000352E+00 0. -1.
</event>
<event>
 5   0  0.1206541E-02  0.1100218E+04  0.7818609E-02  0.9204979E-01
       -1   -1    0    0    0  501  0.00000000000E+00  0.00000000000E+00  0.66549514178E+03  0.66549514180E+03  0.50400001928E-02 0. -1.
        1   -1    0    0  501    0  0.00000000000E+00  0.00000000000E+00 -0.45472926836E+03  0.45472926839E+03  0.50400001928E-02 0.  1.
    10030    2    1    2    0    0  0.00000000000E+00  0.00000000000E+00  0.21076587341E+03  0.11202244102E+04  0.11002183764E+04 0.  0.
        3    1    3    3  502    0 -0.38627563867E+03  0.23890108080E+03 -0.21064381949E+03  0.50065299792E+03  0.10100000352E+00 0.  1.
       -3    1    3    3    0  502  0.38627563867E+03 -0.23890108080E+03  0.42140969290E+03  0.61957141227E+03  0.10100000352E+00 0. -1.
</event>
<event>
 5   0  0.1206541E-02  0.8971280E+03  0.7818609E-02  0.9429179E-01
       -1   -1    0    0    0  501  0.00000000000E+00  0.00000000000E+00  0.28656080433E+03  0.28656080437E+03  0.50400001928E-02 0.  1.
        1   -1    0    0  501    0  0.00000000000E+00  0.00000000000E+00 -0.70215339894E+03  0.70215339896E+03  0.50400001928E-02 0. -1.
    10030    2    1    2    0    0  0.00000000000E+00  0.00000000000E+00 -0.41559259462E+03  0.98871420333E+03  0.89712795696E+03 0.  0.
        3    1    3    3  502    0  0.31925653146E+03 -0.59013169569E+02  0.13332155868E+03  0.35097284122E+03  0.10100000352E+00 0.  1.
       -3    1    3    3    0  502 -0.31925653146E+03  0.59013169569E+02 -0.54891415329E+03  0.63774136211E+03  0.10100000352E+00 0. -1.
</event>
<event>
 5   0  0.1162839E-02  0.9042602E+03  0.7818609E-02  0.9420272E-01
        1   -1    0    0  501    0  0.00000000000E+00  0.00000000000E+00  0.25212656657E+03  0.25212656662E+03  0.50400001928E-02 0. -1.
       -1   -1    0    0    0  501  0.00000000000E+00  0.00000000000E+00 -0.81078969140E+03  0.81078969141E+03  0.50400001928E-02 0.  1.
    10030    2    1    2    0    0  0.00000000000E+00  0.00000000000E+00 -0.55866312483E+03  0.10629162580E+04  0.90426018631E+03 0.  0.
        2    1    3    3  502    0 -0.39451460350E+03 -0.21783963831E+03 -0.23653243252E+03  0.50896313426E+03  0.25500000920E-02 0. -1.
       -2    1    3    3    0  502  0.39451460350E+03  0.21783963831E+03 -0.32213069231E+03  0.55395312377E+03  0.25500000920E-02 0.  1.
</event>
<event>
 5   0  0.2041861E-02  0.9048721E+03  0.7818609E-02  0.9419512E-01
       -2   -1    0    0    0  501  0.00000000000E+00  0.00000000000E+00  0.11470860335E+03  0.11470860338E+03  0.25500000920E-02 0. -1.
        2   -1    0    0  501    0  0.00000000000E+00  0.00000000000E+00 -0.17845074629E+04  0.17845074629E+04  0.25500000920E-02 0.  1.
    10030    2    1    2    0    0  0.00000000000E+00  0.00000000000E+00 -0.16697988595E+04  0.18992160663E+04  0.90487205452E+03 0.  0.
        5    1    3    3  502    0 -0.43994314211E+03 -0.83859293097E+01 -0.61420785363E+03  0.75557505885E+03  0.46999998093E+01 0. -1.
       -5    1    3    3    0  502  0.43994314211E+03  0.83859293097E+01 -0.10555910059E+04  0.11436410074E+04  0.46999998093E+01 0.  1.
</event>
<event>
 5   0  0.1175993E-02  0.8168829E+03  0.7818609E-02  0.9535896E-01
       -1   -1    0    0    0  501  0.00000000000E+00  0.00000000000E+00  0.70855863608E+03  0.70855863609E+03  0.50400001928E-02 0.  1.
        1   -1    0    0  501    0  0.00000000000E+00  0.00000000000E+00 -0.23544194463E+03  0.23544194469E+03  0.50400001928E-02 0. -1.
    10030    2    1    2    0    0  0.00000000000E+00  0.00000000000E+00  0.47311669144E+03  0.94400058078E+03  0.81688291254E+03 0.  0.
        4    1    3    3  502    0  0.33810698046E+03 -0.87237520578E+02  0.48141771943E+03  0.59471955468E+03  0.12699999809E+01 0.  1.
       -4    1    3    3    0  502 -0.33810698046E+03  0.87237520578E+02 -0.83010279880E+01  0.34928102611E+03  0.12699999809E+01 0. -1.
</event>
<event>
 5   0  0.1206541E-02  0.8960136E+03  0.7818609E-02  0.9430578E-01
       -1   -1    0    0    0  501  0.00000000000E+00  0.00000000000E+00  0.41619305562E+03  0.41619305565E+03  0.50400001928E-02 0. -1.
        1   -1    0    0  501    0  0.00000000000E+00  0.00000000000E+00 -0.48225235509E+03  0.48225235511E+03  0.50400001928E-02 0.  1.
    10030    2    1    2    0    0  0.00000000000E+00  0.00000000000E+00 -0.66059299464E+02  0.89844541077E+03  0.89601357416E+03 0.  0.
        3    1    3    3  502    0  0.29096845526E+03 -0.27972191575E+03 -0.22798748426E+03  0.46355721900E+03  0.10100000352E+00 0.  1.
       -3    1    3    3    0  502 -0.29096845526E+03  0.27972191575E+03  0.16192818480E+03  0.43488819177E+03  0.10100000352E+00 0. -1.
</event>
<event>
 5   0  0.1968763E-02  0.8824033E+03  0.7818609E-02  0.9447849E-01
       -2   -1    0    0    0  501  0.00000000000E+00  0.00000000000E+00  0.24663363804E+03  0.24663363805E+03  0.25500000920E-02 0. -1.
        2   -1    0    0  501    0  0.00000000000E+00  0.00000000000E+00 -0.78926341292E+03  0.78926341293E+03  0.25500000920E-02 0.  1.
    10030    2    1    2    0    0  0.00000000000E+00  0.00000000000E+00 -0.54262977488E+03  0.10358970510E+04  0.88240332480E+03 0.  0.
        2    1    3    3  502    0 -0.34397980979E+03 -0.10558835934E+03  0.28416995504E+02  0.36094118193E+03  0.25500000920E-02 0. -1.
       -2    1    3    3    0  502  0.34397980979E+03  0.10558835934E+03 -0.57104677039E+03  0.67495586904E+03  0.25500000920E-02 0.  1.
</event>
<event>
 5   0  0.7893875E-03  0.9948365E+03  0.7818609E-02  0.9314226E-01
        4   -1    0    0  501    0  0.00000000000E+00  0.00000000000E+00  0.79594469866E+03  0.79594571186E+03  0.12699999809E+01 0. -1.
       -4   -1    0    0    0  501  0.00000000000E+00  0.00000000000E+00 -0.31085438559E+03  0.31085697988E+03  0.12699999809E+01 0.  1.
    10030    2    1    2    0    0  0.00000000000E+00  0.00000000000E+00  0.48509031307E+03  0.11068026917E+04  0.99483646223E+03 0.  0.
        1    1    3    3  502    0 -0.20519285222E+03 -0.25502483032E+03 -0.17415266462E+03  0.37077071257E+03  0.50400001928E-02 0.  1.
       -1    1    3    3    0  502  0.20519285222E+03  0.25502483032E+03  0.65924297769E+03  0.73603197916E+03  0.50400001928E-02 0. -1.
</event>
<event>
 5   0  0.2041861E-02  0.8604597E+03  0.7818609E-02  0.9476405E-01
        2   -1    0    0  501    0  0.00000000000E+00  0.00000000000E+00  0.11112021278E+04  0.11112021278E+04  0.25500000920E-02 0.  1.
       -2   -1    0    0    0  501  0.00000000000E+00  0.00000000000E+00 -0.16657432143E+03  0.16657432144E+03  0.25500000920E-02 0. -1.
    10030    2    1    2    0    0  0.00000000000E+00  0.00000000000E+00  0.94462780633E+03  0.12777764492E+04  0.86045973854E+03 0.  0.
        5    1    3    3  502    0  0.73003730644E+02  0.23533555631E+03  0.99599923766E+03  0.10260355453E+04  0.46999998093E+01 0.  1.
       -5    1    3    3    0  502 -0.73003730644E+02 -0.23533555631E+03 -0.51371431334E+02  0.25174090392E+03  0.46999998093E+01 0. -1.
</event>
<event>
 5   0  0.1226424E-02  0.9011211E+03  0.7818609E-02  0.9424181E-01
        1   -1    0    0  501    0  0.00000000000E+00  0.00000000000E+00  0.88792638668E+03  0.88792638669E+03  0.50400001928E-02 0.  1.
       -1   -1    0    0    0  501  0.00000000000E+00  0.00000000000E+00 -0.22862796691E+03  0.22862796696E+03  0.50400001928E-02 0. -1.
    10030    2    1    2    0    0  0.00000000000E+00  0.00000000000E+00  0.65929841977E+03  0.11165543537E+04  0.90112108973E+03 0.  0.
        1    1    3    3  502    0  0.79416827719E+02 -0.51926741028E+02 -0.21610755942E+03  0.23602096565E+03  0.50400001928E-02 0. -1.
       -1    1    3    3    0  502 -0.79416827719E+02  0.51926741028E+02  0.87540597920E+03  0.88053338801E+03  0.50400001928E-02 0.  1.
</event>
<event>
 5   0  0.2008643E-02  0.8901414E+03  0.7818609E-02  0.9437990E-01
        2   -1    0    0  501    0  0.00000000000E+00  0.00000000000E+00  0.98498329318E+03  0.98498329318E+03  0.25500000920E-02 0.  1.
       -2   -1    0    0    0  501  0.00000000000E+00  0.00000000000E+00 -0.20110789159E+03  0.20110789160E+03  0.25500000920E-02 0. -1.
    10030    2    1    2    0    0  0.00000000000E+00  0.00000000000E+00  0.78387540159E+03  0.11860911848E+04  0.89014136709E+03 0.  0.
        3    1    3    3  502    0 -0.35776000127E+03  0.95060644494E+02  0.62681091643E+02  0.37544330343E+03  0.10100000352E+00 0. -1.
       -3    1    3    3    0  502  0.35776000127E+03 -0.95060644494E+02  0.72119430995E+03  0.81064788135E+03  0.10100000352E+00 0.  1.
</event>
<event>
 5   0  0.2041861E-02  0.9394482E+03  0.7818609E-02  0.9377570E-01
        2   -1    0    0  501    0  0.00000000000E+00  0.00000000000E+00  0.78903200511E+03  0.78903200511E+03  0.25500000920E-02 0. -1.
       -2   -1    0    0    0  501  0.00000000000E+00  0.00000000000E+00 -0.27963468442E+03  0.27963468443E+03  0.25500000920E-02 0.  1.
    10030    2    1    2    0    0  0.00000000000E+00  0.00000000000E+00  0.50939732069E+03  0.10686666895E+04  0.93944816941E+03 0.  0.
        5    1    3    3  502    0 -0.89426326532E+02 -0.15638697406E+03 -0.23874604372E+03  0.29912491859E+03  0.46999998093E+01 0.  1.
       -5    1    3    3    0  502  0.89426326532E+02  0.15638697406E+03  0.74814336441E+03  0.76954177095E+03  0.46999998093E+01 0. -1.
</event>
<event>
 5   0  0.1226424E-02  0.8841537E+03  0.7818609E-02  0.9445610E-01
        1   -1    0    0  501    0  0.00000000000E+00  0.00000000000E+00  0.50023764463E+03  0.50023764466E+03  0.50400001928E-02 0. -1.
       -1   -1    0    0    0  501  0.00000000000E+00  0.00000000000E+00 -0.39067820950E+03  0.39067820953E+03  0.50400001928E-02 0.  1.
    10030    2    1    2    0    0  0.00000000000E+00  0.00000000000E+00  0.10955943513E+03  0.89091585419E+03  0.88415371368E+03 0.  0.
        1    1    3    3  502    0  0.15694145381E+03 -0.19539525302E+03 -0.31217859948E+03  0.40033161607E+03  0.50400001928E-02 0.  1.
       -1    1    3    3    0  502 -0.15694145381E+03  0.19539525302E+03  0.42173803461E+03  0.49058423812E+03  0.50400001928E-02 0. -1.
</event>
<event>
 5   0  0.1968763E-02  0.9348189E+03  0.7818609E-02  0.9383073E-01
        2   -1    0    0  501    0  0.00000000000E+00  0.00000000000E+00  0.19752371745E+03  0.19752371746E+03  0.25500000920E-02 0. -1.
       -2   -1    0    0    0  501  0.00000000000E+00  0.00000000000E+00 -0.11060524748E+04  0.11060524748E+04  0.25500000920E-02 0.  1.
    10030    2    1    2    0    0  0.00000000000E+00  0.00000000000E+00 -0.90852875733E+03  0.13035761922E+04  0.93481890550E+03 0.  0.
        2    1    3    3  502    0  0.26998118298E+02 -0.16833062887E+03  0.15262217656E+03  0.22881789220E+03  0.25500000920E-02 0. -1.
       -2    1    3    3    0  502 -0.26998118298E+02  0.16833062887E+03 -0.10611509339E+04  0.10747583000E+04  0.25500000920E-02 0.  1.
</event>
<event>
 5   0  0.2041861E-02  0.8962718E+03  0.7818609E-02  0.9430254E-01
       -2   -1    0    0    0  501  0.00000000000E+00  0.00000000000E+00  0.10850532297E+04  0.10850532297E+04  0.25500000920E-02 0.  1.
        2   -1    0    0  501    0  0.00000000000E+00  0.00000000000E+00 -0.18508380946E+03  0.18508380947E+03  0.25500000920E-02 0. -1.
    10030    2    1    2    0    0  0.00000000000E+00  0.00000000000E+00  0.89996942020E+03  0.12701370391E+04  0.89627180079E+03 0.  0.
        5    1    3    3  502    0 -0.18577877502E+03 -0.38594186277E+03  0.63658857052E+03  0.76728871541E+03  0.46999998093E+01 0.  1.
       -5    1    3    3    0  502  0.18577877502E+03  0.38594186277E+03  0.26338084968E+03  0.50284832372E+03  0.46999998093E+01 0. -1.
</event>
<event>
 5   0  0.1162839E-02  0.7810863E+03  0.7818609E-02  0.9587805E-01
       -1   -1    0    0    0  501  0.00000000000E+00  0.00000000000E+00  0.60966178926E+02  0.60966179134E+02  0.50400001928E-02 0.  1.
        1   -1    0    0  501    0  0.00000000000E+00  0.00000000000E+00 -0.25017799287E+04  0.25017799287E+04  0.50400001928E-02 0. -1.
    10030    2    1    2    0    0  0.00000000000E+00  0.00000000000E+00 -0.24408137498E+04  0.25627461079E+04  0.78108632824E+03 0.  0.
        2    1    3    3  502    0  0.19026554113E+03 -0.14667454878E+02 -0.10241835761E+03  0.21657707717E+03  0.25500000920E-02 0.  1.
       -2    1    3    3    0  502 -0.19026554113E+03  0.14667454878E+02 -0.23383953922E+04  0.23461690307E+04  0.25500000920E-02 0. -1.
</event>
<event>
 5   0  0.2041861E-02  0.8908838E+03  0.7818609E-02  0.9437049E-01
       -2   -1    0    0    0  501  0.00000000000E+00  0.00000000000E+00  0.25981141757E+03  0.25981141758E+03  0.25500000920E-02 0. -1.
        2   -1    0    0  501    0  0.00000000000E+00  0.00000000000E+00 -0.76370190330E+03  0.76370190331E+03  0.25500000920E-02 0.  1.
    10030    2    1    2    0    0  0.00000000000E+00  0.00000000000E+00 -0.50389048573E+03  0.10235133209E+04  0.89088377268E+03 0.  0.
        5    1    3    3  502    0  0.34469762692E+03 -0.18217299225E+02 -0.57536516704E+03  0.67098099037E+03  0.46999998093E+01 0.  1.
       -5    1    3    3    0  502 -0.34469762692E+03  0.18217299225E+02  0.71474681312E+02  0.35253233052E+03  0.46999998093E+01 0. -1.
</event>
<event>
 5   0  0.1175993E-02  0.9091290E+03  0.7818609E-02  0.9414241E-01
        1   -1    0    0  501    0  0.00000000000E+00  0.00000000000E+00  0.55822181886E+03  0.55822181888E+03  0.50400001928E-02 0.  1.
       -1   -1    0    0    0  501  0.00000000000E+00  0.00000000000E+00 -0.37015554202E+03  0.37015554206E+03  0.50400001928E-02 0. -1.
    10030    2    1    2    0    0  0.00000000000E+00  0.00000000000E+00  0.18806627684E+03  0.92837736094E+03  0.90912903365E+03 0.  0.
        4    1    3    3  502    0 -0.30134596692E+03 -0.22913991199E+03 -0.16291457692E+03  0.41213743256E+03  0.12699999809E+01 0. -1.
       -4    1    3    3    0  502  0.30134596692E+03  0.22913991199E+03  0.35098085375E+03  0.51623992838E+03  0.12699999809E+01 0.  1.
</event>
<event>
 5   0  0.1177712E-02  0.9013857E+03  0.7818609E-02  0.9423851E-01
       -1   -1    0    0    0  501  0.00000000000E+00  0.00000000000E+00  0.19850733899E+03  0.19850733906E+03  0.50400001928E-02 0. -1.
        1   -1    0    0  501    0  0.00000000000E+00  0.00000000000E+00 -0.10232572145E+04  0.10232572146E+04  0.50400001928E-02 0.  1.
    10030    2    1    2    0    0  0.00000000000E+00  0.00000000000E+00 -0.82474987556E+03  0.12217645536E+04  0.90138574830E+03 0.  0.
        5    1    3    3  502    0 -0.43875187850E+03 -0.85559989697E+02 -0.33476843025E+03  0.55849414913E+03  0.46999998093E+01 0. -1.
       -5    1    3    3    0  502  0.43875187850E+03  0.85559989697E+02 -0.48998144531E+03  0.66327040449E+03  0.46999998093E+01 0.  1.
</event>
<event>
 5   0  0.1177712E-02  0.8253706E+03  0.7818609E-02  0.9524003E-01
        1   -1    0    0  501    0  0.00000000000E+00  0.00000000000E+00  0.31429578094E+03  0.31429578098E+03  0.50400001928E-02 0. -1.
       -1   -1    0    0    0  501  0.00000000000E+00  0.00000000000E+00 -0.54187548009E+03  0.54187548011E+03  0.50400001928E-02 0.  1.
    10030    2    1    2    0    0  0.00000000000E+00  0.00000000000E+00 -0.22757969915E+03  0.85617126109E+03  0.82537064938E+03 0.  0.
        5    1    3    3  502    0 -0.28857373016E+03  0.11414010774E+03 -0.39594077793E+03  0.50308443780E+03  0.46999998093E+01 0.  1.
       -5    1    3    3    0  502  0.28857373016E+03 -0.11414010774E+03  0.16836107878E+03  0.35308682329E+03  0.46999998093E+01 0. -1.
</event>
<event>
 5   0  0.1177712E-02  0.8875722E+03  0.7818609E-02  0.9441251E-01
       -1   -1    0    0    0  501  0.00000000000E+00  0.00000000000E+00  0.35219996013E+03  0.35219996017E+03  0.50400001928E-02 0.  1.
        1   -1    0    0  501    0  0.00000000000E+00  0.00000000000E+00 -0.55918835363E+03  0.55918835365E+03  0.50400001928E-02 0. -1.
    10030    2    1    2    0    0  0.00000000000E+00  0.00000000000E+00 -0.20698839350E+03  0.91138831382E+03  0.88757223003E+03 0.  0.
        5    1    3    3  502    0 -0.85475179506E+02  0.18773059440E+02 -0.55021438885E+03  0.55715024703E+03  0.46999998093E+01 0. -1.
       -5    1    3    3    0  502  0.85475179506E+02 -0.18773059440E+02  0.34322599535E+03  0.35423806678E+03  0.46999998093E+01 0.  1.
</event>
<event>
 5   0  0.2008643E-02  0.9056627E+03  0.7818609E-02  0.9418530E-01
       -2   -1    0    0    0  501  0.00000000000E+00  0.00000000000E+00  0.13102223241E+03  0.13102223244E+03  0.25500000920E-02 0. -1.
        2   -1    0    0  501    0  0.00000000000E+00  0.00000000000E+00 -0.15650490545E+04  0.15650490545E+04  0.25500000920E-02 0.  1.
    10030    2    1    2    0    0  0.00000000000E+00  0.00000000000E+00 -0.14340268221E+04  0.16960712870E+04  0.90566267668E+03 0.  0.
        3    1    3    3  502    0  0.11148777589E+02  0.34990593989E+03 -0.17911695818E+03  0.39324465276E+03  0.10100000352E+00 0. -1.
       -3    1    3    3    0  502 -0.11148777589E+02 -0.34990593989E+03 -0.12549098639E+04  0.13028266342E+04  0.10100000352E+00 0.  1.
</event>
<event>
 5   0  0.1177712E-02  0.8918303E+03  0.7818609E-02  0.9435852E-01
        1   -1    0    0  501    0  0.00000000000E+00  0.00000000000E+00  0.14952373101E+04  0.14952373101E+04  0.50400001928E-02 0.  1.
       -1   -1    0    0    0  501  0.00000000000E+00  0.00000000000E+00 -0.13298245560E+03  0.13298245569E+03  0.50400001928E-02 0. -1.
    10030    2    1    2    0    0  0.00000000000E+00  0.00000000000E+00  0.13622548545E+04  0.16282197658E+04  0.89183031857E+03 0.  0.
        5    1    3    3  502    0  0.92621881707E+02  0.43428545041E+03  0.75496303796E+03  0.87588466370E+03  0.46999998093E+01 0. -1.
       -5    1    3    3    0  502 -0.92621881707E+02 -0.43428545041E+03  0.60729181650E+03  0.75233510206E+03  0.46999998093E+01 0.  1.
</event>
<event>
 5   0  0.1177712E-02  0.8929538E+03  0.7818609E-02  0.9434433E-01
       -1   -1    0    0    0  501  0.00000000000E+00  0.00000000000E+00  0.21431108576E+03  0.21431108582E+03  0.50400001928E-02 0.  1.
        1   -1    0    0  501    0  0.00000000000E+00  0.00000000000E+00 -0.93015080517E+03  0.93015080518E+03  0.50400001928E-02 0. -1.
    10030    2    1    2    0    0  0.00000000000E+00  0.00000000000E+00 -0.71583971941E+03  0.11444618910E+04  0.89295381520E+03 0.  0.
        5    1    3    3  502    0  0.12190482443E+02  0.34498198795E+03 -0.72078625290E+03  0.79919715480E+03  0.46999998093E+01 0. -1.
       -5    1    3    3    0  502 -0.12190482443E+02 -0.34498198795E+03  0.49465334975E+01  0.34526473620E+03  0.46999998093E+01 0.  1.
</event>
<event>
 5   0  0.2008643E-02  0.7727518E+03  0.7818609E-02  0.9600317E-01
       -2   -1    0    0    0  501  0.00000000000E+00  0.00000000000E+00  0.95825890674E+02  0.95825890708E+02  0.25500000920E-02 0.  1.
        2   -1    0    0  501    0  0.00000000000E+00  0.00000000000E+00 -0.15578914737E+04  0.15578914737E+04  0.25500000920E-02 0. -1.
    10030    2    1    2    0    0  0.00000000000E+00  0.00000000000E+00 -0.14620655830E+04  0.16537173644E+04  0.77275180510E+03 0.  0.
        3    1    3    3  502    0  0.17978480291E+03  0.31447324661E+03 -0.44335635104E+03  0.57252149514E+03  0.10100000352E+00 0.  1.
       -3    1    3    3    0  502 -0.17978480291E+03 -0.31447324661E+03 -0.10187092320E+04  0.10811958693E+04  0.10100000352E+00 0. -1.
</event>
<event>
 5   0  0.2008770E-02  0.9056550E+03  0.7818609E-02  0.9418540E-01
       -2   -1    0    0    0  501  0.00000000000E+00  0.00000000000E+00  0.42826180436E+03  0.42826180436E+03  0.25500000920E-02 0.  1.
        2   -1    0    0  501    0  0.00000000000E+00  0.00000000000E+00 -0.47880234172E+03  0.47880234172E+03  0.25500000920E-02 0. -1.
    10030    2    1    2    0    0  0.00000000000E+00  0.00000000000E+00 -0.50540537362E+02  0.90706414609E+03  0.90565502218E+03 0.  0.
        1    1    3    3  502    0 -0.16885592843E+03  0.10310787168E+03 -0.43322355091E+03  0.47626274561E+03  0.50400001928E-02 0. -1.
       -1    1    3    3    0  502  0.16885592843E+03 -0.10310787168E+03  0.38268301355E+03  0.43080140048E+03  0.50400001928E-02 0.  1.
</event>
<event>
 5   0  0.1924218E-02  0.8916455E+03  0.7818609E-02  0.9436086E-01
       -2   -1    0    0    0  501  0.00000000000E+00  0.00000000000E+00  0.37096227019E+03  0.37096227019E+03  0.25500000920E-02 0. -1.
        2   -1    0    0  501    0  0.00000000000E+00  0.00000000000E+00 -0.53579012601E+03  0.53579012602E+03  0.25500000920E-02 0.  1.
    10030    2    1    2    0    0  0.00000000000E+00  0.00000000000E+00 -0.16482785582E+03  0.90675239621E+03  0.89164549344E+03 0.  0.
        4    1    3    3  502    0  0.28465679360E+03  0.16284654530E+03 -0.38953706382E+03  0.50920450159E+03  0.12699999809E+01 0.  1.
       -4    1    3    3    0  502 -0.28465679360E+03 -0.16284654530E+03  0.22470920800E+03  0.39754789462E+03  0.12699999809E+01 0. -1.
</event>
<event>
 5   0  0.1162839E-02  0.8899666E+03  0.7818609E-02  0.9438211E-01
        1   -1    0    0  501    0  0.00000000000E+00  0.00000000000E+00  0.19464506909E+04  0.19464506909E+04  0.50400001928E-02 0. -1.
       -1   -1    0    0    0  501  0.00000000000E+00  0.00000000000E+00 -0.10172881879E+03  0.10172881892E+03  0.50400001928E-02 0.  1.
    10030    2    1    2    0    0  0.00000000000E+00  0.00000000000E+00  0.18447218721E+04  0.20481795098E+04  0.88996658309E+03 0.  0.
        2    1    3    3  502    0 -0.30177349181E+03 -0.39534249439E+02  0.17527033052E+03  0.35121202429E+03  0.25500000920E-02 0.  1.
       -2    1    3    3    0  502  0.30177349181E+03  0.39534249439E+02  0.16694515416E+04  0.16969674855E+04  0.25500000920E-02 0. -1.
</event>
<event>
 5   0  0.2041861E-02  0.8948727E+03  0.7818609E-02  0.9432014E-01
        2   -1    0    0  501    0  0.00000000000E+00  0.00000000000E+00  0.59726936134E+03  0.59726936134E+03  0.25500000920E-02 0.  1.
       -2   -1    0    0    0  501  0.00000000000E+00  0.00000000000E+00 -0.33519092804E+03  0.33519092805E+03  0.25500000920E-02 0. -1.
    10030    2    1    2    0    0  0.00000000000E+00  0.00000000000E+00  0.26207843330E+03  0.93246028939E+03  0.89487266474E+03 0.  0.
        5    1    3    3  502    0 -0.14898199763E+03 -0.14094017347E+03 -0.28330277965E+03  0.34977467472E+03  0.46999998093E+01 0. -1.
       -5    1    3    3    0  502  0.14898199763E+03  0.14094017347E+03  0.54538121295E+03  0.58268561468E+03  0.46999998093E+01 0.  1.
</event>
<event>
 5   0  0.1175993E-02  0.9488223E+03  0.7818609E-02  0.9366528E-01
       -1   -1    0    0    0  501  0.00000000000E+00  0.00000000000E+00  0.22302141451E+03  0.22302141457E+03  0.50400001928E-02 0.  1.
        1   -1    0    0  501    0  0.00000000000E+00  0.00000000000E+00 -0.10091673079E+04  0.10091673079E+04  0.50400001928E-02 0. -1.
    10030    2    1    2    0    0  0.00000000000E+00  0.00000000000E+00 -0.78614589334E+03  0.12321887224E+04  0.94882226052E+03 0.  0.
        4    1    3    3  502    0  0.43117912858E+03  0.17069939585E+03 -0.26313917392E+03  0.53319561365E+03  0.12699999809E+01 0.  1.
       -4    1    3    3    0  502 -0.43117912858E+03 -0.17069939585E+03 -0.52300671943E+03  0.69899310878E+03  0.12699999809E+01 0. -1.
</event>
<event>
 5   0  0.2008770E-02  0.8951910E+03  0.7818609E-02  0.9431613E-01
       -2   -1    0    0    0  501  0.00000000000E+00  0.00000000000E+00  0.18270621524E+03  0.18270621525E+03  0.25500000920E-02 0.  1.
        2   -1    0    0  501    0  0.00000000000E+00  0.00000000000E+00 -0.10965239669E+04  0.10965239669E+04  0.25500000920E-02 0. -1.
    10030    2    1    2    0    0  0.00000000000E+00  0.00000000000E+00 -0.91381775167E+03  0.12792301822E+04  0.89519102749E+03 0.  0.
        1    1    3    3  502    0  0.31667908360E+03  0.21840620970E+03 -0.12993628262E+03  0.40604230320E+03  0.50400001928E-02 0.  1.
       -1    1    3    3    0  502 -0.31667908360E+03 -0.21840620970E+03 -0.78388146904E+03  0.87318787896E+03  0.50400001928E-02 0. -1.
</event>
<event>
 5   0  0.2041861E-02  0.8876080E+03  0.7818609E-02  0.9441206E-01
       -2   -1    0    0    0  501  0.00000000000E+00  0.00000000000E+00  0.38303896786E+03  0.38303896787E+03  0.25500000920E-02 0. -1.
        2   -1    0    0  501    0  0.00000000000E+00  0.00000000000E+00 -0.51420870531E+03  0.51420870532E+03  0.25500000920E-02 0.  1.
    10030    2    1    2    0    0  0.00000000000E+00  0.00000000000E+00 -0.13116973745E+03  0.89724767319E+03  0.88760795795E+03 0.  0.
        5    1    3    3  502    0  0.32659425563E+02  0.30307426534E+03  0.26043793488E+03  0.40096216320E+03  0.46999998093E+01 0. -1.
       -5    1    3    3    0  502 -0.32659425563E+02 -0.30307426534E+03 -0.39160767234E+03  0.49628550999E+03  0.46999998093E+01 0.  1.
</event>
<event>
 5   0  0.1968763E-02  0.8866706E+03  0.7818609E-02  0.9442399E-01
       -2   -1    0    0    0  501  0.00000000000E+00  0.00000000000E+00  0.59692243644E+03  0.59692243644E+03  0.25500000920E-02 0.  1.
        2   -1    0    0  501    0  0.00000000000E+00  0.00000000000E+00 -0.32926585631E+03  0.32926585632E+03  0.25500000920E-02 0. -1.
    10030    2    1    2    0    0  0.00000000000E+00  0.00000000000E+00  0.26765658013E+03  0.92618829276E+03  0.88667057511E+03 0.  0.
        2    1    3    3  502    0 -0.54104354266E+02 -0.12992317277E+03  0.57296831471E+03  0.59000000139E+03  0.25500000920E-02 0.  1.
       -2    1    3    3    0  502  0.54104354266E+02  0.12992317277E+03 -0.30531173458E+03  0.33618829137E+03  0.25500000920E-02 0. -1.
</event>
<event>
 5   0  0.1226424E-02  0.9008130E+03  0.7818609E-02  0.9424566E-01
        1   -1    0    0  501    0  0.00000000000E+00  0.00000000000E+00  0.25397994140E+03  0.25397994145E+03  0.50400001928E-02 0. -1.
       -1   -1    0    0    0  501  0.00000000000E+00  0.00000000000E+00 -0.79874815771E+03  0.79874815773E+03  0.50400001928E-02 0.  1.
    10030    2    1    2    0    0  0.00000000000E+00  0.00000000000E+00 -0.54476821631E+03  0.10527280992E+04  0.90081298909E+03 0.  0.
        1    1    3    3  502    0 -0.42831488336E+03  0.88543864570E+02 -0.39810065693E+03  0.59142014536E+03  0.50400001928E-02 0.  1.
       -1    1    3    3    0  502  0.42831488336E+03 -0.88543864570E+02 -0.14666755937E+03  0.46130795382E+03  0.50400001928E-02 0. -1.
</event>
<event>
 5   0  0.1175993E-02  0.9082023E+03  0.7818609E-02  0.9415386E-01
        1   -1    0    0  501    0  0.00000000000E+00  0.00000000000E+00  0.60215489242E+03  0.60215489245E+03  0.50400001928E-02 0.  1.
       -1   -1    0    0    0  501  0.00000000000E+00  0.00000000000E+00 -0.34244985744E+03  0.34244985747E+03  0.50400001928E-02 0. -1.
    10030    2    1    2    0    0  0.00000000000E+00  0.00000000000E+00  0.25970503499E+03  0.94460474992E+03  0.90820230586E+03 0.  0.
        4    1    3    3  502    0  0.45245093909E+02 -0.38577201688E+03  0.37452407085E+03  0.53957118165E+03  0.12699999809E+01 0.  1.
       -4    1    3    3    0  502 -0.45245093909E+02  0.38577201688E+03 -0.11481903586E+03  0.40503356827E+03  0.12699999809E+01 0. -1.
</event>
<event>
 5   0  0.1968763E-02  0.9087515E+03  0.7818609E-02  0.9414707E-01
        2   -1    0    0  501    0  0.00000000000E+00  0.00000000000E+00  0.54340987400E+03  0.54340987400E+03  0.25500000920E-02 0. -1.
       -2   -1    0    0    0  501  0.00000000000E+00  0.00000000000E+00 -0.37992932047E+03  0.37992932048E+03  0.25500000920E-02 0.  1.
    10030    2    1    2    0    0  0.00000000000E+00  0.00000000000E+00  0.16348055353E+03  0.92333919448E+03  0.90875154838E+03 0.  0.
        2    1    3    3  502    0 -0.95711766570E+02 -0.14464669341E+02 -0.36933135015E+03  0.38180572956E+03  0.25500000920E-02 0.  1.
       -2    1    3    3    0  502  0.95711766570E+02  0.14464669341E+02  0.53281190368E+03  0.54153346492E+03  0.25500000920E-02 0. -1.
</event>
<event>
 5   0  0.2041861E-02  0.8854493E+03  0.7818609E-02  0.9443956E-01
       -2   -1    0    0    0  501  0.00000000000E+00  0.00000000000E+00  0.64370732379E+03  0.64370732380E+03  0.25500000920E-02 0. -1.
        2   -1    0    0  501    0  0.00000000000E+00  0.00000000000E+00 -0.30449415552E+03  0.30449415553E+03  0.25500000920E-02 0.  1.
    10030    2    1    2    0    0  0.00000000000E+00  0.00000000000E+00  0.33921316827E+03  0.94820147933E+03  0.88544930508E+03 0.  0.
        5    1    3    3  502    0 -0.37114635234E+03 -0.20833385238E+03  0.39195760229E+02  0.42744708038E+03  0.46999998093E+01 0.  1.
       -5    1    3    3    0  502  0.37114635234E+03  0.20833385238E+03  0.30001740804E+03  0.52075439895E+03  0.46999998093E+01 0. -1.
</event>
<event>
 5   0  0.1175993E-02  0.8995033E+03  0.7818609E-02  0.9426202E-01
        1   -1    0    0  501    0  0.00000000000E+00  0.00000000000E+00  0.61921406796E+03  0.61921406798E+03  0.50400001928E-02 0. -1.
       -1   -1    0    0    0  501  0.00000000000E+00  0.00000000000E+00 -0.32666661836E+03  0.32666661840E+03  0.50400001928E-02 0.  1.
    10030    2    1    2    0    0  0.00000000000E+00  0.00000000000E+00  0.29254744959E+03  0.94588068638E+03  0.89950334219E+03 0.  0.
        4    1    3    3  502    0  0.31971239320E+03  0.25449706724E+03  0.34381621328E+03  0.53403742660E+03  0.12699999809E+01 0. -1.
       -4    1    3    3    0  502 -0.31971239320E+03 -0.25449706724E+03 -0.51268763690E+02  0.41184325978E+03  0.12699999809E+01 0.  1.
</event>
<event>
 5   0  0.1162839E-02  0.8945919E+03  0.7818609E-02  0.9432367E-01
        1   -1    0    0  501    0  0.00000000000E+00  0.00000000000E+00  0.29638396516E+03  0.29638396521E+03  0.50400001928E-02 0.  1.
       -1   -1    0    0    0  501  0.00000000000E+00  0.00000000000E+00 -0.67504896252E+03  0.67504896254E+03  0.50400001928E-02 0. -1.
    10030    2    1    2    0    0  0.00000000000E+00  0.00000000000E+00 -0.37866499735E+03  0.97143292774E+03  0.89459194770E+03 0.  0.
        2    1    3    3  502    0 -0.16364705208E+03 -0.22522747956E+03 -0.56949798621E+03  0.63390514393E+03  0.25500000920E-02 0.  1.
       -2    1    3    3    0  502  0.16364705208E+03  0.22522747956E+03  0.19083298885E+03  0.33752778381E+03  0.25500000920E-02 0. -1.
</event>
<event>
 5   0  0.7893875E-03  0.9157206E+03  0.7818609E-02  0.9406140E-01
        3   -1    0    0  501    0  0.00000000000E+00  0.00000000000E+00  0.77546449955E+03  0.77546450612E+03  0.10100000352E+00 0. -1.
       -3   -1    0    0    0  501  0.00000000000E+00  0.00000000000E+00 -0.27033610547E+03  0.27033612433E+03  0.10100000352E+00 0.  1.
    10030    2    1    2    0    0  0.00000000000E+00  0.00000000000E+00  0.50512839408E+03  0.10458006305E+04  0.91572062561E+03 0.  0.
        3    1    3    3  502    0 -0.44598641907E+03  0.61938779650E+02  0.34740099688E+03  0.56870709618E+03  0.10100000352E+00 0. -1.
       -3    1    3    3    0  502  0.44598641907E+03 -0.61938779650E+02  0.15772739720E+03  0.47709353427E+03  0.10100000352E+00 0.  1.
</event>
<event>
 5   0  0.1924218E-02  0.8855638E+03  0.7818609E-02  0.9443809E-01
        2   -1    0    0  501    0  0.00000000000E+00  0.00000000000E+00  0.10627992594E+04  0.10627992594E+04  0.25500000920E-02 0.  1.
       -2   -1    0    0    0  501  0.00000000000E+00  0.00000000000E+00 -0.18447116223E+03  0.18447116225E+03  0.25500000920E-02 0. -1.
    10030    2    1    2    0    0  0.00000000000E+00  0.00000000000E+00  0.87832809713E+03  0.12472704216E+04  0.88556380821E+03 0.  0.
        4    1    3    3  502    0 -0.12953791002E+03 -0.39557975445E+03  0.22653605131E+03  0.47390252975E+03  0.12699999809E+01 0.  1.
       -4    1    3    3    0  502  0.12953791002E+03  0.39557975445E+03  0.65179204582E+03  0.77336789185E+03  0.12699999809E+01 0. -1.
</event>
<event>
 5   0  0.1177712E-02  0.8983271E+03  0.7818609E-02  0.9427675E-01
       -1   -1    0    0    0  501  0.00000000000E+00  0.00000000000E+00  0.84962158063E+02  0.84962158212E+02  0.50400001928E-02 0. -1.
        1   -1    0    0  501    0  0.00000000000E+00  0.00000000000E+00 -0.23745618896E+04  0.23745618896E+04  0.50400001928E-02 0.  1.
    10030    2    1    2    0    0  0.00000000000E+00  0.00000000000E+00 -0.22895997315E+04  0.24595240478E+04  0.89832711811E+03 0.  0.
        5    1    3    3  502    0 -0.18723785773E+03 -0.40011505130E+02 -0.22571628545E+04  0.22652737533E+04  0.46999998093E+01 0.  1.
       -5    1    3    3    0  502  0.18723785773E+03  0.40011505130E+02 -0.32436877040E+02  0.19425029447E+03  0.46999998093E+01 0. -1.
</event>
<event>
 5   0  0.1924218E-02  0.9034713E+03  0.7818609E-02  0.9421253E-01
        2   -1    0    0  501    0  0.00000000000E+00  0.00000000000E+00  0.24453578510E+03  0.24453578511E+03  0.25500000920E-02 0. -1.
       -2   -1    0    0    0  501  0.00000000000E+00  0.00000000000E+00 -0.83449986649E+03  0.83449986649E+03  0.25500000920E-02 0.  1.
    10030    2    1    2    0    0  0.00000000000E+00  0.00000000000E+00 -0.58996408139E+03  0.10790356516E+04  0.90347126135E+03 0.  0.
        4    1    3    3  502    0  0.48427098650E+02 -0.44402036265E+03 -0.21429499351E+03  0.49540208264E+03  0.12699999809E+01 0. -1.
       -4    1    3    3    0  502 -0.48427098650E+02  0.44402036265E+03 -0.37566908788E+03  0.58363356896E+03  0.12699999809E+01 0.  1.
</event>
<event>
 5   0  0.1924218E-02  0.8925588E+03  0.7818609E-02  0.9434931E-01
        2   -1    0    0  501    0  0.00000000000E+00  0.00000000000E+00  0.10981865494E+04  0.10981865494E+04  0.25500000920E-02 0. -1.
       -2   -1    0    0    0  501  0.00000000000E+00  0.00000000000E+00 -0.18135835867E+03  0.18135835869E+03  0.25500000920E-02 0.  1.
    10030    2    1    2    0    0  0.00000000000E+00  0.00000000000E+00  0.91682819073E+03  0.12795449081E+04  0.89255881628E+03 0.  0.
        4    1    3    3  502    0 -0.42223157451E+03 -0.10486973012E+03  0.31587279050E+03  0.53763779210E+03  0.12699999809E+01 0.  1.
       -4    1    3    3    0  502  0.42223157451E+03  0.10486973012E+03  0.60095540022E+03  0.74190711600E+03  0.12699999809E+01 0. -1.
</event>
<event>
 5   0  0.2008643E-02  0.9205817E+03  0.7818609E-02  0.9400213E-01
       -2   -1    0    0    0  501  0.00000000000E+00  0.00000000000E+00  0.51101900003E+03  0.51101900004E+03  0.25500000920E-02 0. -1.
        2   -1    0    0  501    0  0.00000000000E+00  0.00000000000E+00 -0.41459844801E+03  0.41459844801E+03  0.25500000920E-02 0.  1.
    10030    2    1    2    0    0  0.00000000000E+00  0.00000000000E+00  0.96420552026E+02  0.92561744805E+03  0.92058173852E+03 0.  0.
        3    1    3    3  502    0 -0.45936969966E+03  0.78741709344E+01  0.20036461152E+02  0.45987388870E+03  0.10100000352E+00 0.  1.
       -3    1    3    3    0  502  0.45936969966E+03 -0.78741709344E+01  0.76384090874E+02  0.46574355935E+03  0.10100000352E+00 0. -1.
</event>
<event>
 5   0  0.1162839E-02  0.9006773E+03  0.7818609E-02  0.9424735E-01
        1   -1    0    0  501    0  0.00000000000E+00  0.00000000000E+00  0.48510668771E+03  0.48510668773E+03  0.50400001928E-02 0. -1.
       -1   -1    0    0    0  501  0.00000000000E+00  0.00000000000E+00 -0.41806247778E+03  0.41806247781E+03  0.50400001928E-02 0.  1.
    10030    2    1    2    0    0  0.00000000000E+00  0.00000000000E+00  0.67044209921E+02  0.90316916555E+03  0.90067730931E+03 0.  0.
        2    1    3    3  502    0 -0.27973828473E+03 -0.34752162917E+03  0.95174830761E+02  0.45616119859E+03  0.25500000920E-02 0.  1.
       -2    1    3    3    0  502  0.27973828473E+03  0.34752162917E+03 -0.28130620841E+02  0.44700796695E+03  0.25500000920E-02 0. -1.
</event>
<event>
 5   0  0.1175993E-02  0.8909908E+03  0.7818609E-02  0.9436914E-01
       -1   -1    0    0    0  501  0.00000000000E+00  0.00000000000E+00  0.79686775046E+03  0.79686775047E+03  0.50400001928E-02 0.  1.
        1   -1    0    0  501    0  0.00000000000E+00  0.00000000000E+00 -0.24905784917E+03  0.24905784922E+03  0.50400001928E-02 0. -1.
    10030    2    1    2    0    0  0.00000000000E+00  0.00000000000E+00  0.54780990128E+03  0.10459255997E+04  0.89099083730E+03 0.  0.
        4    1    3    3  502    0  0.16760460085E+03 -0.40998588377E+03  0.33001676514E+03  0.55235170434E+03  0.12699999809E+01 0.  1.
       -4    1    3    3    0  502 -0.16760460085E+03  0.40998588377E+03  0.21779313615E+03  0.49357389535E+03  0.12699999809E+01 0. -1.
</event>
<event>
 5   0  0.1177712E-02  0.9209279E+03  0.7818609E-02  0.9399792E-01
        1   -1    0    0  501    0  0.00000000000E+00  0.00000000000E+00  0.17648802983E+03  0.17648802990E+03  0.50400001928E-02 0. -1.
       -1   -1    0    0    0  501  0.00000000000E+00  0.00000000000E+00 -0.12013679272E+04  0.12013679272E+04  0.50400001928E-02 0.  1.
    10030    2    1    2    0    0  0.00000000000E+00  0.00000000000E+00 -0.10248798974E+04  0.13778559571E+04  0.92092792037E+03 0.  0.
        5    1    3    3  502    0  0.22985171376E+03  0.39875793873E+03 -0.49320601504E+03  0.67462135104E+03  0.46999998093E+01 0.  1.
       -5    1    3    3    0  502 -0.22985171376E+03 -0.39875793873E+03 -0.53167388236E+03  0.70323460609E+03  0.46999998093E+01 0. -1.
</event>
<event>
 5   0  0.2008770E-02  0.9016731E+03  0.7818609E-02  0.9423492E-01
        2   -1    0    0  501    0  0.00000000000E+00  0.00000000000E+00  0.11434237019E+04  0.11434237019E+04  0.25500000920E-02 0. -1.
       -2   -1    0    0    0  501  0.00000000000E+00  0.00000000000E+00 -0.17775876309E+03  0.17775876310E+03  0.25500000920E-02 0.  1.
    10030    2    1    2    0    0  0.00000000000E+00  0.00000000000E+00  0.96566493877E+03  0.13211824650E+04  0.90167307366E+03 0.  0.
        1    1    3    3  502    0 -0.10037118178E+03 -0.13595873332E+03  0.10952579213E+04  0.11082188708E+04  0.50400001928E-02 0. -1.
       -1    1    3    3    0  502  0.10037118178E+03  0.13595873332E+03 -0.12959298255E+03  0.21296359419E+03  0.50400001928E-02 0.  1.
</event>
<event>
 5   0  0.2041861E-02  0.9083530E+03  0.7818609E-02  0.9415200E-01
        2   -1    0    0  501    0  0.00000000000E+00  0.00000000000E+00  0.65585890587E+03  0.65585890587E+03  0.25500000920E-02 0.  1.
       -2   -1    0    0    0  501  0.00000000000E+00  0.00000000000E+00 -0.31451322390E+03  0.31451322391E+03  0.25500000920E-02 0. -1.
    10030    2    1    2    0    0  0.00000000000E+00  0.00000000000E+00  0.34134568197E+03  0.97037212979E+03  0.90835301269E+03 0.  0.
        5    1    3    3  502    0  0.14603485123E+03  0.32396597054E+03  0.47277809825E+03  0.59145697056E+03  0.46999998093E+01 0.  1.
       -5    1    3    3    0  502 -0.14603485123E+03 -0.32396597054E+03 -0.13143241628E+03  0.37891515922E+03  0.46999998093E+01 0. -1.
</event>
<event>
 5   0  0.1924218E-02  0.8848103E+03  0.7818609E-02  0.9444771E-01
        2   -1    0    0  501    0  0.00000000000E+00  0.00000000000E+00  0.20356205763E+04  0.20356205763E+04  0.25500000920E-02 0.  1.
       -2   -1    0    0    0  501  0.00000000000E+00  0.00000000000E+00 -0.96148720570E+02  0.96148720603E+02  0.25500000920E-02 0. -1.
    10030    2    1    2    0    0  0.00000000000E+00  0.00000000000E+00  0.19394718558E+04  0.21317692969E+04  0.88481029383E+03 0.  0.
        4    1    3    3  502    0  0.13465521533E+03 -0.83112048624E+02 -0.25629847595E+02  0.16030639922E+03  0.12699999809E+01 0. -1.
       -4    1    3    3    0  502 -0.13465521533E+03  0.83112048624E+02  0.19651017034E+04  0.19714628977E+04  0.12699999809E+01 0.  1.
</event>
<event>
 5   0  0.1177712E-02  0.8679074E+03  0.7818609E-02  0.9466612E-01
       -1   -1    0    0    0  501  0.00000000000E+00  0.00000000000E+00  0.25696666492E+03  0.25696666497E+03  0.50400001928E-02 0. -1.
        1   -1    0    0  501    0  0.00000000000E+00  0.00000000000E+00 -0.73284145640E+03  0.73284145642E+03  0.50400001928E-02 0.  1.
    10030    2    1    2    0    0  0.00000000000E+00  0.00000000000E+00 -0.47587479148E+03  0.98980812139E+03  0.86790742593E+03 0.  0.
        5    1    3    3  502    0  0.58858289099E+02 -0.27429644914E+03 -0.61547902448E+03  0.67641655788E+03  0.46999998093E+01 0.  1.
       -5    1    3    3    0  502 -0.58858289099E+02  0.27429644914E+03  0.13960423300E+03  0.31339156350E+03  0.46999998093E+01 0. -1.
</event>
<event>
 5   0  0.1226424E-02  0.8842943E+03  0.7818609E-02  0.9445430E-01
        1   -1    0    0  501    0  0.00000000000E+00  0.00000000000E+00  0.12491381478E+04  0.12491381478E+04  0.50400001928E-02 0.  1.
       -1   -1    0    0    0  501  0.00000000000E+00  0.00000000000E+00 -0.15650317669E+03  0.15650317677E+03  0.50400001928E-02 0. -1.
    10030    2    1    2    0    0  0.00000000000E+00  0.00000000000E+00  0.10926349711E+04  0.14056413245E+04  0.88429426846E+03 0.  0.
        1    1    3    3  502    0 -0.29038601419E+03 -0.32394922958E+03  0.42088347296E+03  0.60531812993E+03  0.50400001928E-02 0. -1.
       -1    1    3    3    0  502  0.29038601419E+03  0.32394922958E+03  0.67175149812E+03  0.80032319461E+03  0.50400001928E-02 0.  1.
</event>
<event>
 5   0  0.7893875E-03  0.9224703E+03  0.7818609E-02  0.9397920E-01
        4   -1    0    0  501    0  0.00000000000E+00  0.00000000000E+00  0.18024024559E+03  0.18024471984E+03  0.12699999809E+01 0. -1.
       -4   -1    0    0    0  501  0.00000000000E+00  0.00000000000E+00 -0.11802822267E+04  0.11802829100E+04  0.12699999809E+01 0.  1.
    10030    2    1    2    0    0  0.00000000000E+00  0.00000000000E+00 -0.10000419811E+04  0.13605276298E+04  0.92247030712E+03 0.  0.
        3    1    3    3  502    0  0.13761136661E+03  0.22925564896E+03  0.54270426465E+02  0.27283755274E+03  0.10100000352E+00 0. -1.
       -3    1    3    3    0  502 -0.13761136661E+03 -0.22925564896E+03 -0.10543124076E+04  0.10876900771E+04  0.10100000352E+00 0.  1.
</event>
<event>
 5   0  0.1162839E-02  0.9070135E+03  0.7818609E-02  0.9416856E-01
        1   -1    0    0  501    0  0.00000000000E+00  0.00000000000E+00  0.15459175509E+03  0.15459175517E+03  0.50400001928E-02 0.  1.
       -1   -1    0    0    0  501  0.00000000000E+00  0.00000000000E+00 -0.13303967827E+04  0.13303967827E+04  0.50400001928E-02 0. -1.
    10030    2    1    2    0    0  0.00000000000E+00  0.00000000000E+00 -0.11758050276E+04  0.14849885379E+04  0.90701350303E+03 0.  0.
        2    1    3    3  502    0  0.31355716172E+03 -0.16055391698E+03 -0.10555103927E+04  0.11127433860E+04  0.25500000920E-02 0. -1.
       -2    1    3    3    0  502 -0.31355716172E+03  0.16055391698E+03 -0.12029463491E+03  0.37224515191E+03  0.25500000920E-02 0.  1.
</event>
<event>
 5   0  0.1206541E-02  0.9076726E+03  0.7818609E-02  0.9416041E-01
        1   -1    0    0  501    0  0.00000000000E+00  0.00000000000E+00  0.37366278065E+03  0.37366278068E+03  0.50400001928E-02 0.  1.
       -1   -1    0    0    0  501  0.00000000000E+00  0.00000000000E+00 -0.55121195210E+03  0.55121195212E+03  0.50400001928E-02 0. -1.
    10030    2    1    2    0    0  0.00000000000E+00  0.00000000000E+00 -0.17754917145E+03  0.92487473280E+03  0.90767260788E+03 0.  0.
        3    1    3    3  502    0  0.18002774016E+03  0.74833935313E+01  0.33565452878E+03  0.38095926462E+03  0.10100000352E+00 0.  1.
       -3    1    3    3    0  502 -0.18002774016E+03 -0.74833935313E+01 -0.51320370023E+03  0.54391546819E+03  0.10100000352E+00 0. -1.
</event>
<event>
 5   0  0.2008770E-02  0.9439273E+03  0.7818609E-02  0.9372277E-01
        2   -1    0    0  501    0  0.00000000000E+00  0.00000000000E+00  0.98949480123E+03  0.98949480123E+03  0.25500000920E-02 0. -1.
       -2   -1    0    0    0  501  0.00000000000E+00  0.00000000000E+00 -0.22511454425E+03  0.22511454426E+03  0.25500000920E-02 0.  1.
    10030    2    1    2    0    0  0.00000000000E+00  0.00000000000E+00  0.76438025698E+03  0.12146093455E+04  0.94392726674E+03 0.  0.
        1    1    3    3  502    0  0.87454335160E+02 -0.25854690770E+03 -0.11326305718E+03  0.29550513424E+03  0.50400001928E-02 0.  1.
       -1    1    3    3    0  502 -0.87454335160E+02  0.25854690770E+03  0.87764331416E+03  0.91910421125E+03  0.50400001928E-02 0. -1.
</event>
<event>
 5   0  0.1162839E-02  0.8545569E+03  0.7818609E-02  0.9484241E-01
       -1   -1    0    0    0  501  0.00000000000E+00  0.00000000000E+00  0.16334021540E+03  0.16334021548E+03  0.50400001928E-02 0. -1.
        1   -1    0    0  501    0  0.00000000000E+00  0.00000000000E+00 -0.11177092187E+04  0.11177092187E+04  0.50400001928E-02 0.  1.
    10030    2    1    2    0    0  0.00000000000E+00  0.00000000000E+00 -0.95436900329E+03  0.12810494342E+04  0.85455687838E+03 0.  0.
        2    1    3    3  502    0  0.47186337857E+02  0.14219084043E+02 -0.11134344234E+04  0.11145245390E+04  0.25500000920E-02 0.  1.
       -2    1    3    3    0  502 -0.47186337857E+02 -0.14219084043E+02  0.15906542011E+03  0.16652489518E+03  0.25500000920E-02 0. -1.
</event>
<event>
 5   0  0.1175993E-02  0.8752403E+03  0.7818609E-02  0.9457073E-01
       -1   -1    0    0    0  501  0.00000000000E+00  0.00000000000E+00  0.28671742088E+03  0.28671742092E+03  0.50400001928E-02 0. -1.
        1   -1    0    0  501    0  0.00000000000E+00  0.00000000000E+00 -0.66794470053E+03  0.66794470055E+03  0.50400001928E-02 0.  1.
    10030    2    1    2    0    0  0.00000000000E+00  0.00000000000E+00 -0.38122727965E+03  0.95466212147E+03  0.87524026839E+03 0.  0.
        4    1    3    3  502    0 -0.19420828109E+03  0.32981557517E+02  0.23562146281E+03  0.30712167983E+03  0.12699999809E+01 0. -1.
       -4    1    3    3    0  502  0.19420828109E+03 -0.32981557517E+02 -0.61684874247E+03  0.64754044164E+03  0.12699999809E+01 0.  1.
</event>
<event>
 5   0  0.1924218E-02  0.8871001E+03  0.7818609E-02  0.9441852E-01
        2   -1    0    0  501    0  0.00000000000E+00  0.00000000000E+00  0.64354320680E+03  0.64354320681E+03  0.25500000920E-02 0. -1.
       -2   -1    0    0    0  501  0.00000000000E+00  0.00000000000E+00 -0.30570856119E+03  0.30570856120E+03  0.25500000920E-02 0.  1.
    10030    2    1    2    0    0  0.00000000000E+00  0.00000000000E+00  0.33783464561E+03  0.94925176801E+03  0.88710014727E+03 0.  0.
        4    1    3    3  502    0 -0.29435499077E+03 -0.91996220601E+02  0.51004195506E+03  0.59603068211E+03  0.12699999809E+01 0. -1.
       -4    1    3    3    0  502  0.29435499077E+03  0.91996220601E+02 -0.17220730945E+03  0.35322108590E+03  0.12699999809E+01 0.  1.
</event>
<event>
 5   0  0.1177712E-02  0.8856110E+03  0.7818609E-02  0.9443749E-01
        1   -1    0    0  501    0  0.00000000000E+00  0.00000000000E+00  0.21813145489E+03  0.21813145495E+03  0.50400001928E-02 0. -1.
       -1   -1    0    0    0  501  0.00000000000E+00  0.00000000000E+00 -0.89889251737E+03  0.89889251738E+03  0.50400001928E-02 0.  1.
    10030    2    1    2    0    0  0.00000000000E+00  0.00000000000E+00 -0.68076106248E+03  0.11170239723E+04  0.88561104927E+03 0.  0.
        5    1    3    3  502    0 -0.30524267251E+03 -0.22383371492E+03 -0.63015108383E+03  0.73511026350E+03  0.46999998093E+01 0.  1.
       -5    1    3    3    0  502  0.30524267251E+03  0.22383371492E+03 -0.50609978646E+02  0.38191370883E+03  0.46999998093E+01 0. -1.
</event>
<event>
 5   0  0.1177712E-02  0.9072864E+03  0.7818609E-02  0.9416519E-01
        1   -1    0    0  501    0  0.00000000000E+00  0.00000000000E+00  0.86315127214E+03  0.86315127215E+03  0.50400001928E-02 0. -1.
       -1   -1    0    0    0  501  0.00000000000E+00  0.00000000000E+00 -0.23841957927E+03  0.23841957932E+03  0.50400001928E-02 0.  1.
    10030    2    1    2    0    0  0.00000000000E+00  0.00000000000E+00  0.62473169287E+03  0.11015708515E+04  0.90728642265E+03 0.  0.
        5    1    3    3  502    0  0.43310561915E+03  0.12501324926E+03  0.25091939070E+03  0.51593741913E+03  0.46999998093E+01 0. -1.
       -5    1    3    3    0  502 -0.43310561915E+03 -0.12501324926E+03  0.37381230217E+03  0.58563343234E+03  0.46999998093E+01 0.  1.
</event>
<event>
 5   0  0.7893875E-03  0.8975865E+03  0.7818609E-02  0.9428603E-01
       -3   -1    0    0    0  501  0.00000000000E+00  0.00000000000E+00  0.32031322957E+03  0.32031324549E+03  0.10100000352E+00 0.  1.
        3   -1    0    0  501    0  0.00000000000E+00  0.00000000000E+00 -0.62880753652E+03  0.62880754463E+03  0.10100000352E+00 0. -1.
    10030    2    1    2    0    0  0.00000000000E+00  0.00000000000E+00 -0.30849430695E+03  0.94912079012E+03  0.89758650659E+03 0.  0.
        3    1    3    3  502    0 -0.34594343967E+03 -0.21914580411E+03 -0.34840185461E+03  0.53766682007E+03  0.10100000352E+00 0. -1.
       -3    1    3    3    0  502  0.34594343967E+03  0.21914580411E+03  0.39907547659E+02  0.41145397005E+03  0.10100000352E+00 0.  1.
</event>
<event>
 5   0  0.1162839E-02  0.8910743E+03  0.7818609E-02  0.9436808E-01
        1   -1    0    0  501    0  0.00000000000E+00  0.00000000000E+00  0.11005874082E+04  0.11005874082E+04  0.50400001928E-02 0.  1.
       -1   -1    0    0    0  501  0.00000000000E+00  0.00000000000E+00 -0.18036127018E+03  0.18036127025E+03  0.50400001928E-02 0. -1.
    10030    2    1    2    0    0  0.00000000000E+00  0.00000000000E+00  0.92022613801E+03  0.12809486785E+04  0.89107427960E+03 0.  0.
        2    1    3    3  502    0 -0.29769474469E+03 -0.32617043780E+03  0.54508607395E+03  0.70151845559E+03  0.25500000920E-02 0.  1.
       -2    1    3    3    0  502  0.29769474469E+03  0.32617043780E+03  0.37514006407E+03  0.57943022288E+03  0.25500000920E-02 0. -1.
</event>
<event>
 5   0  0.2008770E-02  0.8986094E+03  0.7818609E-02  0.9427321E-01
       -2   -1    0    0    0  501  0.00000000000E+00  0.00000000000E+00  0.26786584785E+03  0.26786584786E+03  0.25500000920E-02 0.  1.
        2   -1    0    0  501    0  0.00000000000E+00  0.00000000000E+00 -0.75364113777E+03  0.75364113777E+03  0.25500000920E-02 0. -1.
    10030    2    1    2    0    0  0.00000000000E+00  0.00000000000E+00 -0.48577528992E+03  0.10215069856E+04  0.89860941983E+03 0.  0.
        1    1    3    3  502    0 -0.49640869482E+02 -0.28273078700E+03 -0.63580999066E+03  0.69760680766E+03  0.50400001928E-02 0. -1.
       -1    1    3    3    0  502  0.49640869482E+02  0.28273078700E+03  0.15003470074E+03  0.32390017798E+03  0.50400001928E-02 0.  1.
</event>
<event>
 5   0  0.1162839E-02  0.8668080E+03  0.7818609E-02  0.9468051E-01
       -1   -1    0    0    0  501  0.00000000000E+00  0.00000000000E+00  0.34734016327E+03  0.34734016330E+03  0.50400001928E-02 0.  1.
        1   -1    0    0  501    0  0.00000000000E+00  0.00000000000E+00 -0.54079269077E+03  0.54079269079E+03  0.50400001928E-02 0. -1.
    10030    2    1    2    0    0  0.00000000000E+00  0.00000000000E+00 -0.19345252750E+03  0.88813285410E+03  0.86680798689E+03 0.  0.
        2    1    3    3  502    0 -0.21957270897E+03  0.16989544930E+03 -0.43772375010E+03  0.51834228038E+03  0.25500000920E-02 0. -1.
       -2    1    3    3    0  502  0.21957270897E+03 -0.16989544930E+03  0.24427122259E+03  0.36979057372E+03  0.25500000920E-02 0.  1.
</event>
<event>
 5   0  0.2008770E-02  0.9017425E+03  0.7818609E-02  0.9423406E-01
       -2   -1    0    0    0  501  0.00000000000E+00  0.00000000000E+00  0.13803872078E+03  0.13803872080E+03  0.25500000920E-02 0.  1.
        2   -1    0    0  501    0  0.00000000000E+00  0.00000000000E+00 -0.14726654986E+04  0.14726654986E+04  0.25500000920E-02 0. -1.
    10030    2    1    2    0    0  0.00000000000E+00  0.00000000000E+00 -0.13346267778E+04  0.16107042194E+04  0.90174245010E+03 0.  0.
        1    1    3    3  502    0  0.73812687104E+02  0.13107979471E+03 -0.14265162520E+04  0.14344263113E+04  0.50400001928E-02 0. -1.
       -1    1    3    3    0  502 -0.73812687104E+02 -0.13107979471E+03  0.91889474234E+02  0.17627790803E+03  0.50400001928E-02 0.  1.
</event>
<event>
 5   0  0.2008643E-02  0.8988638E+03  0.7818609E-02  0.9427003E-01
        2   -1    0    0  501    0  0.00000000000E+00  0.00000000000E+00  0.47293473754E+03  0.47293473755E+03  0.25500000920E-02 0. -1.
       -2   -1    0    0    0  501  0.00000000000E+00  0.00000000000E+00 -0.42709703281E+03  0.42709703281E+03  0.25500000920E-02 0.  1.
    10030    2    1    2    0    0  0.00000000000E+00  0.00000000000E+00  0.45837704736E+02  0.90003177036E+03  0.89886377860E+03 0.  0.
        3    1    3    3  502    0  0.12298411820E+03 -0.82832183341E+02  0.44773745758E+03  0.47165146565E+03  0.10100000352E+00 0. -1.
       -3    1    3    3    0  502 -0.12298411820E+03  0.82832183341E+02 -0.40189975285E+03  0.42838030471E+03  0.10100000352E+00 0.  1.
</event>
<event>
 5   0  0.2008643E-02  0.8969815E+03  0.7818609E-02  0.9429363E-01
       -2   -1    0    0    0  501  0.00000000000E+00  0.00000000000E+00  0.35241632490E+03  0.35241632491E+03  0.25500000920E-02 0. -1.
        2   -1    0    0  501    0  0.00000000000E+00  0.00000000000E+00 -0.57075661806E+03  0.57075661807E+03  0.25500000920E-02 0.  1.
    10030    2    1    2    0    0  0.00000000000E+00  0.00000000000E+00 -0.21834029316E+03  0.92317294298E+03  0.89698149314E+03 0.  0.
        3    1    3    3  502    0 -0.66862140172E+02  0.29027509370E+03  0.23590154208E+03  0.37997331955E+03  0.10100000352E+00 0. -1.
       -3    1    3    3    0  502  0.66862140172E+02 -0.29027509370E+03 -0.45424183524E+03  0.54319962343E+03  0.10100000352E+00 0.  1.
</event>
<event>
 5   0  0.1226424E-02  0.8975022E+03  0.7818609E-02  0.9428709E-01
        1   -1    0    0  501    0  0.00000000000E+00  0.00000000000E+00  0.22646340832E+03  0.22646340838E+03  0.50400001928E-02 0.  1.
       -1   -1    0    0    0  501  0.00000000000E+00  0.00000000000E+00 -0.88922773185E+03  0.88922773186E+03  0.50400001928E-02 0. -1.
    10030    2    1    2    0    0  0.00000000000E+00  0.00000000000E+00 -0.66276432353E+03  0.11156911402E+04  0.89750218488E+03 0.  0.
        1    1    3    3  502    0 -0.28960401024E+03  0.22318388233E+03 -0.65481940113E+03  0.74997998387E+03  0.50400001928E-02 0. -1.
       -1    1    3    3    0  502  0.28960401024E+03 -0.22318388233E+03 -0.79449223983E+01  0.36571115637E+03  0.50400001928E-02 0.  1.
</event>
<event>
 5   0  0.1206541E-02  0.8899459E+03  0.7818609E-02  0.9438238E-01
       -1   -1    0    0    0  501  0.00000000000E+00  0.00000000000E+00  0.29288561839E+03  0.29288561843E+03  0.50400001928E-02 0. -1.
        1   -1    0    0  501    0  0.00000000000E+00  0.00000000000E+00 -0.67603500795E+03  0.67603500797E+03  0.50400001928E-02 0.  1.
    10030    2    1    2    0    0  0.00000000000E+00  0.00000000000E+00 -0.38314938956E+03  0.96892062641E+03  0.88994591159E+03 0.  0.
        3    1    3    3  502    0 -0.43968154803E+03  0.66441524365E+02 -0.17379847262E+03  0.47743089461E+03  0.10100000352E+00 0. -1.
       -3    1    3    3    0  502  0.43968154803E+03 -0.66441524365E+02 -0.20935091694E+03  0.49148973180E+03  0.10100000352E+00 0.  1.
</event>
<event>
 5   0  0.2008643E-02  0.9386929E+03  0.7818609E-02  0.9378465E-01
        2   -1    0    0  501    0  0.00000000000E+00  0.00000000000E+00  0.51259480569E+03  0.51259480570E+03  0.25500000920E-02 0.  1.
       -2   -1    0    0    0  501  0.00000000000E+00  0.00000000000E+00 -0.42974700009E+03  0.42974700010E+03  0.25500000920E-02 0. -1.
    10030    2    1    2    0    0  0.00000000000E+00  0.00000000000E+00  0.82847805596E+02  0.94234180580E+03  0.93869287845E+03 0.  0.
        3    1    3    3  502    0  0.18047617832E+03 -0.11429435345E+03  0.46096136502E+03  0.50805535172E+03  0.10100000352E+00 0.  1.
       -3    1    3    3    0  502 -0.18047617832E+03  0.11429435345E+03 -0.37811355942E+03  0.43428645407E+03  0.10100000352E+00 0. -1.
</event>
<event>
 5   0  0.1177712E-02  0.9730259E+03  0.7818609E-02  0.9338634E-01
       -1   -1    0    0    0  501  0.00000000000E+00  0.00000000000E+00  0.22834372712E+03  0.22834372718E+03  0.50400001928E-02 0. -1.
        1   -1    0    0  501    0  0.00000000000E+00  0.00000000000E+00 -0.10365726746E+04  0.10365726746E+04  0.50400001928E-02 0.  1.
    10030    2    1    2    0    0  0.00000000000E+00  0.00000000000E+00 -0.80822894743E+03  0.12649164018E+04  0.97302593591E+03 0.  0.
        5    1    3    3  502    0 -0.14719326558E+03  0.23908750086E+03  0.11236321695E+03  0.30245044722E+03  0.46999998093E+01 0. -1.
       -5    1    3    3    0  502  0.14719326558E+03 -0.23908750086E+03 -0.92059216438E+03  0.96246595453E+03  0.46999998093E+01 0.  1.
</event>
<event>
 5   0  0.1968763E-02  0.8919124E+03  0.7818609E-02  0.9435748E-01
        2   -1    0    0  501    0  0.00000000000E+00  0.00000000000E+00  0.46294741633E+03  0.46294741633E+03  0.25500000920E-02 0.  1.
       -2   -1    0    0    0  501  0.00000000000E+00  0.00000000000E+00 -0.42958860299E+03  0.42958860300E+03  0.25500000920E-02 0. -1.
    10030    2    1    2    0    0  0.00000000000E+00  0.00000000000E+00  0.33358813330E+02  0.89253601933E+03  0.89191240342E+03 0.  0.
        2    1    3    3  502    0  0.43852249353E+03  0.24741009435E+02  0.93952818570E+02  0.44915612765E+03  0.25500000920E-02 0. -1.
       -2    1    3    3    0  502 -0.43852249353E+03 -0.24741009435E+02 -0.60594005240E+02  0.44337989169E+03  0.25500000920E-02 0.  1.
</event>
<event>
 5   0  0.1226424E-02  0.8930971E+03  0.7818609E-02  0.9434252E-01
       -1   -1    0    0    0  501  0.00000000000E+00  0.00000000000E+00  0.46579309975E+03  0.46579309978E+03  0.50400001928E-02 0. -1.
        1   -1    0    0  501    0  0.00000000000E+00  0.00000000000E+00 -0.42809906946E+03  0.42809906949E+03  0.50400001928E-02 0.  1.
    10030    2    1    2    0    0  0.00000000000E+00  0.00000000000E+00  0.37694030298E+02  0.89389216927E+03  0.89309706659E+03 0.  0.
        1    1    3    3  502    0  0.79897911247E+02  0.43568015352E+02 -0.41871921017E+03  0.42849460344E+03  0.50400001928E-02 0.  1.
       -1    1    3    3    0  502 -0.79897911247E+02 -0.43568015352E+02  0.45641324047E+03  0.46539756583E+03  0.50400001928E-02 0. -1.
</event>
<event>
 5   0  0.1226424E-02  0.8980069E+03  0.7818609E-02  0.9428076E-01
       -1   -1    0    0    0  501  0.00000000000E+00  0.00000000000E+00  0.38179716300E+03  0.38179716303E+03  0.50400001928E-02 0.  1.
        1   -1    0    0  501    0  0.00000000000E+00  0.00000000000E+00 -0.52803979328E+03  0.52803979330E+03  0.50400001928E-02 0. -1.
    10030    2    1    2    0    0  0.00000000000E+00  0.00000000000E+00 -0.14624263028E+03  0.90983695634E+03  0.89800689318E+03 0.  0.
        1    1    3    3  502    0 -0.38822874704E+03 -0.19432798414E+03  0.42926528727E+02  0.43626552963E+03  0.50400001928E-02 0. -1.
       -1    1    3    3    0  502  0.38822874704E+03  0.19432798414E+03 -0.18916915900E+03  0.47357142671E+03  0.50400001928E-02 0.  1.
</event>
<event>
 5   0  0.1162839E-02  0.9247435E+03  0.7818609E-02  0.9395169E-01
        1   -1    0    0  501    0  0.00000000000E+00  0.00000000000E+00  0.80565566697E+03  0.80565566698E+03  0.50400001928E-02 0.  1.
       -1   -1    0    0    0  501  0.00000000000E+00  0.00000000000E+00 -0.26535859132E+03  0.26535859137E+03  0.50400001928E-02 0. -1.
    10030    2    1    2    0    0  0.00000000000E+00  0.00000000000E+00  0.54029707565E+03  0.10710142583E+04  0.92474353830E+03 0.  0.
        2    1    3    3  502    0  0.92331769243E+02  0.39553940890E+03  0.14270432697E+02  0.40642370116E+03  0.25500000920E-02 0. -1.
       -2    1    3    3    0  502 -0.92331769243E+02 -0.39553940890E+03  0.52602664295E+03  0.66459055719E+03  0.25500000920E-02 0.  1.
</event>
<event>
 5   0  0.1924218E-02  0.8957438E+03  0.7818609E-02  0.9430918E-01
        2   -1    0    0  501    0  0.00000000000E+00  0.00000000000E+00  0.15787101061E+04  0.15787101061E+04  0.25500000920E-02 0.  1.
       -2   -1    0    0    0  501  0.00000000000E+00  0.00000000000E+00 -0.12705893533E+03  0.12705893536E+03  0.25500000920E-02 0. -1.
    10030    2    1    2    0    0  0.00000000000E+00  0.00000000000E+00  0.14516511707E+04  0.17057690414E+04  0.89574376982E+03 0.  0.
        4    1    3    3  502    0 -0.14023075168E+03  0.41234358324E+03  0.52704939645E+03  0.68372112265E+03  0.12699999809E+01 0. -1.
       -4    1    3    3    0  502  0.14023075168E+03 -0.41234358324E+03  0.92460177427E+03  0.10220479188E+04  0.12699999809E+01 0.  1.
</event>
<event>
 5   0  0.1206541E-02  0.8975666E+03  0.7818609E-02  0.9428628E-01
        1   -1    0    0  501    0  0.00000000000E+00  0.00000000000E+00  0.52919149738E+03  0.52919149741E+03  0.50400001928E-02 0. -1.
       -1   -1    0    0    0  501  0.00000000000E+00  0.00000000000E+00 -0.38059278082E+03  0.38059278086E+03  0.50400001928E-02 0.  1.
    10030    2    1    2    0    0  0.00000000000E+00  0.00000000000E+00  0.14859871656E+03  0.90978427826E+03  0.89756662951E+03 0.  0.
        3    1    3    3  502    0 -0.26251846673E+03  0.35347450926E+03  0.16235114406E+03  0.46927399060E+03  0.10100000352E+00 0.  1.
       -3    1    3    3    0  502  0.26251846673E+03 -0.35347450926E+03 -0.13752427499E+02  0.44051028766E+03  0.10100000352E+00 0. -1.
</event>
<event>
 5   0  0.1177712E-02  0.9100579E+03  0.7818609E-02  0.9413095E-01
       -1   -1    0    0    0  501  0.00000000000E+00  0.00000000000E+00  0.31695303665E+03  0.31695303669E+03  0.50400001928E-02 0. -1.
        1   -1    0    0  501    0  0.00000000000E+00  0.00000000000E+00 -0.65325554817E+03  0.65325554819E+03  0.50400001928E-02 0.  1.
    10030    2    1    2    0    0  0.00000000000E+00  0.00000000000E+00 -0.33630251152E+03  0.97020858487E+03  0.91005786569E+03 0.  0.
        5    1    3    3  502    0 -0.92392227315E+02  0.33551898618E+02 -0.64177512371E+03  0.64927609919E+03  0.46999998093E+01 0.  1.
       -5    1    3    3    0  502  0.92392227315E+02 -0.33551898618E+02  0.30547261219E+03  0.32093248568E+03  0.46999998093E+01 0. -1.
</event>
<event>
 5   0  0.1162839E-02  0.9004067E+03  0.7818609E-02  0.9425073E-01
        1   -1    0    0  501    0  0.00000000000E+00  0.00000000000E+00  0.15413238014E+03  0.15413238023E+03  0.50400001928E-02 0. -1.
       -1   -1    0    0    0  501  0.00000000000E+00  0.00000000000E+00 -0.13149933500E+04  0.13149933500E+04  0.50400001928E-02 0.  1.
    10030    2    1    2    0    0  0.00000000000E+00  0.00000000000E+00 -0.11608609698E+04  0.14691257302E+04  0.90040669693E+03 0.  0.
        2    1    3    3  502    0  0.10399702369E+03 -0.43789549578E+03 -0.59794358686E+03  0.74840121542E+03  0.25500000920E-02 0.  1.
       -2    1    3    3    0  502 -0.10399702369E+03  0.43789549578E+03 -0.56291738296E+03  0.72072451479E+03  0.25500000920E-02 0. -1.
</event>
<event>
 5   0  0.1968763E-02  0.9022767E+03  0.7818609E-02  0.9422740E-01
        2   -1    0    0  501    0  0.00000000000E+00  0.00000000000E+00  0.30835102676E+03  0.30835102678E+03  0.25500000920E-02 0.  1.
       -2   -1    0    0    0  501  0.00000000000E+00  0.00000000000E+00 -0.66004579552E+03  0.66004579553E+03  0.25500000920E-02 0. -1.
    10030    2    1    2    0    0  0.00000000000E+00  0.00000000000E+00 -0.35169476876E+03  0.96839682230E+03  0.90227667324E+03 0.  0.
        2    1    3    3  502    0 -0.27503876609E+03  0.54003981292E+02  0.20355881886E+03  0.34640863960E+03  0.25500000920E-02 0.  1.
       -2    1    3    3    0  502  0.27503876609E+03 -0.54003981292E+02 -0.55525358762E+03  0.62198818270E+03  0.25500000920E-02 0. -1.
</event>
<event>
 5   0  0.7893875E-03  0.9056088E+03  0.7818609E-02  0.9418597E-01
       -3   -1    0    0    0  501  0.00000000000E+00  0.00000000000E+00  0.40517930686E+03  0.40517931945E+03  0.10100000352E+00 0.  1.
        3   -1    0    0  501    0  0.00000000000E+00  0.00000000000E+00 -0.50602731276E+03  0.50602732284E+03  0.10100000352E+00 0. -1.
    10030    2    1    2    0    0  0.00000000000E+00  0.00000000000E+00 -0.10084800590E+03  0.91120664229E+03  0.90560875915E+03 0.  0.
        4    1    3    3  502    0 -0.35971892989E+03 -0.23672239335E+03 -0.19127139870E+03  0.47119163925E+03  0.12699999809E+01 0. -1.
       -4    1    3    3    0  502  0.35971892989E+03  0.23672239335E+03  0.90423392799E+02  0.44001500304E+03  0.12699999809E+01 0.  1.
</event>
<event>
 5   0  0.1924218E-02  0.8470783E+03  0.7818609E-02  0.9494267E-01
       -2   -1    0    0    0  501  0.00000000000E+00  0.00000000000E+00  0.75155370381E+03  0.75155370381E+03  0.25500000920E-02 0. -1.
        2   -1    0    0  501    0  0.00000000000E+00  0.00000000000E+00 -0.23868607352E+03  0.23868607353E+03  0.25500000920E-02 0.  1.
    10030    2    1    2    0    0  0.00000000000E+00  0.00000000000E+00  0.51286763028E+03  0.99023977734E+03  0.84707827882E+03 0.  0.
        4    1    3    3  502    0  0.12214381721E+03 -0.20870289092E+03 -0.15005064523E+03  0.28459237129E+03  0.12699999809E+01 0.  1.
       -4    1    3    3    0  502 -0.12214381721E+03  0.20870289092E+03  0.66291827552E+03  0.70564740606E+03  0.12699999809E+01 0. -1.
</event>
<event>
 5   0  0.1924218E-02  0.7697831E+03  0.7818609E-02  0.9604815E-01
       -2   -1    0    0    0  501  0.00000000000E+00  0.00000000000E+00  0.73732876201E+02  0.73732876245E+02  0.25500000920E-02 0.  1.
        2   -1    0    0  501    0  0.00000000000E+00  0.00000000000E+00 -0.20091647534E+04  0.20091647534E+04  0.25500000920E-02 0. -1.
    10030    2    1    2    0    0  0.00000000000E+00  0.00000000000E+00 -0.19354318772E+04  0.20828976297E+04  0.76978307615E+03 0.  0.
        4    1    3    3  502    0  0.35606319486E+02  0.32656185177E+03 -0.42500133561E+03  0.53715751990E+03  0.12699999809E+01 0.  1.
       -4    1    3    3    0  502 -0.35606319486E+02 -0.32656185177E+03 -0.15104305416E+04  0.15457401098E+04  0.12699999809E+01 0. -1.
</event>
<event>
 5   0  0.1175993E-02  0.8853998E+03  0.7818609E-02  0.9444019E-01
        1   -1    0    0  501    0  0.00000000000E+00  0.00000000000E+00  0.15917235600E+04  0.15917235600E+04  0.50400001928E-02 0. -1.
       -1   -1    0    0    0  501  0.00000000000E+00  0.00000000000E+00 -0.12312640982E+03  0.12312640992E+03  0.50400001928E-02 0.  1.
    10030    2    1    2    0    0  0.00000000000E+00  0.00000000000E+00  0.14685971502E+04  0.17148499699E+04  0.88539981356E+03 0.  0.
        4    1    3    3  502    0 -0.32882860414E+03  0.28742835690E+03  0.59412014374E+03  0.73737620612E+03  0.12699999809E+01 0.  1.
       -4    1    3    3    0  502  0.32882860414E+03 -0.28742835690E+03  0.87447700642E+03  0.97747376380E+03  0.12699999809E+01 0. -1.
</event>
<event>
 5   0  0.1968763E-02  0.7676678E+03  0.7818609E-02  0.9608033E-01
       -2   -1    0    0    0  501  0.00000000000E+00  0.00000000000E+00  0.20085171649E+03  0.20085171650E+03  0.25500000920E-02 0.  1.
        2   -1    0    0  501    0  0.00000000000E+00  0.00000000000E+00 -0.73351856718E+03  0.73351856718E+03  0.25500000920E-02 0. -1.
    10030    2    1    2    0    0  0.00000000000E+00  0.00000000000E+00 -0.53266685069E+03  0.93437028368E+03  0.76766780134E+03 0.  0.
        2    1    3    3  502    0 -0.27993517832E+03 -0.25903201551E+03 -0.31892765620E+03  0.49716811947E+03  0.25500000920E-02 0.  1.
       -2    1    3    3    0  502  0.27993517832E+03  0.25903201551E+03 -0.21373919448E+03  0.43720216421E+03  0.25500000920E-02 0. -1.
</event>
<event>
 5   0  0.7893875E-03  0.9152509E+03  0.7818609E-02  0.9406715E-01
       -3   -1    0    0    0  501  0.00000000000E+00  0.00000000000E+00  0.46773185700E+03  0.46773186791E+03  0.10100000352E+00 0. -1.
        3   -1    0    0  501    0  0.00000000000E+00  0.00000000000E+00 -0.44773743944E+03  0.44773745083E+03  0.10100000352E+00 0.  1.
    10030    2    1    2    0    0  0.00000000000E+00  0.00000000000E+00  0.19994417565E+02  0.91546931874E+03  0.91525094746E+03 0.  0.
        1    1    3    3  502    0 -0.36999081652E+03  0.27257073091E+02  0.27798821702E+03  0.46358774916E+03  0.50400001928E-02 0. -1.
       -1    1    3    3    0  502  0.36999081652E+03 -0.27257073091E+02 -0.25799379945E+03  0.45188156958E+03  0.50400001928E-02 0.  1.
</event>
<event>
 5   0  0.1924218E-02  0.9943190E+03  0.7818609E-02  0.9314798E-01
        2   -1    0    0  501    0  0.00000000000E+00  0.00000000000E+00  0.99171843678E+03  0.99171843679E+03  0.25500000920E-02 0. -1.
       -2   -1    0    0    0  501  0.00000000000E+00  0.00000000000E+00 -0.24923158147E+03  0.24923158148E+03  0.25500000920E-02 0.  1.
    10030    2    1    2    0    0  0.00000000000E+00  0.00000000000E+00  0.74248685531E+03  0.12409500183E+04  0.99431897173E+03 0.  0.
        4    1    3    3  502    0  0.33675746143E+03  0.35779419905E+03  0.46582861023E+03  0.67706734060E+03  0.12699999809E+01 0.  1.
       -4    1    3    3    0  502 -0.33675746143E+03 -0.35779419905E+03  0.27665824508E+03  0.56388267766E+03  0.12699999809E+01 0. -1.
</event>
<event>
 5   0  0.2041861E-02  0.9028481E+03  0.7818609E-02  0.9422028E-01
       -2   -1    0    0    0  501  0.00000000000E+00  0.00000000000E+00  0.79735191179E+03  0.79735191179E+03  0.25500000920E-02 0. -1.
        2   -1    0    0  501    0  0.00000000000E+00  0.00000000000E+00 -0.25557556273E+03  0.25557556274E+03  0.25500000920E-02 0.  1.
    10030    2    1    2    0    0  0.00000000000E+00  0.00000000000E+00  0.54177634906E+03  0.10529274745E+04  0.90284807926E+03 0.  0.
        5    1    3    3  502    0  0.28739932153E+03 -0.23142451736E+03  0.57412089839E+03  0.68248998031E+03  0.46999998093E+01 0. -1.
       -5    1    3    3    0  502 -0.28739932153E+03  0.23142451736E+03 -0.32344549336E+02  0.37043749422E+03  0.46999998093E+01 0.  1.
</event>
<event>
 5   0  0.7893875E-03  0.9097474E+03  0.7818609E-02  0.9413478E-01
       -4   -1    0    0    0  501  0.00000000000E+00  0.00000000000E+00  0.32240445277E+03  0.32240695412E+03  0.12699999809E+01 0. -1.
        4   -1    0    0  501    0  0.00000000000E+00  0.00000000000E+00 -0.64176622031E+03  0.64176747691E+03  0.12699999809E+01 0.  1.
    10030    2    1    2    0    0  0.00000000000E+00  0.00000000000E+00 -0.31936176754E+03  0.96417443104E+03  0.90974743468E+03 0.  0.
        2    1    3    3  502    0  0.23374019604E+03 -0.12224270503E+03  0.23307362690E+03  0.35199584336E+03  0.25500000920E-02 0. -1.
       -2    1    3    3    0  502 -0.23374019604E+03  0.12224270503E+03 -0.55243539443E+03  0.61217858768E+03  0.25500000920E-02 0.  1.
</event>
<event>
 5   0  0.2008643E-02  0.9065183E+03  0.7818609E-02  0.9417470E-01
        2   -1    0    0  501    0  0.00000000000E+00  0.00000000000E+00  0.14377098577E+04  0.14377098577E+04  0.25500000920E-02 0. -1.
       -2   -1    0    0    0  501  0.00000000000E+00  0.00000000000E+00 -0.14289659870E+03  0.14289659872E+03  0.25500000920E-02 0.  1.
    10030    2    1    2    0    0  0.00000000000E+00  0.00000000000E+00  0.12948132590E+04  0.15806064564E+04  0.90651828133E+03 0.  0.
        3    1    3    3  502    0 -0.29009216150E+03 -0.14349594500E+03  0.94106987626E+02  0.33704700520E+03  0.10100000352E+00 0.  1.
       -3    1    3    3    0  502  0.29009216150E+03  0.14349594500E+03  0.12007062714E+04  0.12435594512E+04  0.10100000352E+00 0. -1.
</event>
<event>
 5   0  0.1177712E-02  0.8480771E+03  0.7818609E-02  0.9492921E-01
        1   -1    0    0  501    0  0.00000000000E+00  0.00000000000E+00  0.18991605968E+04  0.18991605968E+04  0.50400001928E-02 0.  1.
       -1   -1    0    0    0  501  0.00000000000E+00  0.00000000000E+00 -0.94677988515E+02  0.94677988649E+02  0.50400001928E-02 0. -1.
    10030    2    1    2    0    0  0.00000000000E+00  0.00000000000E+00  0.18044826083E+04  0.19938385855E+04  0.84807713167E+03 0.  0.
        5    1    3    3  502    0 -0.22565194958E+03 -0.21529929503E+03  0.22690743031E+03  0.38572225852E+03  0.46999998093E+01 0. -1.
       -5    1    3    3    0  502  0.22565194958E+03  0.21529929503E+03  0.15775751780E+04  0.16081163270E+04  0.46999998093E+01 0.  1.
</event>
<event>
 5   0  0.1162839E-02  0.8828185E+03  0.7818609E-02  0.9447318E-01
       -1   -1    0    0    0  501  0.00000000000E+00  0.00000000000E+00  0.24701755180E+04  0.24701755180E+04  0.50400001928E-02 0. -1.
        1   -1    0    0  501    0  0.00000000000E+00  0.00000000000E+00 -0.78877838888E+02  0.78877839049E+02  0.50400001928E-02 0.  1.
    10030    2    1    2    0    0  0.00000000000E+00  0.00000000000E+00  0.23912976791E+04  0.25490533570E+04  0.88281845641E+03 0.  0.
        2    1    3    3  502    0  0.40045434941E+03 -0.17744002457E+03  0.13536259406E+04  0.14227269011E+04  0.25500000920E-02 0. -1.
       -2    1    3    3    0  502 -0.40045434941E+03  0.17744002457E+03  0.10376717385E+04  0.11263264559E+04  0.25500000920E-02 0.  1.
</event>
<event>
 5   0  0.2008770E-02  0.8964256E+03  0.7818609E-02  0.9430061E-01
        2   -1    0    0  501    0  0.00000000000E+00  0.00000000000E+00  0.68764940286E+03  0.68764940286E+03  0.25500000920E-02 0.  1.
       -2   -1    0    0    0  501  0.00000000000E+00  0.00000000000E+00 -0.29214702341E+03  0.29214702342E+03  0.25500000920E-02 0. -1.
    10030    2    1    2    0    0  0.00000000000E+00  0.00000000000E+00  0.39550237945E+03  0.97979642629E+03  0.89642562704E+03 0.  0.
        1    1    3    3  502    0  0.61268346233E+02 -0.40375221794E+03 -0.41590362057E+01  0.40839559418E+03  0.50400001928E-02 0. -1.
       -1    1    3    3    0  502 -0.61268346233E+02  0.40375221794E+03  0.39966141565E+03  0.57140083210E+03  0.50400001928E-02 0.  1.
</event>
<event>
 5   0  0.1175993E-02  0.8940033E+03  0.7818609E-02  0.9433109E-01
        1   -1    0    0  501    0  0.00000000000E+00  0.00000000000E+00  0.10920458247E+04  0.10920458247E+04  0.50400001928E-02 0. -1.
       -1   -1    0    0    0  501  0.00000000000E+00  0.00000000000E+00 -0.18296895985E+03  0.18296895992E+03  0.50400001928E-02 0.  1.
    10030    2    1    2    0    0  0.00000000000E+00  0.00000000000E+00  0.90907686482E+03  0.12750147846E+04  0.89400333041E+03 0.  0.
        4    1    3    3  502    0 -0.37909508800E+03  0.77801917037E+02  0.77357924404E+03  0.86498131988E+03  0.12699999809E+01 0. -1.
       -4    1    3    3    0  502  0.37909508800E+03 -0.77801917037E+02  0.13549762078E+03  0.41003346471E+03  0.12699999809E+01 0.  1.
</event>
<event>
 5   0  0.2008643E-02  0.9376730E+03  0.7818609E-02  0.9379676E-01
       -2   -1    0    0    0  501  0.00000000000E+00  0.00000000000E+00  0.17222550470E+03  0.17222550472E+03  0.25500000920E-02 0.  1.
        2   -1    0    0  501    0  0.00000000000E+00  0.00000000000E+00 -0.12762781779E+04  0.12762781779E+04  0.25500000920E-02 0. -1.
    10030    2    1    2    0    0  0.00000000000E+00  0.00000000000E+00 -0.11040526732E+04  0.14485036827E+04  0.93767297785E+03 0.  0.
        3    1    3    3  502    0  0.35069145742E+03  0.16366002221E+03 -0.14320198994E+03  0.41264503063E+03  0.10100000352E+00 0.  1.
       -3    1    3    3    0  502 -0.35069145742E+03 -0.16366002221E+03 -0.96085068331E+03  0.10358586520E+04  0.10100000352E+00 0. -1.
</event>
<event>
 5   0  0.1206541E-02  0.8893891E+03  0.7818609E-02  0.9438944E-01
       -1   -1    0    0    0  501  0.00000000000E+00  0.00000000000E+00  0.22702850100E+03  0.22702850106E+03  0.50400001928E-02 0.  1.
        1   -1    0    0  501    0  0.00000000000E+00  0.00000000000E+00 -0.87105026594E+03  0.87105026595E+03  0.50400001928E-02 0. -1.
    10030    2    1    2    0    0  0.00000000000E+00  0.00000000000E+00 -0.64402176493E+03  0.10980787670E+04  0.88938908518E+03 0.  0.
        3    1    3    3  502    0 -0.11689055025E+03 -0.10822744288E+03 -0.83461360855E+03  0.84968021391E+03  0.10100000352E+00 0. -1.
       -3    1    3    3    0  502  0.11689055025E+03  0.10822744288E+03  0.19059184362E+03  0.24839855310E+03  0.10100000352E+00 0.  1.
</event>
<event>
 5   0  0.1206541E-02  0.9081791E+03  0.7818609E-02  0.9415415E-01
        1   -1    0    0  501    0  0.00000000000E+00  0.00000000000E+00  0.58728808533E+03  0.58728808535E+03  0.50400001928E-02 0.  1.
       -1   -1    0    0    0  501  0.00000000000E+00  0.00000000000E+00 -0.35110081665E+03  0.35110081669E+03  0.50400001928E-02 0. -1.
    10030    2    1    2    0    0  0.00000000000E+00  0.00000000000E+00  0.23618726868E+03  0.93838890204E+03  0.90817911536E+03 0.  0.
        3    1    3    3  502    0  0.15960662173E+03  0.40517543088E+03 -0.14856235424E+02  0.43573170807E+03  0.10100000352E+00 0. -1.
       -3    1    3    3    0  502 -0.15960662173E+03 -0.40517543088E+03  0.25104350410E+03  0.50265719396E+03  0.10100000352E+00 0.  1.
</event>
<event>
 5   0  0.1177712E-02  0.9135683E+03  0.7818609E-02  0.9408778E-01
       -1   -1    0    0    0  501  0.00000000000E+00  0.00000000000E+00  0.53497238460E+03  0.53497238462E+03  0.50400001928E-02 0. -1.
        1   -1    0    0  501    0  0.00000000000E+00  0.00000000000E+00 -0.39002342756E+03  0.39002342760E+03  0.50400001928E-02 0.  1.
    10030    2    1    2    0    0  0.00000000000E+00  0.00000000000E+00  0.14494895703E+03  0.92499581222E+03  0.91356830750E+03 0.  0.
        5    1    3    3  502    0 -0.32498717203E+03  0.31857538466E+03  0.32964120353E+02  0.45630654272E+03  0.46999998093E+01 0.  1.
       -5    1    3    3    0  502  0.32498717203E+03 -0.31857538466E+03  0.11198483668E+03  0.46868926950E+03  0.46999998093E+01 0. -1.
</event>
<event>
 5   0  0.1968763E-02  0.9129414E+03  0.7818609E-02  0.9409547E-01
        2   -1    0    0  501    0  0.00000000000E+00  0.00000000000E+00  0.18253735379E+04  0.18253735379E+04  0.25500000920E-02 0. -1.
       -2   -1    0    0    0  501  0.00000000000E+00  0.00000000000E+00 -0.11414951777E+03  0.11414951780E+03  0.25500000920E-02 0.  1.
    10030    2    1    2    0    0  0.00000000000E+00  0.00000000000E+00  0.17112240202E+04  0.19395230557E+04  0.91294142009E+03 0.  0.
        2    1    3    3  502    0  0.48457693585E+02 -0.26145039590E+03  0.16438503887E+04  0.16652172705E+04  0.25500000920E-02 0. -1.
       -2    1    3    3    0  502 -0.48457693585E+02  0.26145039590E+03  0.67373631466E+02  0.27430578522E+03  0.25500000920E-02 0.  1.
</event>
<event>
 5   0  0.2041861E-02  0.8132245E+03  0.7818609E-02  0.9541070E-01
       -2   -1    0    0    0  501  0.00000000000E+00  0.00000000000E+00  0.11623480990E+03  0.11623480993E+03  0.25500000920E-02 0.  1.
        2   -1    0    0  501    0  0.00000000000E+00  0.00000000000E+00 -0.14224095877E+04  0.14224095877E+04  0.25500000920E-02 0. -1.
    10030    2    1    2    0    0  0.00000000000E+00  0.00000000000E+00 -0.13061747778E+04  0.15386443977E+04  0.81322446607E+03 0.  0.
        5    1    3    3  502    0 -0.14745983682E+03 -0.20497222636E+03 -0.12560287265E+04  0.12811667607E+04  0.46999998093E+01 0. -1.
       -5    1    3    3    0  502  0.14745983682E+03  0.20497222636E+03 -0.50146051351E+02  0.25747763693E+03  0.46999998093E+01 0.  1.
</event>
<event>
 5   0  0.1175993E-02  0.8481088E+03  0.7818609E-02  0.9492879E-01
       -1   -1    0    0    0  501  0.00000000000E+00  0.00000000000E+00  0.19575826880E+03  0.19575826886E+03  0.50400001928E-02 0. -1.
        1   -1    0    0  501    0  0.00000000000E+00  0.00000000000E+00 -0.91859289499E+03  0.91859289500E+03  0.50400001928E-02 0.  1.
    10030    2    1    2    0    0  0.00000000000E+00  0.00000000000E+00 -0.72283462619E+03  0.11143511639E+04  0.84810884891E+03 0.  0.
        4    1    3    3  502    0  0.19953588714E+03  0.29634017720E+03 -0.66158073212E+03  0.75187947764E+03  0.12699999809E+01 0.  1.
       -4    1    3    3    0  502 -0.19953588714E+03 -0.29634017720E+03 -0.61253894065E+02  0.36247168623E+03  0.12699999809E+01 0. -1.
</event>
<event>
 5   0  0.1924218E-02  0.8949847E+03  0.7818609E-02  0.9431873E-01
       -2   -1    0    0    0  501  0.00000000000E+00  0.00000000000E+00  0.15096896263E+03  0.15096896265E+03  0.25500000920E-02 0. -1.
        2   -1    0    0  501    0  0.00000000000E+00  0.00000000000E+00 -0.13264275202E+04  0.13264275202E+04  0.25500000920E-02 0.  1.
    10030    2    1    2    0    0  0.00000000000E+00  0.00000000000E+00 -0.11754585576E+04  0.14773964829E+04  0.89498466299E+03 0.  0.
        4    1    3    3  502    0 -0.37830268856E+03  0.18756381798E+03 -0.34313580571E+03  0.54409273478E+03  0.12699999809E+01 0. -1.
       -4    1    3    3    0  502  0.37830268856E+03 -0.18756381798E+03 -0.83232275188E+03  0.93330374808E+03  0.12699999809E+01 0.  1.
</event>
<event>
 5   0  0.1177712E-02  0.8832552E+03  0.7818609E-02  0.9446759E-01
        1   -1    0    0  501    0  0.00000000000E+00  0.00000000000E+00  0.36669847502E+03  0.36669847505E+03  0.50400001928E-02 0.  1.
       -1   -1    0    0    0  501  0.00000000000E+00  0.00000000000E+00 -0.53186729325E+03  0.53186729327E+03  0.50400001928E-02 0. -1.
    10030    2    1    2    0    0  0.00000000000E+00  0.00000000000E+00 -0.16516881823E+03  0.89856576832E+03  0.88325517348E+03 0.  0.
        5    1    3    3  502    0  0.93458953712E+02 -0.37786600054E+03  0.12958661282E+03  0.41028291533E+03  0.46999998093E+01 0. -1.
       -5    1    3    3    0  502 -0.93458953712E+02  0.37786600054E+03 -0.29475543105E+03  0.48828285299E+03  0.46999998093E+01 0.  1.
</event>
<event>
 5   0  0.1968763E-02  0.9733679E+03  0.7818609E-02  0.9338247E-01
       -2   -1    0    0    0  501  0.00000000000E+00  0.00000000000E+00  0.51630257719E+03  0.51630257720E+03  0.25500000920E-02 0.  1.
        2   -1    0    0  501    0  0.00000000000E+00  0.00000000000E+00 -0.45876445224E+03  0.45876445225E+03  0.25500000920E-02 0. -1.
    10030    2    1    2    0    0  0.00000000000E+00  0.00000000000E+00  0.57538124951E+02  0.97506702945E+03  0.97336790377E+03 0.  0.
        2    1    3    3  502    0 -0.43046738300E+03  0.20521152002E+03  0.12613612489E+03  0.49327908712E+03  0.25500000920E-02 0. -1.
       -2    1    3    3    0  502  0.43046738300E+03 -0.20521152002E+03 -0.68597999943E+02  0.48178794233E+03  0.25500000920E-02 0.  1.
</event>
<event>
 5   0  0.2008643E-02  0.8964215E+03  0.7818609E-02  0.9430066E-01
        2   -1    0    0  501    0  0.00000000000E+00  0.00000000000E+00  0.10858487459E+04  0.10858487459E+04  0.25500000920E-02 0. -1.
       -2   -1    0    0    0  501  0.00000000000E+00  0.00000000000E+00 -0.18501001593E+03  0.18501001595E+03  0.25500000920E-02 0.  1.
    10030    2    1    2    0    0  0.00000000000E+00  0.00000000000E+00  0.90083872993E+03  0.12708587618E+04  0.89642153875E+03 0.  0.
        3    1    3    3  502    0  0.35779511804E+02  0.31493154684E+03  0.11378687504E+01  0.31695955200E+03  0.10100000352E+00 0.  1.
       -3    1    3    3    0  502 -0.35779511804E+02 -0.31493154684E+03  0.89970086118E+03  0.95389920981E+03  0.10100000352E+00 0. -1.
</event>
<event>
 5   0  0.1162839E-02  0.7470727E+03  0.7818609E-02  0.9639954E-01
        1   -1    0    0  501    0  0.00000000000E+00  0.00000000000E+00  0.39943439135E+03  0.39943439138E+03  0.50400001928E-02 0.  1.
       -1   -1    0    0    0  501  0.00000000000E+00  0.00000000000E+00 -0.34931741125E+03  0.34931741129E+03  0.50400001928E-02 0. -1.
    10030    2    1    2    0    0  0.00000000000E+00  0.00000000000E+00  0.50116980091E+02  0.74875180267E+03  0.74707265397E+03 0.  0.
        2    1    3    3  502    0 -0.14359790821E+03 -0.31883699542E+03  0.15670057420E+03  0.38318723733E+03  0.25500000920E-02 0. -1.
       -2    1    3    3    0  502  0.14359790821E+03  0.31883699542E+03 -0.10658359411E+03  0.36556456534E+03  0.25500000920E-02 0.  1.
</event>
<event>
 5   0  0.1177712E-02  0.7822772E+03  0.7818609E-02  0.9586030E-01
       -1   -1    0    0    0  501  0.00000000000E+00  0.00000000000E+00  0.27379079954E+03  0.27379079959E+03  0.50400001928E-02 0. -1.
        1   -1    0    0  501    0  0.00000000000E+00  0.00000000000E+00 -0.55878218218E+03  0.55878218220E+03  0.50400001928E-02 0.  1.
    10030    2    1    2    0    0  0.00000000000E+00  0.00000000000E+00 -0.28499138263E+03  0.83257298179E+03  0.78227724103E+03 0.  0.
        5    1    3    3  502    0  0.21671820686E+03  0.79203309471E+02  0.19360455725E+03  0.30123870933E+03  0.46999998093E+01 0. -1.
       -5    1    3    3    0  502 -0.21671820686E+03 -0.79203309471E+02 -0.47859593988E+03  0.53133427246E+03  0.46999998093E+01 0.  1.
</event>
<event>
 5   0  0.2008643E-02  0.8895426E+03  0.7818609E-02  0.9438749E-01
        2   -1    0    0  501    0  0.00000000000E+00  0.00000000000E+00  0.53297168458E+03  0.53297168459E+03  0.25500000920E-02 0.  1.
       -2   -1    0    0    0  501  0.00000000000E+00  0.00000000000E+00 -0.37116700362E+03  0.37116700363E+03  0.25500000920E-02 0. -1.
    10030    2    1    2    0    0  0.00000000000E+00  0.00000000000E+00  0.16180468096E+03  0.90413868822E+03  0.88954258625E+03 0.  0.
        3    1    3    3  502    0  0.19341371983E+03  0.38765196981E+03  0.18324502273E+03  0.47038459294E+03  0.10100000352E+00 0.  1.
       -3    1    3    3    0  502 -0.19341371983E+03 -0.38765196981E+03 -0.21440341779E+02  0.43375409528E+03  0.10100000352E+00 0. -1.
</event>
<event>
 5   0  0.2008643E-02  0.8903528E+03  0.7818609E-02  0.9437722E-01
       -2   -1    0    0    0  501  0.00000000000E+00  0.00000000000E+00  0.17570540724E+03  0.17570540726E+03  0.25500000920E-02 0. -1.
        2   -1    0    0  501    0  0.00000000000E+00  0.00000000000E+00 -0.11279220994E+04  0.11279220994E+04  0.25500000920E-02 0.  1.
    10030    2    1    2    0    0  0.00000000000E+00  0.00000000000E+00 -0.95221669214E+03  0.13036275066E+04  0.89035276563E+03 0.  0.
        3    1    3    3  502    0  0.29757763222E+03  0.40102392994E+02  0.51144684019E+01  0.30031120044E+03  0.10100000352E+00 0. -1.
       -3    1    3    3    0  502 -0.29757763222E+03 -0.40102392994E+02 -0.95733116055E+03  0.10033163062E+04  0.10100000352E+00 0.  1.
</event>
<event>
 5   0  0.1968763E-02  0.8680647E+03  0.7818609E-02  0.9466407E-01
       -2   -1    0    0    0  501  0.00000000000E+00  0.00000000000E+00  0.83934408314E+03  0.83934408314E+03  0.25500000920E-02 0.  1.
        2   -1    0    0  501    0  0.00000000000E+00  0.00000000000E+00 -0.22444201213E+03  0.22444201215E+03  0.25500000920E-02 0. -1.
    10030    2    1    2    0    0  0.00000000000E+00  0.00000000000E+00  0.61490207100E+03  0.10637860953E+04  0.86806468630E+03 0.  0.
        2    1    3    3  502    0 -0.72522291087E+02 -0.55793798585E+02  0.82739018531E+03  0.83243435142E+03  0.25500000920E-02 0.  1.
       -2    1    3    3    0  502  0.72522291087E+02  0.55793798585E+02 -0.21248811431E+03  0.23135174387E+03  0.25500000920E-02 0. -1.
</event>
<event>
 5   0  0.1226424E-02  0.9056437E+03  0.7818609E-02  0.9418554E-01
        1   -1    0    0  501    0  0.00000000000E+00  0.00000000000E+00  0.16196779652E+04  0.16196779652E+04  0.50400001928E-02 0.  1.
       -1   -1    0    0    0  501  0.00000000000E+00  0.00000000000E+00 -0.12659777093E+03  0.12659777103E+03  0.50400001928E-02 0. -1.
    10030    2    1    2    0    0  0.00000000000E+00  0.00000000000E+00  0.14930801942E+04  0.17462757362E+04  0.90564368291E+03 0.  0.
        1    1    3    3  502    0 -0.33179708402E+02  0.13322446432E+03 -0.85497454654E+02  0.16173888129E+03  0.50400001928E-02 0. -1.
       -1    1    3    3    0  502  0.33179708402E+02 -0.13322446432E+03  0.15785776489E+04  0.15845368549E+04  0.50400001928E-02 0.  1.
</event>
<event>
 5   0  0.1924218E-02  0.9114732E+03  0.7818609E-02  0.9411352E-01
       -2   -1    0    0    0  501  0.00000000000E+00  0.00000000000E+00  0.31675574129E+03  0.31675574130E+03  0.25500000920E-02 0.  1.
        2   -1    0    0  501    0  0.00000000000E+00  0.00000000000E+00 -0.65569720513E+03  0.65569720514E+03  0.25500000920E-02 0. -1.
    10030    2    1    2    0    0  0.00000000000E+00  0.00000000000E+00 -0.33894146384E+03  0.97245294643E+03  0.91147321250E+03 0.  0.
        4    1    3    3  502    0  0.38018844162E+03  0.24917481979E+03 -0.13468743274E+03  0.47410300505E+03  0.12699999809E+01 0.  1.
       -4    1    3    3    0  502 -0.38018844162E+03 -0.24917481979E+03 -0.20425403110E+03  0.49834994138E+03  0.12699999809E+01 0. -1.
</event>
<event>
 5   0  0.2008643E-02  0.9066399E+03  0.7818609E-02  0.9417319E-01
       -2   -1    0    0    0  501  0.00000000000E+00  0.00000000000E+00  0.13191289128E+03  0.13191289131E+03  0.25500000920E-02 0. -1.
        2   -1    0    0  501    0  0.00000000000E+00  0.00000000000E+00 -0.15578384323E+04  0.15578384323E+04  0.25500000920E-02 0.  1.
    10030    2    1    2    0    0  0.00000000000E+00  0.00000000000E+00 -0.14259255410E+04  0.16897513236E+04  0.90663988833E+03 0.  0.
        3    1    3    3  502    0  0.13155798782E+02  0.43946940084E+03 -0.50716771795E+03  0.67121198861E+03  0.10100000352E+00 0. -1.
       -3    1    3    3    0  502 -0.13155798782E+02 -0.43946940084E+03 -0.91875782305E+03  0.10185393350E+04  0.10100000352E+00 0.  1.
</event>
<event>
 5   0  0.7893875E-03  0.8579892E+03  0.7818609E-02  0.9479676E-01
        4   -1    0    0  501    0  0.00000000000E+00  0.00000000000E+00  0.11640963022E+04  0.11640969950E+04  0.12699999809E+01 0.  1.
       -4   -1    0    0    0  501  0.00000000000E+00  0.00000000000E+00 -0.15809048073E+03  0.15809558184E+03  0.12699999809E+01 0. -1.
    10030    2    1    2    0    0  0.00000000000E+00  0.00000000000E+00  0.10060058215E+04  0.13221925768E+04  0.85798921750E+03 0.  0.
        1    1    3    3  502    0 -0.40462424790E+02  0.19536564081E+03  0.10882548260E+04  0.11063921130E+04  0.50400001928E-02 0.  1.
       -1    1    3    3    0  502  0.40462424790E+02 -0.19536564081E+03 -0.82249004474E+02  0.21580046384E+03  0.50400001928E-02 0. -1.
</event>
<event>
 5   0  0.1175993E-02  0.9286041E+03  0.7818609E-02  0.9390515E-01
       -1   -1    0    0    0  501  0.00000000000E+00  0.00000000000E+00  0.19909698175E+03  0.19909698181E+03  0.50400001928E-02 0.  1.
        1   -1    0    0  501    0  0.00000000000E+00  0.00000000000E+00 -0.10827706792E+04  0.10827706792E+04  0.50400001928E-02 0. -1.
    10030    2    1    2    0    0  0.00000000000E+00  0.00000000000E+00 -0.88367369747E+03  0.12818676610E+04  0.92860405815E+03 0.  0.
        4    1    3    3  502    0 -0.40338717351E+03 -0.20240677027E+02 -0.75796266048E+03  0.85885965346E+03  0.12699999809E+01 0. -1.
       -4    1    3    3    0  502  0.40338717351E+03  0.20240677027E+02 -0.12571103699E+03  0.42300800758E+03  0.12699999809E+01 0.  1.
</event>
<event>
 5   0  0.2008770E-02  0.9034904E+03  0.7818609E-02  0.9421229E-01
       -2   -1    0    0    0  501  0.00000000000E+00  0.00000000000E+00  0.69064660895E+03  0.69064660895E+03  0.25500000920E-02 0.  1.
        2   -1    0    0  501    0  0.00000000000E+00  0.00000000000E+00 -0.29548211753E+03  0.29548211754E+03  0.25500000920E-02 0. -1.
    10030    2    1    2    0    0  0.00000000000E+00  0.00000000000E+00  0.39516449142E+03  0.98612872650E+03  0.90349039284E+03 0.  0.
        1    1    3    3  502    0  0.23164087151E+02 -0.63922304291E+02  0.68503022527E+03  0.68839599467E+03  0.50400001928E-02 0.  1.
       -1    1    3    3    0  502 -0.23164087151E+02  0.63922304291E+02 -0.28986573385E+03  0.29773273183E+03  0.50400001928E-02 0. -1.
</event>
<event>
 5   0  0.1177712E-02  0.9261604E+03  0.7818609E-02  0.9393458E-01
       -1   -1    0    0    0  501  0.00000000000E+00  0.00000000000E+00  0.10156636821E+04  0.10156636822E+04  0.50400001928E-02 0.  1.
        1   -1    0    0  501    0  0.00000000000E+00  0.00000000000E+00 -0.21113611465E+03  0.21113611471E+03  0.50400001928E-02 0. -1.
    10030    2    1    2    0    0  0.00000000000E+00  0.00000000000E+00  0.80452756750E+03  0.12267997969E+04  0.92616042602E+03 0.  0.
        5    1    3    3  502    0 -0.28618996325E+03 -0.26924804166E+03  0.72678468461E+03  0.82621865797E+03  0.46999998093E+01 0.  1.
       -5    1    3    3    0  502  0.28618996325E+03  0.26924804166E+03  0.77742882890E+02  0.40058113890E+03  0.46999998093E+01 0. -1.
</event>
<event>
 5   0  0.1175993E-02  0.9094646E+03  0.7818609E-02  0.9413827E-01
        1   -1    0    0  501    0  0.00000000000E+00  0.00000000000E+00  0.73351783966E+03  0.73351783968E+03  0.50400001928E-02 0.  1.
       -1   -1    0    0    0  501  0.00000000000E+00  0.00000000000E+00 -0.28190377147E+03  0.28190377151E+03  0.50400001928E-02 0. -1.
    10030    2    1    2    0    0  0.00000000000E+00  0.00000000000E+00  0.45161406820E+03  0.10154216112E+04  0.90946455779E+03 0.  0.
        4    1    3    3  502    0 -0.35711818306E+03  0.15893579433E+03  0.48522532375E+03  0.62308844564E+03  0.12699999809E+01 0.  1.
       -4    1    3    3    0  502  0.35711818306E+03 -0.15893579433E+03 -0.33611255553E+02  0.39233316555E+03  0.12699999809E+01 0. -1.
</event>
<event>
 5   0  0.2008643E-02  0.8794046E+03  0.7818609E-02  0.9451699E-01
        2   -1    0    0  501    0  0.00000000000E+00  0.00000000000E+00  0.68338617121E+03  0.68338617122E+03  0.25500000920E-02 0. -1.
       -2   -1    0    0    0  501  0.00000000000E+00  0.00000000000E+00 -0.28291194405E+03  0.28291194407E+03  0.25500000920E-02 0.  1.
    10030    2    1    2    0    0  0.00000000000E+00  0.00000000000E+00  0.40047422716E+03  0.96629811528E+03  0.87940459459E+03 0.  0.
        3    1    3    3  502    0  0.38860000625E+03 -0.15563898340E+03  0.52388460187E+02  0.42187441137E+03  0.10100000352E+00 0.  1.
       -3    1    3    3    0  502 -0.38860000625E+03  0.15563898340E+03  0.34808576697E+03  0.54442370391E+03  0.10100000352E+00 0. -1.
</event>
<event>
 5   0  0.1175993E-02  0.8919892E+03  0.7818609E-02  0.9435651E-01
        1   -1    0    0  501    0  0.00000000000E+00  0.00000000000E+00  0.49134510328E+03  0.49134510331E+03  0.50400001928E-02 0.  1.
       -1   -1    0    0    0  501  0.00000000000E+00  0.00000000000E+00 -0.40482986473E+03  0.40482986476E+03  0.50400001928E-02 0. -1.
    10030    2    1    2    0    0  0.00000000000E+00  0.00000000000E+00  0.86515238552E+02  0.89617496807E+03  0.89198917421E+03 0.  0.
        4    1    3    3  502    0 -0.41762252735E+03  0.77913045011E+01  0.20032511000E+03  0.46325051795E+03  0.12699999809E+01 0.  1.
       -4    1    3    3    0  502  0.41762252735E+03 -0.77913045011E+01 -0.11380987145E+03  0.43292445013E+03  0.12699999809E+01 0. -1.
</event>
<event>
 5   0  0.1226424E-02  0.8716064E+03  0.7818609E-02  0.9461788E-01
        1   -1    0    0  501    0  0.00000000000E+00  0.00000000000E+00  0.15932160563E+04  0.15932160563E+04  0.50400001928E-02 0. -1.
       -1   -1    0    0    0  501  0.00000000000E+00  0.00000000000E+00 -0.11920820279E+03  0.11920820290E+03  0.50400001928E-02 0.  1.
    10030    2    1    2    0    0  0.00000000000E+00  0.00000000000E+00  0.14740078535E+04  0.17124242592E+04  0.87160638555E+03 0.  0.
        1    1    3    3  502    0 -0.19105037288E+03 -0.39032491524E+03  0.80128932958E+03  0.91154724187E+03  0.50400001928E-02 0.  1.
       -1    1    3    3    0  502  0.19105037288E+03  0.39032491524E+03  0.67271852395E+03  0.80087701736E+03  0.50400001928E-02 0. -1.
</event>
<event>
 5   0  0.1162839E-02  0.8179352E+03  0.7818609E-02  0.9534413E-01
       -1   -1    0    0    0  501  0.00000000000E+00  0.00000000000E+00  0.13417379206E+03  0.13417379215E+03  0.50400001928E-02 0.  1.
        1   -1    0    0  501    0  0.00000000000E+00  0.00000000000E+00 -0.12465512402E+04  0.12465512402E+04  0.50400001928E-02 0. -1.
    10030    2    1    2    0    0  0.00000000000E+00  0.00000000000E+00 -0.11123774482E+04  0.13807250324E+04  0.81793522229E+03 0.  0.
        2    1    3    3  502    0  0.12915457474E+03  0.38647990483E+03 -0.49754501870E+03  0.64311637101E+03  0.25500000920E-02 0. -1.
       -2    1    3    3    0  502 -0.12915457474E+03 -0.38647990483E+03 -0.61483242945E+03  0.73760866137E+03  0.25500000920E-02 0.  1.
</event>
<event>
 5   0  0.2008770E-02  0.8836587E+03  0.7818609E-02  0.9446243E-01
        2   -1    0    0  501    0  0.00000000000E+00  0.00000000000E+00  0.86641342612E+03  0.86641342613E+03  0.25500000920E-02 0. -1.
       -2   -1    0    0    0  501  0.00000000000E+00  0.00000000000E+00 -0.22531180196E+03  0.22531180197E+03  0.25500000920E-02 0.  1.
    10030    2    1    2    0    0  0.00000000000E+00  0.00000000000E+00  0.64110162417E+03  0.10917252281E+04  0.88365869042E+03 0.  0.
        1    1    3    3  502    0 -0.19876590675E+03  0.31437263972E+03  0.25911978337E+02  0.37283974163E+03  0.50400001928E-02 0.  1.
       -1    1    3    3    0  502  0.19876590675E+03 -0.31437263972E+03  0.61518964583E+03  0.71888548647E+03  0.50400001928E-02 0. -1.
</event>
<event>
 5   0  0.1177712E-02  0.9066977E+03  0.7818609E-02  0.9417247E-01
        1   -1    0    0  501    0  0.00000000000E+00  0.00000000000E+00  0.10889386538E+04  0.10889386538E+04  0.50400001928E-02 0. -1.
       -1   -1    0    0    0  501  0.00000000000E+00  0.00000000000E+00 -0.18873899543E+03  0.18873899550E+03  0.50400001928E-02 0.  1.
    10030    2    1    2    0    0  0.00000000000E+00  0.00000000000E+00  0.90019965836E+03  0.12776776493E+04  0.90669771733E+03 0.  0.
        5    1    3    3  502    0  0.14278800030E+03 -0.41702315799E+03  0.30092647320E+03  0.53373735077E+03  0.46999998093E+01 0. -1.
       -5    1    3    3    0  502 -0.14278800030E+03  0.41702315799E+03  0.59927318516E+03  0.74394029853E+03  0.46999998093E+01 0.  1.
</event>
<event>
 5   0  0.2008643E-02  0.8991219E+03  0.7818609E-02  0.9426680E-01
       -2   -1    0    0    0  501  0.00000000000E+00  0.00000000000E+00  0.25768902150E+03  0.25768902151E+03  0.25500000920E-02 0. -1.
        2   -1    0    0  501    0  0.00000000000E+00  0.00000000000E+00 -0.78429827087E+03  0.78429827088E+03  0.25500000920E-02 0.  1.
    10030    2    1    2    0    0  0.00000000000E+00  0.00000000000E+00 -0.52660924937E+03  0.10419872924E+04  0.89912191385E+03 0.  0.
        3    1    3    3  502    0  0.44907986785E+03 -0.13218451702E+02 -0.28190437767E+03  0.53039376271E+03  0.10100000352E+00 0.  1.
       -3    1    3    3    0  502 -0.44907986785E+03  0.13218451702E+02 -0.24470487171E+03  0.51159352968E+03  0.10100000352E+00 0. -1.
</event>
<event>
 5   0  0.1968763E-02  0.8845703E+03  0.7818609E-02  0.9445078E-01
        2   -1    0    0  501    0  0.00000000000E+00  0.00000000000E+00  0.34495655267E+03  0.34495655268E+03  0.25500000920E-02 0. -1.
       -2   -1    0    0    0  501  0.00000000000E+00  0.00000000000E+00 -0.56707471038E+03  0.56707471039E+03  0.25500000920E-02 0.  1.
    10030    2    1    2    0    0  0.00000000000E+00  0.00000000000E+00 -0.22211815771E+03  0.91203126307E+03  0.88457026224E+03 0.  0.
        2    1    3    3  502    0  0.27272752580E+03  0.34818895687E+03 -0.11050943441E+03  0.45588176988E+03  0.25500000920E-02 0. -1.
       -2    1    3    3    0  502 -0.27272752580E+03 -0.34818895687E+03 -0.11160872330E+03  0.45614949319E+03  0.25500000920E-02 0.  1.
</event>
<event>
 5   0  0.1924218E-02  0.9018258E+03  0.7818609E-02  0.9423302E-01
       -2   -1    0    0    0  501  0.00000000000E+00  0.00000000000E+00  0.12090439071E+03  0.12090439073E+03  0.25500000920E-02 0. -1.
        2   -1    0    0  501    0  0.00000000000E+00  0.00000000000E+00 -0.16816795273E+04  0.16816795273E+04  0.25500000920E-02 0.  1.
    10030    2    1    2    0    0  0.00000000000E+00  0.00000000000E+00 -0.15607751366E+04  0.18025839181E+04  0.90182578948E+03 0.  0.
        4    1    3    3  502    0  0.26978944348E+03 -0.35164391610E+03 -0.94619340933E+03  0.10448556686E+04  0.12699999809E+01 0.  1.
       -4    1    3    3    0  502 -0.26978944348E+03  0.35164391610E+03 -0.61458172731E+03  0.75772824943E+03  0.12699999809E+01 0. -1.
</event>
<event>
 5   0  0.2008643E-02  0.8731375E+03  0.7818609E-02  0.9459798E-01
       -2   -1    0    0    0  501  0.00000000000E+00  0.00000000000E+00  0.25596243390E+03  0.25596243391E+03  0.25500000920E-02 0.  1.
        2   -1    0    0  501    0  0.00000000000E+00  0.00000000000E+00 -0.74461036555E+03  0.74461036556E+03  0.25500000920E-02 0. -1.
    10030    2    1    2    0    0  0.00000000000E+00  0.00000000000E+00 -0.48864793165E+03  0.10005727995E+04  0.87313751833E+03 0.  0.
        3    1    3    3  502    0 -0.21291064467E+02 -0.31583902473E+02  0.25405460894E+03  0.25689415494E+03  0.10100000352E+00 0.  1.
       -3    1    3    3    0  502  0.21291064467E+02  0.31583902473E+02 -0.74270254059E+03  0.74367864452E+03  0.10100000352E+00 0. -1.
</event>
<event>
 5   0  0.1226424E-02  0.9087207E+03  0.7818609E-02  0.9414745E-01
        1   -1    0    0  501    0  0.00000000000E+00  0.00000000000E+00  0.35851208916E+03  0.35851208919E+03  0.50400001928E-02 0.  1.
       -1   -1    0    0    0  501  0.00000000000E+00  0.00000000000E+00 -0.57583369074E+03  0.57583369076E+03  0.50400001928E-02 0. -1.
    10030    2    1    2    0    0  0.00000000000E+00  0.00000000000E+00 -0.21732160158E+03  0.93434577996E+03  0.90872072608E+03 0.  0.
        1    1    3    3  502    0 -0.23553144690E+03 -0.32266319071E+03 -0.33122906597E+03  0.51894054697E+03  0.50400001928E-02 0. -1.
       -1    1    3    3    0  502  0.23553144690E+03  0.32266319071E+03  0.11390746439E+03  0.41540523298E+03  0.50400001928E-02 0.  1.
</event>
<event>
 5   0  0.1177712E-02  0.8948093E+03  0.7818609E-02  0.9432093E-01
       -1   -1    0    0    0  501  0.00000000000E+00  0.00000000000E+00  0.32214736671E+03  0.32214736675E+03  0.50400001928E-02 0.  1.
        1   -1    0    0  501    0  0.00000000000E+00  0.00000000000E+00 -0.62136447695E+03  0.62136447697E+03  0.50400001928E-02 0. -1.
    10030    2    1    2    0    0  0.00000000000E+00  0.00000000000E+00 -0.29921711024E+03  0.94351184373E+03  0.89480932058E+03 0.  0.
        5    1    3    3  502    0  0.11758725900E+03  0.82222611482E+01  0.30545306672E+03  0.32744165133E+03  0.46999998093E+01 0.  1.
       -5    1    3    3    0  502 -0.11758725900E+03 -0.82222611482E+01 -0.60467017696E+03  0.61607019240E+03  0.46999998093E+01 0. -1.
</event>
<event>
 5   0  0.1177712E-02  0.9036734E+03  0.7818609E-02  0.9421001E-01
        1   -1    0    0  501    0  0.00000000000E+00  0.00000000000E+00  0.89455604343E+03  0.89455604345E+03  0.50400001928E-02 0. -1.
       -1   -1    0    0    0  501  0.00000000000E+00  0.00000000000E+00 -0.22822090089E+03  0.22822090095E+03  0.50400001928E-02 0.  1.
    10030    2    1    2    0    0  0.00000000000E+00  0.00000000000E+00  0.66633514254E+03  0.11227769444E+04  0.90367336171E+03 0.  0.
        5    1    3    3  502    0  0.23738856369E+03  0.33657783894E+03  0.56393176178E+03  0.69834024213E+03  0.46999998093E+01 0. -1.
       -5    1    3    3    0  502 -0.23738856369E+03 -0.33657783894E+03  0.10240338076E+03  0.42443670226E+03  0.46999998093E+01 0.  1.
</event>
<event>
 5   0  0.1924218E-02  0.9006905E+03  0.7818609E-02  0.9424719E-01
       -2   -1    0    0    0  501  0.00000000000E+00  0.00000000000E+00  0.22208507761E+03  0.22208507763E+03  0.25500000920E-02 0.  1.
        2   -1    0    0  501    0  0.00000000000E+00  0.00000000000E+00 -0.91321234087E+03  0.91321234088E+03  0.25500000920E-02 0. -1.
    10030    2    1    2    0    0  0.00000000000E+00  0.00000000000E+00 -0.69112726326E+03  0.11352974185E+04  0.90069047649E+03 0.  0.
        4    1    3    3  502    0 -0.24945772541E+03  0.62964221521E+02  0.12032721725E+03  0.28403151598E+03  0.12699999809E+01 0.  1.
       -4    1    3    3    0  502  0.24945772541E+03 -0.62964221521E+02 -0.81145448051E+03  0.85126590253E+03  0.12699999809E+01 0. -1.
</event>
<event>
 5   0  0.1968763E-02  0.9275017E+03  0.7818609E-02  0.9391841E-01
        2   -1    0    0  501    0  0.00000000000E+00  0.00000000000E+00  0.54979402654E+03  0.54979402655E+03  0.25500000920E-02 0. -1.
       -2   -1    0    0    0  501  0.00000000000E+00  0.00000000000E+00 -0.39117346103E+03  0.39117346104E+03  0.25500000920E-02 0.  1.
    10030    2    1    2    0    0  0.00000000000E+00  0.00000000000E+00  0.15862056551E+03  0.94096748759E+03  0.92750165978E+03 0.  0.
        2    1    3    3  502    0 -0.28669602851E+03 -0.11771733679E+03  0.42930125855E+03  0.52948234602E+03  0.25500000920E-02 0. -1.
       -2    1    3    3    0  502  0.28669602851E+03  0.11771733679E+03 -0.27068069303E+03  0.41148514157E+03  0.25500000920E-02 0.  1.
</event>
<event>
 5   0  0.1162839E-02  0.6204958E+03  0.7818609E-02  0.9863773E-01
        1   -1    0    0  501    0  0.00000000000E+00  0.00000000000E+00  0.61315073119E+03  0.61315073121E+03  0.50400001928E-02 0. -1.
       -1   -1    0    0    0  501  0.00000000000E+00  0.00000000000E+00 -0.15698220635E+03  0.15698220643E+03  0.50400001928E-02 0.  1.
    10030    2    1    2    0    0  0.00000000000E+00  0.00000000000E+00  0.45616852484E+03  0.77013293763E+03  0.62049578449E+03 0.  0.
        2    1    3    3  502    0  0.23069240095E+03  0.17455052071E+03  0.36722064535E+03  0.46748034238E+03  0.25500000920E-02 0. -1.
       -2    1    3    3    0  502 -0.23069240095E+03 -0.17455052071E+03  0.88947879493E+02  0.30265259525E+03  0.25500000920E-02 0.  1.
</event>
<event>
 5   0  0.7893875E-03  0.8919219E+03  0.7818609E-02  0.9435736E-01
        4   -1    0    0  501    0  0.00000000000E+00  0.00000000000E+00  0.56934256503E+03  0.56934398148E+03  0.12699999809E+01 0.  1.
       -4   -1    0    0    0  501  0.00000000000E+00  0.00000000000E+00 -0.34931424233E+03  0.34931655099E+03  0.12699999809E+01 0. -1.
    10030    2    1    2    0    0  0.00000000000E+00  0.00000000000E+00  0.22002832270E+03  0.91866053247E+03  0.89192191986E+03 0.  0.
        2    1    3    3  502    0  0.50017868778E+02 -0.16557517598E+03  0.53338957692E+03  0.56073288371E+03  0.25500000920E-02 0.  1.
       -2    1    3    3    0  502 -0.50017868778E+02  0.16557517598E+03 -0.31336125422E+03  0.35792764877E+03  0.25500000920E-02 0. -1.
</event>
<event>
 5   0  0.2008770E-02  0.9098598E+03  0.7818609E-02  0.9413339E-01
        2   -1    0    0  501    0  0.00000000000E+00  0.00000000000E+00  0.95307942116E+03  0.95307942116E+03  0.25500000920E-02 0. -1.
       -2   -1    0    0    0  501  0.00000000000E+00  0.00000000000E+00 -0.21715003662E+03  0.21715003664E+03  0.25500000920E-02 0.  1.
    10030    2    1    2    0    0  0.00000000000E+00  0.00000000000E+00  0.73592938453E+03  0.11702294578E+04  0.90985983804E+03 0.  0.
        1    1    3    3  502    0  0.24362943005E+03  0.36845883291E+03  0.22799110101E+03  0.49708867710E+03  0.50400001928E-02 0.  1.
       -1    1    3    3    0  502 -0.24362943005E+03 -0.36845883291E+03  0.50793828352E+03  0.67314078069E+03  0.50400001928E-02 0. -1.
</event>
<event>
 5   0  0.1175993E-02  0.8977531E+03  0.7818609E-02  0.9428394E-01
        1   -1    0    0  501    0  0.00000000000E+00  0.00000000000E+00  0.41303977002E+03  0.41303977005E+03  0.50400001928E-02 0.  1.
       -1   -1    0    0    0  501  0.00000000000E+00  0.00000000000E+00 -0.48782269095E+03  0.48782269098E+03  0.50400001928E-02 0. -1.
    10030    2    1    2    0    0  0.00000000000E+00  0.00000000000E+00 -0.74782920937E+02  0.90086246103E+03  0.89775313334E+03 0.  0.
        4    1    3    3  502    0 -0.21797392526E+02 -0.24616526118E+03  0.33862772938E+03  0.41921690584E+03  0.12699999809E+01 0.  1.
       -4    1    3    3    0  502  0.21797392526E+02  0.24616526118E+03 -0.41341065032E+03  0.48164555519E+03  0.12699999809E+01 0. -1.
</event>
<event>
 5   0  0.1177712E-02  0.8793750E+03  0.7818609E-02  0.9451737E-01
        1   -1    0    0  501    0  0.00000000000E+00  0.00000000000E+00  0.20677380435E+04  0.20677380435E+04  0.50400001928E-02 0.  1.
       -1   -1    0    0    0  501  0.00000000000E+00  0.00000000000E+00 -0.93495922619E+02  0.93495922755E+02  0.50400001928E-02 0. -1.
    10030    2    1    2    0    0  0.00000000000E+00  0.00000000000E+00  0.19742421209E+04  0.21612339663E+04  0.87937495135E+03 0.  0.
        5    1    3    3  502    0  0.39416236936E+03  0.16789868886E+03  0.74445519565E+03  0.85894678035E+03  0.46999998093E+01 0. -1.
       -5    1    3    3    0  502 -0.39416236936E+03 -0.16789868886E+03  0.12297869252E+04  0.13022871859E+04  0.46999998093E+01 0.  1.
</event>
<event>
 5   0  0.1226424E-02  0.8909771E+03  0.7818609E-02  0.9436931E-01
       -1   -1    0    0    0  501  0.00000000000E+00  0.00000000000E+00  0.48104399927E+03  0.48104399930E+03  0.50400001928E-02 0.  1.
        1   -1    0    0  501    0  0.00000000000E+00  0.00000000000E+00 -0.41256115955E+03  0.41256115958E+03  0.50400001928E-02 0. -1.
    10030    2    1    2    0    0  0.00000000000E+00  0.00000000000E+00  0.68482839720E+02  0.89360515888E+03  0.89097714933E+03 0.  0.
        1    1    3    3  502    0  0.14019291584E+03 -0.38185545348E+03  0.21641535835E+03  0.46076376633E+03  0.50400001928E-02 0. -1.
       -1    1    3    3    0  502 -0.14019291584E+03  0.38185545348E+03 -0.14793251863E+03  0.43284139255E+03  0.50400001928E-02 0.  1.
</event>
<event>
 5   0  0.1206541E-02  0.9035193E+03  0.7818609E-02  0.9421193E-01
       -1   -1    0    0    0  501  0.00000000000E+00  0.00000000000E+00  0.38677947858E+03  0.38677947862E+03  0.50400001928E-02 0.  1.
        1   -1    0    0  501    0  0.00000000000E+00  0.00000000000E+00 -0.52765665022E+03  0.52765665025E+03  0.50400001928E-02 0. -1.
    10030    2    1    2    0    0  0.00000000000E+00  0.00000000000E+00 -0.14087717164E+03  0.91443612886E+03  0.90351926171E+03 0.  0.
        3    1    3    3  502    0 -0.32900682550E+03  0.10998462780E+03 -0.36332180006E+03  0.50233937749E+03  0.10100000352E+00 0. -1.
       -3    1    3    3    0  502  0.32900682550E+03 -0.10998462780E+03  0.22244462842E+03  0.41209675137E+03  0.10100000352E+00 0.  1.
</event>
<event>
 5   0  0.2008770E-02  0.8834446E+03  0.7818609E-02  0.9446516E-01
       -2   -1    0    0    0  501  0.00000000000E+00  0.00000000000E+00  0.18656147541E+03  0.18656147542E+03  0.25500000920E-02 0.  1.
        2   -1    0    0  501    0  0.00000000000E+00  0.00000000000E+00 -0.10458674885E+04  0.10458674885E+04  0.25500000920E-02 0. -1.
    10030    2    1    2    0    0  0.00000000000E+00  0.00000000000E+00 -0.85930601312E+03  0.12324289640E+04  0.88344458061E+03 0.  0.
        1    1    3    3  502    0  0.12527462585E+03  0.28216687952E+03  0.11066667115E+02  0.30892450684E+03  0.50400001928E-02 0.  1.
       -1    1    3    3    0  502 -0.12527462585E+03 -0.28216687952E+03 -0.87037268024E+03  0.92350445711E+03  0.50400001928E-02 0. -1.
</event>
<event>
 5   0  0.2008770E-02  0.8958482E+03  0.7818609E-02  0.9430786E-01
        2   -1    0    0  501    0  0.00000000000E+00  0.00000000000E+00  0.16020375307E+04  0.16020375307E+04  0.25500000920E-02 0.  1.
       -2   -1    0    0    0  501  0.00000000000E+00  0.00000000000E+00 -0.12523801816E+03  0.12523801819E+03  0.25500000920E-02 0. -1.
    10030    2    1    2    0    0  0.00000000000E+00  0.00000000000E+00  0.14767995125E+04  0.17272755489E+04  0.89584821345E+03 0.  0.
        1    1    3    3  502    0 -0.55276823565E+02 -0.23553664896E+03  0.11576586543E+02  0.24221283535E+03  0.50400001928E-02 0. -1.
       -1    1    3    3    0  502  0.55276823565E+02  0.23553664896E+03  0.14652229260E+04  0.14850627135E+04  0.50400001928E-02 0.  1.
</event>
<event>
 5   0  0.1177712E-02  0.8924873E+03  0.7818609E-02  0.9435022E-01
       -1   -1    0    0    0  501  0.00000000000E+00  0.00000000000E+00  0.20070764631E+03  0.20070764637E+03  0.50400001928E-02 0. -1.
        1   -1    0    0  501    0  0.00000000000E+00  0.00000000000E+00 -0.99215659011E+03  0.99215659012E+03  0.50400001928E-02 0.  1.
    10030    2    1    2    0    0  0.00000000000E+00  0.00000000000E+00 -0.79144894380E+03  0.11928642365E+04  0.89248734224E+03 0.  0.
        5    1    3    3  502    0 -0.40083332052E+03 -0.81850836498E+01 -0.13389149896E+03  0.42270955741E+03  0.46999998093E+01 0. -1.
       -5    1    3    3    0  502  0.40083332052E+03  0.81850836498E+01 -0.65755744484E+03  0.77015467908E+03  0.46999998093E+01 0.  1.
</event>
<event>
 5   0  0.1924218E-02  0.8977841E+03  0.7818609E-02  0.9428356E-01
       -2   -1    0    0    0  501  0.00000000000E+00  0.00000000000E+00  0.78876114628E+03  0.78876114629E+03  0.25500000920E-02 0.  1.
        2   -1    0    0  501    0  0.00000000000E+00  0.00000000000E+00 -0.25546905060E+03  0.25546905061E+03  0.25500000920E-02 0. -1.
    10030    2    1    2    0    0  0.00000000000E+00  0.00000000000E+00  0.53329209568E+03  0.10442301969E+04  0.89778407471E+03 0.  0.
        4    1    3    3  502    0  0.30168081853E+03  0.57838898895E+02  0.64737150239E+03  0.71655294955E+03  0.12699999809E+01 0.  1.
       -4    1    3    3    0  502 -0.30168081853E+03 -0.57838898895E+02 -0.11407940671E+03  0.32767724735E+03  0.12699999809E+01 0. -1.
</event>
<event>
 5   0  0.1162839E-02  0.9038612E+03  0.7818609E-02  0.9420768E-01
        1   -1    0    0  501    0  0.00000000000E+00  0.00000000000E+00  0.27626752843E+03  0.27626752848E+03  0.50400001928E-02 0.  1.
       -1   -1    0    0    0  501  0.00000000000E+00  0.00000000000E+00 -0.73928799363E+03  0.73928799364E+03  0.50400001928E-02 0. -1.
    10030    2    1    2    0    0  0.00000000000E+00  0.00000000000E+00 -0.46302046520E+03  0.10155555221E+04  0.90386119914E+03 0.  0.
        2    1    3    3  502    0 -0.35463832508E+03  0.16897458154E+03 -0.48254938587E+03  0.62223360616E+03  0.25500000920E-02 0.  1.
       -2    1    3    3    0  502  0.35463832508E+03 -0.16897458154E+03  0.19528920674E+02  0.39332191596E+03  0.25500000920E-02 0. -1.
</event>
<event>
 5   0  0.2041861E-02  0.9101867E+03  0.7818609E-02  0.9412936E-01
        2   -1    0    0  501    0  0.00000000000E+00  0.00000000000E+00  0.14847923119E+04  0.14847923119E+04  0.25500000920E-02 0. -1.
       -2   -1    0    0    0  501  0.00000000000E+00  0.00000000000E+00 -0.13948750241E+03  0.13948750243E+03  0.25500000920E-02 0.  1.
    10030    2    1    2    0    0  0.00000000000E+00  0.00000000000E+00  0.13453048095E+04  0.16242798143E+04  0.91018673075E+03 0.  0.
        5    1    3    3  502    0  0.28380076289E+03  0.14990895217E+03  0.12483546900E+04  0.12889635716E+04  0.46999998093E+01 0. -1.
       -5    1    3    3    0  502 -0.28380076289E+03 -0.14990895217E+03  0.96950119502E+02  0.33531624272E+03  0.46999998093E+01 0.  1.
</event>
<event>
 5   0  0.2041861E-02  0.8904422E+03  0.7818609E-02  0.9437609E-01
        2   -1    0    0  501    0  0.00000000000E+00  0.00000000000E+00  0.16567727032E+04  0.16567727032E+04  0.25500000920E-02 0.  1.
       -2   -1    0    0    0  501  0.00000000000E+00  0.00000000000E+00 -0.11964333524E+03  0.11964333527E+03  0.25500000920E-02 0. -1.
    10030    2    1    2    0    0  0.00000000000E+00  0.00000000000E+00  0.15371293680E+04  0.17764160385E+04  0.89044216428E+03 0.  0.
        5    1    3    3  502    0 -0.30608101598E+03 -0.13021958250E+03  0.17824890705E+03  0.37740891732E+03  0.46999998093E+01 0. -1.
       -5    1    3    3    0  502  0.30608101598E+03  0.13021958250E+03  0.13588804609E+04  0.13990071212E+04  0.46999998093E+01 0.  1.
</event>
<event>
 5   0  0.2008643E-02  0.8937900E+03  0.7818609E-02  0.9433378E-01
       -2   -1    0    0    0  501  0.00000000000E+00  0.00000000000E+00  0.25533770488E+03  0.25533770490E+03  0.25500000920E-02 0.  1.
        2   -1    0    0  501    0  0.00000000000E+00  0.00000000000E+00 -0.78216075828E+03  0.78216075828E+03  0.25500000920E-02 0. -1.
    10030    2    1    2    0    0  0.00000000000E+00  0.00000000000E+00 -0.52682305340E+03  0.10374984632E+04  0.89378998177E+03 0.  0.
        3    1    3    3  502    0  0.17530842958E+03 -0.26667336860E+03  0.99725878934E+02  0.33435459041E+03  0.10100000352E+00 0.  1.
       -3    1    3    3    0  502 -0.17530842958E+03  0.26667336860E+03 -0.62654893233E+03  0.70314387276E+03  0.10100000352E+00 0. -1.
</event>
<event>
 5   0  0.2041861E-02  0.8849948E+03  0.7818609E-02  0.9444536E-01
       -2   -1    0    0    0  501  0.00000000000E+00  0.00000000000E+00  0.21983060870E+03  0.21983060872E+03  0.25500000920E-02 0.  1.
        2   -1    0    0  501    0  0.00000000000E+00  0.00000000000E+00 -0.89070370812E+03  0.89070370812E+03  0.25500000920E-02 0. -1.
    10030    2    1    2    0    0  0.00000000000E+00  0.00000000000E+00 -0.67087309942E+03  0.11105343168E+04  0.88499477589E+03 0.  0.
        5    1    3    3  502    0 -0.27405939993E+03 -0.15651222156E+03  0.53722721942E+02  0.32017628119E+03  0.46999998093E+01 0.  1.
       -5    1    3    3    0  502  0.27405939993E+03  0.15651222156E+03 -0.72459582136E+03  0.79035803565E+03  0.46999998093E+01 0. -1.
</event>
<event>
 5   0  0.1968763E-02  0.9414703E+03  0.7818609E-02  0.9375176E-01
       -2   -1    0    0    0  501  0.00000000000E+00  0.00000000000E+00  0.15517951907E+03  0.15517951909E+03  0.25500000920E-02 0. -1.
        2   -1    0    0  501    0  0.00000000000E+00  0.00000000000E+00 -0.14279693499E+04  0.14279693499E+04  0.25500000920E-02 0.  1.
    10030    2    1    2    0    0  0.00000000000E+00  0.00000000000E+00 -0.12727898308E+04  0.15831488690E+04  0.94147033300E+03 0.  0.
        2    1    3    3  502    0 -0.31335803808E+03  0.28444383649E+03 -0.28977086738E+03  0.51290224384E+03  0.25500000920E-02 0. -1.
       -2    1    3    3    0  502  0.31335803808E+03 -0.28444383649E+03 -0.98301896346E+03  0.10702466252E+04  0.25500000920E-02 0.  1.
</event>
<event>
 5   0  0.2041861E-02  0.1013737E+04  0.7818609E-02  0.9293605E-01
       -2   -1    0    0    0  501  0.00000000000E+00  0.00000000000E+00  0.52926198161E+03  0.52926198161E+03  0.25500000920E-02 0. -1.
        2   -1    0    0  501    0  0.00000000000E+00  0.00000000000E+00 -0.48542292374E+03  0.48542292374E+03  0.25500000920E-02 0.  1.
    10030    2    1    2    0    0  0.00000000000E+00  0.00000000000E+00  0.43839057870E+02  0.10146849054E+04  0.10137374385E+04 0.  0.
        5    1    3    3  502    0 -0.26693656351E+03  0.27029788122E+03 -0.31392012008E+03  0.49283263418E+03  0.46999998093E+01 0.  1.
       -5    1    3    3    0  502  0.26693656351E+03 -0.27029788122E+03  0.35775917794E+03  0.52185227117E+03  0.46999998093E+01 0. -1.
</event>
<event>
 5   0  0.1968763E-02  0.7454286E+03  0.7818609E-02  0.9642550E-01
       -2   -1    0    0    0  501  0.00000000000E+00  0.00000000000E+00  0.24149229606E+03  0.24149229608E+03  0.25500000920E-02 0. -1.
        2   -1    0    0  501    0  0.00000000000E+00  0.00000000000E+00 -0.57523968831E+03  0.57523968832E+03  0.25500000920E-02 0.  1.
    10030    2    1    2    0    0  0.00000000000E+00  0.00000000000E+00 -0.33374739225E+03  0.81673198439E+03  0.74542860993E+03 0.  0.
        2    1    3    3  502    0 -0.15488841540E+03  0.21987848392E+03 -0.44958429380E+03  0.52389217035E+03  0.25500000920E-02 0.  1.
       -2    1    3    3    0  502  0.15488841540E+03 -0.21987848392E+03  0.11583690155E+03  0.29283981404E+03  0.25500000920E-02 0. -1.
</event>
<event>
 5   0  0.1924218E-02  0.9465359E+03  0.7818609E-02  0.9369209E-01
       -2   -1    0    0    0  501  0.00000000000E+00  0.00000000000E+00  0.24400373160E+03  0.24400373161E+03  0.25500000920E-02 0.  1.
        2   -1    0    0  501    0  0.00000000000E+00  0.00000000000E+00 -0.91794719582E+03  0.91794719582E+03  0.25500000920E-02 0. -1.
    10030    2    1    2    0    0  0.00000000000E+00  0.00000000000E+00 -0.67394346422E+03  0.11619509274E+04  0.94653587614E+03 0.  0.
        4    1    3    3  502    0  0.13246101855E+03 -0.37826420392E+03 -0.27993327411E+02  0.40176481763E+03  0.12699999809E+01 0.  1.
       -4    1    3    3    0  502 -0.13246101855E+03  0.37826420392E+03 -0.64595013681E+03  0.76018610981E+03  0.12699999809E+01 0. -1.
</event>
<event>
 5   0  0.2008770E-02  0.8893995E+03  0.7818609E-02  0.9438930E-01
        2   -1    0    0  501    0  0.00000000000E+00  0.00000000000E+00  0.28137577676E+03  0.28137577678E+03  0.25500000920E-02 0.  1.
       -2   -1    0    0    0  501  0.00000000000E+00  0.00000000000E+00 -0.70282478246E+03  0.70282478247E+03  0.25500000920E-02 0. -1.
    10030    2    1    2    0    0  0.00000000000E+00  0.00000000000E+00 -0.42144900570E+03  0.98420055924E+03  0.88939950327E+03 0.  0.
        1    1    3    3  502    0  0.16346694796E+03  0.16479497664E+03 -0.63046946576E+03  0.67184118263E+03  0.50400001928E-02 0. -1.
       -1    1    3    3    0  502 -0.16346694796E+03 -0.16479497664E+03  0.20902046006E+03  0.31235937661E+03  0.50400001928E-02 0.  1.
</event>
<event>
 5   0  0.1226424E-02  0.8965289E+03  0.7818609E-02  0.9429931E-01
        1   -1    0    0  501    0  0.00000000000E+00  0.00000000000E+00  0.84143917125E+03  0.84143917127E+03  0.50400001928E-02 0.  1.
       -1   -1    0    0    0  501  0.00000000000E+00  0.00000000000E+00 -0.23880635897E+03  0.23880635902E+03  0.50400001928E-02 0. -1.
    10030    2    1    2    0    0  0.00000000000E+00  0.00000000000E+00  0.60263281228E+03  0.10802455303E+04  0.89652891714E+03 0.  0.
        1    1    3    3  502    0 -0.98797946565E+02  0.38568927079E+03  0.54949415520E+03  0.67857282179E+03  0.50400001928E-02 0.  1.
       -1    1    3    3    0  502  0.98797946565E+02 -0.38568927079E+03  0.53138657080E+02  0.40167270850E+03  0.50400001928E-02 0. -1.
</event>
<event>
 5   0  0.1177712E-02  0.9211374E+03  0.7818609E-02  0.9399538E-01
        1   -1    0    0  501    0  0.00000000000E+00  0.00000000000E+00  0.12874690007E+04  0.12874690007E+04  0.50400001928E-02 0.  1.
       -1   -1    0    0    0  501  0.00000000000E+00  0.00000000000E+00 -0.16476010432E+03  0.16476010440E+03  0.50400001928E-02 0. -1.
    10030    2    1    2    0    0  0.00000000000E+00  0.00000000000E+00  0.11227088964E+04  0.14522291051E+04  0.92113739894E+03 0.  0.
        5    1    3    3  502    0 -0.18309524226E+03  0.27324290591E+03  0.53134522404E+02  0.33321302621E+03  0.46999998093E+01 0. -1.
       -5    1    3    3    0  502  0.18309524226E+03 -0.27324290591E+03  0.10695743740E+04  0.11190160789E+04  0.46999998093E+01 0.  1.
</event>
<event>
 5   0  0.1162839E-02  0.9006178E+03  0.7818609E-02  0.9424809E-01
       -1   -1    0    0    0  501  0.00000000000E+00  0.00000000000E+00  0.32598577555E+03  0.32598577559E+03  0.50400001928E-02 0.  1.
        1   -1    0    0  501    0  0.00000000000E+00  0.00000000000E+00 -0.62204587326E+03  0.62204587328E+03  0.50400001928E-02 0. -1.
    10030    2    1    2    0    0  0.00000000000E+00  0.00000000000E+00 -0.29606009770E+03  0.94803164887E+03  0.90061780229E+03 0.  0.
        2    1    3    3  502    0  0.42121496932E+03 -0.56703705049E+02 -0.30466130561E+03  0.52293008298E+03  0.25500000920E-02 0. -1.
       -2    1    3    3    0  502 -0.42121496932E+03  0.56703705049E+02  0.86012079020E+01  0.42510156589E+03  0.25500000920E-02 0.  1.
</event>
<event>
 5   0  0.1177712E-02  0.8981597E+03  0.7818609E-02  0.9427885E-01
       -1   -1    0    0    0  501  0.00000000000E+00  0.00000000000E+00  0.14898073471E+03  0.14898073479E+03  0.50400001928E-02 0.  1.
        1   -1    0    0  501    0  0.00000000000E+00  0.00000000000E+00 -0.13536830644E+04  0.13536830644E+04  0.50400001928E-02 0. -1.
    10030    2    1    2    0    0  0.00000000000E+00  0.00000000000E+00 -0.12047023296E+04  0.15026637992E+04  0.89815966857E+03 0.  0.
        5    1    3    3  502    0 -0.21751885443E+02 -0.31585919829E+03 -0.69569112560E+02  0.32419458522E+03  0.46999998093E+01 0.  1.
       -5    1    3    3    0  502  0.21751885443E+02  0.31585919829E+03 -0.11351332171E+04  0.11784692139E+04  0.46999998093E+01 0. -1.
</event>
<event>
 5   0  0.2008770E-02  0.8846278E+03  0.7818609E-02  0.9445004E-01
        2   -1    0    0  501    0  0.00000000000E+00  0.00000000000E+00  0.96584535386E+03  0.96584535386E+03  0.25500000920E-02 0. -1.
       -2   -1    0    0    0  501  0.00000000000E+00  0.00000000000E+00 -0.20255993328E+03  0.20255993330E+03  0.25500000920E-02 0.  1.
    10030    2    1    2    0    0  0.00000000000E+00  0.00000000000E+00  0.76328542057E+03  0.11684052872E+04  0.88462776454E+03 0.  0.
        1    1    3    3  502    0  0.41776425093E+03  0.60497741354E+02  0.55613980521E+03  0.69819655473E+03  0.50400001928E-02 0. -1.
       -1    1    3    3    0  502 -0.41776425093E+03 -0.60497741354E+02  0.20714561536E+03  0.47020873243E+03  0.50400001928E-02 0.  1.
</event>
<event>
 5   0  0.1924218E-02  0.5728192E+03  0.7818609E-02  0.9963460E-01
        2   -1    0    0  501    0  0.00000000000E+00  0.00000000000E+00  0.25232693606E+03  0.25232693607E+03  0.25500000920E-02 0.  1.
       -2   -1    0    0    0  501  0.00000000000E+00  0.00000000000E+00 -0.32509590681E+03  0.32509590682E+03  0.25500000920E-02 0. -1.
    10030    2    1    2    0    0  0.00000000000E+00  0.00000000000E+00 -0.72768970755E+02  0.57742284290E+03  0.57281918298E+03 0.  0.
        4    1    3    3  502    0  0.23083861084E+03 -0.12977757247E+02  0.13401237305E+03  0.26723737663E+03  0.12699999809E+01 0.  1.
       -4    1    3    3    0  502 -0.23083861084E+03  0.12977757247E+02 -0.20678134380E+03  0.31018546627E+03  0.12699999809E+01 0. -1.
</event>
<event>
 5   0  0.1175993E-02  0.8234855E+03  0.7818609E-02  0.9526631E-01
       -1   -1    0    0    0  501  0.00000000000E+00  0.00000000000E+00  0.23684124324E+03  0.23684124329E+03  0.50400001928E-02 0. -1.
        1   -1    0    0  501    0  0.00000000000E+00  0.00000000000E+00 -0.71580483036E+03  0.71580483037E+03  0.50400001928E-02 0.  1.
    10030    2    1    2    0    0  0.00000000000E+00  0.00000000000E+00 -0.47896358712E+03  0.95264607367E+03  0.82348553350E+03 0.  0.
        4    1    3    3  502    0  0.10870796750E+03 -0.26744458710E+03  0.10013967730E+03  0.30557093651E+03  0.12699999809E+01 0. -1.
       -4    1    3    3    0  502 -0.10870796750E+03  0.26744458710E+03 -0.57910326442E+03  0.64707513716E+03  0.12699999809E+01 0.  1.
</event>
<event>
 5   0  0.1162839E-02  0.9541240E+03  0.7818609E-02  0.9360343E-01
        1   -1    0    0  501    0  0.00000000000E+00  0.00000000000E+00  0.11354049332E+04  0.11354049332E+04  0.50400001928E-02 0.  1.
       -1   -1    0    0    0  501  0.00000000000E+00  0.00000000000E+00 -0.20044666756E+03  0.20044666762E+03  0.50400001928E-02 0. -1.
    10030    2    1    2    0    0  0.00000000000E+00  0.00000000000E+00  0.93495826565E+03  0.13358516008E+04  0.95412396520E+03 0.  0.
        2    1    3    3  502    0 -0.29080400146E+03 -0.37487966872E+03  0.53729257959E+03  0.71678800867E+03  0.25500000920E-02 0.  1.
       -2    1    3    3    0  502  0.29080400146E+03  0.37487966872E+03  0.39766568607E+03  0.61906359218E+03  0.25500000920E-02 0. -1.
</event>
<event>
 5   0  0.1162839E-02  0.1051968E+04  0.7818609E-02  0.9253315E-01
       -1   -1    0    0    0  501  0.00000000000E+00  0.00000000000E+00  0.66418528718E+03  0.66418528720E+03  0.50400001928E-02 0.  1.
        1   -1    0    0  501    0  0.00000000000E+00  0.00000000000E+00 -0.41653884295E+03  0.41653884298E+03  0.50400001928E-02 0. -1.
    10030    2    1    2    0    0  0.00000000000E+00  0.00000000000E+00  0.24764644423E+03  0.10807241302E+04  0.10519676251E+04 0.  0.
        2    1    3    3  502    0  0.40962475623E+03 -0.24783681339E+03 -0.99946116473E+02  0.48908562971E+03  0.25500000920E-02 0. -1.
       -2    1    3    3    0  502 -0.40962475623E+03  0.24783681339E+03  0.34759256070E+03  0.59163850048E+03  0.25500000920E-02 0.  1.
</event>
<event>
 5   0  0.1968763E-02  0.8989951E+03  0.7818609E-02  0.9426839E-01
       -2   -1    0    0    0  501  0.00000000000E+00  0.00000000000E+00  0.20499117567E+03  0.20499117568E+03  0.25500000920E-02 0.  1.
        2   -1    0    0  501    0  0.00000000000E+00  0.00000000000E+00 -0.98564257899E+03  0.98564257900E+03  0.25500000920E-02 0. -1.
    10030    2    1    2    0    0  0.00000000000E+00  0.00000000000E+00 -0.78065140333E+03  0.11906337547E+04  0.89899506354E+03 0.  0.
        2    1    3    3  502    0  0.19773660005E+01  0.24339556922E+03  0.11015705651E+03  0.26717015214E+03  0.25500000920E-02 0.  1.
       -2    1    3    3    0  502 -0.19773660005E+01 -0.24339556922E+03 -0.89080845983E+03  0.92346360254E+03  0.25500000920E-02 0. -1.
</event>
<event>
 5   0  0.1175993E-02  0.9040752E+03  0.7818609E-02  0.9420501E-01
        1   -1    0    0  501    0  0.00000000000E+00  0.00000000000E+00  0.59466880320E+03  0.59466880323E+03  0.50400001928E-02 0.  1.
       -1   -1    0    0    0  501  0.00000000000E+00  0.00000000000E+00 -0.34361649170E+03  0.34361649174E+03  0.50400001928E-02 0. -1.
    10030    2    1    2    0    0  0.00000000000E+00  0.00000000000E+00  0.25105231151E+03  0.93828529496E+03  0.90407523560E+03 0.  0.
        4    1    3    3  502    0 -0.27678514297E+03  0.28632394273E+03 -0.96447817203E+02  0.40975017985E+03  0.12699999809E+01 0. -1.
       -4    1    3    3    0  502  0.27678514297E+03 -0.28632394273E+03  0.34750012871E+03  0.52853511511E+03  0.12699999809E+01 0.  1.
</event>
<event>
 5   0  0.1162839E-02  0.9023341E+03  0.7818609E-02  0.9422668E-01
        1   -1    0    0  501    0  0.00000000000E+00  0.00000000000E+00  0.31234533154E+03  0.31234533158E+03  0.50400001928E-02 0. -1.
       -1   -1    0    0    0  501  0.00000000000E+00  0.00000000000E+00 -0.65168803485E+03  0.65168803487E+03  0.50400001928E-02 0.  1.
    10030    2    1    2    0    0  0.00000000000E+00  0.00000000000E+00 -0.33934270331E+03  0.96403336645E+03  0.90233411846E+03 0.  0.
        2    1    3    3  502    0 -0.15121838521E+03 -0.95178765492E+02  0.27293319425E+03  0.32621852485E+03  0.25500000920E-02 0. -1.
       -2    1    3    3    0  502  0.15121838521E+03  0.95178765492E+02 -0.61227589756E+03  0.63781484160E+03  0.25500000920E-02 0.  1.
</event>
<event>
 5   0  0.1206541E-02  0.8962678E+03  0.7818609E-02  0.9430259E-01
       -1   -1    0    0    0  501  0.00000000000E+00  0.00000000000E+00  0.22880957288E+03  0.22880957294E+03  0.50400001928E-02 0. -1.
        1   -1    0    0  501    0  0.00000000000E+00  0.00000000000E+00 -0.87769061419E+03  0.87769061420E+03  0.50400001928E-02 0.  1.
    10030    2    1    2    0    0  0.00000000000E+00  0.00000000000E+00 -0.64888104130E+03  0.11065001871E+04  0.89626784968E+03 0.  0.
        3    1    3    3  502    0  0.35461200745E+03  0.26454758239E+03 -0.41251008637E+03  0.60489642149E+03  0.10100000352E+00 0. -1.
       -3    1    3    3    0  502 -0.35461200745E+03 -0.26454758239E+03 -0.23637095493E+03  0.50160376564E+03  0.10100000352E+00 0.  1.
</event>
<event>
 5   0  0.1175993E-02  0.6363738E+03  0.7818609E-02  0.9832689E-01
        1   -1    0    0  501    0  0.00000000000E+00  0.00000000000E+00  0.14239103747E+04  0.14239103747E+04  0.50400001928E-02 0.  1.
       -1   -1    0    0    0  501  0.00000000000E+00  0.00000000000E+00 -0.71102010792E+02  0.71102010971E+02  0.50400001928E-02 0. -1.
    10030    2    1    2    0    0  0.00000000000E+00  0.00000000000E+00  0.13528083639E+04  0.14950123857E+04  0.63637376114E+03 0.  0.
        4    1    3    3  502    0  0.30423700753E+03  0.92760309599E+02  0.65583684462E+03  0.72889519922E+03  0.12699999809E+01 0. -1.
       -4    1    3    3    0  502 -0.30423700753E+03 -0.92760309599E+02  0.69697151927E+03  0.76611718644E+03  0.12699999809E+01 0.  1.
</event>
<event>
 5   0  0.1924218E-02  0.8961179E+03  0.7818609E-02  0.9430447E-01
        2   -1    0    0  501    0  0.00000000000E+00  0.00000000000E+00  0.14530192820E+04  0.14530192820E+04  0.25500000920E-02 0.  1.
       -2   -1    0    0    0  501  0.00000000000E+00  0.00000000000E+00 -0.13816529416E+03  0.13816529419E+03  0.25500000920E-02 0. -1.
    10030    2    1    2    0    0  0.00000000000E+00  0.00000000000E+00  0.13148539878E+04  0.15911845762E+04  0.89611793094E+03 0.  0.
        4    1    3    3  502    0 -0.27504973384E+03  0.25253184250E+03  0.21768922023E+03  0.43222088921E+03  0.12699999809E+01 0. -1.
       -4    1    3    3    0  502  0.27504973384E+03 -0.25253184250E+03  0.10971647676E+04  0.11589636870E+04  0.12699999809E+01 0.  1.
</event>
<event>
 5   0  0.1968763E-02  0.6053560E+03  0.7818609E-02  0.9894356E-01
        2   -1    0    0  501    0  0.00000000000E+00  0.00000000000E+00  0.23219484452E+03  0.23219484454E+03  0.25500000920E-02 0. -1.
       -2   -1    0    0    0  501  0.00000000000E+00  0.00000000000E+00 -0.39455641474E+03  0.39455641475E+03  0.25500000920E-02 0.  1.
    10030    2    1    2    0    0  0.00000000000E+00  0.00000000000E+00 -0.16236157022E+03  0.62675125929E+03  0.60535597918E+03 0.  0.
        2    1    3    3  502    0 -0.20181876633E+03  0.16110494442E+02 -0.31412981399E+03  0.37372169126E+03  0.25500000920E-02 0.  1.
       -2    1    3    3    0  502  0.20181876633E+03 -0.16110494442E+02  0.15176824377E+03  0.25302956803E+03  0.25500000920E-02 0. -1.
</event>
<event>
 5   0  0.2041861E-02  0.9102873E+03  0.7818609E-02  0.9412812E-01
       -2   -1    0    0    0  501  0.00000000000E+00  0.00000000000E+00  0.23981741858E+03  0.23981741859E+03  0.25500000920E-02 0.  1.
        2   -1    0    0  501    0  0.00000000000E+00  0.00000000000E+00 -0.86380605496E+03  0.86380605496E+03  0.25500000920E-02 0. -1.
    10030    2    1    2    0    0  0.00000000000E+00  0.00000000000E+00 -0.62398863638E+03  0.11036234736E+04  0.91028729149E+03 0.  0.
        5    1    3    3  502    0 -0.10591204703E+02 -0.80177130680E+02  0.23100645395E+03  0.24479913739E+03  0.46999998093E+01 0.  1.
       -5    1    3    3    0  502  0.10591204703E+02  0.80177130680E+02 -0.85499509033E+03  0.85882433617E+03  0.46999998093E+01 0. -1.
</event>
<event>
 5   0  0.2008643E-02  0.7709456E+03  0.7818609E-02  0.9603051E-01
        2   -1    0    0  501    0  0.00000000000E+00  0.00000000000E+00  0.66928622011E+03  0.66928622012E+03  0.25500000920E-02 0.  1.
       -2   -1    0    0    0  501  0.00000000000E+00  0.00000000000E+00 -0.22201155728E+03  0.22201155730E+03  0.25500000920E-02 0. -1.
    10030    2    1    2    0    0  0.00000000000E+00  0.00000000000E+00  0.44727466283E+03  0.89129777741E+03  0.77094559082E+03 0.  0.
        3    1    3    3  502    0 -0.23244241959E+03 -0.26777073727E+03  0.48844307725E+02  0.35793354517E+03  0.10100000352E+00 0. -1.
       -3    1    3    3    0  502  0.23244241959E+03  0.26777073727E+03  0.39843035510E+03  0.53336423224E+03  0.10100000352E+00 0.  1.
</event>
<event>
 5   0  0.2008770E-02  0.8092379E+03  0.7818609E-02  0.9546741E-01
       -2   -1    0    0    0  501  0.00000000000E+00  0.00000000000E+00  0.43568124923E+03  0.43568124924E+03  0.25500000920E-02 0. -1.
        2   -1    0    0  501    0  0.00000000000E+00  0.00000000000E+00 -0.37577124213E+03  0.37577124214E+03  0.25500000920E-02 0.  1.
    10030    2    1    2    0    0  0.00000000000E+00  0.00000000000E+00  0.59910007097E+02  0.81145249138E+03  0.80923787406E+03 0.  0.
        1    1    3    3  502    0  0.27588964614E+03  0.39140061286E+02  0.32413381810E+03  0.42744563784E+03  0.50400001928E-02 0. -1.
       -1    1    3    3    0  502 -0.27588964614E+03 -0.39140061286E+02 -0.26422381100E+03  0.38400685355E+03  0.50400001928E-02 0.  1.
</event>
<event>
 5   0  0.1206541E-02  0.9136341E+03  0.7818609E-02  0.9408697E-01
        1   -1    0    0  501    0  0.00000000000E+00  0.00000000000E+00  0.10605630054E+04  0.10605630054E+04  0.50400001928E-02 0.  1.
       -1   -1    0    0    0  501  0.00000000000E+00  0.00000000000E+00 -0.19676514210E+03  0.19676514216E+03  0.50400001928E-02 0. -1.
    10030    2    1    2    0    0  0.00000000000E+00  0.00000000000E+00  0.86379786331E+03  0.12573281476E+04  0.91363412920E+03 0.  0.
        3    1    3    3  502    0  0.37312598815E+03 -0.19301028126E+03  0.67886864472E+03  0.79833490384E+03  0.10100000352E+00 0.  1.
       -3    1    3    3    0  502 -0.37312598815E+03  0.19301028126E+03  0.18492921859E+03  0.45899324374E+03  0.10100000352E+00 0. -1.
</event>
<event>
 5   0  0.1226424E-02  0.8959049E+03  0.7818609E-02  0.9430715E-01
        1   -1    0    0  501    0  0.00000000000E+00  0.00000000000E+00  0.38945656062E+03  0.38945656066E+03  0.50400001928E-02 0.  1.
       -1   -1    0    0    0  501  0.00000000000E+00  0.00000000000E+00 -0.51523431366E+03  0.51523431369E+03  0.50400001928E-02 0. -1.
    10030    2    1    2    0    0  0.00000000000E+00  0.00000000000E+00 -0.12577775304E+03  0.90469087434E+03  0.89590486937E+03 0.  0.
        1    1    3    3  502    0 -0.31797189588E+03 -0.50357673852E+02 -0.37742281956E+03  0.49607459785E+03  0.50400001928E-02 0. -1.
       -1    1    3    3    0  502  0.31797189588E+03  0.50357673852E+02  0.25164506652E+03  0.40861627649E+03  0.50400001928E-02 0.  1.
</event>
<event>
 5   0  0.2008643E-02  0.9146869E+03  0.7818609E-02  0.9407406E-01
       -2   -1    0    0    0  501  0.00000000000E+00  0.00000000000E+00  0.19794824456E+03  0.19794824458E+03  0.25500000920E-02 0. -1.
        2   -1    0    0  501    0  0.00000000000E+00  0.00000000000E+00 -0.10566551946E+04  0.10566551946E+04  0.25500000920E-02 0.  1.
    10030    2    1    2    0    0  0.00000000000E+00  0.00000000000E+00 -0.85870695005E+03  0.12546034392E+04  0.91468692106E+03 0.  0.
        3    1    3    3  502    0 -0.13389416668E+03 -0.24630714897E+03 -0.92497785923E+03  0.96652931139E+03  0.10100000352E+00 0.  1.
       -3    1    3    3    0  502  0.13389416668E+03  0.24630714897E+03  0.66270909180E+02  0.28807412780E+03  0.10100000352E+00 0. -1.
</event>
<event>
 5   0  0.1162839E-02  0.8791968E+03  0.7818609E-02  0.9451967E-01
        1   -1    0    0  501    0  0.00000000000E+00  0.00000000000E+00  0.17715134114E+04  0.17715134114E+04  0.50400001928E-02 0. -1.
       -1   -1    0    0    0  501  0.00000000000E+00  0.00000000000E+00 -0.10908568329E+03  0.10908568341E+03  0.50400001928E-02 0.  1.
    10030    2    1    2    0    0  0.00000000000E+00  0.00000000000E+00  0.16624277281E+04  0.18805990948E+04  0.87919679494E+03 0.  0.
        2    1    3    3  502    0 -0.36790044210E+02  0.40805878438E+03  0.11719881526E+04  0.12415400552E+04  0.25500000920E-02 0. -1.
       -2    1    3    3    0  502  0.36790044210E+02 -0.40805878438E+03  0.49043957554E+03  0.63905903962E+03  0.25500000920E-02 0.  1.
</event>
<event>
 5   0  0.2008770E-02  0.8602591E+03  0.7818609E-02  0.9476670E-01
        2   -1    0    0  501    0  0.00000000000E+00  0.00000000000E+00  0.22142030117E+04  0.22142030117E+04  0.25500000920E-02 0.  1.
       -2   -1    0    0    0  501  0.00000000000E+00  0.00000000000E+00 -0.83556669054E+02  0.83556669093E+02  0.25500000920E-02 0. -1.
    10030    2    1    2    0    0  0.00000000000E+00  0.00000000000E+00  0.21306463427E+04  0.22977596808E+04  0.86025909659E+03 0.  0.
        1    1    3    3  502    0  0.15241456404E+03  0.46547237277E+02 -0.17927892616E+01  0.15937395882E+03  0.50400001928E-02 0. -1.
       -1    1    3    3    0  502 -0.15241456404E+03 -0.46547237277E+02  0.21324391320E+04  0.21383857220E+04  0.50400001928E-02 0.  1.
</event>
<event>
 5   0  0.2008643E-02  0.8950062E+03  0.7818609E-02  0.9431846E-01
        2   -1    0    0  501    0  0.00000000000E+00  0.00000000000E+00  0.55134217936E+03  0.55134217936E+03  0.25500000920E-02 0. -1.
       -2   -1    0    0    0  501  0.00000000000E+00  0.00000000000E+00 -0.36322094256E+03  0.36322094257E+03  0.25500000920E-02 0.  1.
    10030    2    1    2    0    0  0.00000000000E+00  0.00000000000E+00  0.18812123680E+03  0.91456312193E+03  0.89500620348E+03 0.  0.
        3    1    3    3  502    0  0.17052589372E+03 -0.36159461163E+03 -0.11140331683E+03  0.41501861740E+03  0.10100000352E+00 0.  1.
       -3    1    3    3    0  502 -0.17052589372E+03  0.36159461163E+03  0.29952455362E+03  0.49954450453E+03  0.10100000352E+00 0. -1.
</event>
<event>
 5   0  0.7893875E-03  0.9218202E+03  0.7818609E-02  0.9398709E-01
        3   -1    0    0  501    0  0.00000000000E+00  0.00000000000E+00  0.68776693043E+03  0.68776693785E+03  0.10100000352E+00 0.  1.
       -3   -1    0    0    0  501  0.00000000000E+00  0.00000000000E+00 -0.30888092466E+03  0.30888094117E+03  0.10100000352E+00 0. -1.
    10030    2    1    2    0    0  0.00000000000E+00  0.00000000000E+00  0.37888600578E+03  0.99664787902E+03  0.92182015023E+03 0.  0.
        3    1    3    3  502    0 -0.33545188396E+03 -0.20497969796E+03 -0.70698858264E+02  0.39942831872E+03  0.10100000352E+00 0. -1.
       -3    1    3    3    0  502  0.33545188396E+03  0.20497969796E+03  0.44958486404E+03  0.59721956030E+03  0.10100000352E+00 0.  1.
</event>
<event>
 5   0  0.1226424E-02  0.9459010E+03  0.7818609E-02  0.9369955E-01
        1   -1    0    0  501    0  0.00000000000E+00  0.00000000000E+00  0.39701141863E+03  0.39701141866E+03  0.50400001928E-02 0.  1.
       -1   -1    0    0    0  501  0.00000000000E+00  0.00000000000E+00 -0.56341496303E+03  0.56341496305E+03  0.50400001928E-02 0. -1.
    10030    2    1    2    0    0  0.00000000000E+00  0.00000000000E+00 -0.16640354440E+03  0.96042638171E+03  0.94590099646E+03 0.  0.
        1    1    3    3  502    0 -0.24264546382E+02  0.43077640352E+02 -0.56078381358E+03  0.56295908991E+03  0.50400001928E-02 0. -1.
       -1    1    3    3    0  502  0.24264546382E+02 -0.43077640352E+02  0.39438026918E+03  0.39746729180E+03  0.50400001928E-02 0.  1.
</event>
<event>
 5   0  0.2008643E-02  0.8948261E+03  0.7818609E-02  0.9432072E-01
       -2   -1    0    0    0  501  0.00000000000E+00  0.00000000000E+00  0.50170684947E+03  0.50170684947E+03  0.25500000920E-02 0. -1.
        2   -1    0    0  501    0  0.00000000000E+00  0.00000000000E+00 -0.39899481911E+03  0.39899481912E+03  0.25500000920E-02 0.  1.
    10030    2    1    2    0    0  0.00000000000E+00  0.00000000000E+00  0.10271203036E+03  0.90070166859E+03  0.89482609183E+03 0.  0.
        3    1    3    3  502    0  0.32071989016E+03  0.51178586748E+02  0.36110690747E+03  0.48567345461E+03  0.10100000352E+00 0. -1.
       -3    1    3    3    0  502 -0.32071989016E+03 -0.51178586748E+02 -0.25839487711E+03  0.41502821398E+03  0.10100000352E+00 0.  1.
</event>
<event>
 5   0  0.2008770E-02  0.8340364E+03  0.7818609E-02  0.9512017E-01
        2   -1    0    0  501    0  0.00000000000E+00  0.00000000000E+00  0.12963849959E+04  0.12963849959E+04  0.25500000920E-02 0.  1.
       -2   -1    0    0    0  501  0.00000000000E+00  0.00000000000E+00 -0.13414548854E+03  0.13414548856E+03  0.25500000920E-02 0. -1.
    10030    2    1    2    0    0  0.00000000000E+00  0.00000000000E+00  0.11622395074E+04  0.14305304845E+04  0.83403644675E+03 0.  0.
        1    1    3    3  502    0  0.73610460270E+02  0.10646232590E+03 -0.98821378628E+02  0.16284468550E+03  0.50400001928E-02 0. -1.
       -1    1    3    3    0  502 -0.73610460270E+02 -0.10646232590E+03  0.12610608860E+04  0.12676857990E+04  0.50400001928E-02 0.  1.
</event>
<event>
 5   0  0.1162839E-02  0.8915259E+03  0.7818609E-02  0.9436237E-01
       -1   -1    0    0    0  501  0.00000000000E+00  0.00000000000E+00  0.27771935033E+03  0.27771935037E+03  0.50400001928E-02 0. -1.
        1   -1    0    0  501    0  0.00000000000E+00  0.00000000000E+00 -0.71548712882E+03  0.71548712883E+03  0.50400001928E-02 0.  1.
    10030    2    1    2    0    0  0.00000000000E+00  0.00000000000E+00 -0.43776777849E+03  0.99320647921E+03  0.89152592921E+03 0.  0.
        2    1    3    3  502    0  0.16369161342E+03 -0.11116079511E+03  0.22611403975E+03  0.30046501569E+03  0.25500000920E-02 0. -1.
       -2    1    3    3    0  502 -0.16369161342E+03  0.11116079511E+03 -0.66388181824E+03  0.69274146352E+03  0.25500000920E-02 0.  1.
</event>
<event>
 5   0  0.1924218E-02  0.9081912E+03  0.7818609E-02  0.9415400E-01
       -2   -1    0    0    0  501  0.00000000000E+00  0.00000000000E+00  0.32084306564E+03  0.32084306565E+03  0.25500000920E-02 0. -1.
        2   -1    0    0  501    0  0.00000000000E+00  0.00000000000E+00 -0.64269058201E+03  0.64269058201E+03  0.25500000920E-02 0.  1.
    10030    2    1    2    0    0  0.00000000000E+00  0.00000000000E+00 -0.32184751637E+03  0.96353364767E+03  0.90819120586E+03 0.  0.
        4    1    3    3  502    0 -0.38214145630E+03 -0.16798053963E+03 -0.35056650365E+03  0.54511286968E+03  0.12699999809E+01 0.  1.
       -4    1    3    3    0  502  0.38214145630E+03  0.16798053963E+03  0.28718987277E+02  0.41842077798E+03  0.12699999809E+01 0. -1.
</event>
<event>
 5   0  0.1968763E-02  0.9023214E+03  0.7818609E-02  0.9422684E-01
       -2   -1    0    0    0  501  0.00000000000E+00  0.00000000000E+00  0.20791718653E+03  0.20791718655E+03  0.25500000920E-02 0. -1.
        2   -1    0    0  501    0  0.00000000000E+00  0.00000000000E+00 -0.97897613275E+03  0.97897613275E+03  0.25500000920E-02 0.  1.
    10030    2    1    2    0    0  0.00000000000E+00  0.00000000000E+00 -0.77105894622E+03  0.11868933193E+04  0.90232136895E+03 0.  0.
        2    1    3    3  502    0  0.30184123471E+02 -0.44356291093E+03 -0.48645267964E+03  0.65901088519E+03  0.25500000920E-02 0. -1.
       -2    1    3    3    0  502 -0.30184123471E+02  0.44356291093E+03 -0.28460626658E+03  0.52788243411E+03  0.25500000920E-02 0.  1.
</event>
<event>
 5   0  0.1206541E-02  0.8285629E+03  0.7818609E-02  0.9519570E-01
        1   -1    0    0  501    0  0.00000000000E+00  0.00000000000E+00  0.20617581832E+03  0.20617581838E+03  0.50400001928E-02 0. -1.
       -1   -1    0    0    0  501  0.00000000000E+00  0.00000000000E+00 -0.83244053344E+03  0.83244053345E+03  0.50400001928E-02 0.  1.
    10030    2    1    2    0    0  0.00000000000E+00  0.00000000000E+00 -0.62626471512E+03  0.10386163518E+04  0.82856287202E+03 0.  0.
        3    1    3    3  502    0 -0.34195842718E+02 -0.29113841618E+03  0.53824872154E+02  0.29804036656E+03  0.10100000352E+00 0. -1.
       -3    1    3    3    0  502  0.34195842718E+02  0.29113841618E+03 -0.68008958728E+03  0.74057598527E+03  0.10100000352E+00 0.  1.
</event>
<event>
 5   0  0.1175993E-02  0.9052162E+03  0.7818609E-02  0.9419084E-01
       -1   -1    0    0    0  501  0.00000000000E+00  0.00000000000E+00  0.30914176696E+03  0.30914176700E+03  0.50400001928E-02 0.  1.
        1   -1    0    0  501    0  0.00000000000E+00  0.00000000000E+00 -0.66265427787E+03  0.66265427788E+03  0.50400001928E-02 0. -1.
    10030    2    1    2    0    0  0.00000000000E+00  0.00000000000E+00 -0.35351251090E+03  0.97179604489E+03  0.90521624902E+03 0.  0.
        4    1    3    3  502    0 -0.10522542478E+03  0.17639101961E+02 -0.64895893785E+03  0.65767229215E+03  0.12699999809E+01 0. -1.
       -4    1    3    3    0  502  0.10522542478E+03 -0.17639101961E+02  0.29544642695E+03  0.31412375274E+03  0.12699999809E+01 0.  1.
</event>
<event>
 5   0  0.1177712E-02  0.9047046E+03  0.7818609E-02  0.9419719E-01
       -1   -1    0    0    0  501  0.00000000000E+00  0.00000000000E+00  0.20223795277E+03  0.20223795283E+03  0.50400001928E-02 0. -1.
        1   -1    0    0  501    0  0.00000000000E+00  0.00000000000E+00 -0.10117912867E+04  0.10117912867E+04  0.50400001928E-02 0.  1.
    10030    2    1    2    0    0  0.00000000000E+00  0.00000000000E+00 -0.80955333396E+03  0.12140292396E+04  0.90470458936E+03 0.  0.
        5    1    3    3  502    0 -0.37657740185E+03  0.37635923061E+02 -0.73721632031E+03  0.82869596066E+03  0.46999998093E+01 0.  1.
       -5    1    3    3    0  502  0.37657740185E+03 -0.37635923061E+02 -0.72337013648E+02  0.38533327891E+03  0.46999998093E+01 0. -1.
</event>
<event>
 5   0  0.1175993E-02  0.8987085E+03  0.7818609E-02  0.9427197E-01
        1   -1    0    0  501    0  0.00000000000E+00  0.00000000000E+00  0.59662857311E+03  0.59662857313E+03  0.50400001928E-02 0. -1.
       -1   -1    0    0    0  501  0.00000000000E+00  0.00000000000E+00 -0.33843375111E+03  0.33843375115E+03  0.50400001928E-02 0.  1.
    10030    2    1    2    0    0  0.00000000000E+00  0.00000000000E+00  0.25819482200E+03  0.93506232427E+03  0.89870850901E+03 0.  0.
        4    1    3    3  502    0  0.17342161137E+03 -0.11992679030E+03  0.54196142019E+03  0.58153356240E+03  0.12699999809E+01 0. -1.
       -4    1    3    3    0  502 -0.17342161137E+03  0.11992679030E+03 -0.28376659819E+03  0.35352876187E+03  0.12699999809E+01 0.  1.
</event>
<event>
 5   0  0.1226424E-02  0.8931624E+03  0.7818609E-02  0.9434169E-01
        1   -1    0    0  501    0  0.00000000000E+00  0.00000000000E+00  0.62092678597E+03  0.62092678599E+03  0.50400001928E-02 0.  1.
       -1   -1    0    0    0  501  0.00000000000E+00  0.00000000000E+00 -0.32118883744E+03  0.32118883748E+03  0.50400001928E-02 0. -1.
    10030    2    1    2    0    0  0.00000000000E+00  0.00000000000E+00  0.29973794853E+03  0.94211562347E+03  0.89316236497E+03 0.  0.
        1    1    3    3  502    0  0.14521655032E+03 -0.90348482831E+02  0.58501320318E+03  0.60950073237E+03  0.50400001928E-02 0.  1.
       -1    1    3    3    0  502 -0.14521655032E+03  0.90348482831E+02 -0.28527525465E+03  0.33261489110E+03  0.50400001928E-02 0. -1.
</event>
<event>
 5   0  0.2041861E-02  0.9824702E+03  0.7818609E-02  0.9327983E-01
        2   -1    0    0  501    0  0.00000000000E+00  0.00000000000E+00  0.15996181604E+04  0.15996181604E+04  0.25500000920E-02 0.  1.
       -2   -1    0    0    0  501  0.00000000000E+00  0.00000000000E+00 -0.15085596572E+03  0.15085596574E+03  0.25500000920E-02 0. -1.
    10030    2    1    2    0    0  0.00000000000E+00  0.00000000000E+00  0.14487621947E+04  0.17504741261E+04  0.98247023852E+03 0.  0.
        5    1    3    3  502    0 -0.48208849254E+03  0.67988053775E+02  0.60811652515E+03  0.77901186657E+03  0.46999998093E+01 0.  1.
       -5    1    3    3    0  502  0.48208849254E+03 -0.67988053775E+02  0.84064566951E+03  0.97146225957E+03  0.46999998093E+01 0. -1.
</event>
<event>
 5   0  0.1175993E-02  0.9063721E+03  0.7818609E-02  0.9417651E-01
        1   -1    0    0  501    0  0.00000000000E+00  0.00000000000E+00  0.10336159306E+04  0.10336159306E+04  0.50400001928E-02 0. -1.
       -1   -1    0    0    0  501  0.00000000000E+00  0.00000000000E+00 -0.19869817285E+03  0.19869817292E+03  0.50400001928E-02 0.  1.
    10030    2    1    2    0    0  0.00000000000E+00  0.00000000000E+00  0.83491775777E+03  0.12323141035E+04  0.90637210216E+03 0.  0.
        4    1    3    3  502    0  0.28341721916E+03 -0.85190025431E+02 -0.49173882931E+02  0.30000390699E+03  0.12699999809E+01 0.  1.
       -4    1    3    3    0  502 -0.28341721916E+03  0.85190025431E+02  0.88409164070E+03  0.93231019656E+03  0.12699999809E+01 0. -1.
</event>
<event>
 5   0  0.2041861E-02  0.9028286E+03  0.7818609E-02  0.9422052E-01
       -2   -1    0    0    0  501  0.00000000000E+00  0.00000000000E+00  0.62545182901E+03  0.62545182902E+03  0.25500000920E-02 0.  1.
        2   -1    0    0  501    0  0.00000000000E+00  0.00000000000E+00 -0.32580424207E+03  0.32580424208E+03  0.25500000920E-02 0. -1.
    10030    2    1    2    0    0  0.00000000000E+00  0.00000000000E+00  0.29964758694E+03  0.95125607110E+03  0.90282857534E+03 0.  0.
        5    1    3    3  502    0  0.18496638304E+03  0.15597088963E+02  0.58335133761E+03  0.61219008905E+03  0.46999998093E+01 0.  1.
       -5    1    3    3    0  502 -0.18496638304E+03 -0.15597088963E+02 -0.28370375067E+03  0.33906598205E+03  0.46999998093E+01 0. -1.
</event>
<event>
 5   0  0.2008643E-02  0.8967235E+03  0.7818609E-02  0.9429687E-01
        2   -1    0    0  501    0  0.00000000000E+00  0.00000000000E+00  0.35415852161E+03  0.35415852162E+03  0.25500000920E-02 0.  1.
       -2   -1    0    0    0  501  0.00000000000E+00  0.00000000000E+00 -0.56762222848E+03  0.56762222848E+03  0.25500000920E-02 0. -1.
    10030    2    1    2    0    0  0.00000000000E+00  0.00000000000E+00 -0.21346370687E+03  0.92178075010E+03  0.89672347862E+03 0.  0.
        3    1    3    3  502    0  0.21089119170E+03  0.39451006456E+03 -0.13782527805E+03  0.46809091344E+03  0.10100000352E+00 0. -1.
       -3    1    3    3    0  502 -0.21089119170E+03 -0.39451006456E+03 -0.75638428818E+02  0.45368983666E+03  0.10100000352E+00 0.  1.
</event>
<event>
 5   0  0.2008643E-02  0.9028248E+03  0.7818609E-02  0.9422057E-01
        2   -1    0    0  501    0  0.00000000000E+00  0.00000000000E+00  0.32845115393E+03  0.32845115394E+03  0.25500000920E-02 0.  1.
       -2   -1    0    0    0  501  0.00000000000E+00  0.00000000000E+00 -0.62040628156E+03  0.62040628157E+03  0.25500000920E-02 0. -1.
    10030    2    1    2    0    0  0.00000000000E+00  0.00000000000E+00 -0.29195512763E+03  0.94885743551E+03  0.90282480934E+03 0.  0.
        3    1    3    3  502    0 -0.12005475806E+03 -0.22251920858E+03 -0.53900355488E+03  0.59535937508E+03  0.10100000352E+00 0. -1.
       -3    1    3    3    0  502  0.12005475806E+03  0.22251920858E+03  0.24704842725E+03  0.35349806043E+03  0.10100000352E+00 0.  1.
</event>
<event>
 5   0  0.1177712E-02  0.9025005E+03  0.7818609E-02  0.9422461E-01
       -1   -1    0    0    0  501  0.00000000000E+00  0.00000000000E+00  0.64052699536E+03  0.64052699538E+03  0.50400001928E-02 0. -1.
        1   -1    0    0  501    0  0.00000000000E+00  0.00000000000E+00 -0.31790511677E+03  0.31790511681E+03  0.50400001928E-02 0.  1.
    10030    2    1    2    0    0  0.00000000000E+00  0.00000000000E+00  0.32262187859E+03  0.95843211219E+03  0.90250054688E+03 0.  0.
        5    1    3    3  502    0 -0.45133717363E+02  0.34660877515E+03  0.46435526983E+03  0.58122508727E+03  0.46999998093E+01 0. -1.
       -5    1    3    3    0  502  0.45133717363E+02 -0.34660877515E+03 -0.14173339124E+03  0.37720702491E+03  0.46999998093E+01 0.  1.
</event>
<event>
 5   0  0.2041861E-02  0.8770779E+03  0.7818609E-02  0.9454698E-01
       -2   -1    0    0    0  501  0.00000000000E+00  0.00000000000E+00  0.35893526984E+03  0.35893526984E+03  0.25500000920E-02 0.  1.
        2   -1    0    0  501    0  0.00000000000E+00  0.00000000000E+00 -0.53579688208E+03  0.53579688209E+03  0.25500000920E-02 0. -1.
    10030    2    1    2    0    0  0.00000000000E+00  0.00000000000E+00 -0.17686161224E+03  0.89473215193E+03  0.87707787215E+03 0.  0.
        5    1    3    3  502    0 -0.28217932382E+03  0.22870925742E+03  0.16219966457E+03  0.39782397666E+03  0.46999998093E+01 0.  1.
       -5    1    3    3    0  502  0.28217932382E+03 -0.22870925742E+03 -0.33906127681E+03  0.49690817527E+03  0.46999998093E+01 0. -1.
</event>
<event>
 5   0  0.2008643E-02  0.8976639E+03  0.7818609E-02  0.9428506E-01
        2   -1    0    0  501    0  0.00000000000E+00  0.00000000000E+00  0.79925777999E+03  0.79925777999E+03  0.25500000920E-02 0.  1.
       -2   -1    0    0    0  501  0.00000000000E+00  0.00000000000E+00 -0.25204650650E+03  0.25204650651E+03  0.25500000920E-02 0. -1.
    10030    2    1    2    0    0  0.00000000000E+00  0.00000000000E+00  0.54721127349E+03  0.10513042865E+04  0.89766392652E+03 0.  0.
        3    1    3    3  502    0  0.19830080468E+03  0.10768899183E+03  0.72799293503E+03  0.76216392709E+03  0.10100000352E+00 0.  1.
       -3    1    3    3    0  502 -0.19830080468E+03 -0.10768899183E+03 -0.18078166154E+03  0.28914035942E+03  0.10100000352E+00 0. -1.
</event>
<event>
 5   0  0.1226424E-02  0.8908454E+03  0.7818609E-02  0.9437098E-01
        1   -1    0    0  501    0  0.00000000000E+00  0.00000000000E+00  0.11012800398E+04  0.11012800398E+04  0.50400001928E-02 0. -1.
       -1   -1    0    0    0  501  0.00000000000E+00  0.00000000000E+00 -0.18015526080E+03  0.18015526087E+03  0.50400001928E-02 0.  1.
    10030    2    1    2    0    0  0.00000000000E+00  0.00000000000E+00  0.92112477902E+03  0.12814353007E+04  0.89084542506E+03 0.  0.
        1    1    3    3  502    0  0.67137048034E+02  0.38946859873E+03  0.75608645277E+03  0.85314705456E+03  0.50400001928E-02 0. -1.
       -1    1    3    3    0  502 -0.67137048034E+02 -0.38946859873E+03  0.16503832624E+03  0.42828824613E+03  0.50400001928E-02 0.  1.
</event>
<event>
 5   0  0.1206541E-02  0.7445385E+03  0.7818609E-02  0.9643958E-01
       -1   -1    0    0    0  501  0.00000000000E+00  0.00000000000E+00  0.42680796959E+03  0.42680796962E+03  0.50400001928E-02 0. -1.
        1   -1    0    0  501    0  0.00000000000E+00  0.00000000000E+00 -0.32469961526E+03  0.32469961529E+03  0.50400001928E-02 0.  1.
    10030    2    1    2    0    0  0.00000000000E+00  0.00000000000E+00  0.10210835433E+03  0.75150758491E+03  0.74453847057E+03 0.  0.
        3    1    3    3  502    0 -0.10665953264E+03 -0.20643226382E+03  0.34462682490E+03  0.41564190608E+03  0.10100000352E+00 0. -1.
       -3    1    3    3    0  502  0.10665953264E+03  0.20643226382E+03 -0.24251847057E+03  0.33586567883E+03  0.10100000352E+00 0.  1.
</event>
<event>
 5   0  0.1162839E-02  0.8886911E+03  0.7818609E-02  0.9439830E-01
       -1   -1    0    0    0  501  0.00000000000E+00  0.00000000000E+00  0.44001800368E+03  0.44001800370E+03  0.50400001928E-02 0. -1.
        1   -1    0    0  501    0  0.00000000000E+00  0.00000000000E+00 -0.44871563362E+03  0.44871563364E+03  0.50400001928E-02 0.  1.
    10030    2    1    2    0    0  0.00000000000E+00  0.00000000000E+00 -0.86976299403E+01  0.88873363735E+03  0.88869107647E+03 0.  0.
        2    1    3    3  502    0 -0.20863773285E+03 -0.28303915845E+03 -0.27602722364E+03  0.44702561110E+03  0.25500000920E-02 0. -1.
       -2    1    3    3    0  502  0.20863773285E+03  0.28303915845E+03  0.26732959370E+03  0.44170802625E+03  0.25500000920E-02 0.  1.
</event>
<event>
 5   0  0.7893875E-03  0.8743886E+03  0.7818609E-02  0.9458176E-01
       -3   -1    0    0    0  501  0.00000000000E+00  0.00000000000E+00  0.23842439605E+03  0.23842441744E+03  0.10100000352E+00 0.  1.
        3   -1    0    0  501    0  0.00000000000E+00  0.00000000000E+00 -0.80167477047E+03  0.80167477683E+03  0.10100000352E+00 0. -1.
    10030    2    1    2    0    0  0.00000000000E+00  0.00000000000E+00 -0.56325037442E+03  0.10400991943E+04  0.87438855759E+03 0.  0.
        1    1    3    3  502    0 -0.79410432337E+02 -0.38475900718E+03 -0.50979323388E+03  0.64361063672E+03  0.50400001928E-02 0. -1.
       -1    1    3    3    0  502  0.79410432337E+02  0.38475900718E+03 -0.53457140541E+02  0.39648855755E+03  0.50400001928E-02 0.  1.
</event>
<event>
 5   0  0.2008770E-02  0.8634070E+03  0.7818609E-02  0.9472517E-01
        2   -1    0    0  501    0  0.00000000000E+00  0.00000000000E+00  0.12729711320E+03  0.12729711323E+03  0.25500000920E-02 0.  1.
       -2   -1    0    0    0  501  0.00000000000E+00  0.00000000000E+00 -0.14640388448E+04  0.14640388448E+04  0.25500000920E-02 0. -1.
    10030    2    1    2    0    0  0.00000000000E+00  0.00000000000E+00 -0.13367417316E+04  0.15913359580E+04  0.86340701545E+03 0.  0.
        1    1    3    3  502    0 -0.17880239170E+03 -0.33106373676E+03 -0.10584550017E+04  0.11233434398E+04  0.50400001928E-02 0. -1.
       -1    1    3    3    0  502  0.17880239170E+03  0.33106373676E+03 -0.27828672992E+03  0.46799251826E+03  0.50400001928E-02 0.  1.
</event>
<event>
 5   0  0.2041861E-02  0.8847688E+03  0.7818609E-02  0.9444824E-01
       -2   -1    0    0    0  501  0.00000000000E+00  0.00000000000E+00  0.12365824880E+03  0.12365824882E+03  0.25500000920E-02 0.  1.
        2   -1    0    0  501    0  0.00000000000E+00  0.00000000000E+00 -0.15826193365E+04  0.15826193365E+04  0.25500000920E-02 0. -1.
    10030    2    1    2    0    0  0.00000000000E+00  0.00000000000E+00 -0.14589610877E+04  0.17062775853E+04  0.88476875099E+03 0.  0.
        5    1    3    3  502    0 -0.13402304062E+03 -0.41622029589E+03 -0.85856536609E+03  0.96351340830E+03  0.46999998093E+01 0. -1.
       -5    1    3    3    0  502  0.13402304062E+03  0.41622029589E+03 -0.60039572157E+03  0.74276417698E+03  0.46999998093E+01 0.  1.
</event>
<event>
 5   0  0.1968763E-02  0.9035288E+03  0.7818609E-02  0.9421181E-01
       -2   -1    0    0    0  501  0.00000000000E+00  0.00000000000E+00  0.25761188932E+03  0.25761188933E+03  0.25500000920E-02 0. -1.
        2   -1    0    0  501    0  0.00000000000E+00  0.00000000000E+00 -0.79224236251E+03  0.79224236251E+03  0.25500000920E-02 0.  1.
    10030    2    1    2    0    0  0.00000000000E+00  0.00000000000E+00 -0.53463047319E+03  0.10498542518E+04  0.90352875287E+03 0.  0.
        2    1    3    3  502    0  0.30340230412E+03 -0.24643007778E+03 -0.41131336516E+01  0.39089341163E+03  0.25500000920E-02 0. -1.
       -2    1    3    3    0  502 -0.30340230412E+03  0.24643007778E+03 -0.53051733954E+03  0.65896084022E+03  0.25500000920E-02 0.  1.
</event>
<event>
 5   0  0.2008643E-02  0.9115541E+03  0.7818609E-02  0.9411252E-01
       -2   -1    0    0    0  501  0.00000000000E+00  0.00000000000E+00  0.12541974138E+03  0.12541974141E+03  0.25500000920E-02 0.  1.
        2   -1    0    0  501    0  0.00000000000E+00  0.00000000000E+00 -0.16562998801E+04  0.16562998801E+04  0.25500000920E-02 0. -1.
    10030    2    1    2    0    0  0.00000000000E+00  0.00000000000E+00 -0.15308801387E+04  0.17817196215E+04  0.91155406343E+03 0.  0.
        3    1    3    3  502    0 -0.33522955720E+03 -0.22453628612E+03 -0.11797834291E+04  0.12468698206E+04  0.10100000352E+00 0.  1.
       -3    1    3    3    0  502  0.33522955720E+03  0.22453628612E+03 -0.35109670963E+03  0.53484980090E+03  0.10100000352E+00 0. -1.
</event>
<event>
 5   0  0.1162839E-02  0.8761039E+03  0.7818609E-02  0.9455956E-01
        1   -1    0    0  501    0  0.00000000000E+00  0.00000000000E+00  0.18890195568E+03  0.18890195575E+03  0.50400001928E-02 0.  1.
       -1   -1    0    0    0  501  0.00000000000E+00  0.00000000000E+00 -0.10158153963E+04  0.10158153964E+04  0.50400001928E-02 0. -1.
    10030    2    1    2    0    0  0.00000000000E+00  0.00000000000E+00 -0.82691344066E+03  0.12047173521E+04  0.87610390943E+03 0.  0.
        2    1    3    3  502    0 -0.22103726106E+03  0.52308298781E+02 -0.92850983247E+03  0.95588918704E+03  0.25500000920E-02 0. -1.
       -2    1    3    3    0  502  0.22103726106E+03 -0.52308298781E+02  0.10159639180E+03  0.24882816507E+03  0.25500000920E-02 0.  1.
</event>
<event>
 5   0  0.1226424E-02  0.8187909E+03  0.7818609E-02  0.9533209E-01
        1   -1    0    0  501    0  0.00000000000E+00  0.00000000000E+00  0.43866420227E+03  0.43866420230E+03  0.50400001928E-02 0. -1.
       -1   -1    0    0    0  501  0.00000000000E+00  0.00000000000E+00 -0.38207955977E+03  0.38207955980E+03  0.50400001928E-02 0.  1.
    10030    2    1    2    0    0  0.00000000000E+00  0.00000000000E+00  0.56584642507E+02  0.82074376210E+03  0.81879087761E+03 0.  0.
        1    1    3    3  502    0 -0.34490663648E+03 -0.72861777636E+02  0.23695990714E+03  0.42475807720E+03  0.50400001928E-02 0. -1.
       -1    1    3    3    0  502  0.34490663648E+03  0.72861777636E+02 -0.18037526463E+03  0.39598568490E+03  0.50400001928E-02 0.  1.
</event>
<event>
 5   0  0.2008643E-02  0.8993596E+03  0.7818609E-02  0.9426382E-01
        2   -1    0    0  501    0  0.00000000000E+00  0.00000000000E+00  0.13038031599E+04  0.13038031599E+04  0.25500000920E-02 0.  1.
       -2   -1    0    0    0  501  0.00000000000E+00  0.00000000000E+00 -0.15509391292E+03  0.15509391294E+03  0.25500000920E-02 0. -1.
    10030    2    1    2    0    0  0.00000000000E+00  0.00000000000E+00  0.11487092469E+04  0.14588970728E+04  0.89935962496E+03 0.  0.
        3    1    3    3  502    0 -0.27457040754E+03 -0.10732673473E+03  0.23529896151E+02  0.29573907909E+03  0.10100000352E+00 0. -1.
       -3    1    3    3    0  502  0.27457040754E+03  0.10732673473E+03  0.11251793508E+04  0.11631579937E+04  0.10100000352E+00 0.  1.
</event>
<event>
 5   0  0.2041861E-02  0.8941087E+03  0.7818609E-02  0.9432976E-01
        2   -1    0    0  501    0  0.00000000000E+00  0.00000000000E+00  0.89261828027E+03  0.89261828028E+03  0.25500000920E-02 0. -1.
       -2   -1    0    0    0  501  0.00000000000E+00  0.00000000000E+00 -0.22390040273E+03  0.22390040275E+03  0.25500000920E-02 0.  1.
    10030    2    1    2    0    0  0.00000000000E+00  0.00000000000E+00  0.66871787754E+03  0.11165186830E+04  0.89410870133E+03 0.  0.
        5    1    3    3  502    0  0.21250726546E+03  0.18626240834E+03  0.76690721949E+03  0.81732600346E+03  0.46999998093E+01 0. -1.
       -5    1    3    3    0  502 -0.21250726546E+03 -0.18626240834E+03 -0.98189341948E+02  0.29919267956E+03  0.46999998093E+01 0.  1.
</event>
<event>
 5   0  0.1206541E-02  0.8834513E+03  0.7818609E-02  0.9446508E-01
        1   -1    0    0  501    0  0.00000000000E+00  0.00000000000E+00  0.27252039372E+04  0.27252039372E+04  0.50400001928E-02 0.  1.
       -1   -1    0    0    0  501  0.00000000000E+00  0.00000000000E+00 -0.71598879846E+02  0.71598880024E+02  0.50400001928E-02 0. -1.
    10030    2    1    2    0    0  0.00000000000E+00  0.00000000000E+00  0.26536050574E+04  0.27968028172E+04  0.88345129919E+03 0.  0.
        3    1    3    3  502    0 -0.43372150907E+02  0.28199984292E+03  0.23943592203E+04  0.24112986420E+04  0.10100000352E+00 0.  1.
       -3    1    3    3    0  502  0.43372150907E+02 -0.28199984292E+03  0.25924583703E+03  0.38550417521E+03  0.10100000352E+00 0. -1.
</event>
<event>
 5   0  0.1162839E-02  0.8989203E+03  0.7818609E-02  0.9426932E-01
        1   -1    0    0  501    0  0.00000000000E+00  0.00000000000E+00  0.87021921536E+03  0.87021921537E+03  0.50400001928E-02 0.  1.
       -1   -1    0    0    0  501  0.00000000000E+00  0.00000000000E+00 -0.23214198899E+03  0.23214198904E+03  0.50400001928E-02 0. -1.
    10030    2    1    2    0    0  0.00000000000E+00  0.00000000000E+00  0.63807722637E+03  0.11023612044E+04  0.89892028467E+03 0.  0.
        2    1    3    3  502    0 -0.67131438162E+02 -0.12242234494E+03 -0.20487373568E+03  0.24792561003E+03  0.25500000920E-02 0. -1.
       -2    1    3    3    0  502  0.67131438162E+02  0.12242234494E+03  0.84295096205E+03  0.85443559439E+03  0.25500000920E-02 0.  1.
</event>
<event>
 5   0  0.1162839E-02  0.8943593E+03  0.7818609E-02  0.9432660E-01
       -1   -1    0    0    0  501  0.00000000000E+00  0.00000000000E+00  0.36295543245E+03  0.36295543248E+03  0.50400001928E-02 0.  1.
        1   -1    0    0  501    0  0.00000000000E+00  0.00000000000E+00 -0.55094815311E+03  0.55094815313E+03  0.50400001928E-02 0. -1.
    10030    2    1    2    0    0  0.00000000000E+00  0.00000000000E+00 -0.18799272066E+03  0.91390358561E+03  0.89435926829E+03 0.  0.
        2    1    3    3  502    0  0.21544383339E+03 -0.38340657895E+03 -0.11276912488E+02  0.43993615320E+03  0.25500000920E-02 0. -1.
       -2    1    3    3    0  502 -0.21544383339E+03  0.38340657895E+03 -0.17671580817E+03  0.47396743242E+03  0.25500000920E-02 0.  1.
</event>
<event>
 5   0  0.1924218E-02  0.8130444E+03  0.7818609E-02  0.9541325E-01
        2   -1    0    0  501    0  0.00000000000E+00  0.00000000000E+00  0.99443644811E+03  0.99443644811E+03  0.25500000920E-02 0.  1.
       -2   -1    0    0    0  501  0.00000000000E+00  0.00000000000E+00 -0.16618489085E+03  0.16618489087E+03  0.25500000920E-02 0. -1.
    10030    2    1    2    0    0  0.00000000000E+00  0.00000000000E+00  0.82825155726E+03  0.11606213390E+04  0.81304443322E+03 0.  0.
        4    1    3    3  502    0 -0.33406416469E+03 -0.22999005036E+03  0.45359327121E+03  0.60847576614E+03  0.12699999809E+01 0. -1.
       -4    1    3    3    0  502  0.33406416469E+03  0.22999005036E+03  0.37465828605E+03  0.55214557284E+03  0.12699999809E+01 0.  1.
</event>
<event>
 5   0  0.1177712E-02  0.9053904E+03  0.7818609E-02  0.9418868E-01
        1   -1    0    0  501    0  0.00000000000E+00  0.00000000000E+00  0.59351287430E+03  0.59351287432E+03  0.50400001928E-02 0. -1.
       -1   -1    0    0    0  501  0.00000000000E+00  0.00000000000E+00 -0.34528808240E+03  0.34528808244E+03  0.50400001928E-02 0.  1.
    10030    2    1    2    0    0  0.00000000000E+00  0.00000000000E+00  0.24822479189E+03  0.93880095676E+03  0.90539035178E+03 0.  0.
        5    1    3    3  502    0  0.38841693799E+03  0.23173834709E+03  0.10498013594E+03  0.46434179025E+03  0.46999998093E+01 0. -1.
       -5    1    3    3    0  502 -0.38841693799E+03 -0.23173834709E+03  0.14324465595E+03  0.47445916651E+03  0.46999998093E+01 0.  1.
</event>
<event>
 5   0  0.2041861E-02  0.8976401E+03  0.7818609E-02  0.9428536E-01
        2   -1    0    0  501    0  0.00000000000E+00  0.00000000000E+00  0.24175755740E+03  0.24175755741E+03  0.25500000920E-02 0.  1.
       -2   -1    0    0    0  501  0.00000000000E+00  0.00000000000E+00 -0.83322917615E+03  0.83322917615E+03  0.25500000920E-02 0. -1.
    10030    2    1    2    0    0  0.00000000000E+00  0.00000000000E+00 -0.59147161875E+03  0.10749867336E+04  0.89764012921E+03 0.  0.
        5    1    3    3  502    0  0.29305769568E+03  0.32650896491E+03 -0.18258958443E+03  0.47523884891E+03  0.46999998093E+01 0.  1.
       -5    1    3    3    0  502 -0.29305769568E+03 -0.32650896491E+03 -0.40888203432E+03  0.59974788466E+03  0.46999998093E+01 0. -1.
</event>
<event>
 5   0  0.1162839E-02  0.8924966E+03  0.7818609E-02  0.9435010E-01
        1   -1    0    0  501    0  0.00000000000E+00  0.00000000000E+00  0.12472919329E+04  0.12472919329E+04  0.50400001928E-02 0.  1.
       -1   -1    0    0    0  501  0.00000000000E+00  0.00000000000E+00 -0.15965593549E+03  0.15965593557E+03  0.50400001928E-02 0. -1.
    10030    2    1    2    0    0  0.00000000000E+00  0.00000000000E+00  0.10876359974E+04  0.14069478685E+04  0.89249663404E+03 0.  0.
        2    1    3    3  502    0  0.48351025165E+02 -0.36924597148E+03  0.15620774343E+03  0.40383321830E+03  0.25500000920E-02 0. -1.
       -2    1    3    3    0  502 -0.48351025165E+02  0.36924597148E+03  0.93142825396E+03  0.10031146502E+04  0.25500000920E-02 0.  1.
</event>
<event>
 5   0  0.7893875E-03  0.9101981E+03  0.7818609E-02  0.9412922E-01
        3   -1    0    0  501    0  0.00000000000E+00  0.00000000000E+00  0.56102880982E+03  0.56102881891E+03  0.10100000352E+00 0. -1.
       -3   -1    0    0    0  501  0.00000000000E+00  0.00000000000E+00 -0.36917021703E+03  0.36917023085E+03  0.10100000352E+00 0.  1.
    10030    2    1    2    0    0  0.00000000000E+00  0.00000000000E+00  0.19185859278E+03  0.93019904976E+03  0.91019808423E+03 0.  0.
        5    1    3    3  502    0 -0.48390370632E+02  0.12994616952E+02 -0.36631789272E+03  0.36975853819E+03  0.46999998093E+01 0.  1.
       -5    1    3    3    0  502  0.48390370632E+02 -0.12994616952E+02  0.55817648550E+03  0.56044051157E+03  0.46999998093E+01 0. -1.
</event>
<event>
 5   0  0.2008770E-02  0.9558365E+03  0.7818609E-02  0.9358354E-01
        2   -1    0    0  501    0  0.00000000000E+00  0.00000000000E+00  0.30899687546E+03  0.30899687547E+03  0.25500000920E-02 0.  1.
       -2   -1    0    0    0  501  0.00000000000E+00  0.00000000000E+00 -0.73918505929E+03  0.73918505930E+03  0.25500000920E-02 0. -1.
    10030    2    1    2    0    0  0.00000000000E+00  0.00000000000E+00 -0.43018818384E+03  0.10481819348E+04  0.95583654192E+03 0.  0.
        1    1    3    3  502    0  0.24952979397E+03  0.36288397712E+03 -0.41865074948E+03  0.60763340016E+03  0.50400001928E-02 0. -1.
       -1    1    3    3    0  502 -0.24952979397E+03 -0.36288397712E+03 -0.11537434358E+02  0.44054853461E+03  0.50400001928E-02 0.  1.
</event>
<event>
 5   0  0.1206541E-02  0.8050532E+03  0.7818609E-02  0.9552731E-01
       -1   -1    0    0    0  501  0.00000000000E+00  0.00000000000E+00  0.31125618165E+03  0.31125618169E+03  0.50400001928E-02 0. -1.
        1   -1    0    0  501    0  0.00000000000E+00  0.00000000000E+00 -0.52056048373E+03  0.52056048375E+03  0.50400001928E-02 0.  1.
    10030    2    1    2    0    0  0.00000000000E+00  0.00000000000E+00 -0.20930430208E+03  0.83181666544E+03  0.80505321193E+03 0.  0.
        3    1    3    3  502    0  0.19207674787E+03 -0.15394280545E+03 -0.43372999741E+03  0.49871192614E+03  0.10100000352E+00 0.  1.
       -3    1    3    3    0  502 -0.19207674787E+03  0.15394280545E+03  0.22442569533E+03  0.33310473930E+03  0.10100000352E+00 0. -1.
</event>
<event>
 5   0  0.7893875E-03  0.8870356E+03  0.7818609E-02  0.9441934E-01
       -4   -1    0    0    0  501  0.00000000000E+00  0.00000000000E+00  0.74283740918E+03  0.74283849481E+03  0.12699999809E+01 0.  1.
        4   -1    0    0  501    0  0.00000000000E+00  0.00000000000E+00 -0.26480354232E+03  0.26480658777E+03  0.12699999809E+01 0. -1.
    10030    2    1    2    0    0  0.00000000000E+00  0.00000000000E+00  0.47803386686E+03  0.10076450826E+04  0.88703564448E+03 0.  0.
        4    1    3    3  502    0 -0.77500901859E+02  0.28716637813E+03  0.61274131898E+03  0.68112000073E+03  0.12699999809E+01 0.  1.
       -4    1    3    3    0  502  0.77500901859E+02 -0.28716637813E+03 -0.13470745211E+03  0.32652508185E+03  0.12699999809E+01 0. -1.
</event>
<event>
 5   0  0.1968763E-02  0.9049251E+03  0.7818609E-02  0.9419446E-01
        2   -1    0    0  501    0  0.00000000000E+00  0.00000000000E+00  0.34063419595E+03  0.34063419596E+03  0.25500000920E-02 0. -1.
       -2   -1    0    0    0  501  0.00000000000E+00  0.00000000000E+00 -0.60100355080E+03  0.60100355081E+03  0.25500000920E-02 0.  1.
    10030    2    1    2    0    0  0.00000000000E+00  0.00000000000E+00 -0.26036935485E+03  0.94163774677E+03  0.90492510475E+03 0.  0.
        2    1    3    3  502    0 -0.29606252323E+03  0.20311157015E+03  0.15633132883E+03  0.39159521444E+03  0.25500000920E-02 0. -1.
       -2    1    3    3    0  502  0.29606252323E+03 -0.20311157015E+03 -0.41670068368E+03  0.55004253233E+03  0.25500000920E-02 0.  1.
</event>
<event>
 5   0  0.1968763E-02  0.8990777E+03  0.7818609E-02  0.9426735E-01
       -2   -1    0    0    0  501  0.00000000000E+00  0.00000000000E+00  0.28328380292E+03  0.28328380293E+03  0.25500000920E-02 0. -1.
        2   -1    0    0  501    0  0.00000000000E+00  0.00000000000E+00 -0.71336654637E+03  0.71336654637E+03  0.25500000920E-02 0.  1.
    10030    2    1    2    0    0  0.00000000000E+00  0.00000000000E+00 -0.43008274345E+03  0.99665034930E+03  0.89907772331E+03 0.  0.
        2    1    3    3  502    0 -0.55747166261E+02  0.44266537684E+03 -0.15407444124E+03  0.47201622414E+03  0.25500000920E-02 0.  1.
       -2    1    3    3    0  502  0.55747166261E+02 -0.44266537684E+03 -0.27600830220E+03  0.52463412517E+03  0.25500000920E-02 0. -1.
</event>
<event>
 5   0  0.1924218E-02  0.8899834E+03  0.7818609E-02  0.9438190E-01
       -2   -1    0    0    0  501  0.00000000000E+00  0.00000000000E+00  0.22969377330E+03  0.22969377331E+03  0.25500000920E-02 0. -1.
        2   -1    0    0  501    0  0.00000000000E+00  0.00000000000E+00 -0.86209400588E+03  0.86209400588E+03  0.25500000920E-02 0.  1.
    10030    2    1    2    0    0  0.00000000000E+00  0.00000000000E+00 -0.63240023258E+03  0.10917877792E+04  0.88998342717E+03 0.  0.
        4    1    3    3  502    0  0.15198968399E+03 -0.18932207686E+03  0.14128463927E+03  0.28090331970E+03  0.12699999809E+01 0. -1.
       -4    1    3    3    0  502 -0.15198968399E+03  0.18932207686E+03 -0.77368487185E+03  0.81088445949E+03  0.12699999809E+01 0.  1.
</event>
<event>
 5   0  0.1968763E-02  0.9380020E+03  0.7818609E-02  0.9379285E-01
       -2   -1    0    0    0  501  0.00000000000E+00  0.00000000000E+00  0.47626915964E+03  0.47626915964E+03  0.25500000920E-02 0. -1.
        2   -1    0    0  501    0  0.00000000000E+00  0.00000000000E+00 -0.46184380493E+03  0.46184380494E+03  0.25500000920E-02 0.  1.
    10030    2    1    2    0    0  0.00000000000E+00  0.00000000000E+00  0.14425354709E+02  0.93811296458E+03  0.93800204875E+03 0.  0.
        2    1    3    3  502    0 -0.35432601749E+02 -0.30363833062E+03 -0.34851218321E+03  0.46358650427E+03  0.25500000920E-02 0.  1.
       -2    1    3    3    0  502  0.35432601749E+02  0.30363833062E+03  0.36293753792E+03  0.47452646031E+03  0.25500000920E-02 0. -1.
</event>
<event>
 5   0  0.1968763E-02  0.9092602E+03  0.7818609E-02  0.9414079E-01
        2   -1    0    0  501    0  0.00000000000E+00  0.00000000000E+00  0.10773434139E+04  0.10773434139E+04  0.25500000920E-02 0.  1.
       -2   -1    0    0    0  501  0.00000000000E+00  0.00000000000E+00 -0.19185015971E+03  0.19185015973E+03  0.25500000920E-02 0. -1.
    10030    2    1    2    0    0  0.00000000000E+00  0.00000000000E+00  0.88549325419E+03  0.12691935736E+04  0.90926015207E+03 0.  0.
        2    1    3    3  502    0  0.33935287753E+03 -0.48939328621E+02  0.85948082873E+03  0.92534465381E+03  0.25500000920E-02 0.  1.
       -2    1    3    3    0  502 -0.33935287753E+03  0.48939328621E+02  0.26012425454E+02  0.34384891982E+03  0.25500000920E-02 0. -1.
</event>
<event>
 5   0  0.2008643E-02  0.9057740E+03  0.7818609E-02  0.9418392E-01
        2   -1    0    0  501    0  0.00000000000E+00  0.00000000000E+00  0.14821428862E+04  0.14821428862E+04  0.25500000920E-02 0. -1.
       -2   -1    0    0    0  501  0.00000000000E+00  0.00000000000E+00 -0.13838520974E+03  0.13838520977E+03  0.25500000920E-02 0.  1.
    10030    2    1    2    0    0  0.00000000000E+00  0.00000000000E+00  0.13437576765E+04  0.16205280960E+04  0.90577404290E+03 0.  0.
        3    1    3    3  502    0  0.98878183367E+02 -0.39212548802E+03  0.30711408531E+03  0.50779756311E+03  0.10100000352E+00 0.  1.
       -3    1    3    3    0  502 -0.98878183367E+02  0.39212548802E+03  0.10366435912E+04  0.11127305329E+04  0.10100000352E+00 0. -1.
</event>
<event>
 5   0  0.1162839E-02  0.5566006E+03  0.7818609E-02  0.9999776E-01
        1   -1    0    0  501    0  0.00000000000E+00  0.00000000000E+00  0.29154758687E+03  0.29154758692E+03  0.50400001928E-02 0.  1.
       -1   -1    0    0    0  501  0.00000000000E+00  0.00000000000E+00 -0.26565493492E+03  0.26565493496E+03  0.50400001928E-02 0. -1.
    10030    2    1    2    0    0  0.00000000000E+00  0.00000000000E+00  0.25892651958E+02  0.55720252188E+03  0.55660059375E+03 0.  0.
        2    1    3    3  502    0  0.13505832490E+03  0.13309901718E+03 -0.19097707281E+03  0.26912514161E+03  0.25500000920E-02 0. -1.
       -2    1    3    3    0  502 -0.13505832490E+03 -0.13309901718E+03  0.21686972476E+03  0.28807738027E+03  0.25500000920E-02 0.  1.
</event>
<event>
 5   0  0.1226424E-02  0.8956741E+03  0.7818609E-02  0.9431005E-01
       -1   -1    0    0    0  501  0.00000000000E+00  0.00000000000E+00  0.39046214524E+03  0.39046214527E+03  0.50400001928E-02 0. -1.
        1   -1    0    0  501    0  0.00000000000E+00  0.00000000000E+00 -0.51364268034E+03  0.51364268036E+03  0.50400001928E-02 0.  1.
    10030    2    1    2    0    0  0.00000000000E+00  0.00000000000E+00 -0.12318053510E+03  0.90410482564E+03  0.89567409894E+03 0.  0.
        1    1    3    3  502    0 -0.84129437478E+02  0.34372281008E+03 -0.33864581619E+03  0.48980008296E+03  0.50400001928E-02 0.  1.
       -1    1    3    3    0  502  0.84129437478E+02 -0.34372281008E+03  0.21546528109E+03  0.41430474267E+03  0.50400001928E-02 0. -1.
</event>
<event>
 5   0  0.1206541E-02  0.9314118E+03  0.7818609E-02  0.9387145E-01
       -1   -1    0    0    0  501  0.00000000000E+00  0.00000000000E+00  0.58552981713E+03  0.58552981715E+03  0.50400001928E-02 0. -1.
        1   -1    0    0  501    0  0.00000000000E+00  0.00000000000E+00 -0.37040299919E+03  0.37040299922E+03  0.50400001928E-02 0.  1.
    10030    2    1    2    0    0  0.00000000000E+00  0.00000000000E+00  0.21512681794E+03  0.95593281637E+03  0.93141183245E+03 0.  0.
        3    1    3    3  502    0 -0.37598724699E+03  0.25789864688E+02  0.38835420372E+03  0.54115665456E+03  0.10100000352E+00 0. -1.
       -3    1    3    3    0  502  0.37598724699E+03 -0.25789864688E+02 -0.17322738579E+03  0.41477616181E+03  0.10100000352E+00 0.  1.
</event>
<event>
 5   0  0.7893875E-03  0.9195401E+03  0.7818609E-02  0.9401480E-01
       -3   -1    0    0    0  501  0.00000000000E+00  0.00000000000E+00  0.13204667642E+04  0.13204667681E+04  0.10100000352E+00 0. -1.
        3   -1    0    0  501    0  0.00000000000E+00  0.00000000000E+00 -0.16008616495E+03  0.16008619682E+03  0.10100000352E+00 0.  1.
    10030    2    1    2    0    0  0.00000000000E+00  0.00000000000E+00  0.11603805992E+04  0.14805529649E+04  0.91954007346E+03 0.  0.
        1    1    3    3  502    0 -0.21051525106E+03 -0.66738058139E+01  0.12382222591E+04  0.12560077920E+04  0.50400001928E-02 0.  1.
       -1    1    3    3    0  502  0.21051525106E+03  0.66738058139E+01 -0.77841659879E+02  0.22454517285E+03  0.50400001928E-02 0. -1.
</event>
<event>
 5   0  0.1162839E-02  0.8902623E+03  0.7818609E-02  0.9437836E-01
       -1   -1    0    0    0  501  0.00000000000E+00  0.00000000000E+00  0.44057560200E+03  0.44057560203E+03  0.50400001928E-02 0. -1.
        1   -1    0    0  501    0  0.00000000000E+00  0.00000000000E+00 -0.44973384883E+03  0.44973384885E+03  0.50400001928E-02 0.  1.
    10030    2    1    2    0    0  0.00000000000E+00  0.00000000000E+00 -0.91582468218E+01  0.89030945089E+03  0.89026234608E+03 0.  0.
        2    1    3    3  502    0  0.34032734334E+02 -0.27127950344E+03 -0.35586821102E+03  0.44876829168E+03  0.25500000920E-02 0.  1.
       -2    1    3    3    0  502 -0.34032734334E+02  0.27127950344E+03  0.34670996420E+03  0.44154115921E+03  0.25500000920E-02 0. -1.
</event>
<event>
 5   0  0.1226424E-02  0.8948453E+03  0.7818609E-02  0.9432048E-01
        1   -1    0    0  501    0  0.00000000000E+00  0.00000000000E+00  0.15238266953E+03  0.15238266961E+03  0.50400001928E-02 0. -1.
       -1   -1    0    0    0  501  0.00000000000E+00  0.00000000000E+00 -0.13137125188E+04  0.13137125188E+04  0.50400001928E-02 0.  1.
    10030    2    1    2    0    0  0.00000000000E+00  0.00000000000E+00 -0.11613298493E+04  0.14660951884E+04  0.89484528424E+03 0.  0.
        1    1    3    3  502    0 -0.28767977221E+03 -0.31816115365E+03 -0.78920191919E+03  0.89823484697E+03  0.50400001928E-02 0.  1.
       -1    1    3    3    0  502  0.28767977221E+03  0.31816115365E+03 -0.37212793009E+03  0.56786034147E+03  0.50400001928E-02 0. -1.
</event>
<event>
 5   0  0.1924218E-02  0.8952544E+03  0.7818609E-02  0.9431533E-01
       -2   -1    0    0    0  501  0.00000000000E+00  0.00000000000E+00  0.85726108471E+02  0.85726108509E+02  0.25500000920E-02 0.  1.
        2   -1    0    0  501    0  0.00000000000E+00  0.00000000000E+00 -0.23373290001E+04  0.23373290001E+04  0.25500000920E-02 0. -1.
    10030    2    1    2    0    0  0.00000000000E+00  0.00000000000E+00 -0.22516028917E+04  0.24230551086E+04  0.89525442070E+03 0.  0.
        4    1    3    3  502    0  0.29123823616E+03  0.62791969566E+02 -0.20299931553E+04  0.20517398386E+04  0.12699999809E+01 0. -1.
       -4    1    3    3    0  502 -0.29123823616E+03 -0.62791969566E+02 -0.22160973633E+03  0.37131527006E+03  0.12699999809E+01 0.  1.
</event>
<event>
 5   0  0.1924218E-02  0.9135805E+03  0.7818609E-02  0.9408763E-01
        2   -1    0    0  501    0  0.00000000000E+00  0.00000000000E+00  0.39445391171E+03  0.39445391172E+03  0.25500000920E-02 0. -1.
       -2   -1    0    0    0  501  0.00000000000E+00  0.00000000000E+00 -0.52897776207E+03  0.52897776208E+03  0.25500000920E-02 0.  1.
    10030    2    1    2    0    0  0.00000000000E+00  0.00000000000E+00 -0.13452385035E+03  0.92343167380E+03  0.91358053277E+03 0.  0.
        4    1    3    3  502    0  0.44740044046E+03  0.91494184854E+01 -0.15992856039E+03  0.47521534414E+03  0.12699999809E+01 0.  1.
       -4    1    3    3    0  502 -0.44740044046E+03 -0.91494184854E+01  0.25404710037E+02  0.44821632966E+03  0.12699999809E+01 0. -1.
</event>
<event>
 5   0  0.1968763E-02  0.8970042E+03  0.7818609E-02  0.9429334E-01
        2   -1    0    0  501    0  0.00000000000E+00  0.00000000000E+00  0.45061517028E+03  0.45061517029E+03  0.25500000920E-02 0. -1.
       -2   -1    0    0    0  501  0.00000000000E+00  0.00000000000E+00 -0.44639895198E+03  0.44639895199E+03  0.25500000920E-02 0.  1.
    10030    2    1    2    0    0  0.00000000000E+00  0.00000000000E+00  0.42162183060E+01  0.89701412228E+03  0.89700421352E+03 0.  0.
        2    1    3    3  502    0  0.29248804712E+03  0.18598028977E+03  0.28674472621E+03  0.44984493318E+03  0.25500000920E-02 0. -1.
       -2    1    3    3    0  502 -0.29248804712E+03 -0.18598028977E+03 -0.28252850790E+03  0.44716918910E+03  0.25500000920E-02 0.  1.
</event>
<event>
 5   0  0.1177712E-02  0.8945562E+03  0.7818609E-02  0.9432412E-01
        1   -1    0    0  501    0  0.00000000000E+00  0.00000000000E+00  0.25614832559E+04  0.25614832559E+04  0.50400001928E-02 0.  1.
       -1   -1    0    0    0  501  0.00000000000E+00  0.00000000000E+00 -0.78102285467E+02  0.78102285630E+02  0.50400001928E-02 0. -1.
    10030    2    1    2    0    0  0.00000000000E+00  0.00000000000E+00  0.24833809704E+04  0.26395855415E+04  0.89455619542E+03 0.  0.
        5    1    3    3  502    0  0.72861985890E+02  0.26109314050E+03  0.19197552446E+03  0.33219751503E+03  0.46999998093E+01 0. -1.
       -5    1    3    3    0  502 -0.72861985890E+02 -0.26109314050E+03  0.22914054460E+04  0.23073880265E+04  0.46999998093E+01 0.  1.
</event>
<event>
 5   0  0.1175993E-02  0.9004417E+03  0.7818609E-02  0.9425029E-01
        1   -1    0    0  501    0  0.00000000000E+00  0.00000000000E+00  0.71840069255E+03  0.71840069257E+03  0.50400001928E-02 0.  1.
       -1   -1    0    0    0  501  0.00000000000E+00  0.00000000000E+00 -0.28215285480E+03  0.28215285484E+03  0.50400001928E-02 0. -1.
    10030    2    1    2    0    0  0.00000000000E+00  0.00000000000E+00  0.43624783775E+03  0.10005535474E+04  0.90044168345E+03 0.  0.
        4    1    3    3  502    0 -0.27743450165E+03 -0.97641068820E+02  0.59689401563E+03  0.66542299316E+03  0.12699999809E+01 0.  1.
       -4    1    3    3    0  502  0.27743450165E+03  0.97641068820E+02 -0.16064617788E+03  0.33513055425E+03  0.12699999809E+01 0. -1.
</event>
<event>
 5   0  0.1206541E-02  0.9011892E+03  0.7818609E-02  0.9424096E-01
       -1   -1    0    0    0  501  0.00000000000E+00  0.00000000000E+00  0.57812027607E+03  0.57812027609E+03  0.50400001928E-02 0. -1.
        1   -1    0    0  501    0  0.00000000000E+00  0.00000000000E+00 -0.35119939756E+03  0.35119939760E+03  0.50400001928E-02 0.  1.
    10030    2    1    2    0    0  0.00000000000E+00  0.00000000000E+00  0.22692087851E+03  0.92931967369E+03  0.90118919812E+03 0.  0.
        3    1    3    3  502    0 -0.41403791040E+03  0.37758831012E+02  0.29261413229E+03  0.50840550861E+03  0.10100000352E+00 0. -1.
       -3    1    3    3    0  502  0.41403791040E+03 -0.37758831012E+02 -0.65693253779E+02  0.42091416508E+03  0.10100000352E+00 0.  1.
</event>
<event>
 5   0  0.7893875E-03  0.6897047E+03  0.7818609E-02  0.9735002E-01
        3   -1    0    0  501    0  0.00000000000E+00  0.00000000000E+00  0.22029532113E+03  0.22029534429E+03  0.10100000352E+00 0.  1.
       -3   -1    0    0    0  501  0.00000000000E+00  0.00000000000E+00 -0.53983497484E+03  0.53983498429E+03  0.10100000352E+00 0. -1.
    10030    2    1    2    0    0  0.00000000000E+00  0.00000000000E+00 -0.31953965371E+03  0.76013032858E+03  0.68970466588E+03 0.  0.
        4    1    3    3  502    0  0.12126645953E+03  0.76252434961E+02 -0.50549087716E+03  0.52539759024E+03  0.12699999809E+01 0. -1.
       -4    1    3    3    0  502 -0.12126645953E+03 -0.76252434961E+02  0.18595122345E+03  0.23473273834E+03  0.12699999809E+01 0.  1.
</event>
<event>
 5   0  0.1175993E-02  0.8896466E+03  0.7818609E-02  0.9438617E-01
        1   -1    0    0  501    0  0.00000000000E+00  0.00000000000E+00  0.49691592189E+03  0.49691592192E+03  0.50400001928E-02 0. -1.
       -1   -1    0    0    0  501  0.00000000000E+00  0.00000000000E+00 -0.39819161763E+03  0.39819161767E+03  0.50400001928E-02 0.  1.
    10030    2    1    2    0    0  0.00000000000E+00  0.00000000000E+00  0.98724304257E+02  0.89510753958E+03  0.88964656980E+03 0.  0.
        4    1    3    3  502    0  0.18688500981E+03  0.34277943787E+03 -0.16511858738E+03  0.42389799565E+03  0.12699999809E+01 0.  1.
       -4    1    3    3    0  502 -0.18688500981E+03 -0.34277943787E+03  0.26384289164E+03  0.47120954393E+03  0.12699999809E+01 0. -1.
</event>
<event>
 5   0  0.1162839E-02  0.8813910E+03  0.7818609E-02  0.9449147E-01
        1   -1    0    0  501    0  0.00000000000E+00  0.00000000000E+00  0.19698468642E+03  0.19698468649E+03  0.50400001928E-02 0. -1.
       -1   -1    0    0    0  501  0.00000000000E+00  0.00000000000E+00 -0.98592699350E+03  0.98592699351E+03  0.50400001928E-02 0.  1.
    10030    2    1    2    0    0  0.00000000000E+00  0.00000000000E+00 -0.78894230708E+03  0.11829116800E+04  0.88139099086E+03 0.  0.
        2    1    3    3  502    0  0.39403830891E+03 -0.46125033560E+01 -0.65925917458E+03  0.76805606784E+03  0.25500000920E-02 0.  1.
       -2    1    3    3    0  502 -0.39403830891E+03  0.46125033560E+01 -0.12968313250E+03  0.41485561216E+03  0.25500000920E-02 0. -1.
</event>
<event>
 5   0  0.2008770E-02  0.7067401E+03  0.7818609E-02  0.9705775E-01
        2   -1    0    0  501    0  0.00000000000E+00  0.00000000000E+00  0.93605945918E+03  0.93605945918E+03  0.25500000920E-02 0.  1.
       -2   -1    0    0    0  501  0.00000000000E+00  0.00000000000E+00 -0.13340007798E+03  0.13340007800E+03  0.25500000920E-02 0. -1.
    10030    2    1    2    0    0  0.00000000000E+00  0.00000000000E+00  0.80265938120E+03  0.10694595372E+04  0.70674013573E+03 0.  0.
        1    1    3    3  502    0  0.20948649239E+02  0.53580853655E+02  0.92892522487E+03  0.93070501622E+03  0.50400001928E-02 0.  1.
       -1    1    3    3    0  502 -0.20948649239E+02 -0.53580853655E+02 -0.12626584368E+03  0.13875452096E+03  0.50400001928E-02 0. -1.
</event>
<event>
 5   0  0.1968763E-02  0.8932724E+03  0.7818609E-02  0.9434031E-01
        2   -1    0    0  501    0  0.00000000000E+00  0.00000000000E+00  0.10202693290E+04  0.10202693290E+04  0.25500000920E-02 0. -1.
       -2   -1    0    0    0  501  0.00000000000E+00  0.00000000000E+00 -0.19552082536E+03  0.19552082538E+03  0.25500000920E-02 0.  1.
    10030    2    1    2    0    0  0.00000000000E+00  0.00000000000E+00  0.82474850367E+03  0.12157901544E+04  0.89327241381E+03 0.  0.
        2    1    3    3  502    0  0.29327518101E+03 -0.20095868677E+02  0.87003942884E+03  0.91835874443E+03  0.25500000920E-02 0. -1.
       -2    1    3    3    0  502 -0.29327518101E+03  0.20095868677E+02 -0.45290925170E+02  0.29743140999E+03  0.25500000920E-02 0.  1.
</event>
<event>
 5   0  0.2008643E-02  0.7505194E+03  0.7818609E-02  0.9634536E-01
       -2   -1    0    0    0  501  0.00000000000E+00  0.00000000000E+00  0.47428029746E+03  0.47428029747E+03  0.25500000920E-02 0.  1.
        2   -1    0    0  501    0  0.00000000000E+00  0.00000000000E+00 -0.29691272502E+03  0.29691272503E+03  0.25500000920E-02 0. -1.
    10030    2    1    2    0    0  0.00000000000E+00  0.00000000000E+00  0.17736757245E+03  0.77119302250E+03  0.75051943492E+03 0.  0.
        3    1    3    3  502    0  0.25676094467E+03  0.52343769951E+02  0.36469754405E+03  0.44907723366E+03  0.10100000352E+00 0.  1.
       -3    1    3    3    0  502 -0.25676094467E+03 -0.52343769951E+02 -0.18732997160E+03  0.32211578884E+03  0.10100000352E+00 0. -1.
</event>
<event>
 5   0  0.2041861E-02  0.9719138E+03  0.7818609E-02  0.9339897E-01
       -2   -1    0    0    0  501  0.00000000000E+00  0.00000000000E+00  0.40607977679E+03  0.40607977679E+03  0.25500000920E-02 0. -1.
        2   -1    0    0  501    0  0.00000000000E+00  0.00000000000E+00 -0.58154607129E+03  0.58154607130E+03  0.25500000920E-02 0.  1.
    10030    2    1    2    0    0  0.00000000000E+00  0.00000000000E+00 -0.17546629451E+03  0.98762584809E+03  0.97191377978E+03 0.  0.
        5    1    3    3  502    0  0.28323947165E+03 -0.27321442959E+02  0.31253950798E+03  0.42269858480E+03  0.46999998093E+01 0. -1.
       -5    1    3    3    0  502 -0.28323947165E+03  0.27321442959E+02 -0.48800580249E+03  0.56492726329E+03  0.46999998093E+01 0.  1.
</event>
<event>
 5   0  0.7893875E-03  0.6699877E+03  0.7818609E-02  0.9769980E-01
        3   -1    0    0  501    0  0.00000000000E+00  0.00000000000E+00  0.12584523942E+03  0.12584527995E+03  0.10100000352E+00 0. -1.
       -3   -1    0    0    0  501  0.00000000000E+00  0.00000000000E+00 -0.89173695272E+03  0.89173695844E+03  0.10100000352E+00 0.  1.
    10030    2    1    2    0    0  0.00000000000E+00  0.00000000000E+00 -0.76589171330E+03  0.10175822384E+04  0.66998768301E+03 0.  0.
        3    1    3    3  502    0  0.21880442371E+03  0.24840296436E+03 -0.46100509620E+03  0.56754305340E+03  0.10100000352E+00 0.  1.
       -3    1    3    3    0  502 -0.21880442371E+03 -0.24840296436E+03 -0.30488661710E+03  0.45003918499E+03  0.10100000352E+00 0. -1.
</event>
<event>
 5   0  0.1177712E-02  0.8957496E+03  0.7818609E-02  0.9430910E-01
       -1   -1    0    0    0  501  0.00000000000E+00  0.00000000000E+00  0.39321444551E+03  0.39321444554E+03  0.50400001928E-02 0.  1.
        1   -1    0    0  501    0  0.00000000000E+00  0.00000000000E+00 -0.51013338758E+03  0.51013338760E+03  0.50400001928E-02 0. -1.
    10030    2    1    2    0    0  0.00000000000E+00  0.00000000000E+00 -0.11691894207E+03  0.90334783314E+03  0.89574955687E+03 0.  0.
        5    1    3    3  502    0  0.25272336524E+03 -0.35990982964E+03  0.26908102770E+02  0.44062492077E+03  0.46999998093E+01 0. -1.
       -5    1    3    3    0  502 -0.25272336524E+03  0.35990982964E+03 -0.14382704484E+03  0.46272291237E+03  0.46999998093E+01 0.  1.
</event>
<event>
 5   0  0.1162839E-02  0.8961639E+03  0.7818609E-02  0.9430389E-01
        1   -1    0    0  501    0  0.00000000000E+00  0.00000000000E+00  0.50049007732E+03  0.50049007734E+03  0.50400001928E-02 0. -1.
       -1   -1    0    0    0  501  0.00000000000E+00  0.00000000000E+00 -0.40116165669E+03  0.40116165672E+03  0.50400001928E-02 0.  1.
    10030    2    1    2    0    0  0.00000000000E+00  0.00000000000E+00  0.99328420627E+02  0.90165173406E+03  0.89616388813E+03 0.  0.
        2    1    3    3  502    0 -0.40654720836E+03 -0.15688267631E+03 -0.55304063486E+02  0.43926227495E+03  0.25500000920E-02 0.  1.
       -2    1    3    3    0  502  0.40654720836E+03  0.15688267631E+03  0.15463248411E+03  0.46238945911E+03  0.25500000920E-02 0. -1.
</event>
<event>
 5   0  0.1206541E-02  0.9010695E+03  0.7818609E-02  0.9424245E-01
       -1   -1    0    0    0  501  0.00000000000E+00  0.00000000000E+00  0.37263960029E+03  0.37263960033E+03  0.50400001928E-02 0. -1.
        1   -1    0    0  501    0  0.00000000000E+00  0.00000000000E+00 -0.54471279884E+03  0.54471279887E+03  0.50400001928E-02 0.  1.
    10030    2    1    2    0    0  0.00000000000E+00  0.00000000000E+00 -0.17207319855E+03  0.91735239920E+03  0.90106949713E+03 0.  0.
        3    1    3    3  502    0 -0.10775304449E+03  0.33186509068E+03  0.20413388021E+03  0.40424721182E+03  0.10100000352E+00 0. -1.
       -3    1    3    3    0  502  0.10775304449E+03 -0.33186509068E+03 -0.37620707876E+03  0.51310518738E+03  0.10100000352E+00 0.  1.
</event>
<event>
 5   0  0.1968763E-02  0.8571674E+03  0.7818609E-02  0.9480767E-01
        2   -1    0    0  501    0  0.00000000000E+00  0.00000000000E+00  0.18282797897E+04  0.18282797897E+04  0.25500000920E-02 0.  1.
       -2   -1    0    0    0  501  0.00000000000E+00  0.00000000000E+00 -0.10046820189E+03  0.10046820192E+03  0.25500000920E-02 0. -1.
    10030    2    1    2    0    0  0.00000000000E+00  0.00000000000E+00  0.17278115878E+04  0.19287479916E+04  0.85716738869E+03 0.  0.
        2    1    3    3  502    0 -0.36530006105E+03 -0.21349324853E+03  0.71029376297E+03  0.82676522151E+03  0.25500000920E-02 0. -1.
       -2    1    3    3    0  502  0.36530006105E+03  0.21349324853E+03  0.10175178249E+04  0.11019827701E+04  0.25500000920E-02 0.  1.
</event>
<event>
 5   0  0.2008770E-02  0.8959493E+03  0.7818609E-02  0.9430659E-01
       -2   -1    0    0    0  501  0.00000000000E+00  0.00000000000E+00  0.12010499210E+03  0.12010499212E+03  0.25500000920E-02 0.  1.
        2   -1    0    0  501    0  0.00000000000E+00  0.00000000000E+00 -0.16708822519E+04  0.16708822519E+04  0.25500000920E-02 0. -1.
    10030    2    1    2    0    0  0.00000000000E+00  0.00000000000E+00 -0.15507772598E+04  0.17909872440E+04  0.89594932821E+03 0.  0.
        1    1    3    3  502    0 -0.62733597747E+02  0.44183445390E+03 -0.85353097760E+03  0.96315539696E+03  0.50400001928E-02 0. -1.
       -1    1    3    3    0  502  0.62733597747E+02 -0.44183445390E+03 -0.69724628219E+03  0.82783184705E+03  0.50400001928E-02 0.  1.
</event>
<event>
 5   0  0.2008770E-02  0.8966374E+03  0.7818609E-02  0.9429795E-01
        2   -1    0    0  501    0  0.00000000000E+00  0.00000000000E+00  0.75086684870E+03  0.75086684871E+03  0.25500000920E-02 0. -1.
       -2   -1    0    0    0  501  0.00000000000E+00  0.00000000000E+00 -0.26767680996E+03  0.26767680997E+03  0.25500000920E-02 0.  1.
    10030    2    1    2    0    0  0.00000000000E+00  0.00000000000E+00  0.48319003875E+03  0.10185436587E+04  0.89663736877E+03 0.  0.
        1    1    3    3  502    0  0.38269237808E+03 -0.21788052668E+03  0.33707146257E+03  0.55456519098E+03  0.50400001928E-02 0. -1.
       -1    1    3    3    0  502 -0.38269237808E+03  0.21788052668E+03  0.14611857618E+03  0.46397846769E+03  0.50400001928E-02 0.  1.
</event>
<event>
 5   0  0.2008643E-02  0.9070876E+03  0.7818609E-02  0.9416765E-01
       -2   -1    0    0    0  501  0.00000000000E+00  0.00000000000E+00  0.62517912772E+03  0.62517912772E+03  0.25500000920E-02 0.  1.
        2   -1    0    0  501    0  0.00000000000E+00  0.00000000000E+00 -0.32902888919E+03  0.32902888920E+03  0.25500000920E-02 0. -1.
    10030    2    1    2    0    0  0.00000000000E+00  0.00000000000E+00  0.29615023853E+03  0.95420801693E+03  0.90708763402E+03 0.  0.
        3    1    3    3  502    0  0.38208895954E+03 -0.24307367054E+03  0.17437802921E+03  0.48526744130E+03  0.10100000352E+00 0. -1.
       -3    1    3    3    0  502 -0.38208895954E+03  0.24307367054E+03  0.12177220931E+03  0.46894057563E+03  0.10100000352E+00 0.  1.
</event>
<event>
 5   0  0.1175993E-02  0.8916547E+03  0.7818609E-02  0.9436074E-01
        1   -1    0    0  501    0  0.00000000000E+00  0.00000000000E+00  0.10636146979E+04  0.10636146979E+04  0.50400001928E-02 0.  1.
       -1   -1    0    0    0  501  0.00000000000E+00  0.00000000000E+00 -0.18687408887E+03  0.18687408894E+03  0.50400001928E-02 0. -1.
    10030    2    1    2    0    0  0.00000000000E+00  0.00000000000E+00  0.87674060904E+03  0.12504887869E+04  0.89165470364E+03 0.  0.
        4    1    3    3  502    0  0.43794537772E+03  0.57751758819E+02  0.35388594914E+03  0.56601086333E+03  0.12699999809E+01 0. -1.
       -4    1    3    3    0  502 -0.43794537772E+03 -0.57751758819E+02  0.52285465990E+03  0.68447792352E+03  0.12699999809E+01 0.  1.
</event>
<event>
 5   0  0.2008770E-02  0.8912285E+03  0.7818609E-02  0.9436613E-01
       -2   -1    0    0    0  501  0.00000000000E+00  0.00000000000E+00  0.80106405221E+03  0.80106405222E+03  0.25500000920E-02 0. -1.
        2   -1    0    0  501    0  0.00000000000E+00  0.00000000000E+00 -0.24788539372E+03  0.24788539373E+03  0.25500000920E-02 0.  1.
    10030    2    1    2    0    0  0.00000000000E+00  0.00000000000E+00  0.55317865849E+03  0.10489494460E+04  0.89122854081E+03 0.  0.
        1    1    3    3  502    0  0.37422207281E+03  0.24185601351E+03  0.28361051778E+03  0.52817744828E+03  0.50400001928E-02 0. -1.
       -1    1    3    3    0  502 -0.37422207281E+03 -0.24185601351E+03  0.26956814072E+03  0.52077199767E+03  0.50400001928E-02 0.  1.
</event>
<event>
 5   0  0.1162839E-02  0.8911164E+03  0.7818609E-02  0.9436755E-01
        1   -1    0    0  501    0  0.00000000000E+00  0.00000000000E+00  0.33839609559E+03  0.33839609563E+03  0.50400001928E-02 0. -1.
       -1   -1    0    0    0  501  0.00000000000E+00  0.00000000000E+00 -0.58665607080E+03  0.58665607082E+03  0.50400001928E-02 0.  1.
    10030    2    1    2    0    0  0.00000000000E+00  0.00000000000E+00 -0.24825997521E+03  0.92505216645E+03  0.89111643199E+03 0.  0.
        2    1    3    3  502    0 -0.12667508557E+03 -0.28746951720E+03 -0.45213248411E+03  0.55055343412E+03  0.25500000920E-02 0.  1.
       -2    1    3    3    0  502  0.12667508557E+03  0.28746951720E+03  0.20387250890E+03  0.37449873233E+03  0.25500000920E-02 0. -1.
</event>
<event>
 5   0  0.2041861E-02  0.9004910E+03  0.7818609E-02  0.9424968E-01
       -2   -1    0    0    0  501  0.00000000000E+00  0.00000000000E+00  0.22580657982E+03  0.22580657984E+03  0.25500000920E-02 0. -1.
        2   -1    0    0  501    0  0.00000000000E+00  0.00000000000E+00 -0.89776387980E+03  0.89776387980E+03  0.25500000920E-02 0.  1.
    10030    2    1    2    0    0  0.00000000000E+00  0.00000000000E+00 -0.67195729997E+03  0.11235704596E+04  0.90049095764E+03 0.  0.
        5    1    3    3  502    0 -0.29320494658E+03 -0.33601381226E+03 -0.25881601198E+03  0.51563770303E+03  0.46999998093E+01 0. -1.
       -5    1    3    3    0  502  0.29320494658E+03  0.33601381226E+03 -0.41314128799E+03  0.60793275662E+03  0.46999998093E+01 0.  1.
</event>
<event>
 5   0  0.2008643E-02  0.8933012E+03  0.7818609E-02  0.9433994E-01
       -2   -1    0    0    0  501  0.00000000000E+00  0.00000000000E+00  0.15837977186E+03  0.15837977188E+03  0.25500000920E-02 0. -1.
        2   -1    0    0  501    0  0.00000000000E+00  0.00000000000E+00 -0.12596100965E+04  0.12596100965E+04  0.25500000920E-02 0.  1.
    10030    2    1    2    0    0  0.00000000000E+00  0.00000000000E+00 -0.11012303247E+04  0.14179898684E+04  0.89330120281E+03 0.  0.
        3    1    3    3  502    0  0.12017827357E+03 -0.34041013097E+03 -0.96810835638E+03  0.10332258585E+04  0.10100000352E+00 0.  1.
       -3    1    3    3    0  502 -0.12017827357E+03  0.34041013097E+03 -0.13312196830E+03  0.38476400995E+03  0.10100000352E+00 0. -1.
</event>
<event>
 5   0  0.1162839E-02  0.9487203E+03  0.7818609E-02  0.9366648E-01
        1   -1    0    0  501    0  0.00000000000E+00  0.00000000000E+00  0.20962407427E+04  0.20962407427E+04  0.50400001928E-02 0. -1.
       -1   -1    0    0    0  501  0.00000000000E+00  0.00000000000E+00 -0.10734336564E+03  0.10734336576E+03  0.50400001928E-02 0.  1.
    10030    2    1    2    0    0  0.00000000000E+00  0.00000000000E+00  0.19888973771E+04  0.22035841085E+04  0.94872026785E+03 0.  0.
        2    1    3    3  502    0  0.20165352066E+03  0.58658045005E+01  0.19916354174E+04  0.20018267123E+04  0.25500000920E-02 0. -1.
       -2    1    3    3    0  502 -0.20165352066E+03 -0.58658045005E+01 -0.27380403301E+01  0.20175739622E+03  0.25500000920E-02 0.  1.
</event>
<event>
 5   0  0.1162839E-02  0.9045096E+03  0.7818609E-02  0.9419962E-01
       -1   -1    0    0    0  501  0.00000000000E+00  0.00000000000E+00  0.73397708066E+03  0.73397708068E+03  0.50400001928E-02 0.  1.
        1   -1    0    0  501    0  0.00000000000E+00  0.00000000000E+00 -0.27866591253E+03  0.27866591257E+03  0.50400001928E-02 0. -1.
    10030    2    1    2    0    0  0.00000000000E+00  0.00000000000E+00  0.45531116813E+03  0.10126429933E+04  0.90450957538E+03 0.  0.
        2    1    3    3  502    0  0.39223995975E+03  0.56129440088E+02  0.47173706777E+03  0.61606701030E+03  0.25500000920E-02 0.  1.
       -2    1    3    3    0  502 -0.39223995975E+03 -0.56129440088E+02 -0.16425899635E+02  0.39657598295E+03  0.25500000920E-02 0. -1.
</event>
<event>
 5   0  0.7893875E-03  0.9114314E+03  0.7818609E-02  0.9411403E-01
        3   -1    0    0  501    0  0.00000000000E+00  0.00000000000E+00  0.13488899585E+04  0.13488899623E+04  0.10100000352E+00 0.  1.
       -3   -1    0    0    0  501  0.00000000000E+00  0.00000000000E+00 -0.15396125444E+03  0.15396128757E+03  0.10100000352E+00 0. -1.
    10030    2    1    2    0    0  0.00000000000E+00  0.00000000000E+00  0.11949287041E+04  0.15028512498E+04  0.91143144087E+03 0.  0.
        3    1    3    3  502    0 -0.15032067182E+03 -0.14894349062E+03  0.12629637301E+04  0.12805693506E+04  0.10100000352E+00 0.  1.
       -3    1    3    3    0  502  0.15032067182E+03  0.14894349062E+03 -0.68035026077E+02  0.22228189928E+03  0.10100000352E+00 0. -1.
</event>
<event>
 5   0  0.1177712E-02  0.9039539E+03  0.7818609E-02  0.9420652E-01
       -1   -1    0    0    0  501  0.00000000000E+00  0.00000000000E+00  0.42513428609E+03  0.42513428612E+03  0.50400001928E-02 0. -1.
        1   -1    0    0  501    0  0.00000000000E+00  0.00000000000E+00 -0.48051439619E+03  0.48051439621E+03  0.50400001928E-02 0.  1.
    10030    2    1    2    0    0  0.00000000000E+00  0.00000000000E+00 -0.55380110096E+02  0.90564868233E+03  0.90395385901E+03 0.  0.
        5    1    3    3  502    0 -0.15351747022E+03 -0.38626304656E+03  0.15010901148E+03  0.44195198849E+03  0.46999998093E+01 0. -1.
       -5    1    3    3    0  502  0.15351747022E+03  0.38626304656E+03 -0.20548912157E+03  0.46369669385E+03  0.46999998093E+01 0.  1.
</event>
<event>
 5   0  0.1968763E-02  0.7894520E+03  0.7818609E-02  0.9575412E-01
       -2   -1    0    0    0  501  0.00000000000E+00  0.00000000000E+00  0.27321880101E+03  0.27321880102E+03  0.25500000920E-02 0.  1.
        2   -1    0    0  501    0  0.00000000000E+00  0.00000000000E+00 -0.57027049384E+03  0.57027049385E+03  0.25500000920E-02 0. -1.
    10030    2    1    2    0    0  0.00000000000E+00  0.00000000000E+00 -0.29705169283E+03  0.84348929487E+03  0.78945201396E+03 0.  0.
        2    1    3    3  502    0  0.79755410331E+02 -0.33490878912E+03 -0.35483282165E+03  0.49439979150E+03  0.25500000920E-02 0. -1.
       -2    1    3    3    0  502 -0.79755410331E+02  0.33490878912E+03  0.57781128814E+02  0.34908950337E+03  0.25500000920E-02 0.  1.
</event>
<event>
 5   0  0.1968763E-02  0.9791158E+03  0.7818609E-02  0.9331752E-01
       -2   -1    0    0    0  501  0.00000000000E+00  0.00000000000E+00  0.43617759200E+03  0.43617759201E+03  0.25500000920E-02 0. -1.
        2   -1    0    0  501    0  0.00000000000E+00  0.00000000000E+00 -0.54947095541E+03  0.54947095541E+03  0.25500000920E-02 0.  1.
    10030    2    1    2    0    0  0.00000000000E+00  0.00000000000E+00 -0.11329336341E+03  0.98564854742E+03  0.97911576069E+03 0.  0.
        2    1    3    3  502    0  0.37302249341E+02  0.23985722136E+03  0.37132985298E+03  0.44363138320E+03  0.25500000920E-02 0. -1.
       -2    1    3    3    0  502 -0.37302249341E+02 -0.23985722136E+03 -0.48462321638E+03  0.54201716422E+03  0.25500000920E-02 0.  1.
</event>
<event>
 5   0  0.1206541E-02  0.9064907E+03  0.7818609E-02  0.9417504E-01
       -1   -1    0    0    0  501  0.00000000000E+00  0.00000000000E+00  0.24599875245E+03  0.24599875250E+03  0.50400001928E-02 0. -1.
        1   -1    0    0  501    0  0.00000000000E+00  0.00000000000E+00 -0.83509104844E+03  0.83509104846E+03  0.50400001928E-02 0.  1.
    10030    2    1    2    0    0  0.00000000000E+00  0.00000000000E+00 -0.58909229599E+03  0.10810898010E+04  0.90649071950E+03 0.  0.
        3    1    3    3  502    0  0.17914472281E+03 -0.11608762956E+03 -0.77138459925E+03  0.80037702341E+03  0.10100000352E+00 0.  1.
       -3    1    3    3    0  502 -0.17914472281E+03  0.11608762956E+03  0.18229230326E+03  0.28071277754E+03  0.10100000352E+00 0. -1.
</event>
<event>
 5   0  0.1924218E-02  0.9604839E+03  0.7818609E-02  0.9352980E-01
        2   -1    0    0  501    0  0.00000000000E+00  0.00000000000E+00  0.14499939825E+04  0.14499939825E+04  0.25500000920E-02 0.  1.
       -2   -1    0    0    0  501  0.00000000000E+00  0.00000000000E+00 -0.15905744937E+03  0.15905744939E+03  0.25500000920E-02 0. -1.
    10030    2    1    2    0    0  0.00000000000E+00  0.00000000000E+00  0.12909365331E+04  0.16090514319E+04  0.96048392901E+03 0.  0.
        4    1    3    3  502    0 -0.21731213844E+03  0.36846541163E+03  0.10111160918E+04  0.10978837320E+04  0.12699999809E+01 0.  1.
       -4    1    3    3    0  502  0.21731213844E+03 -0.36846541163E+03  0.27982044135E+03  0.51116769986E+03  0.12699999809E+01 0. -1.
</event>
<event>
 5   0  0.1226424E-02  0.8285166E+03  0.7818609E-02  0.9519634E-01
        1   -1    0    0  501    0  0.00000000000E+00  0.00000000000E+00  0.13793472346E+04  0.13793472346E+04  0.50400001928E-02 0. -1.
       -1   -1    0    0    0  501  0.00000000000E+00  0.00000000000E+00 -0.12441388212E+03  0.12441388222E+03  0.50400001928E-02 0.  1.
    10030    2    1    2    0    0  0.00000000000E+00  0.00000000000E+00  0.12549333525E+04  0.15037611168E+04  0.82851661258E+03 0.  0.
        1    1    3    3  502    0 -0.17228110198E+03  0.35901409862E+03  0.42022178295E+03  0.57892853445E+03  0.50400001928E-02 0.  1.
       -1    1    3    3    0  502  0.17228110198E+03 -0.35901409862E+03  0.83471156954E+03  0.92483258239E+03  0.50400001928E-02 0. -1.
</event>
<event>
 5   0  0.1968763E-02  0.7325219E+03  0.7818609E-02  0.9663177E-01
        2   -1    0    0  501    0  0.00000000000E+00  0.00000000000E+00  0.75609494883E+03  0.75609494884E+03  0.25500000920E-02 0.  1.
       -2   -1    0    0    0  501  0.00000000000E+00  0.00000000000E+00 -0.17742093279E+03  0.17742093281E+03  0.25500000920E-02 0. -1.
    10030    2    1    2    0    0  0.00000000000E+00  0.00000000000E+00  0.57867401604E+03  0.93351588165E+03  0.73252186619E+03 0.  0.
        2    1    3    3  502    0 -0.17270205583E+03 -0.20114757623E+03  0.61138310142E+03  0.66639000910E+03  0.25500000920E-02 0.  1.
       -2    1    3    3    0  502  0.17270205583E+03  0.20114757623E+03 -0.32709085380E+02  0.26712587255E+03  0.25500000920E-02 0. -1.
</event>
<event>
 5   0  0.1206541E-02  0.9734161E+03  0.7818609E-02  0.9338192E-01
        1   -1    0    0  501    0  0.00000000000E+00  0.00000000000E+00  0.59369441441E+03  0.59369441443E+03  0.50400001928E-02 0.  1.
       -1   -1    0    0    0  501  0.00000000000E+00  0.00000000000E+00 -0.39900109193E+03  0.39900109196E+03  0.50400001928E-02 0. -1.
    10030    2    1    2    0    0  0.00000000000E+00  0.00000000000E+00  0.19469332248E+03  0.99269550639E+03  0.97341608708E+03 0.  0.
        3    1    3    3  502    0 -0.10216644239E+03  0.28412429739E+02 -0.38707668332E+03  0.40133977760E+03  0.10100000352E+00 0. -1.
       -3    1    3    3    0  502  0.10216644239E+03 -0.28412429739E+02  0.58177000580E+03  0.59135572878E+03  0.10100000352E+00 0.  1.
</event>
<event>
 5   0  0.7893875E-03  0.9017769E+03  0.7818609E-02  0.9423363E-01
       -3   -1    0    0    0  501  0.00000000000E+00  0.00000000000E+00  0.42629552039E+03  0.42629553235E+03  0.10100000352E+00 0. -1.
        3   -1    0    0  501    0  0.00000000000E+00  0.00000000000E+00 -0.47690015507E+03  0.47690016576E+03  0.10100000352E+00 0.  1.
    10030    2    1    2    0    0  0.00000000000E+00  0.00000000000E+00 -0.50604634680E+02  0.90319569811E+03  0.90177693474E+03 0.  0.
        3    1    3    3  502    0 -0.10450307422E+03 -0.35603353688E+03 -0.28186862206E+03  0.46597285566E+03  0.10100000352E+00 0.  1.
       -3    1    3    3    0  502  0.10450307422E+03  0.35603353688E+03  0.23126398738E+03  0.43722284246E+03  0.10100000352E+00 0. -1.
</event>
<event>
 5   0  0.2008770E-02  0.8808753E+03  0.7818609E-02  0.9449809E-01
       -2   -1    0    0    0  501  0.00000000000E+00  0.00000000000E+00  0.60974830144E+03  0.60974830145E+03  0.25500000920E-02 0.  1.
        2   -1    0    0  501    0  0.00000000000E+00  0.00000000000E+00 -0.31813996491E+03  0.31813996492E+03  0.25500000920E-02 0. -1.
    10030    2    1    2    0    0  0.00000000000E+00  0.00000000000E+00  0.29160833653E+03  0.92788826637E+03  0.88087525390E+03 0.  0.
        1    1    3    3  502    0  0.30699392389E+03 -0.77253533189E+02  0.46836950084E+03  0.56531705001E+03  0.50400001928E-02 0.  1.
       -1    1    3    3    0  502 -0.30699392389E+03  0.77253533189E+02 -0.17676116431E+03  0.36257121636E+03  0.50400001928E-02 0. -1.
</event>
<event>
 5   0  0.2041861E-02  0.8966221E+03  0.7818609E-02  0.9429814E-01
       -2   -1    0    0    0  501  0.00000000000E+00  0.00000000000E+00  0.98161626722E+02  0.98161626756E+02  0.25500000920E-02 0. -1.
        2   -1    0    0  501    0  0.00000000000E+00  0.00000000000E+00 -0.20474682967E+04  0.20474682967E+04  0.25500000920E-02 0.  1.
    10030    2    1    2    0    0  0.00000000000E+00  0.00000000000E+00 -0.19493066699E+04  0.21456299234E+04  0.89662214717E+03 0.  0.
        5    1    3    3  502    0  0.15908689292E+03 -0.21284168168E+02  0.26985738295E+02  0.16282498391E+03  0.46999998093E+01 0. -1.
       -5    1    3    3    0  502 -0.15908689292E+03  0.21284168168E+02 -0.19762924082E+04  0.19828049395E+04  0.46999998093E+01 0.  1.
</event>
<event>
 5   0  0.1226424E-02  0.7132750E+03  0.7818609E-02  0.9694796E-01
        1   -1    0    0  501    0  0.00000000000E+00  0.00000000000E+00  0.58940239331E+03  0.58940239333E+03  0.50400001928E-02 0.  1.
       -1   -1    0    0    0  501  0.00000000000E+00  0.00000000000E+00 -0.21579534898E+03  0.21579534904E+03  0.50400001928E-02 0. -1.
    10030    2    1    2    0    0  0.00000000000E+00  0.00000000000E+00  0.37360704433E+03  0.80519774238E+03  0.71327496855E+03 0.  0.
        1    1    3    3  502    0 -0.23115174464E+03  0.31598936569E+02 -0.11770112147E+03  0.26131049704E+03  0.50400001928E-02 0. -1.
       -1    1    3    3    0  502  0.23115174464E+03 -0.31598936569E+02  0.49130816580E+03  0.54388724534E+03  0.50400001928E-02 0.  1.
</event>
<event>
 5   0  0.1162839E-02  0.9059659E+03  0.7818609E-02  0.9418154E-01
       -1   -1    0    0    0  501  0.00000000000E+00  0.00000000000E+00  0.41872953881E+03  0.41872953884E+03  0.50400001928E-02 0. -1.
        1   -1    0    0  501    0  0.00000000000E+00  0.00000000000E+00 -0.49003839120E+03  0.49003839123E+03  0.50400001928E-02 0.  1.
    10030    2    1    2    0    0  0.00000000000E+00  0.00000000000E+00 -0.71308852388E+02  0.90876793007E+03  0.90596589246E+03 0.  0.
        2    1    3    3  502    0  0.17121410759E+03 -0.36695077347E+03  0.16801643391E+03  0.43840239832E+03  0.25500000920E-02 0. -1.
       -2    1    3    3    0  502 -0.17121410759E+03  0.36695077347E+03 -0.23932528630E+03  0.47036553175E+03  0.25500000920E-02 0.  1.
</event>
<event>
 5   0  0.1175993E-02  0.8962467E+03  0.7818609E-02  0.9430285E-01
        1   -1    0    0  501    0  0.00000000000E+00  0.00000000000E+00  0.11959673714E+04  0.11959673714E+04  0.50400001928E-02 0.  1.
       -1   -1    0    0    0  501  0.00000000000E+00  0.00000000000E+00 -0.16790972054E+03  0.16790972062E+03  0.50400001928E-02 0. -1.
    10030    2    1    2    0    0  0.00000000000E+00  0.00000000000E+00  0.10280576508E+04  0.13638770920E+04  0.89624672308E+03 0.  0.
        4    1    3    3  502    0 -0.26756756750E+03  0.13508224756E+03  0.10209692669E+04  0.10640580218E+04  0.12699999809E+01 0.  1.
       -4    1    3    3    0  502  0.26756756750E+03 -0.13508224756E+03  0.70883838953E+01  0.29981907022E+03  0.12699999809E+01 0. -1.
</event>
<event>
 5   0  0.1968763E-02  0.9278116E+03  0.7818609E-02  0.9391468E-01
        2   -1    0    0  501    0  0.00000000000E+00  0.00000000000E+00  0.12859882470E+04  0.12859882470E+04  0.25500000920E-02 0. -1.
       -2   -1    0    0    0  501  0.00000000000E+00  0.00000000000E+00 -0.16734878563E+03  0.16734878565E+03  0.25500000920E-02 0.  1.
    10030    2    1    2    0    0  0.00000000000E+00  0.00000000000E+00  0.11186394613E+04  0.14533370326E+04  0.92781155733E+03 0.  0.
        2    1    3    3  502    0  0.11856176071E+03 -0.24266633767E+03 -0.31500261189E+02  0.27191195083E+03  0.25500000920E-02 0.  1.
       -2    1    3    3    0  502 -0.11856176071E+03  0.24266633767E+03  0.11501397225E+04  0.11814250818E+04  0.25500000920E-02 0. -1.
</event>
<event>
 5   0  0.1968763E-02  0.9495041E+03  0.7818609E-02  0.9365730E-01
       -2   -1    0    0    0  501  0.00000000000E+00  0.00000000000E+00  0.88250718538E+02  0.88250718575E+02  0.25500000920E-02 0.  1.
        2   -1    0    0  501    0  0.00000000000E+00  0.00000000000E+00 -0.25539680577E+04  0.25539680577E+04  0.25500000920E-02 0. -1.
    10030    2    1    2    0    0  0.00000000000E+00  0.00000000000E+00 -0.24657173392E+04  0.26422187763E+04  0.94950411534E+03 0.  0.
        2    1    3    3  502    0  0.12361622087E+03  0.55507682407E+02 -0.24990107781E+04  0.25026819498E+04  0.25500000920E-02 0. -1.
       -2    1    3    3    0  502 -0.12361622087E+03 -0.55507682407E+02  0.33293438905E+02  0.13953682649E+03  0.25500000920E-02 0.  1.
</event>
<event>
 5   0  0.1924218E-02  0.8652258E+03  0.7818609E-02  0.9470126E-01
        2   -1    0    0  501    0  0.00000000000E+00  0.00000000000E+00  0.20018131714E+03  0.20018131716E+03  0.25500000920E-02 0.  1.
       -2   -1    0    0    0  501  0.00000000000E+00  0.00000000000E+00 -0.93492192445E+03  0.93492192446E+03  0.25500000920E-02 0. -1.
    10030    2    1    2    0    0  0.00000000000E+00  0.00000000000E+00 -0.73474060731E+03  0.11351032416E+04  0.86522575614E+03 0.  0.
        4    1    3    3  502    0  0.39676321423E+03  0.17140975433E+03 -0.39191180124E+03  0.58343707878E+03  0.12699999809E+01 0.  1.
       -4    1    3    3    0  502 -0.39676321423E+03 -0.17140975433E+03 -0.34282880607E+03  0.55166616284E+03  0.12699999809E+01 0. -1.
</event>
<event>
 5   0  0.2041861E-02  0.9001973E+03  0.7818609E-02  0.9425335E-01
        2   -1    0    0  501    0  0.00000000000E+00  0.00000000000E+00  0.10752362996E+04  0.10752362996E+04  0.25500000920E-02 0.  1.
       -2   -1    0    0    0  501  0.00000000000E+00  0.00000000000E+00 -0.18841326999E+03  0.18841327001E+03  0.25500000920E-02 0. -1.
    10030    2    1    2    0    0  0.00000000000E+00  0.00000000000E+00  0.88682302959E+03  0.12636495696E+04  0.90019728333E+03 0.  0.
        5    1    3    3  502    0  0.37608239479E+02 -0.22369645542E+02  0.10722087333E+04  0.10731115685E+04  0.46999998093E+01 0.  1.
       -5    1    3    3    0  502 -0.37608239479E+02  0.22369645542E+02 -0.18538570371E+03  0.19053800108E+03  0.46999998093E+01 0. -1.
</event>
<event>
 5   0  0.1968763E-02  0.9246017E+03  0.7818609E-02  0.9395340E-01
       -2   -1    0    0    0  501  0.00000000000E+00  0.00000000000E+00  0.19162015629E+03  0.19162015631E+03  0.25500000920E-02 0. -1.
        2   -1    0    0  501    0  0.00000000000E+00  0.00000000000E+00 -0.11153422371E+04  0.11153422371E+04  0.25500000920E-02 0.  1.
    10030    2    1    2    0    0  0.00000000000E+00  0.00000000000E+00 -0.92372208079E+03  0.13069623934E+04  0.92460165218E+03 0.  0.
        2    1    3    3  502    0  0.10426930083E+03 -0.39748618588E+02 -0.10960197546E+04  0.11016856821E+04  0.25500000920E-02 0.  1.
       -2    1    3    3    0  502 -0.10426930083E+03  0.39748618588E+02  0.17229767381E+03  0.20527671125E+03  0.25500000920E-02 0. -1.
</event>
<event>
 5   0  0.2008770E-02  0.8509633E+03  0.7818609E-02  0.9489045E-01
       -2   -1    0    0    0  501  0.00000000000E+00  0.00000000000E+00  0.34562869582E+03  0.34562869583E+03  0.25500000920E-02 0. -1.
        2   -1    0    0  501    0  0.00000000000E+00  0.00000000000E+00 -0.52378361843E+03  0.52378361843E+03  0.25500000920E-02 0.  1.
    10030    2    1    2    0    0  0.00000000000E+00  0.00000000000E+00 -0.17815492260E+03  0.86941231427E+03  0.85096333396E+03 0.  0.
        1    1    3    3  502    0  0.20020090938E+03  0.12930693870E+03  0.27103247479E+03  0.36091452025E+03  0.50400001928E-02 0. -1.
       -1    1    3    3    0  502 -0.20020090938E+03 -0.12930693870E+03 -0.44918739740E+03  0.50849779401E+03  0.50400001928E-02 0.  1.
</event>
<event>
 5   0  0.1924218E-02  0.9563247E+03  0.7818609E-02  0.9357788E-01
        2   -1    0    0  501    0  0.00000000000E+00  0.00000000000E+00  0.13520684128E+04  0.13520684128E+04  0.25500000920E-02 0.  1.
       -2   -1    0    0    0  501  0.00000000000E+00  0.00000000000E+00 -0.16910330724E+03  0.16910330726E+03  0.25500000920E-02 0. -1.
    10030    2    1    2    0    0  0.00000000000E+00  0.00000000000E+00  0.11829651056E+04  0.15211717201E+04  0.95632471523E+03 0.  0.
        4    1    3    3  502    0 -0.14555929481E+03 -0.46010647041E+00  0.13159676989E+04  0.13239940775E+04  0.12699999809E+01 0.  1.
       -4    1    3    3    0  502  0.14555929481E+03  0.46010647041E+00 -0.13300259328E+03  0.19717764255E+03  0.12699999809E+01 0. -1.
</event>
<event>
 5   0  0.1924218E-02  0.8963185E+03  0.7818609E-02  0.9430195E-01
       -2   -1    0    0    0  501  0.00000000000E+00  0.00000000000E+00  0.16834277153E+03  0.16834277155E+03  0.25500000920E-02 0.  1.
        2   -1    0    0  501    0  0.00000000000E+00  0.00000000000E+00 -0.11930818983E+04  0.11930818983E+04  0.25500000920E-02 0. -1.
    10030    2    1    2    0    0  0.00000000000E+00  0.00000000000E+00 -0.10247391268E+04  0.13614246699E+04  0.89631850018E+03 0.  0.
        4    1    3    3  502    0  0.14880555552E+03  0.18491915794E+03 -0.10897679502E+04  0.11153178859E+04  0.12699999809E+01 0.  1.
       -4    1    3    3    0  502 -0.14880555552E+03 -0.18491915794E+03  0.65028823473E+02  0.24610678396E+03  0.12699999809E+01 0. -1.
</event>
<event>
 5   0  0.2041861E-02  0.8636073E+03  0.7818609E-02  0.9472253E-01
       -2   -1    0    0    0  501  0.00000000000E+00  0.00000000000E+00  0.21813352799E+03  0.21813352800E+03  0.25500000920E-02 0.  1.
        2   -1    0    0  501    0  0.00000000000E+00  0.00000000000E+00 -0.85477185937E+03  0.85477185938E+03  0.25500000920E-02 0. -1.
    10030    2    1    2    0    0  0.00000000000E+00  0.00000000000E+00 -0.63663833139E+03  0.10729053874E+04  0.86360732122E+03 0.  0.
        5    1    3    3  502    0 -0.25771873690E+03 -0.19549222094E+03 -0.67363254130E+03  0.74728779362E+03  0.46999998093E+01 0. -1.
       -5    1    3    3    0  502  0.25771873690E+03  0.19549222094E+03  0.36994209917E+02  0.32561759375E+03  0.46999998093E+01 0.  1.
</event>
<event>
 5   0  0.1162839E-02  0.9053251E+03  0.7818609E-02  0.9418949E-01
        1   -1    0    0  501    0  0.00000000000E+00  0.00000000000E+00  0.40846888975E+03  0.40846888978E+03  0.50400001928E-02 0.  1.
       -1   -1    0    0    0  501  0.00000000000E+00  0.00000000000E+00 -0.50163764997E+03  0.50163765000E+03  0.50400001928E-02 0. -1.
    10030    2    1    2    0    0  0.00000000000E+00  0.00000000000E+00 -0.93168760218E+02  0.91010653978E+03  0.90532507746E+03 0.  0.
        2    1    3    3  502    0 -0.12759958835E+03 -0.65388043637E+02 -0.47820748898E+03  0.49923907471E+03  0.25500000920E-02 0. -1.
       -2    1    3    3    0  502  0.12759958835E+03  0.65388043637E+02  0.38503872876E+03  0.41086746507E+03  0.25500000920E-02 0.  1.
</event>
<event>
 5   0  0.2041861E-02  0.9171210E+03  0.7818609E-02  0.9404429E-01
       -2   -1    0    0    0  501  0.00000000000E+00  0.00000000000E+00  0.10989118757E+03  0.10989118760E+03  0.25500000920E-02 0.  1.
        2   -1    0    0  501    0  0.00000000000E+00  0.00000000000E+00 -0.19135086351E+04  0.19135086351E+04  0.25500000920E-02 0. -1.
    10030    2    1    2    0    0  0.00000000000E+00  0.00000000000E+00 -0.18036174475E+04  0.20233998227E+04  0.91712100917E+03 0.  0.
        5    1    3    3  502    0 -0.41388082367E+03 -0.10918276663E+03 -0.53903334968E+03  0.68832932147E+03  0.46999998093E+01 0. -1.
       -5    1    3    3    0  502  0.41388082367E+03  0.10918276663E+03 -0.12645840979E+04  0.13350705012E+04  0.46999998093E+01 0.  1.
</event>
<event>
 5   0  0.2008643E-02  0.9263447E+03  0.7818609E-02  0.9393235E-01
        2   -1    0    0  501    0  0.00000000000E+00  0.00000000000E+00  0.14084299583E+04  0.14084299583E+04  0.25500000920E-02 0. -1.
       -2   -1    0    0    0  501  0.00000000000E+00  0.00000000000E+00 -0.15231757127E+03  0.15231757129E+03  0.25500000920E-02 0.  1.
    10030    2    1    2    0    0  0.00000000000E+00  0.00000000000E+00  0.12561123870E+04  0.15607475296E+04  0.92634471030E+03 0.  0.
        3    1    3    3  502    0  0.32354557532E+03  0.93171529334E+02  0.11639481103E+04  0.12116673994E+04  0.10100000352E+00 0. -1.
       -3    1    3    3    0  502 -0.32354557532E+03 -0.93171529334E+02  0.92164276769E+02  0.34908013020E+03  0.10100000352E+00 0.  1.
</event>
<event>
 5   0  0.2041861E-02  0.8981884E+03  0.7818609E-02  0.9427849E-01
        2   -1    0    0  501    0  0.00000000000E+00  0.00000000000E+00  0.13722676697E+04  0.13722676697E+04  0.25500000920E-02 0. -1.
       -2   -1    0    0    0  501  0.00000000000E+00  0.00000000000E+00 -0.14697250562E+03  0.14697250564E+03  0.25500000920E-02 0.  1.
    10030    2    1    2    0    0  0.00000000000E+00  0.00000000000E+00  0.12252951641E+04  0.15192401754E+04  0.89818843861E+03 0.  0.
        5    1    3    3  502    0 -0.17725017166E+03 -0.13955440943E+03  0.12694233518E+04  0.12893218344E+04  0.46999998093E+01 0. -1.
       -5    1    3    3    0  502  0.17725017166E+03  0.13955440943E+03 -0.44128187730E+02  0.22991834093E+03  0.46999998093E+01 0.  1.
</event>
<event>
 5   0  0.1175993E-02  0.8997868E+03  0.7818609E-02  0.9425848E-01
       -1   -1    0    0    0  501  0.00000000000E+00  0.00000000000E+00  0.18622049219E+03  0.18622049226E+03  0.50400001928E-02 0.  1.
        1   -1    0    0  501    0  0.00000000000E+00  0.00000000000E+00 -0.10869055240E+04  0.10869055240E+04  0.50400001928E-02 0. -1.
    10030    2    1    2    0    0  0.00000000000E+00  0.00000000000E+00 -0.90068503180E+03  0.12731260163E+04  0.89978682295E+03 0.  0.
        4    1    3    3  502    0 -0.29338593249E+03 -0.31421694113E+03 -0.63802549382E+03  0.76934110455E+03  0.12699999809E+01 0. -1.
       -4    1    3    3    0  502  0.29338593249E+03  0.31421694113E+03 -0.26265953797E+03  0.50378491171E+03  0.12699999809E+01 0.  1.
</event>
<event>
 5   0  0.1177712E-02  0.8723680E+03  0.7818609E-02  0.9460798E-01
        1   -1    0    0  501    0  0.00000000000E+00  0.00000000000E+00  0.71788405554E+03  0.71788405556E+03  0.50400001928E-02 0. -1.
       -1   -1    0    0    0  501  0.00000000000E+00  0.00000000000E+00 -0.26502396932E+03  0.26502396936E+03  0.50400001928E-02 0.  1.
    10030    2    1    2    0    0  0.00000000000E+00  0.00000000000E+00  0.45286008623E+03  0.98290802493E+03  0.87236800019E+03 0.  0.
        5    1    3    3  502    0 -0.92710080725E+02  0.38161953987E+03  0.44022583038E+03  0.58995720523E+03  0.46999998093E+01 0.  1.
       -5    1    3    3    0  502  0.92710080725E+02 -0.38161953987E+03  0.12634255852E+02  0.39295081969E+03  0.46999998093E+01 0. -1.
</event>
<event>
 5   0  0.1177712E-02  0.8803043E+03  0.7818609E-02  0.9450543E-01
        1   -1    0    0  501    0  0.00000000000E+00  0.00000000000E+00  0.25968711768E+03  0.25968711773E+03  0.50400001928E-02 0.  1.
       -1   -1    0    0    0  501  0.00000000000E+00  0.00000000000E+00 -0.74602815304E+03  0.74602815306E+03  0.50400001928E-02 0. -1.
    10030    2    1    2    0    0  0.00000000000E+00  0.00000000000E+00 -0.48634103537E+03  0.10057152708E+04  0.88030426741E+03 0.  0.
        5    1    3    3  502    0 -0.24306755371E+03 -0.11754581190E+03  0.15392866653E+03  0.31082949979E+03  0.46999998093E+01 0.  1.
       -5    1    3    3    0  502  0.24306755371E+03  0.11754581190E+03 -0.64026970190E+03  0.69488577100E+03  0.46999998093E+01 0. -1.
</event>
<event>
 5   0  0.7893875E-03  0.8988035E+03  0.7818609E-02  0.9427078E-01
        3   -1    0    0  501    0  0.00000000000E+00  0.00000000000E+00  0.52444958726E+03  0.52444959699E+03  0.10100000352E+00 0.  1.
       -3   -1    0    0    0  501  0.00000000000E+00  0.00000000000E+00 -0.38509312068E+03  0.38509313392E+03  0.10100000352E+00 0. -1.
    10030    2    1    2    0    0  0.00000000000E+00  0.00000000000E+00  0.13935646659E+03  0.90954273091E+03  0.89880351277E+03 0.  0.
        1    1    3    3  502    0 -0.11431797526E+03  0.28871784770E+03  0.39842183608E+03  0.50514013356E+03  0.50400001928E-02 0.  1.
       -1    1    3    3    0  502  0.11431797526E+03 -0.28871784770E+03 -0.25906536949E+03  0.40440259735E+03  0.50400001928E-02 0. -1.
</event>
<event>
 5   0  0.2008770E-02  0.8947770E+03  0.7818609E-02  0.9432134E-01
        2   -1    0    0  501    0  0.00000000000E+00  0.00000000000E+00  0.10424225269E+04  0.10424225269E+04  0.25500000920E-02 0.  1.
       -2   -1    0    0    0  501  0.00000000000E+00  0.00000000000E+00 -0.19201087309E+03  0.19201087310E+03  0.25500000920E-02 0. -1.
    10030    2    1    2    0    0  0.00000000000E+00  0.00000000000E+00  0.85041165381E+03  0.12344334000E+04  0.89477697674E+03 0.  0.
        1    1    3    3  502    0 -0.10934191548E+03 -0.42551452463E+03  0.30864649567E+03  0.53691798672E+03  0.50400001928E-02 0. -1.
       -1    1    3    3    0  502  0.10934191548E+03  0.42551452463E+03  0.54176515814E+03  0.69751541327E+03  0.50400001928E-02 0.  1.
</event>
<event>
 5   0  0.2008770E-02  0.9011289E+03  0.7818609E-02  0.9424171E-01
        2   -1    0    0  501    0  0.00000000000E+00  0.00000000000E+00  0.50434962261E+03  0.50434962262E+03  0.25500000920E-02 0. -1.
       -2   -1    0    0    0  501  0.00000000000E+00  0.00000000000E+00 -0.40251504628E+03  0.40251504628E+03  0.25500000920E-02 0.  1.
    10030    2    1    2    0    0  0.00000000000E+00  0.00000000000E+00  0.10183457634E+03  0.90686466890E+03  0.90112887356E+03 0.  0.
        1    1    3    3  502    0 -0.24133034713E+03  0.19720244730E+03 -0.27654465980E+03  0.41666064196E+03  0.50400001928E-02 0.  1.
       -1    1    3    3    0  502  0.24133034713E+03 -0.19720244730E+03  0.37837923614E+03  0.49020402694E+03  0.50400001928E-02 0. -1.
</event>
<event>
 5   0  0.1175993E-02  0.9384604E+03  0.7818609E-02  0.9378741E-01
        1   -1    0    0  501    0  0.00000000000E+00  0.00000000000E+00  0.49522431479E+03  0.49522431481E+03  0.50400001928E-02 0. -1.
       -1   -1    0    0    0  501  0.00000000000E+00  0.00000000000E+00 -0.44460046736E+03  0.44460046739E+03  0.50400001928E-02 0.  1.
    10030    2    1    2    0    0  0.00000000000E+00  0.00000000000E+00  0.50623847428E+02  0.93982478220E+03  0.93846036001E+03 0.  0.
        4    1    3    3  502    0 -0.10563932203E+03  0.22656935659E+03  0.42298119395E+03  0.49133292485E+03  0.12699999809E+01 0. -1.
       -4    1    3    3    0  502  0.10563932203E+03 -0.22656935659E+03 -0.37235734652E+03  0.44849185735E+03  0.12699999809E+01 0.  1.
</event>
<event>
 5   0  0.1968763E-02  0.8997246E+03  0.7818609E-02  0.9425926E-01
       -2   -1    0    0    0  501  0.00000000000E+00  0.00000000000E+00  0.24143158511E+03  0.24143158513E+03  0.25500000920E-02 0.  1.
        2   -1    0    0  501    0  0.00000000000E+00  0.00000000000E+00 -0.83823360072E+03  0.83823360073E+03  0.25500000920E-02 0. -1.
    10030    2    1    2    0    0  0.00000000000E+00  0.00000000000E+00 -0.59680201561E+03  0.10796651859E+04  0.89972455102E+03 0.  0.
        2    1    3    3  502    0  0.42175123586E+03 -0.15139268754E+03 -0.25066870030E+03  0.51344780466E+03  0.25500000920E-02 0.  1.
       -2    1    3    3    0  502 -0.42175123586E+03  0.15139268754E+03 -0.34613331531E+03  0.56621738119E+03  0.25500000920E-02 0. -1.
</event>
<event>
 5   0  0.1177712E-02  0.9057754E+03  0.7818609E-02  0.9418391E-01
       -1   -1    0    0    0  501  0.00000000000E+00  0.00000000000E+00  0.16180332435E+03  0.16180332442E+03  0.50400001928E-02 0.  1.
        1   -1    0    0  501    0  0.00000000000E+00  0.00000000000E+00 -0.12676331586E+04  0.12676331587E+04  0.50400001928E-02 0. -1.
    10030    2    1    2    0    0  0.00000000000E+00  0.00000000000E+00 -0.11058298343E+04  0.14294364831E+04  0.90577537874E+03 0.  0.
        5    1    3    3  502    0  0.40604196995E+03 -0.13243171183E+03 -0.79056418257E+03  0.89856666777E+03  0.46999998093E+01 0.  1.
       -5    1    3    3    0  502 -0.40604196995E+03  0.13243171183E+03 -0.31526565173E+03  0.53086981532E+03  0.46999998093E+01 0. -1.
</event>
<event>
 5   0  0.2041861E-02  0.9033344E+03  0.7818609E-02  0.9421423E-01
        2   -1    0    0  501    0  0.00000000000E+00  0.00000000000E+00  0.99680867953E+03  0.99680867954E+03  0.25500000920E-02 0. -1.
       -2   -1    0    0    0  501  0.00000000000E+00  0.00000000000E+00 -0.20465638680E+03  0.20465638682E+03  0.25500000920E-02 0.  1.
    10030    2    1    2    0    0  0.00000000000E+00  0.00000000000E+00  0.79215229273E+03  0.12014650664E+04  0.90333440696E+03 0.  0.
        5    1    3    3  502    0  0.43954842555E+03 -0.21175440804E+02  0.53125594972E+03  0.68985954498E+03  0.46999998093E+01 0. -1.
       -5    1    3    3    0  502 -0.43954842555E+03  0.21175440804E+02  0.26089634302E+03  0.51160552137E+03  0.46999998093E+01 0.  1.
</event>
<event>
 5   0  0.2041861E-02  0.9132029E+03  0.7818609E-02  0.9409226E-01
        2   -1    0    0  501    0  0.00000000000E+00  0.00000000000E+00  0.33573868739E+03  0.33573868740E+03  0.25500000920E-02 0.  1.
       -2   -1    0    0    0  501  0.00000000000E+00  0.00000000000E+00 -0.62097373404E+03  0.62097373404E+03  0.25500000920E-02 0. -1.
    10030    2    1    2    0    0  0.00000000000E+00  0.00000000000E+00 -0.28523504664E+03  0.95671242144E+03  0.91320294870E+03 0.  0.
        5    1    3    3  502    0 -0.64357919413E+02 -0.30007907016E+03 -0.49676710405E+03  0.58394266483E+03  0.46999998093E+01 0. -1.
       -5    1    3    3    0  502  0.64357919413E+02  0.30007907016E+03  0.21153205741E+03  0.37276975662E+03  0.46999998093E+01 0.  1.
</event>
<event>
 5   0  0.1226424E-02  0.9194420E+03  0.7818609E-02  0.9401599E-01
        1   -1    0    0  501    0  0.00000000000E+00  0.00000000000E+00  0.68388020688E+03  0.68388020690E+03  0.50400001928E-02 0.  1.
       -1   -1    0    0    0  501  0.00000000000E+00  0.00000000000E+00 -0.30903567610E+03  0.30903567614E+03  0.50400001928E-02 0. -1.
    10030    2    1    2    0    0  0.00000000000E+00  0.00000000000E+00  0.37484453079E+03  0.99291588304E+03  0.91944196583E+03 0.  0.
        1    1    3    3  502    0 -0.17119625964E+03 -0.35617016123E+03 -0.66248994969E+02  0.40069224154E+03  0.50400001928E-02 0. -1.
       -1    1    3    3    0  502  0.17119625964E+03  0.35617016123E+03  0.44109352576E+03  0.59222364151E+03  0.50400001928E-02 0.  1.
</event>
<event>
 5   0  0.1175993E-02  0.9584592E+03  0.7818609E-02  0.9355317E-01
       -1   -1    0    0    0  501  0.00000000000E+00  0.00000000000E+00  0.47447755169E+03  0.47447755171E+03  0.50400001928E-02 0. -1.
        1   -1    0    0  501    0  0.00000000000E+00  0.00000000000E+00 -0.48402927539E+03  0.48402927541E+03  0.50400001928E-02 0.  1.
    10030    2    1    2    0    0  0.00000000000E+00  0.00000000000E+00 -0.95517237005E+01  0.95850682713E+03  0.95845923347E+03 0.  0.
        4    1    3    3  502    0  0.13544499047E+03  0.36371629254E+03  0.27635110964E+03  0.47645192370E+03  0.12699999809E+01 0. -1.
       -4    1    3    3    0  502 -0.13544499047E+03 -0.36371629254E+03 -0.28590283334E+03  0.48205490342E+03  0.12699999809E+01 0.  1.
</event>
<event>
 5   0  0.2008643E-02  0.8941316E+03  0.7818609E-02  0.9432947E-01
        2   -1    0    0  501    0  0.00000000000E+00  0.00000000000E+00  0.75968073979E+03  0.75968073979E+03  0.25500000920E-02 0. -1.
       -2   -1    0    0    0  501  0.00000000000E+00  0.00000000000E+00 -0.26309452358E+03  0.26309452359E+03  0.25500000920E-02 0.  1.
    10030    2    1    2    0    0  0.00000000000E+00  0.00000000000E+00  0.49658621621E+03  0.10227752634E+04  0.89413162860E+03 0.  0.
        3    1    3    3  502    0 -0.29157502240E+01  0.33244010405E+03  0.59020074350E+03  0.67739342498E+03  0.10100000352E+00 0. -1.
       -3    1    3    3    0  502  0.29157502240E+01 -0.33244010405E+03 -0.93614527288E+02  0.34538183840E+03  0.10100000352E+00 0.  1.
</event>
<event>
 5   0  0.2008770E-02  0.8919537E+03  0.7818609E-02  0.9435696E-01
        2   -1    0    0  501    0  0.00000000000E+00  0.00000000000E+00  0.79352832233E+03  0.79352832233E+03  0.25500000920E-02 0. -1.
       -2   -1    0    0    0  501  0.00000000000E+00  0.00000000000E+00 -0.25064681824E+03  0.25064681826E+03  0.25500000920E-02 0.  1.
    10030    2    1    2    0    0  0.00000000000E+00  0.00000000000E+00  0.54288150409E+03  0.10441751406E+04  0.89195369653E+03 0.  0.
        1    1    3    3  502    0  0.13490013363E+03  0.34890304922E+03 -0.12824896133E+02  0.37429381746E+03  0.50400001928E-02 0.  1.
       -1    1    3    3    0  502 -0.13490013363E+03 -0.34890304922E+03  0.55570640022E+03  0.66988132313E+03  0.50400001928E-02 0. -1.
</event>
<event>
 5   0  0.2041861E-02  0.8953092E+03  0.7818609E-02  0.9431464E-01
       -2   -1    0    0    0  501  0.00000000000E+00  0.00000000000E+00  0.62527641223E+03  0.62527641224E+03  0.25500000920E-02 0. -1.
        2   -1    0    0  501    0  0.00000000000E+00  0.00000000000E+00 -0.32048967228E+03  0.32048967229E+03  0.25500000920E-02 0.  1.
    10030    2    1    2    0    0  0.00000000000E+00  0.00000000000E+00  0.30478673996E+03  0.94576608453E+03  0.89530918111E+03 0.  0.
        5    1    3    3  502    0  0.36157772654E+03  0.19398553118E+03  0.34137118318E+03  0.53378386389E+03  0.46999998093E+01 0. -1.
       -5    1    3    3    0  502 -0.36157772654E+03 -0.19398553118E+03 -0.36584443227E+02  0.41198222064E+03  0.46999998093E+01 0.  1.
</event>
<event>
 5   0  0.7893875E-03  0.8869771E+03  0.7818609E-02  0.9442009E-01
        4   -1    0    0  501    0  0.00000000000E+00  0.00000000000E+00  0.80624007791E+03  0.80624107817E+03  0.12699999809E+01 0. -1.
       -4   -1    0    0    0  501  0.00000000000E+00  0.00000000000E+00 -0.24394698415E+03  0.24395028997E+03  0.12699999809E+01 0.  1.
    10030    2    1    2    0    0  0.00000000000E+00  0.00000000000E+00  0.56229309376E+03  0.10501913681E+04  0.88697710591E+03 0.  0.
        2    1    3    3  502    0 -0.11987471915E+03 -0.41951353209E+03  0.37527768022E+03  0.57549534245E+03  0.25500000920E-02 0. -1.
       -2    1    3    3    0  502  0.11987471915E+03  0.41951353209E+03  0.18701541354E+03  0.47469602569E+03  0.25500000920E-02 0.  1.
</event>
<event>
 5   0  0.2008643E-02  0.8908694E+03  0.7818609E-02  0.9437068E-01
        2   -1    0    0  501    0  0.00000000000E+00  0.00000000000E+00  0.77688884054E+03  0.77688884055E+03  0.25500000920E-02 0.  1.
       -2   -1    0    0    0  501  0.00000000000E+00  0.00000000000E+00 -0.25539315217E+03  0.25539315218E+03  0.25500000920E-02 0. -1.
    10030    2    1    2    0    0  0.00000000000E+00  0.00000000000E+00  0.52149568837E+03  0.10322819927E+04  0.89086944022E+03 0.  0.
        3    1    3    3  502    0  0.15649468088E+03 -0.16604157408E+02  0.74360250449E+03  0.76007300839E+03  0.10100000352E+00 0.  1.
       -3    1    3    3    0  502 -0.15649468088E+03  0.16604157408E+02 -0.22210681612E+03  0.27220898434E+03  0.10100000352E+00 0. -1.
</event>
<event>
 5   0  0.1924218E-02  0.9107659E+03  0.7818609E-02  0.9412223E-01
        2   -1    0    0  501    0  0.00000000000E+00  0.00000000000E+00  0.48781836475E+03  0.48781836476E+03  0.25500000920E-02 0. -1.
       -2   -1    0    0    0  501  0.00000000000E+00  0.00000000000E+00 -0.42510421172E+03  0.42510421173E+03  0.25500000920E-02 0.  1.
    10030    2    1    2    0    0  0.00000000000E+00  0.00000000000E+00  0.62714153034E+02  0.91292257649E+03  0.91076592255E+03 0.  0.
        4    1    3    3  502    0 -0.97616863609E+02 -0.93548943031E+02 -0.40451922837E+03  0.42651831828E+03  0.12699999809E+01 0.  1.
       -4    1    3    3    0  502  0.97616863609E+02  0.93548943031E+02  0.46723338141E+03  0.48640425821E+03  0.12699999809E+01 0. -1.
</event>
<event>
 5   0  0.1177712E-02  0.9022823E+03  0.7818609E-02  0.9422733E-01
        1   -1    0    0  501    0  0.00000000000E+00  0.00000000000E+00  0.24396913101E+03  0.24396913106E+03  0.50400001928E-02 0.  1.
       -1   -1    0    0    0  501  0.00000000000E+00  0.00000000000E+00 -0.83423803074E+03  0.83423803075E+03  0.50400001928E-02 0. -1.
    10030    2    1    2    0    0  0.00000000000E+00  0.00000000000E+00 -0.59026889973E+03  0.10782071618E+04  0.90228227834E+03 0.  0.
        5    1    3    3  502    0  0.52284869424E+02  0.14501869958E+03  0.21148831239E+03  0.26175088744E+03  0.46999998093E+01 0.  1.
       -5    1    3    3    0  502 -0.52284869424E+02 -0.14501869958E+03 -0.80175721212E+03  0.81645627438E+03  0.46999998093E+01 0. -1.
</event>
<event>
 5   0  0.2008643E-02  0.9585067E+03  0.7818609E-02  0.9355262E-01
       -2   -1    0    0    0  501  0.00000000000E+00  0.00000000000E+00  0.87343317637E+02  0.87343317674E+02  0.25500000920E-02 0. -1.
        2   -1    0    0  501    0  0.00000000000E+00  0.00000000000E+00 -0.26296661981E+04  0.26296661981E+04  0.25500000920E-02 0.  1.
    10030    2    1    2    0    0  0.00000000000E+00  0.00000000000E+00 -0.25423228805E+04  0.27170095158E+04  0.95850669288E+03 0.  0.
        3    1    3    3  502    0 -0.12610535778E+03  0.29295285430E+03 -0.22851494659E+04  0.23072997265E+04  0.10100000352E+00 0.  1.
       -3    1    3    3    0  502  0.12610535778E+03 -0.29295285430E+03 -0.25717341463E+03  0.40970978936E+03  0.10100000352E+00 0. -1.
</event>
<event>
 5   0  0.1924218E-02  0.9059543E+03  0.7818609E-02  0.9418169E-01
        2   -1    0    0  501    0  0.00000000000E+00  0.00000000000E+00  0.16302015015E+04  0.16302015016E+04  0.25500000920E-02 0.  1.
       -2   -1    0    0    0  501  0.00000000000E+00  0.00000000000E+00 -0.12586682211E+03  0.12586682214E+03  0.25500000920E-02 0. -1.
    10030    2    1    2    0    0  0.00000000000E+00  0.00000000000E+00  0.15043346794E+04  0.17560683237E+04  0.90595426468E+03 0.  0.
        4    1    3    3  502    0 -0.22726818966E+03  0.72023241245E+02  0.55867343806E+01  0.23847641773E+03  0.12699999809E+01 0. -1.
       -4    1    3    3    0  502  0.22726818966E+03 -0.72023241245E+02  0.14987479451E+04  0.15175919060E+04  0.12699999809E+01 0.  1.
</event>
<event>
 5   0  0.2008770E-02  0.9304888E+03  0.7818609E-02  0.9388251E-01
       -2   -1    0    0    0  501  0.00000000000E+00  0.00000000000E+00  0.58421754590E+03  0.58421754591E+03  0.25500000920E-02 0. -1.
        2   -1    0    0  501    0  0.00000000000E+00  0.00000000000E+00 -0.37049957013E+03  0.37049957014E+03  0.25500000920E-02 0.  1.
    10030    2    1    2    0    0  0.00000000000E+00  0.00000000000E+00  0.21371797577E+03  0.95471711604E+03  0.93048879547E+03 0.  0.
        1    1    3    3  502    0 -0.36513295590E+03  0.25434410343E+02  0.40153633098E+03  0.54332348545E+03  0.50400001928E-02 0. -1.
       -1    1    3    3    0  502  0.36513295590E+03 -0.25434410343E+02 -0.18781835521E+03  0.41139363060E+03  0.50400001928E-02 0.  1.
</event>
<event>
 5   0  0.1175993E-02  0.8581324E+03  0.7818609E-02  0.9479487E-01
        1   -1    0    0  501    0  0.00000000000E+00  0.00000000000E+00  0.20702828143E+04  0.20702828143E+04  0.50400001928E-02 0. -1.
       -1   -1    0    0    0  501  0.00000000000E+00  0.00000000000E+00 -0.88923982777E+02  0.88923982920E+02  0.50400001928E-02 0.  1.
    10030    2    1    2    0    0  0.00000000000E+00  0.00000000000E+00  0.19813588315E+04  0.21592067972E+04  0.85813237553E+03 0.  0.
        4    1    3    3  502    0  0.60308764351E+02 -0.40052219389E+03  0.63447466497E+03  0.75273826012E+03  0.12699999809E+01 0. -1.
       -4    1    3    3    0  502 -0.60308764351E+02  0.40052219389E+03  0.13468841665E+04  0.14064685371E+04  0.12699999809E+01 0.  1.
</event>
<event>
 5   0  0.2008643E-02  0.8964058E+03  0.7818609E-02  0.9430086E-01
        2   -1    0    0  501    0  0.00000000000E+00  0.00000000000E+00  0.11233424608E+04  0.11233424608E+04  0.25500000920E-02 0.  1.
       -2   -1    0    0    0  501  0.00000000000E+00  0.00000000000E+00 -0.17882865923E+03  0.17882865925E+03  0.25500000920E-02 0. -1.
    10030    2    1    2    0    0  0.00000000000E+00  0.00000000000E+00  0.94451380154E+03  0.13021711200E+04  0.89640577002E+03 0.  0.
        3    1    3    3  502    0 -0.28984331652E+03  0.20735092229E+03  0.77405657346E+02  0.36468506838E+03  0.10100000352E+00 0. -1.
       -3    1    3    3    0  502  0.28984331652E+03 -0.20735092229E+03  0.86710814420E+03  0.93748605165E+03  0.10100000352E+00 0.  1.
</event>
<event>
 5   0  0.2041861E-02  0.9105460E+03  0.7818609E-02  0.9412494E-01
        2   -1    0    0  501    0  0.00000000000E+00  0.00000000000E+00  0.13150937088E+04  0.13150937088E+04  0.25500000920E-02 0.  1.
       -2   -1    0    0    0  501  0.00000000000E+00  0.00000000000E+00 -0.15761121708E+03  0.15761121710E+03  0.25500000920E-02 0. -1.
    10030    2    1    2    0    0  0.00000000000E+00  0.00000000000E+00  0.11574824917E+04  0.14727049259E+04  0.91054603407E+03 0.  0.
        5    1    3    3  502    0  0.23303769750E+03 -0.38591412139E+02  0.12081843056E+04  0.12310675334E+04  0.46999998093E+01 0.  1.
       -5    1    3    3    0  502 -0.23303769750E+03  0.38591412139E+02 -0.50701813828E+02  0.24163739254E+03  0.46999998093E+01 0. -1.
</event>
<event>
 5   0  0.1226424E-02  0.9707766E+03  0.7818609E-02  0.9341190E-01
        1   -1    0    0  501    0  0.00000000000E+00  0.00000000000E+00  0.87950925960E+03  0.87950925961E+03  0.50400001928E-02 0. -1.
       -1   -1    0    0    0  501  0.00000000000E+00  0.00000000000E+00 -0.26787869689E+03  0.26787869693E+03  0.50400001928E-02 0.  1.
    10030    2    1    2    0    0  0.00000000000E+00  0.00000000000E+00  0.61163056271E+03  0.11473879565E+04  0.97077658480E+03 0.  0.
        1    1    3    3  502    0  0.28964430625E+03 -0.38949662617E+03  0.30511761071E+03  0.57332207557E+03  0.50400001928E-02 0. -1.
       -1    1    3    3    0  502 -0.28964430625E+03  0.38949662617E+03  0.30651295200E+03  0.57406588098E+03  0.50400001928E-02 0.  1.
</event>
<event>
 5   0  0.7893875E-03  0.9043095E+03  0.7818609E-02  0.9420210E-01
        3   -1    0    0  501    0  0.00000000000E+00  0.00000000000E+00  0.41903055496E+03  0.41903056713E+03  0.10100000352E+00 0.  1.
       -3   -1    0    0    0  501  0.00000000000E+00  0.00000000000E+00 -0.48789736980E+03  0.48789738025E+03  0.10100000352E+00 0. -1.
    10030    2    1    2    0    0  0.00000000000E+00  0.00000000000E+00 -0.68866814836E+02  0.90692794739E+03  0.90430949545E+03 0.  0.
        4    1    3    3  502    0  0.14683164972E+03  0.17078232903E+03 -0.42763517864E+03  0.48332142119E+03  0.12699999809E+01 0. -1.
       -4    1    3    3    0  502 -0.14683164972E+03 -0.17078232903E+03  0.35876836380E+03  0.42360652620E+03  0.12699999809E+01 0.  1.
</event>
<event>
 5   0  0.1175993E-02  0.9250699E+03  0.7818609E-02  0.9394774E-01
        1   -1    0    0  501    0  0.00000000000E+00  0.00000000000E+00  0.26572970387E+03  0.26572970392E+03  0.50400001928E-02 0.  1.
       -1   -1    0    0    0  501  0.00000000000E+00  0.00000000000E+00 -0.80509841290E+03  0.80509841292E+03  0.50400001928E-02 0. -1.
    10030    2    1    2    0    0  0.00000000000E+00  0.00000000000E+00 -0.53936870903E+03  0.10708281168E+04  0.92506986306E+03 0.  0.
        4    1    3    3  502    0  0.46269937651E+02 -0.40490760047E+03 -0.16482141464E+02  0.40787785664E+03  0.12699999809E+01 0.  1.
       -4    1    3    3    0  502 -0.46269937651E+02  0.40490760047E+03 -0.52288656757E+03  0.66295026020E+03  0.12699999809E+01 0. -1.
</event>
<event>
 5   0  0.1924218E-02  0.9087384E+03  0.7818609E-02  0.9414723E-01
        2   -1    0    0  501    0  0.00000000000E+00  0.00000000000E+00  0.17986812806E+03  0.17986812808E+03  0.25500000920E-02 0.  1.
       -2   -1    0    0    0  501  0.00000000000E+00  0.00000000000E+00 -0.11477930682E+04  0.11477930682E+04  0.25500000920E-02 0. -1.
    10030    2    1    2    0    0  0.00000000000E+00  0.00000000000E+00 -0.96792494014E+03  0.13276611963E+04  0.90873844553E+03 0.  0.
        4    1    3    3  502    0  0.28357661046E+03 -0.30927475436E+03 -0.22929985870E+03  0.47817005948E+03  0.12699999809E+01 0.  1.
       -4    1    3    3    0  502 -0.28357661046E+03  0.30927475436E+03 -0.73862508145E+03  0.84949113682E+03  0.12699999809E+01 0. -1.
</event>
<event>
 5   0  0.1206541E-02  0.7716681E+03  0.7818609E-02  0.9601957E-01
        1   -1    0    0  501    0  0.00000000000E+00  0.00000000000E+00  0.48395226802E+03  0.48395226805E+03  0.50400001928E-02 0.  1.
       -1   -1    0    0    0  501  0.00000000000E+00  0.00000000000E+00 -0.30760863646E+03  0.30760863650E+03  0.50400001928E-02 0. -1.
    10030    2    1    2    0    0  0.00000000000E+00  0.00000000000E+00  0.17634363156E+03  0.79156090455E+03  0.77166805637E+03 0.  0.
        3    1    3    3  502    0  0.34949931573E+03  0.65993050336E+02  0.24156962702E+03  0.42995435722E+03  0.10100000352E+00 0.  1.
       -3    1    3    3    0  502 -0.34949931573E+03 -0.65993050336E+02 -0.65225995460E+02  0.36160654733E+03  0.10100000352E+00 0. -1.
</event>
<event>
 5   0  0.2041861E-02  0.9057077E+03  0.7818609E-02  0.9418475E-01
       -2   -1    0    0    0  501  0.00000000000E+00  0.00000000000E+00  0.12171618984E+03  0.12171618987E+03  0.25500000920E-02 0. -1.
        2   -1    0    0  501    0  0.00000000000E+00  0.00000000000E+00 -0.16848753653E+04  0.16848753653E+04  0.25500000920E-02 0.  1.
    10030    2    1    2    0    0  0.00000000000E+00  0.00000000000E+00 -0.15631591755E+04  0.18065915552E+04  0.90570770086E+03 0.  0.
        5    1    3    3  502    0 -0.21921403806E+02  0.45190414614E+03 -0.74391168138E+03  0.87070350001E+03  0.46999998093E+01 0.  1.
       -5    1    3    3    0  502  0.21921403806E+02 -0.45190414614E+03 -0.81924749411E+03  0.93588805519E+03  0.46999998093E+01 0. -1.
</event>
<event>
 5   0  0.1968763E-02  0.8651271E+03  0.7818609E-02  0.9470256E-01
        2   -1    0    0  501    0  0.00000000000E+00  0.00000000000E+00  0.43895476369E+03  0.43895476370E+03  0.25500000920E-02 0.  1.
       -2   -1    0    0    0  501  0.00000000000E+00  0.00000000000E+00 -0.42626543112E+03  0.42626543113E+03  0.25500000920E-02 0. -1.
    10030    2    1    2    0    0  0.00000000000E+00  0.00000000000E+00  0.12689332570E+02  0.86522019483E+03  0.86512713886E+03 0.  0.
        2    1    3    3  502    0 -0.20961152248E+03  0.32730118731E+03  0.19622868184E+03  0.43539493928E+03  0.25500000920E-02 0.  1.
       -2    1    3    3    0  502  0.20961152248E+03 -0.32730118731E+03 -0.18353934927E+03  0.42982525555E+03  0.25500000920E-02 0. -1.
</event>
<event>
 5   0  0.2041861E-02  0.8989886E+03  0.7818609E-02  0.9426847E-01
        2   -1    0    0  501    0  0.00000000000E+00  0.00000000000E+00  0.56618687897E+03  0.56618687897E+03  0.25500000920E-02 0. -1.
       -2   -1    0    0    0  501  0.00000000000E+00  0.00000000000E+00 -0.35685234643E+03  0.35685234643E+03  0.25500000920E-02 0.  1.
    10030    2    1    2    0    0  0.00000000000E+00  0.00000000000E+00  0.20933453254E+03  0.92303922541E+03  0.89898857897E+03 0.  0.
        5    1    3    3  502    0 -0.12510257492E+03  0.34624902865E+03  0.36941027187E+03  0.52156023914E+03  0.46999998093E+01 0. -1.
       -5    1    3    3    0  502  0.12510257492E+03 -0.34624902865E+03 -0.16007573933E+03  0.40147898627E+03  0.46999998093E+01 0.  1.
</event>
<event>
 5   0  0.1206541E-02  0.9166056E+03  0.7818609E-02  0.9405058E-01
       -1   -1    0    0    0  501  0.00000000000E+00  0.00000000000E+00  0.37662321998E+03  0.37662322002E+03  0.50400001928E-02 0.  1.
        1   -1    0    0  501    0  0.00000000000E+00  0.00000000000E+00 -0.55769655285E+03  0.55769655287E+03  0.50400001928E-02 0. -1.
    10030    2    1    2    0    0  0.00000000000E+00  0.00000000000E+00 -0.18107333287E+03  0.93431977289E+03  0.91660563283E+03 0.  0.
        3    1    3    3  502    0  0.90781670423E+02 -0.44852988346E+03 -0.11594004250E+03  0.47208311948E+03  0.10100000352E+00 0.  1.
       -3    1    3    3    0  502 -0.90781670423E+02  0.44852988346E+03 -0.65133290370E+02  0.46223665341E+03  0.10100000352E+00 0. -1.
</event>
<event>
 5   0  0.1162839E-02  0.8717534E+03  0.7818609E-02  0.9461597E-01
       -1   -1    0    0    0  501  0.00000000000E+00  0.00000000000E+00  0.35153618470E+03  0.35153618474E+03  0.50400001928E-02 0.  1.
        1   -1    0    0  501    0  0.00000000000E+00  0.00000000000E+00 -0.54045217217E+03  0.54045217220E+03  0.50400001928E-02 0. -1.
    10030    2    1    2    0    0  0.00000000000E+00  0.00000000000E+00 -0.18891598747E+03  0.89198835694E+03  0.87175339322E+03 0.  0.
        2    1    3    3  502    0  0.29588943815E+03  0.25965292559E+03 -0.28593341197E+03  0.48654713797E+03  0.25500000920E-02 0. -1.
       -2    1    3    3    0  502 -0.29588943815E+03 -0.25965292559E+03  0.97017424496E+02  0.40544121897E+03  0.25500000920E-02 0.  1.
</event>
<event>
 5   0  0.2008643E-02  0.9129694E+03  0.7818609E-02  0.9409513E-01
       -2   -1    0    0    0  501  0.00000000000E+00  0.00000000000E+00  0.11208812873E+03  0.11208812876E+03  0.25500000920E-02 0. -1.
        2   -1    0    0  501    0  0.00000000000E+00  0.00000000000E+00 -0.18590575535E+04  0.18590575535E+04  0.25500000920E-02 0.  1.
    10030    2    1    2    0    0  0.00000000000E+00  0.00000000000E+00 -0.17469694248E+04  0.19711456822E+04  0.91296940234E+03 0.  0.
        3    1    3    3  502    0  0.39029836059E+02 -0.16592772180E+03  0.40797814433E+02  0.17527067304E+03  0.10100000352E+00 0. -1.
       -3    1    3    3    0  502 -0.39029836059E+02  0.16592772180E+03 -0.17877672392E+04  0.17958750092E+04  0.10100000352E+00 0.  1.
</event>
<event>
 5   0  0.1162839E-02  0.8989410E+03  0.7818609E-02  0.9426906E-01
       -1   -1    0    0    0  501  0.00000000000E+00  0.00000000000E+00  0.27953351270E+03  0.27953351275E+03  0.50400001928E-02 0.  1.
        1   -1    0    0  501    0  0.00000000000E+00  0.00000000000E+00 -0.72271734920E+03  0.72271734922E+03  0.50400001928E-02 0. -1.
    10030    2    1    2    0    0  0.00000000000E+00  0.00000000000E+00 -0.44318383650E+03  0.10022508620E+04  0.89894097547E+03 0.  0.
        2    1    3    3  502    0  0.50803333243E+01  0.28037617804E+03 -0.61322570757E+03  0.67430140103E+03  0.25500000920E-02 0. -1.
       -2    1    3    3    0  502 -0.50803333243E+01 -0.28037617804E+03  0.17004187108E+03  0.32794946093E+03  0.25500000920E-02 0.  1.
</event>
<event>
 5   0  0.1924218E-02  0.9111064E+03  0.7818609E-02  0.9411803E-01
       -2   -1    0    0    0  501  0.00000000000E+00  0.00000000000E+00  0.10696029811E+03  0.10696029814E+03  0.25500000920E-02 0.  1.
        2   -1    0    0  501    0  0.00000000000E+00  0.00000000000E+00 -0.19402408123E+04  0.19402408123E+04  0.25500000920E-02 0. -1.
    10030    2    1    2    0    0  0.00000000000E+00  0.00000000000E+00 -0.18332805142E+04  0.20472011104E+04  0.91110643884E+03 0.  0.
        4    1    3    3  502    0 -0.40686755622E+01 -0.39637418331E+03 -0.14210673087E+04  0.14753179170E+04  0.12699999809E+01 0.  1.
       -4    1    3    3    0  502  0.40686755622E+01  0.39637418331E+03 -0.41221320547E+03  0.57188319347E+03  0.12699999809E+01 0. -1.
</event>
<event>
 5   0  0.1175993E-02  0.8596112E+03  0.7818609E-02  0.9477527E-01
        1   -1    0    0  501    0  0.00000000000E+00  0.00000000000E+00  0.53590169004E+03  0.53590169006E+03  0.50400001928E-02 0. -1.
       -1   -1    0    0    0  501  0.00000000000E+00  0.00000000000E+00 -0.34471403843E+03  0.34471403847E+03  0.50400001928E-02 0.  1.
    10030    2    1    2    0    0  0.00000000000E+00  0.00000000000E+00  0.19118765161E+03  0.88061572853E+03  0.85961115814E+03 0.  0.
        4    1    3    3  502    0 -0.40819363426E+03 -0.87312174044E+02  0.20049598700E+03  0.46308283546E+03  0.12699999809E+01 0.  1.
       -4    1    3    3    0  502  0.40819363426E+03  0.87312174044E+02 -0.93083353962E+01  0.41753289307E+03  0.12699999809E+01 0. -1.
</event>
<event>
 5   0  0.1226424E-02  0.9096847E+03  0.7818609E-02  0.9413555E-01
        1   -1    0    0  501    0  0.00000000000E+00  0.00000000000E+00  0.26582453812E+03  0.26582453816E+03  0.50400001928E-02 0.  1.
       -1   -1    0    0    0  501  0.00000000000E+00  0.00000000000E+00 -0.77826359280E+03  0.77826359282E+03  0.50400001928E-02 0. -1.
    10030    2    1    2    0    0  0.00000000000E+00  0.00000000000E+00 -0.51243905468E+03  0.10440881310E+04  0.90968469289E+03 0.  0.
        1    1    3    3  502    0  0.35257287598E+03 -0.16728960408E+03 -0.52438034616E+03  0.65365754947E+03  0.50400001928E-02 0. -1.
       -1    1    3    3    0  502 -0.35257287598E+03  0.16728960408E+03  0.11941291475E+02  0.39043058151E+03  0.50400001928E-02 0.  1.
</event>
<event>
 5   0  0.1177712E-02  0.8984292E+03  0.7818609E-02  0.9427547E-01
        1   -1    0    0  501    0  0.00000000000E+00  0.00000000000E+00  0.85257943954E+03  0.85257943956E+03  0.50400001928E-02 0.  1.
       -1   -1    0    0    0  501  0.00000000000E+00  0.00000000000E+00 -0.23668614731E+03  0.23668614736E+03  0.50400001928E-02 0. -1.
    10030    2    1    2    0    0  0.00000000000E+00  0.00000000000E+00  0.61589329223E+03  0.10892655869E+04  0.89842916885E+03 0.  0.
        5    1    3    3  502    0  0.94580279374E+02  0.26914153647E+03 -0.11272519862E+03  0.30677623165E+03  0.46999998093E+01 0. -1.
       -5    1    3    3    0  502 -0.94580279374E+02 -0.26914153647E+03  0.72861849086E+03  0.78248935527E+03  0.46999998093E+01 0.  1.
</event>
<event>
 5   0  0.1206541E-02  0.9134467E+03  0.7818609E-02  0.9408927E-01
       -1   -1    0    0    0  501  0.00000000000E+00  0.00000000000E+00  0.41431923757E+03  0.41431923760E+03  0.50400001928E-02 0.  1.
        1   -1    0    0  501    0  0.00000000000E+00  0.00000000000E+00 -0.50346740183E+03  0.50346740186E+03  0.50400001928E-02 0. -1.
    10030    2    1    2    0    0  0.00000000000E+00  0.00000000000E+00 -0.89148164257E+02  0.91778663946E+03  0.91344672553E+03 0.  0.
        3    1    3    3  502    0 -0.10967620233E+03 -0.30594365297E+03  0.27783337179E+03  0.42757663737E+03  0.10100000352E+00 0.  1.
       -3    1    3    3    0  502  0.10967620233E+03  0.30594365297E+03 -0.36698153604E+03  0.49021000209E+03  0.10100000352E+00 0. -1.
</event>
<event>
 5   0  0.1968763E-02  0.8817399E+03  0.7818609E-02  0.9448700E-01
       -2   -1    0    0    0  501  0.00000000000E+00  0.00000000000E+00  0.31306147264E+03  0.31306147265E+03  0.25500000920E-02 0.  1.
        2   -1    0    0  501    0  0.00000000000E+00  0.00000000000E+00 -0.62085671553E+03  0.62085671553E+03  0.25500000920E-02 0. -1.
    10030    2    1    2    0    0  0.00000000000E+00  0.00000000000E+00 -0.30779524289E+03  0.93391818818E+03  0.88173991102E+03 0.  0.
        2    1    3    3  502    0  0.10917994226E+02  0.25465058111E+03  0.22711187680E+03  0.34138823303E+03  0.25500000920E-02 0.  1.
       -2    1    3    3    0  502 -0.10917994226E+02 -0.25465058111E+03 -0.53490711969E+03  0.59252995516E+03  0.25500000920E-02 0. -1.
</event>
<event>
 5   0  0.1175993E-02  0.9027751E+03  0.7818609E-02  0.9422119E-01
       -1   -1    0    0    0  501  0.00000000000E+00  0.00000000000E+00  0.80292713055E+03  0.80292713056E+03  0.50400001928E-02 0.  1.
        1   -1    0    0  501    0  0.00000000000E+00  0.00000000000E+00 -0.25375991456E+03  0.25375991461E+03  0.50400001928E-02 0. -1.
    10030    2    1    2    0    0  0.00000000000E+00  0.00000000000E+00  0.54916721599E+03  0.10566870452E+04  0.90277509952E+03 0.  0.
        4    1    3    3  502    0 -0.22311542297E+03 -0.37287736439E+03  0.13155842416E+03  0.45401239268E+03  0.12699999809E+01 0. -1.
       -4    1    3    3    0  502  0.22311542297E+03  0.37287736439E+03  0.41760879183E+03  0.60267465249E+03  0.12699999809E+01 0.  1.
</event>
<event>
 5   0  0.2008643E-02  0.9281152E+03  0.7818609E-02  0.9391103E-01
        2   -1    0    0  501    0  0.00000000000E+00  0.00000000000E+00  0.35252892274E+03  0.35252892275E+03  0.25500000920E-02 0. -1.
       -2   -1    0    0    0  501  0.00000000000E+00  0.00000000000E+00 -0.61087027674E+03  0.61087027674E+03  0.25500000920E-02 0.  1.
    10030    2    1    2    0    0  0.00000000000E+00  0.00000000000E+00 -0.25834135399E+03  0.96339919949E+03  0.92811516656E+03 0.  0.
        3    1    3    3  502    0  0.42456571083E+03  0.37610650261E+02  0.61324018686E+02  0.43061728866E+03  0.10100000352E+00 0. -1.
       -3    1    3    3    0  502 -0.42456571083E+03 -0.37610650261E+02 -0.31966537268E+03  0.53278191084E+03  0.10100000352E+00 0.  1.
</event>
<event>
 5   0  0.7893875E-03  0.8946039E+03  0.7818609E-02  0.9432352E-01
        3   -1    0    0  501    0  0.00000000000E+00  0.00000000000E+00  0.84845004310E+03  0.84845004911E+03  0.10100000352E+00 0. -1.
       -3   -1    0    0    0  501  0.00000000000E+00  0.00000000000E+00 -0.23581709300E+03  0.23581711463E+03  0.10100000352E+00 0.  1.
    10030    2    1    2    0    0  0.00000000000E+00  0.00000000000E+00  0.61263295010E+03  0.10842671637E+04  0.89460390723E+03 0.  0.
        4    1    3    3  502    0 -0.14128466609E+03  0.36834438012E+03  0.50819866290E+02  0.39777281324E+03  0.12699999809E+01 0.  1.
       -4    1    3    3    0  502  0.14128466609E+03 -0.36834438012E+03  0.56181308381E+03  0.68649435051E+03  0.12699999809E+01 0. -1.
</event>
<event>
 5   0  0.1924218E-02  0.9086102E+03  0.7818609E-02  0.9414882E-01
       -2   -1    0    0    0  501  0.00000000000E+00  0.00000000000E+00  0.17424041396E+03  0.17424041398E+03  0.25500000920E-02 0.  1.
        2   -1    0    0  501    0  0.00000000000E+00  0.00000000000E+00 -0.11845307482E+04  0.11845307482E+04  0.25500000920E-02 0. -1.
    10030    2    1    2    0    0  0.00000000000E+00  0.00000000000E+00 -0.10102903343E+04  0.13587711622E+04  0.90861020889E+03 0.  0.
        4    1    3    3  502    0 -0.25499848251E+03 -0.29004436993E+03 -0.14735828738E+03  0.41335945662E+03  0.12699999809E+01 0.  1.
       -4    1    3    3    0  502  0.25499848251E+03  0.29004436993E+03 -0.86293204687E+03  0.94541170557E+03  0.12699999809E+01 0. -1.
</event>
<event>
 5   0  0.1226424E-02  0.9165378E+03  0.7818609E-02  0.9405141E-01
        1   -1    0    0  501    0  0.00000000000E+00  0.00000000000E+00  0.20932718256E+03  0.20932718262E+03  0.50400001928E-02 0. -1.
       -1   -1    0    0    0  501  0.00000000000E+00  0.00000000000E+00 -0.10032638618E+04  0.10032638618E+04  0.50400001928E-02 0.  1.
    10030    2    1    2    0    0  0.00000000000E+00  0.00000000000E+00 -0.79393667920E+03  0.12125910444E+04  0.91653782812E+03 0.  0.
        1    1    3    3  502    0 -0.29743518356E+03 -0.26596355625E+02 -0.85686573694E+03  0.90741057175E+03  0.50400001928E-02 0.  1.
       -1    1    3    3    0  502  0.29743518356E+03  0.26596355625E+02  0.62929057737E+02  0.30518047265E+03  0.50400001928E-02 0. -1.
</event>
<event>
 5   0  0.2041861E-02  0.8866989E+03  0.7818609E-02  0.9442363E-01
        2   -1    0    0  501    0  0.00000000000E+00  0.00000000000E+00  0.51856129769E+03  0.51856129770E+03  0.25500000920E-02 0. -1.
       -2   -1    0    0    0  501  0.00000000000E+00  0.00000000000E+00 -0.37904626971E+03  0.37904626971E+03  0.25500000920E-02 0.  1.
    10030    2    1    2    0    0  0.00000000000E+00  0.00000000000E+00  0.13951502799E+03  0.89760756741E+03  0.88669887901E+03 0.  0.
        5    1    3    3  502    0  0.31822166502E+03  0.18780918197E+03 -0.17820355784E+03  0.41026322642E+03  0.46999998093E+01 0.  1.
       -5    1    3    3    0  502 -0.31822166502E+03 -0.18780918197E+03  0.31771858583E+03  0.48734434100E+03  0.46999998093E+01 0. -1.
</event>
<event>
 5   0  0.7893875E-03  0.8958864E+03  0.7818609E-02  0.9430738E-01
        3   -1    0    0  501    0  0.00000000000E+00  0.00000000000E+00  0.25673142185E+03  0.25673144172E+03  0.10100000352E+00 0. -1.
       -3   -1    0    0    0  501  0.00000000000E+00  0.00000000000E+00 -0.78156818366E+03  0.78156819019E+03  0.10100000352E+00 0.  1.
    10030    2    1    2    0    0  0.00000000000E+00  0.00000000000E+00 -0.52483676181E+03  0.10382996319E+04  0.89588643202E+03 0.  0.
        2    1    3    3  502    0  0.14560478345E+03  0.88779443844E+02  0.21763679119E+03  0.27649288508E+03  0.25500000920E-02 0. -1.
       -2    1    3    3    0  502 -0.14560478345E+03 -0.88779443844E+02 -0.74247355300E+03  0.76180674683E+03  0.25500000920E-02 0.  1.
</event>
<event>
 5   0  0.2008770E-02  0.9589985E+03  0.7818609E-02  0.9354694E-01
        2   -1    0    0  501    0  0.00000000000E+00  0.00000000000E+00  0.91148254310E+03  0.91148254310E+03  0.25500000920E-02 0.  1.
       -2   -1    0    0    0  501  0.00000000000E+00  0.00000000000E+00 -0.25224786940E+03  0.25224786941E+03  0.25500000920E-02 0. -1.
    10030    2    1    2    0    0  0.00000000000E+00  0.00000000000E+00  0.65923467370E+03  0.11637304125E+04  0.95899849739E+03 0.  0.
        1    1    3    3  502    0 -0.43061243960E+03 -0.74502459680E+02  0.90151981574E+02  0.44621191091E+03  0.50400001928E-02 0. -1.
       -1    1    3    3    0  502  0.43061243960E+03  0.74502459680E+02  0.56908269213E+03  0.71751850160E+03  0.50400001928E-02 0.  1.
</event>
<event>
 5   0  0.2008643E-02  0.8977406E+03  0.7818609E-02  0.9428410E-01
        2   -1    0    0  501    0  0.00000000000E+00  0.00000000000E+00  0.77368863016E+03  0.77368863017E+03  0.25500000920E-02 0. -1.
       -2   -1    0    0    0  501  0.00000000000E+00  0.00000000000E+00 -0.26042073215E+03  0.26042073216E+03  0.25500000920E-02 0.  1.
    10030    2    1    2    0    0  0.00000000000E+00  0.00000000000E+00  0.51326789802E+03  0.10341093623E+04  0.89774062965E+03 0.  0.
        3    1    3    3  502    0  0.45050683075E+02  0.75164187532E+02 -0.25047169926E+03  0.26535881645E+03  0.10100000352E+00 0.  1.
       -3    1    3    3    0  502 -0.45050683075E+02 -0.75164187532E+02  0.76373959728E+03  0.76875054588E+03  0.10100000352E+00 0. -1.
</event>
<event>
 5   0  0.1175993E-02  0.9011970E+03  0.7818609E-02  0.9424086E-01
        1   -1    0    0  501    0  0.00000000000E+00  0.00000000000E+00  0.15569921436E+04  0.15569921436E+04  0.50400001928E-02 0. -1.
       -1   -1    0    0    0  501  0.00000000000E+00  0.00000000000E+00 -0.13040465413E+03  0.13040465423E+03  0.50400001928E-02 0.  1.
    10030    2    1    2    0    0  0.00000000000E+00  0.00000000000E+00  0.14265874894E+04  0.16873967978E+04  0.90119703074E+03 0.  0.
        4    1    3    3  502    0 -0.21043956244E+03 -0.35569426366E+03  0.37712614542E+03  0.55948991153E+03  0.12699999809E+01 0.  1.
       -4    1    3    3    0  502  0.21043956244E+03  0.35569426366E+03  0.10494613440E+04  0.11279068863E+04  0.12699999809E+01 0. -1.
</event>
<event>
 5   0  0.7893875E-03  0.9035302E+03  0.7818609E-02  0.9421179E-01
        4   -1    0    0  501    0  0.00000000000E+00  0.00000000000E+00  0.13413428948E+04  0.13413434960E+04  0.12699999809E+01 0.  1.
       -4   -1    0    0    0  501  0.00000000000E+00  0.00000000000E+00 -0.15215146476E+03  0.15215676498E+03  0.12699999809E+01 0. -1.
    10030    2    1    2    0    0  0.00000000000E+00  0.00000000000E+00  0.11891914300E+04  0.14935002610E+04  0.90353017234E+03 0.  0.
        1    1    3    3  502    0  0.27241628465E+02 -0.29403413757E+03  0.29453372175E+02  0.29675862504E+03  0.50400001928E-02 0. -1.
       -1    1    3    3    0  502 -0.27241628465E+02  0.29403413757E+03  0.11597380579E+04  0.11967416360E+04  0.50400001928E-02 0.  1.
</event>
<event>
 5   0  0.2008770E-02  0.8564880E+03  0.7818609E-02  0.9481670E-01
        2   -1    0    0  501    0  0.00000000000E+00  0.00000000000E+00  0.44352392656E+03  0.44352392657E+03  0.25500000920E-02 0. -1.
       -2   -1    0    0    0  501  0.00000000000E+00  0.00000000000E+00 -0.41349051457E+03  0.41349051457E+03  0.25500000920E-02 0.  1.
    10030    2    1    2    0    0  0.00000000000E+00  0.00000000000E+00  0.30033411997E+02  0.85701444114E+03  0.85648803056E+03 0.  0.
        1    1    3    3  502    0  0.37664598697E+03 -0.14511798965E+03  0.15818331562E+03  0.43352438430E+03  0.50400001928E-02 0. -1.
       -1    1    3    3    0  502 -0.37664598697E+03  0.14511798965E+03 -0.12814990362E+03  0.42349005684E+03  0.50400001928E-02 0.  1.
</event>
<event>
 5   0  0.2008643E-02  0.8920381E+03  0.7818609E-02  0.9435589E-01
       -2   -1    0    0    0  501  0.00000000000E+00  0.00000000000E+00  0.10736836242E+03  0.10736836245E+03  0.25500000920E-02 0.  1.
        2   -1    0    0  501    0  0.00000000000E+00  0.00000000000E+00 -0.18528082050E+04  0.18528082050E+04  0.25500000920E-02 0. -1.
    10030    2    1    2    0    0  0.00000000000E+00  0.00000000000E+00 -0.17454398426E+04  0.19601765675E+04  0.89203807740E+03 0.  0.
        3    1    3    3  502    0  0.32222496492E+03  0.23406140052E+03 -0.43148658068E+03  0.58719191645E+03  0.10100000352E+00 0.  1.
       -3    1    3    3    0  502 -0.32222496492E+03 -0.23406140052E+03 -0.13139532619E+04  0.13729846510E+04  0.10100000352E+00 0. -1.
</event>
<event>
 5   0  0.1177712E-02  0.9083239E+03  0.7818609E-02  0.9415235E-01
        1   -1    0    0  501    0  0.00000000000E+00  0.00000000000E+00  0.92020997239E+03  0.92020997240E+03  0.50400001928E-02 0.  1.
       -1   -1    0    0    0  501  0.00000000000E+00  0.00000000000E+00 -0.22414786258E+03  0.22414786264E+03  0.50400001928E-02 0. -1.
    10030    2    1    2    0    0  0.00000000000E+00  0.00000000000E+00  0.69606210981E+03  0.11443578350E+04  0.90832394767E+03 0.  0.
        5    1    3    3  502    0  0.29998235750E+03 -0.24736935272E+03  0.64365470485E+03  0.75199367055E+03  0.46999998093E+01 0.  1.
       -5    1    3    3    0  502 -0.29998235750E+03  0.24736935272E+03  0.52407404959E+02  0.39236416449E+03  0.46999998093E+01 0. -1.
</event>
<event>
 5   0  0.2008643E-02  0.9358177E+03  0.7818609E-02  0.9381883E-01
       -2   -1    0    0    0  501  0.00000000000E+00  0.00000000000E+00  0.31807059325E+03  0.31807059326E+03  0.25500000920E-02 0. -1.
        2   -1    0    0  501    0  0.00000000000E+00  0.00000000000E+00 -0.68833365532E+03  0.68833365532E+03  0.25500000920E-02 0.  1.
    10030    2    1    2    0    0  0.00000000000E+00  0.00000000000E+00 -0.37026306207E+03  0.10064042486E+04  0.93581770470E+03 0.  0.
        3    1    3    3  502    0  0.81286417310E+02 -0.89922198677E+02 -0.67115488052E+03  0.68201346563E+03  0.10100000352E+00 0.  1.
       -3    1    3    3    0  502 -0.81286417310E+02  0.89922198677E+02  0.30089181845E+03  0.32439078295E+03  0.10100000352E+00 0. -1.
</event>
<event>
 5   0  0.1162839E-02  0.9120522E+03  0.7818609E-02  0.9410640E-01
        1   -1    0    0  501    0  0.00000000000E+00  0.00000000000E+00  0.94403101313E+03  0.94403101315E+03  0.50400001928E-02 0. -1.
       -1   -1    0    0    0  501  0.00000000000E+00  0.00000000000E+00 -0.22028915262E+03  0.22028915268E+03  0.50400001928E-02 0.  1.
    10030    2    1    2    0    0  0.00000000000E+00  0.00000000000E+00  0.72374186052E+03  0.11643201658E+04  0.91205217388E+03 0.  0.
        2    1    3    3  502    0 -0.13465864138E+03 -0.42140656715E+03  0.22061625749E+03  0.49435612428E+03  0.25500000920E-02 0.  1.
       -2    1    3    3    0  502  0.13465864138E+03  0.42140656715E+03  0.50312560303E+03  0.66996404155E+03  0.25500000920E-02 0. -1.
</event>
<event>
 5   0  0.1175993E-02  0.8816944E+03  0.7818609E-02  0.9448758E-01
       -1   -1    0    0    0  501  0.00000000000E+00  0.00000000000E+00  0.21726745724E+03  0.21726745730E+03  0.50400001928E-02 0.  1.
        1   -1    0    0  501    0  0.00000000000E+00  0.00000000000E+00 -0.89450235843E+03  0.89450235844E+03  0.50400001928E-02 0. -1.
    10030    2    1    2    0    0  0.00000000000E+00  0.00000000000E+00 -0.67723490119E+03  0.11117698157E+04  0.88169439819E+03 0.  0.
        4    1    3    3  502    0 -0.94970649001E+02  0.35169598236E+03 -0.65166552199E+03  0.74657823008E+03  0.12699999809E+01 0. -1.
       -4    1    3    3    0  502  0.94970649001E+02 -0.35169598236E+03 -0.25569379198E+02  0.36519158566E+03  0.12699999809E+01 0.  1.
</event>
<event>
 5   0  0.2008643E-02  0.9180351E+03  0.7818609E-02  0.9403313E-01
        2   -1    0    0  501    0  0.00000000000E+00  0.00000000000E+00  0.83773961566E+03  0.83773961567E+03  0.25500000920E-02 0.  1.
       -2   -1    0    0    0  501  0.00000000000E+00  0.00000000000E+00 -0.25150666535E+03  0.25150666536E+03  0.25500000920E-02 0. -1.
    10030    2    1    2    0    0  0.00000000000E+00  0.00000000000E+00  0.58623295032E+03  0.10892462810E+04  0.91803506943E+03 0.  0.
        3    1    3    3  502    0 -0.22198260316E+03 -0.22222507265E+03  0.69025975322E+03  0.75836587221E+03  0.10100000352E+00 0.  1.
       -3    1    3    3    0  502  0.22198260316E+03  0.22222507265E+03 -0.10402680290E+03  0.33088040882E+03  0.10100000352E+00 0. -1.
</event>
<event>
 5   0  0.1206541E-02  0.8965389E+03  0.7818609E-02  0.9429918E-01
        1   -1    0    0  501    0  0.00000000000E+00  0.00000000000E+00  0.52069160014E+03  0.52069160017E+03  0.50400001928E-02 0.  1.
       -1   -1    0    0    0  501  0.00000000000E+00  0.00000000000E+00 -0.38592039288E+03  0.38592039292E+03  0.50400001928E-02 0. -1.
    10030    2    1    2    0    0  0.00000000000E+00  0.00000000000E+00  0.13477120726E+03  0.90661199308E+03  0.89653891589E+03 0.  0.
        3    1    3    3  502    0 -0.28458691493E+03  0.32656603061E+03 -0.49281406192E+02  0.43596301643E+03  0.10100000352E+00 0.  1.
       -3    1    3    3    0  502  0.28458691493E+03 -0.32656603061E+03  0.18405261345E+03  0.47064897665E+03  0.10100000352E+00 0. -1.
</event>
<event>
 5   0  0.1226424E-02  0.8531744E+03  0.7818609E-02  0.9486086E-01
       -1   -1    0    0    0  501  0.00000000000E+00  0.00000000000E+00  0.65977925220E+03  0.65977925222E+03  0.50400001928E-02 0. -1.
        1   -1    0    0  501    0  0.00000000000E+00  0.00000000000E+00 -0.27581445440E+03  0.27581445444E+03  0.50400001928E-02 0.  1.
    10030    2    1    2    0    0  0.00000000000E+00  0.00000000000E+00  0.38396479780E+03  0.93559370666E+03  0.85317443586E+03 0.  0.
        1    1    3    3  502    0  0.20226920564E+03  0.13942219441E+03  0.57442069522E+03  0.62474836131E+03  0.50400001928E-02 0. -1.
       -1    1    3    3    0  502 -0.20226920564E+03 -0.13942219441E+03 -0.19045589741E+03  0.31084534535E+03  0.50400001928E-02 0.  1.
</event>
<event>
 5   0  0.1175993E-02  0.9449709E+03  0.7818609E-02  0.9371048E-01
        1   -1    0    0  501    0  0.00000000000E+00  0.00000000000E+00  0.35160066597E+03  0.35160066601E+03  0.50400001928E-02 0.  1.
       -1   -1    0    0    0  501  0.00000000000E+00  0.00000000000E+00 -0.63493200299E+03  0.63493200301E+03  0.50400001928E-02 0. -1.
    10030    2    1    2    0    0  0.00000000000E+00  0.00000000000E+00 -0.28333133702E+03  0.98653266901E+03  0.94497093103E+03 0.  0.
        4    1    3    3  502    0 -0.15081927521E+03 -0.31802802092E+03 -0.47073143084E+03  0.58777373942E+03  0.12699999809E+01 0. -1.
       -4    1    3    3    0  502  0.15081927521E+03  0.31802802092E+03  0.18740009382E+03  0.39875892959E+03  0.12699999809E+01 0.  1.
</event>
<event>
 5   0  0.1968763E-02  0.9123727E+03  0.7818609E-02  0.9410246E-01
       -2   -1    0    0    0  501  0.00000000000E+00  0.00000000000E+00  0.12313492066E+03  0.12313492069E+03  0.25500000920E-02 0. -1.
        2   -1    0    0  501    0  0.00000000000E+00  0.00000000000E+00 -0.16900649090E+04  0.16900649091E+04  0.25500000920E-02 0.  1.
    10030    2    1    2    0    0  0.00000000000E+00  0.00000000000E+00 -0.15669299884E+04  0.18131998297E+04  0.91237274953E+03 0.  0.
        2    1    3    3  502    0  0.39092671600E+03 -0.23285357036E+03 -0.71871515663E+03  0.85064443740E+03  0.25500000920E-02 0.  1.
       -2    1    3    3    0  502 -0.39092671600E+03  0.23285357036E+03 -0.84821483176E+03  0.96255539234E+03  0.25500000920E-02 0. -1.
</event>
<event>
 5   0  0.1968763E-02  0.8602792E+03  0.7818609E-02  0.9476644E-01
        2   -1    0    0  501    0  0.00000000000E+00  0.00000000000E+00  0.63549440322E+03  0.63549440323E+03  0.25500000920E-02 0. -1.
       -2   -1    0    0    0  501  0.00000000000E+00  0.00000000000E+00 -0.29114350354E+03  0.29114350355E+03  0.25500000920E-02 0.  1.
    10030    2    1    2    0    0  0.00000000000E+00  0.00000000000E+00  0.34435089968E+03  0.92663790678E+03  0.86027918036E+03 0.  0.
        2    1    3    3  502    0  0.41662224487E+03 -0.25172639809E+02  0.60172386614E+02  0.42169713401E+03  0.25500000920E-02 0.  1.
       -2    1    3    3    0  502 -0.41662224487E+03  0.25172639809E+02  0.28417851307E+03  0.50494077277E+03  0.25500000920E-02 0. -1.
</event>
<event>
 5   0  0.1968763E-02  0.8930024E+03  0.7818609E-02  0.9434371E-01
       -2   -1    0    0    0  501  0.00000000000E+00  0.00000000000E+00  0.42005488463E+03  0.42005488464E+03  0.25500000920E-02 0. -1.
        2   -1    0    0  501    0  0.00000000000E+00  0.00000000000E+00 -0.47461251091E+03  0.47461251092E+03  0.25500000920E-02 0.  1.
    10030    2    1    2    0    0  0.00000000000E+00  0.00000000000E+00 -0.54557626280E+02  0.89466739556E+03  0.89300235951E+03 0.  0.
        2    1    3    3  502    0 -0.40115171956E+03 -0.55046848399E+02  0.16124868400E+03  0.43583712064E+03  0.25500000920E-02 0. -1.
       -2    1    3    3    0  502  0.40115171956E+03  0.55046848399E+02 -0.21580631028E+03  0.45883027493E+03  0.25500000920E-02 0.  1.
</event>
<event>
 5   0  0.7893875E-03  0.8831284E+03  0.7818609E-02  0.9446921E-01
        4   -1    0    0  501    0  0.00000000000E+00  0.00000000000E+00  0.18063348530E+03  0.18063794981E+03  0.12699999809E+01 0. -1.
       -4   -1    0    0    0  501  0.00000000000E+00  0.00000000000E+00 -0.10793993322E+04  0.10794000793E+04  0.12699999809E+01 0.  1.
    10030    2    1    2    0    0  0.00000000000E+00  0.00000000000E+00 -0.89876584691E+03  0.12600380291E+04  0.88312840931E+03 0.  0.
        3    1    3    3  502    0 -0.13762144641E+03  0.28923797519E+03 -0.15721944672E+02  0.32069527366E+03  0.10100000352E+00 0. -1.
       -3    1    3    3    0  502  0.13762144641E+03 -0.28923797519E+03 -0.88304390223E+03  0.93934275548E+03  0.10100000352E+00 0.  1.
</event>
<event>
 5   0  0.1175993E-02  0.9035439E+03  0.7818609E-02  0.9421162E-01
        1   -1    0    0  501    0  0.00000000000E+00  0.00000000000E+00  0.15969936811E+04  0.15969936811E+04  0.50400001928E-02 0.  1.
       -1   -1    0    0    0  501  0.00000000000E+00  0.00000000000E+00 -0.12780131483E+03  0.12780131493E+03  0.50400001928E-02 0. -1.
    10030    2    1    2    0    0  0.00000000000E+00  0.00000000000E+00  0.14691923663E+04  0.17247949960E+04  0.90354389446E+03 0.  0.
        4    1    3    3  502    0  0.24929872880E+03  0.32940658048E+03  0.38553093974E+03  0.56506129742E+03  0.12699999809E+01 0. -1.
       -4    1    3    3    0  502 -0.24929872880E+03 -0.32940658048E+03  0.10836614265E+04  0.11597336986E+04  0.12699999809E+01 0.  1.
</event>
<event>
 5   0  0.1206541E-02  0.8831511E+03  0.7818609E-02  0.9446892E-01
       -1   -1    0    0    0  501  0.00000000000E+00  0.00000000000E+00  0.39380917773E+03  0.39380917776E+03  0.50400001928E-02 0. -1.
        1   -1    0    0  501    0  0.00000000000E+00  0.00000000000E+00 -0.49513563686E+03  0.49513563688E+03  0.50400001928E-02 0.  1.
    10030    2    1    2    0    0  0.00000000000E+00  0.00000000000E+00 -0.10132645913E+03  0.88894481465E+03  0.88315108117E+03 0.  0.
        3    1    3    3  502    0  0.15001488999E+03 -0.65668379579E+02  0.36211504109E+03  0.39742183694E+03  0.10100000352E+00 0. -1.
       -3    1    3    3    0  502 -0.15001488999E+03  0.65668379579E+02 -0.46344150021E+03  0.49152297771E+03  0.10100000352E+00 0.  1.
</event>
<event>
 5   0  0.2041861E-02  0.8840058E+03  0.7818609E-02  0.9445799E-01
        2   -1    0    0  501    0  0.00000000000E+00  0.00000000000E+00  0.25388739422E+03  0.25388739423E+03  0.25500000920E-02 0.  1.
       -2   -1    0    0    0  501  0.00000000000E+00  0.00000000000E+00 -0.76950087367E+03  0.76950087367E+03  0.25500000920E-02 0. -1.
    10030    2    1    2    0    0  0.00000000000E+00  0.00000000000E+00 -0.51561347945E+03  0.10233882679E+04  0.88400581824E+03 0.  0.
        5    1    3    3  502    0  0.19552344562E+03  0.37315810860E+02 -0.71464358675E+03  0.74186213921E+03  0.46999998093E+01 0. -1.
       -5    1    3    3    0  502 -0.19552344562E+03 -0.37315810860E+02  0.19903010729E+03  0.28152612869E+03  0.46999998093E+01 0.  1.
</event>
<event>
 5   0  0.1162839E-02  0.9057788E+03  0.7818609E-02  0.9418386E-01
        1   -1    0    0  501    0  0.00000000000E+00  0.00000000000E+00  0.10812852681E+04  0.10812852681E+04  0.50400001928E-02 0. -1.
       -1   -1    0    0    0  501  0.00000000000E+00  0.00000000000E+00 -0.18968981890E+03  0.18968981897E+03  0.50400001928E-02 0.  1.
    10030    2    1    2    0    0  0.00000000000E+00  0.00000000000E+00  0.89159544924E+03  0.12709750871E+04  0.90577879583E+03 0.  0.
        2    1    3    3  502    0 -0.41219613412E+03  0.84389836158E+02  0.68093696524E+03  0.80043890964E+03  0.25500000920E-02 0.  1.
       -2    1    3    3    0  502  0.41219613412E+03 -0.84389836158E+02  0.21065848399E+03  0.47053617748E+03  0.25500000920E-02 0. -1.
</event>
<event>
 5   0  0.2041861E-02  0.9029869E+03  0.7818609E-02  0.9421855E-01
        2   -1    0    0  501    0  0.00000000000E+00  0.00000000000E+00  0.88003088891E+03  0.88003088892E+03  0.25500000920E-02 0. -1.
       -2   -1    0    0    0  501  0.00000000000E+00  0.00000000000E+00 -0.23163545689E+03  0.23163545690E+03  0.25500000920E-02 0.  1.
    10030    2    1    2    0    0  0.00000000000E+00  0.00000000000E+00  0.64839543203E+03  0.11116663458E+04  0.90298694794E+03 0.  0.
        5    1    3    3  502    0 -0.15657554062E+03 -0.39697579112E+03  0.14276784886E+03  0.45001158576E+03  0.46999998093E+01 0.  1.
       -5    1    3    3    0  502  0.15657554062E+03  0.39697579112E+03  0.50562758316E+03  0.66165476006E+03  0.46999998093E+01 0. -1.
</event>
<event>
 5   0  0.1175993E-02  0.8623310E+03  0.7818609E-02  0.9473935E-01
       -1   -1    0    0    0  501  0.00000000000E+00  0.00000000000E+00  0.13521643361E+03  0.13521643370E+03  0.50400001928E-02 0. -1.
        1   -1    0    0  501    0  0.00000000000E+00  0.00000000000E+00 -0.13748600374E+04  0.13748600374E+04  0.50400001928E-02 0.  1.
    10030    2    1    2    0    0  0.00000000000E+00  0.00000000000E+00 -0.12396436038E+04  0.15100764711E+04  0.86233095977E+03 0.  0.
        4    1    3    3  502    0  0.16721867456E+02 -0.36187230546E+03 -0.10292737691E+04  0.10911632742E+04  0.12699999809E+01 0.  1.
       -4    1    3    3    0  502 -0.16721867456E+02  0.36187230546E+03 -0.21036983475E+03  0.41891319695E+03  0.12699999809E+01 0. -1.
</event>
<event>
 5   0  0.1177712E-02  0.9103170E+03  0.7818609E-02  0.9412776E-01
       -1   -1    0    0    0  501  0.00000000000E+00  0.00000000000E+00  0.16500799454E+03  0.16500799462E+03  0.50400001928E-02 0. -1.
        1   -1    0    0  501    0  0.00000000000E+00  0.00000000000E+00 -0.12555103652E+04  0.12555103652E+04  0.50400001928E-02 0.  1.
    10030    2    1    2    0    0  0.00000000000E+00  0.00000000000E+00 -0.10905023706E+04  0.14205183598E+04  0.91031697238E+03 0.  0.
        5    1    3    3  502    0  0.87831747614E+02  0.44223493654E+03 -0.44828858439E+03  0.63582300987E+03  0.46999998093E+01 0. -1.
       -5    1    3    3    0  502 -0.87831747614E+02 -0.44223493654E+03 -0.64221378624E+03  0.78469534994E+03  0.46999998093E+01 0.  1.
</event>
<event>
 5   0  0.1206541E-02  0.8961328E+03  0.7818609E-02  0.9430429E-01
        1   -1    0    0  501    0  0.00000000000E+00  0.00000000000E+00  0.26736402319E+03  0.26736402324E+03  0.50400001928E-02 0. -1.
       -1   -1    0    0    0  501  0.00000000000E+00  0.00000000000E+00 -0.75089952540E+03  0.75089952542E+03  0.50400001928E-02 0.  1.
    10030    2    1    2    0    0  0.00000000000E+00  0.00000000000E+00 -0.48353550221E+03  0.10182635487E+04  0.89613284318E+03 0.  0.
        3    1    3    3  502    0 -0.37524705625E+03 -0.15688231688E+03 -0.45538080736E+03  0.61056867303E+03  0.10100000352E+00 0.  1.
       -3    1    3    3    0  502  0.37524705625E+03  0.15688231688E+03 -0.28154694851E+02  0.40769487563E+03  0.10100000352E+00 0. -1.
</event>
<event>
 5   0  0.1226424E-02  0.8945847E+03  0.7818609E-02  0.9432376E-01
       -1   -1    0    0    0  501  0.00000000000E+00  0.00000000000E+00  0.19636165044E+03  0.19636165051E+03  0.50400001928E-02 0. -1.
        1   -1    0    0  501    0  0.00000000000E+00  0.00000000000E+00 -0.10188875857E+04  0.10188875857E+04  0.50400001928E-02 0.  1.
    10030    2    1    2    0    0  0.00000000000E+00  0.00000000000E+00 -0.82252593528E+03  0.12152492362E+04  0.89458470364E+03 0.  0.
        1    1    3    3  502    0 -0.85876173229E+02  0.54969581697E+02 -0.10028898201E+04  0.10080597022E+04  0.50400001928E-02 0.  1.
       -1    1    3    3    0  502  0.85876173229E+02 -0.54969581697E+02  0.18036388479E+03  0.20718953401E+03  0.50400001928E-02 0. -1.
</event>
<event>
 5   0  0.1924218E-02  0.8976814E+03  0.7818609E-02  0.9428484E-01
        2   -1    0    0  501    0  0.00000000000E+00  0.00000000000E+00  0.22947356780E+03  0.22947356781E+03  0.25500000920E-02 0.  1.
       -2   -1    0    0    0  501  0.00000000000E+00  0.00000000000E+00 -0.87791369517E+03  0.87791369518E+03  0.25500000920E-02 0. -1.
    10030    2    1    2    0    0  0.00000000000E+00  0.00000000000E+00 -0.64844012737E+03  0.11073872630E+04  0.89768143093E+03 0.  0.
        4    1    3    3  502    0  0.39794638739E+03 -0.14888890234E+03 -0.14576361426E+03  0.44919692410E+03  0.12699999809E+01 0.  1.
       -4    1    3    3    0  502 -0.39794638739E+03  0.14888890234E+03 -0.50267651311E+03  0.65819033889E+03  0.12699999809E+01 0. -1.
</event>
<event>
 5   0  0.1968763E-02  0.9216216E+03  0.7818609E-02  0.9398950E-01
       -2   -1    0    0    0  501  0.00000000000E+00  0.00000000000E+00  0.11626937171E+04  0.11626937171E+04  0.25500000920E-02 0.  1.
        2   -1    0    0  501    0  0.00000000000E+00  0.00000000000E+00 -0.18263330700E+03  0.18263330702E+03  0.25500000920E-02 0. -1.
    10030    2    1    2    0    0  0.00000000000E+00  0.00000000000E+00  0.98006041006E+03  0.13453270241E+04  0.92162161126E+03 0.  0.
        2    1    3    3  502    0  0.61947605522E+02 -0.42637211439E+03  0.72862459331E+03  0.84647769241E+03  0.25500000920E-02 0.  1.
       -2    1    3    3    0  502 -0.61947605522E+02  0.42637211439E+03  0.25143581674E+03  0.49884933167E+03  0.25500000920E-02 0. -1.
</event>
<event>
 5   0  0.1206541E-02  0.9035562E+03  0.7818609E-02  0.9421147E-01
        1   -1    0    0  501    0  0.00000000000E+00  0.00000000000E+00  0.63707974949E+03  0.63707974951E+03  0.50400001928E-02 0. -1.
       -1   -1    0    0    0  501  0.00000000000E+00  0.00000000000E+00 -0.32037348813E+03  0.32037348817E+03  0.50400001928E-02 0.  1.
    10030    2    1    2    0    0  0.00000000000E+00  0.00000000000E+00  0.31670626137E+03  0.95745323768E+03  0.90355622202E+03 0.  0.
        3    1    3    3  502    0 -0.13902174179E+03  0.31570074603E+03  0.46749033291E+03  0.58098298366E+03  0.10100000352E+00 0. -1.
       -3    1    3    3    0  502  0.13902174179E+03 -0.31570074603E+03 -0.15078407154E+03  0.37647025402E+03  0.10100000352E+00 0.  1.
</event>
<event>
 5   0  0.2008643E-02  0.9030921E+03  0.7818609E-02  0.9421724E-01
       -2   -1    0    0    0  501  0.00000000000E+00  0.00000000000E+00  0.19457255481E+03  0.19457255482E+03  0.25500000920E-02 0.  1.
        2   -1    0    0  501    0  0.00000000000E+00  0.00000000000E+00 -0.10479064112E+04  0.10479064112E+04  0.25500000920E-02 0. -1.
    10030    2    1    2    0    0  0.00000000000E+00  0.00000000000E+00 -0.85333385639E+03  0.12424789660E+04  0.90309208310E+03 0.  0.
        3    1    3    3  502    0  0.20067731461E+03 -0.19086780202E+03  0.63999973426E+02  0.28424973042E+03  0.10100000352E+00 0.  1.
       -3    1    3    3    0  502 -0.20067731461E+03  0.19086780202E+03 -0.91733382982E+03  0.95822923561E+03  0.10100000352E+00 0. -1.
</event>
<event>
 5   0  0.1226424E-02  0.9168334E+03  0.7818609E-02  0.9404780E-01
       -1   -1    0    0    0  501  0.00000000000E+00  0.00000000000E+00  0.20682731230E+03  0.20682731236E+03  0.50400001928E-02 0. -1.
        1   -1    0    0  501    0  0.00000000000E+00  0.00000000000E+00 -0.10160451385E+04  0.10160451385E+04  0.50400001928E-02 0.  1.
    10030    2    1    2    0    0  0.00000000000E+00  0.00000000000E+00 -0.80921782620E+03  0.12228724509E+04  0.91683343136E+03 0.  0.
        1    1    3    3  502    0  0.44206982496E+03 -0.15012492936E+02 -0.56519079225E+03  0.71769891790E+03  0.50400001928E-02 0.  1.
       -1    1    3    3    0  502 -0.44206982496E+03  0.15012492936E+02 -0.24402703395E+03  0.50517353297E+03  0.50400001928E-02 0. -1.
</event>
<event>
 5   0  0.1175993E-02  0.8968153E+03  0.7818609E-02  0.9429571E-01
        1   -1    0    0  501    0  0.00000000000E+00  0.00000000000E+00  0.76024857383E+03  0.76024857385E+03  0.50400001928E-02 0.  1.
       -1   -1    0    0    0  501  0.00000000000E+00  0.00000000000E+00 -0.26447849675E+03  0.26447849680E+03  0.50400001928E-02 0. -1.
    10030    2    1    2    0    0  0.00000000000E+00  0.00000000000E+00  0.49577007708E+03  0.10247270706E+04  0.89681525410E+03 0.  0.
        4    1    3    3  502    0 -0.11177581321E+03 -0.29598474339E+03 -0.11518876888E+03  0.33670590448E+03  0.12699999809E+01 0. -1.
       -4    1    3    3    0  502  0.11177581321E+03  0.29598474339E+03  0.61095884596E+03  0.68802116616E+03  0.12699999809E+01 0.  1.
</event>
<event>
 5   0  0.1177712E-02  0.8883707E+03  0.7818609E-02  0.9440237E-01
       -1   -1    0    0    0  501  0.00000000000E+00  0.00000000000E+00  0.18039246733E+03  0.18039246740E+03  0.50400001928E-02 0.  1.
        1   -1    0    0  501    0  0.00000000000E+00  0.00000000000E+00 -0.10937297498E+04  0.10937297499E+04  0.50400001928E-02 0. -1.
    10030    2    1    2    0    0  0.00000000000E+00  0.00000000000E+00 -0.91333728251E+03  0.12741222173E+04  0.88837066188E+03 0.  0.
        5    1    3    3  502    0 -0.32112853747E+03  0.27636520653E+03 -0.64789564082E+03  0.77413959746E+03  0.46999998093E+01 0.  1.
       -5    1    3    3    0  502  0.32112853747E+03 -0.27636520653E+03 -0.26544164169E+03  0.49998261980E+03  0.46999998093E+01 0. -1.
</event>
<event>
 5   0  0.2008643E-02  0.7832481E+03  0.7818609E-02  0.9584586E-01
        2   -1    0    0  501    0  0.00000000000E+00  0.00000000000E+00  0.62276426378E+03  0.62276426379E+03  0.25500000920E-02 0. -1.
       -2   -1    0    0    0  501  0.00000000000E+00  0.00000000000E+00 -0.24627201877E+03  0.24627201878E+03  0.25500000920E-02 0.  1.
    10030    2    1    2    0    0  0.00000000000E+00  0.00000000000E+00  0.37649224501E+03  0.86903628257E+03  0.78324814067E+03 0.  0.
        3    1    3    3  502    0 -0.11528198380E+03  0.36133091569E+03  0.79992075339E+02  0.38761928324E+03  0.10100000352E+00 0.  1.
       -3    1    3    3    0  502  0.11528198380E+03 -0.36133091569E+03  0.29650016967E+03  0.48141699933E+03  0.10100000352E+00 0. -1.
</event>
<event>
 5   0  0.1175993E-02  0.9380727E+03  0.7818609E-02  0.9379201E-01
        1   -1    0    0  501    0  0.00000000000E+00  0.00000000000E+00  0.97029222733E+03  0.97029222734E+03  0.50400001928E-02 0.  1.
       -1   -1    0    0    0  501  0.00000000000E+00  0.00000000000E+00 -0.22673074808E+03  0.22673074814E+03  0.50400001928E-02 0. -1.
    10030    2    1    2    0    0  0.00000000000E+00  0.00000000000E+00  0.74356147925E+03  0.11970229755E+04  0.93807266797E+03 0.  0.
        4    1    3    3  502    0  0.20356852355E+03 -0.38359329797E+03  0.59793072730E+03  0.73899034472E+03  0.12699999809E+01 0.  1.
       -4    1    3    3    0  502 -0.20356852355E+03  0.38359329797E+03  0.14563075194E+03  0.45803263076E+03  0.12699999809E+01 0. -1.
</event>
<event>
 5   0  0.2008770E-02  0.9455130E+03  0.7818609E-02  0.9370411E-01
        2   -1    0    0  501    0  0.00000000000E+00  0.00000000000E+00  0.15055671869E+04  0.15055671869E+04  0.25500000920E-02 0.  1.
       -2   -1    0    0    0  501  0.00000000000E+00  0.00000000000E+00 -0.14844817493E+03  0.14844817495E+03  0.25500000920E-02 0. -1.
    10030    2    1    2    0    0  0.00000000000E+00  0.00000000000E+00  0.13571190120E+04  0.16540153619E+04  0.94551298490E+03 0.  0.
        1    1    3    3  502    0 -0.83717771312E+02  0.59234862732E+02  0.14858739903E+04  0.14894089262E+04  0.50400001928E-02 0.  1.
       -1    1    3    3    0  502  0.83717771312E+02 -0.59234862732E+02 -0.12875497835E+03  0.16460643569E+03  0.50400001928E-02 0. -1.
</event>
<event>
 5   0  0.1175993E-02  0.8996769E+03  0.7818609E-02  0.9425985E-01
        1   -1    0    0  501    0  0.00000000000E+00  0.00000000000E+00  0.80043282311E+03  0.80043282312E+03  0.50400001928E-02 0. -1.
       -1   -1    0    0    0  501  0.00000000000E+00  0.00000000000E+00 -0.25280651609E+03  0.25280651614E+03  0.50400001928E-02 0.  1.
    10030    2    1    2    0    0  0.00000000000E+00  0.00000000000E+00  0.54762630702E+03  0.10532393393E+04  0.89967690514E+03 0.  0.
        4    1    3    3  502    0 -0.24683886362E+03 -0.20380594965E+02 -0.16579195048E+03  0.29804928618E+03  0.12699999809E+01 0.  1.
       -4    1    3    3    0  502  0.24683886362E+03  0.20380594965E+02  0.71341825750E+03  0.75519005309E+03  0.12699999809E+01 0. -1.
</event>
<event>
 5   0  0.1177712E-02  0.8951956E+03  0.7818609E-02  0.9431607E-01
       -1   -1    0    0    0  501  0.00000000000E+00  0.00000000000E+00  0.16431213469E+03  0.16431213477E+03  0.50400001928E-02 0.  1.
        1   -1    0    0  501    0  0.00000000000E+00  0.00000000000E+00 -0.12192877689E+04  0.12192877690E+04  0.50400001928E-02 0. -1.
    10030    2    1    2    0    0  0.00000000000E+00  0.00000000000E+00 -0.10549756343E+04  0.13835999037E+04  0.89519556786E+03 0.  0.
        5    1    3    3  502    0  0.19959635938E+02  0.79713020636E+02  0.15251490735E+03  0.17330735612E+03  0.46999998093E+01 0.  1.
       -5    1    3    3    0  502 -0.19959635938E+02 -0.79713020636E+02 -0.12074905416E+04  0.12102925476E+04  0.46999998093E+01 0. -1.
</event>
<event>
 5   0  0.7893875E-03  0.9100886E+03  0.7818609E-02  0.9413057E-01
       -3   -1    0    0    0  501  0.00000000000E+00  0.00000000000E+00  0.20177310643E+03  0.20177313171E+03  0.10100000352E+00 0.  1.
        3   -1    0    0  501    0  0.00000000000E+00  0.00000000000E+00 -0.10262285215E+04  0.10262285265E+04  0.10100000352E+00 0. -1.
    10030    2    1    2    0    0  0.00000000000E+00  0.00000000000E+00 -0.82445541507E+03  0.12280016582E+04  0.91008864461E+03 0.  0.
        3    1    3    3  502    0  0.38813405694E+03  0.14393511009E+03 -0.66717425824E+03  0.78516677409E+03  0.10100000352E+00 0. -1.
       -3    1    3    3    0  502 -0.38813405694E+03 -0.14393511009E+03 -0.15728115683E+03  0.44283488409E+03  0.10100000352E+00 0.  1.
</event>
<event>
 5   0  0.1162839E-02  0.8837869E+03  0.7818609E-02  0.9446079E-01
        1   -1    0    0  501    0  0.00000000000E+00  0.00000000000E+00  0.68546787651E+03  0.68546787653E+03  0.50400001928E-02 0. -1.
       -1   -1    0    0    0  501  0.00000000000E+00  0.00000000000E+00 -0.28487085778E+03  0.28487085782E+03  0.50400001928E-02 0.  1.
    10030    2    1    2    0    0  0.00000000000E+00  0.00000000000E+00  0.40059701874E+03  0.97033873435E+03  0.88378690190E+03 0.  0.
        2    1    3    3  502    0  0.13743559012E+03 -0.27960632645E+03  0.54435919545E+03  0.62721222317E+03  0.25500000920E-02 0. -1.
       -2    1    3    3    0  502 -0.13743559012E+03  0.27960632645E+03 -0.14376217671E+03  0.34312651118E+03  0.25500000920E-02 0.  1.
</event>
<event>
 5   0  0.7893875E-03  0.9113499E+03  0.7818609E-02  0.9411504E-01
        3   -1    0    0  501    0  0.00000000000E+00  0.00000000000E+00  0.91083900009E+03  0.91083900569E+03  0.10100000352E+00 0.  1.
       -3   -1    0    0    0  501  0.00000000000E+00  0.00000000000E+00 -0.22796525351E+03  0.22796527588E+03  0.10100000352E+00 0. -1.
    10030    2    1    2    0    0  0.00000000000E+00  0.00000000000E+00  0.68287374658E+03  0.11388042816E+04  0.91134989875E+03 0.  0.
        5    1    3    3  502    0  0.39052000348E+02  0.11708960749E+03  0.88952041723E+03  0.89805550919E+03  0.46999998093E+01 0.  1.
       -5    1    3    3    0  502 -0.39052000348E+02 -0.11708960749E+03 -0.20664667065E+03  0.24074877238E+03  0.46999998093E+01 0. -1.
</event>
<event>
 5   0  0.1162839E-02  0.9073457E+03  0.7818609E-02  0.9416445E-01
        1   -1    0    0  501    0  0.00000000000E+00  0.00000000000E+00  0.10778436735E+04  0.10778436735E+04  0.50400001928E-02 0. -1.
       -1   -1    0    0    0  501  0.00000000000E+00  0.00000000000E+00 -0.19095446589E+03  0.19095446596E+03  0.50400001928E-02 0.  1.
    10030    2    1    2    0    0  0.00000000000E+00  0.00000000000E+00  0.88688920758E+03  0.12687981394E+04  0.90734571809E+03 0.  0.
        2    1    3    3  502    0 -0.17349634942E+01  0.10164210564E+03  0.10617120591E+04  0.10665676839E+04  0.25500000920E-02 0. -1.
       -2    1    3    3    0  502  0.17349634942E+01 -0.10164210564E+03 -0.17482285155E+03  0.20223045559E+03  0.25500000920E-02 0.  1.
</event>
<event>
 5   0  0.7893875E-03  0.8992186E+03  0.7818609E-02  0.9426559E-01
       -3   -1    0    0    0  501  0.00000000000E+00  0.00000000000E+00  0.10275758117E+04  0.10275758166E+04  0.10100000352E+00 0. -1.
        3   -1    0    0  501    0  0.00000000000E+00  0.00000000000E+00 -0.19672368280E+03  0.19672370873E+03  0.10100000352E+00 0.  1.
    10030    2    1    2    0    0  0.00000000000E+00  0.00000000000E+00  0.83085212885E+03  0.12242995254E+04  0.89921858731E+03 0.  0.
        3    1    3    3  502    0 -0.81445687489E+02 -0.40921262222E+03  0.64349560921E+03  0.76692566750E+03  0.10100000352E+00 0. -1.
       -3    1    3    3    0  502  0.81445687489E+02  0.40921262222E+03  0.18735651964E+03  0.45737385785E+03  0.10100000352E+00 0.  1.
</event>
<event>
 5   0  0.1177712E-02  0.8755249E+03  0.7818609E-02  0.9456704E-01
        1   -1    0    0  501    0  0.00000000000E+00  0.00000000000E+00  0.27750220223E+03  0.27750220227E+03  0.50400001928E-02 0.  1.
       -1   -1    0    0    0  501  0.00000000000E+00  0.00000000000E+00 -0.69057462269E+03  0.69057462271E+03  0.50400001928E-02 0. -1.
    10030    2    1    2    0    0  0.00000000000E+00  0.00000000000E+00 -0.41307242047E+03  0.96807682498E+03  0.87552493655E+03 0.  0.
        5    1    3    3  502    0 -0.97240927808E+02 -0.42347496091E+03 -0.14774560917E+03  0.45895282501E+03  0.46999998093E+01 0.  1.
       -5    1    3    3    0  502  0.97240927808E+02  0.42347496091E+03 -0.26532681129E+03  0.50912399997E+03  0.46999998093E+01 0. -1.
</event>
<event>
 5   0  0.1968763E-02  0.9136604E+03  0.7818609E-02  0.9408664E-01
        2   -1    0    0  501    0  0.00000000000E+00  0.00000000000E+00  0.60903705143E+03  0.60903705144E+03  0.25500000920E-02 0.  1.
       -2   -1    0    0    0  501  0.00000000000E+00  0.00000000000E+00 -0.34266199873E+03  0.34266199874E+03  0.25500000920E-02 0. -1.
    10030    2    1    2    0    0  0.00000000000E+00  0.00000000000E+00  0.26637505270E+03  0.95169905018E+03  0.91366044755E+03 0.  0.
        2    1    3    3  502    0  0.38903439446E+03 -0.21779257839E+03  0.29480995595E+02  0.44682266772E+03  0.25500000920E-02 0. -1.
       -2    1    3    3    0  502 -0.38903439446E+03  0.21779257839E+03  0.23689405711E+03  0.50487638247E+03  0.25500000920E-02 0.  1.
</event>
<event>
 5   0  0.1175993E-02  0.9233173E+03  0.7818609E-02  0.9396894E-01
        1   -1    0    0  501    0  0.00000000000E+00  0.00000000000E+00  0.41921933966E+03  0.41921933969E+03  0.50400001928E-02 0. -1.
       -1   -1    0    0    0  501  0.00000000000E+00  0.00000000000E+00 -0.50839431256E+03  0.50839431258E+03  0.50400001928E-02 0.  1.
    10030    2    1    2    0    0  0.00000000000E+00  0.00000000000E+00 -0.89174972900E+02  0.92761365227E+03  0.92331734094E+03 0.  0.
        4    1    3    3  502    0 -0.47014465264E+01 -0.33340032194E+03  0.27619313854E+03  0.43296898382E+03  0.12699999809E+01 0. -1.
       -4    1    3    3    0  502  0.47014465264E+01  0.33340032194E+03 -0.36536811144E+03  0.49464466845E+03  0.12699999809E+01 0.  1.
</event>
<event>
 5   0  0.1226424E-02  0.9163140E+03  0.7818609E-02  0.9405415E-01
        1   -1    0    0  501    0  0.00000000000E+00  0.00000000000E+00  0.20458204424E+04  0.20458204425E+04  0.50400001928E-02 0.  1.
       -1   -1    0    0    0  501  0.00000000000E+00  0.00000000000E+00 -0.10260325395E+03  0.10260325407E+03  0.50400001928E-02 0. -1.
    10030    2    1    2    0    0  0.00000000000E+00  0.00000000000E+00  0.19432171885E+04  0.21484236965E+04  0.91631399538E+03 0.  0.
        1    1    3    3  502    0 -0.94631939319E+02  0.40040390626E+03  0.14442105459E+04  0.15016732644E+04  0.50400001928E-02 0. -1.
       -1    1    3    3    0  502  0.94631939319E+02 -0.40040390626E+03  0.49900664261E+03  0.64675043214E+03  0.50400001928E-02 0.  1.
</event>
<event>
 5   0  0.1226424E-02  0.9036056E+03  0.7818609E-02  0.9421085E-01
       -1   -1    0    0    0  501  0.00000000000E+00  0.00000000000E+00  0.23482994579E+03  0.23482994584E+03  0.50400001928E-02 0.  1.
        1   -1    0    0  501    0  0.00000000000E+00  0.00000000000E+00 -0.86924938737E+03  0.86924938738E+03  0.50400001928E-02 0. -1.
    10030    2    1    2    0    0  0.00000000000E+00  0.00000000000E+00 -0.63441944158E+03  0.11040793332E+04  0.90360563644E+03 0.  0.
        1    1    3    3  502    0  0.85780311683E+02 -0.36061110657E+03 -0.15838076883E+01  0.37067659830E+03  0.50400001928E-02 0.  1.
       -1    1    3    3    0  502 -0.85780311683E+02  0.36061110657E+03 -0.63283563389E+03  0.73340273493E+03  0.50400001928E-02 0. -1.
</event>
<event>
 5   0  0.7893875E-03  0.9072737E+03  0.7818609E-02  0.9416534E-01
        3   -1    0    0  501    0  0.00000000000E+00  0.00000000000E+00  0.45203629357E+03  0.45203630485E+03  0.10100000352E+00 0. -1.
       -3   -1    0    0    0  501  0.00000000000E+00  0.00000000000E+00 -0.45524300885E+03  0.45524302006E+03  0.10100000352E+00 0.  1.
    10030    2    1    2    0    0  0.00000000000E+00  0.00000000000E+00 -0.32067152830E+01  0.90727932491E+03  0.90727365794E+03 0.  0.
        4    1    3    3  502    0  0.16389266827E+03 -0.20396557222E+03  0.36896878623E+03  0.45232990115E+03  0.12699999809E+01 0. -1.
       -4    1    3    3    0  502 -0.16389266827E+03  0.20396557222E+03 -0.37217550151E+03  0.45494942377E+03  0.12699999809E+01 0.  1.
</event>
<event>
 5   0  0.1924218E-02  0.9009752E+03  0.7818609E-02  0.9424363E-01
        2   -1    0    0  501    0  0.00000000000E+00  0.00000000000E+00  0.16477671828E+04  0.16477671828E+04  0.25500000920E-02 0.  1.
       -2   -1    0    0    0  501  0.00000000000E+00  0.00000000000E+00 -0.12316003699E+03  0.12316003702E+03  0.25500000920E-02 0. -1.
    10030    2    1    2    0    0  0.00000000000E+00  0.00000000000E+00  0.15246071458E+04  0.17709272199E+04  0.90097517661E+03 0.  0.
        4    1    3    3  502    0  0.14784405019E+03 -0.16875139547E+02 -0.73455077226E+02  0.16595148321E+03  0.12699999809E+01 0. -1.
       -4    1    3    3    0  502 -0.14784405019E+03  0.16875139547E+02  0.15980622231E+04  0.16049757366E+04  0.12699999809E+01 0.  1.
</event>
<event>
 5   0  0.1226424E-02  0.8961179E+03  0.7818609E-02  0.9430447E-01
        1   -1    0    0  501    0  0.00000000000E+00  0.00000000000E+00  0.65543845238E+03  0.65543845240E+03  0.50400001928E-02 0.  1.
       -1   -1    0    0    0  501  0.00000000000E+00  0.00000000000E+00 -0.30629395760E+03  0.30629395764E+03  0.50400001928E-02 0. -1.
    10030    2    1    2    0    0  0.00000000000E+00  0.00000000000E+00  0.34914449478E+03  0.96173241004E+03  0.89611793324E+03 0.  0.
        1    1    3    3  502    0 -0.35569597881E+02 -0.21769234567E+03  0.59313067839E+03  0.63281842208E+03  0.50400001928E-02 0.  1.
       -1    1    3    3    0  502  0.35569597881E+02  0.21769234567E+03 -0.24398618360E+03  0.32891398795E+03  0.50400001928E-02 0. -1.
</event>
<event>
 5   0  0.1924218E-02  0.8968360E+03  0.7818609E-02  0.9429545E-01
       -2   -1    0    0    0  501  0.00000000000E+00  0.00000000000E+00  0.54875846547E+03  0.54875846548E+03  0.25500000920E-02 0. -1.
        2   -1    0    0  501    0  0.00000000000E+00  0.00000000000E+00 -0.36642479014E+03  0.36642479015E+03  0.25500000920E-02 0.  1.
    10030    2    1    2    0    0  0.00000000000E+00  0.00000000000E+00  0.18233367533E+03  0.91518325563E+03  0.89683600632E+03 0.  0.
        4    1    3    3  502    0  0.36023047458E+03 -0.21422187896E+03  0.25386532821E+03  0.49000635303E+03  0.12699999809E+01 0. -1.
       -4    1    3    3    0  502 -0.36023047458E+03  0.21422187896E+03 -0.71531652883E+02  0.42517690260E+03  0.12699999809E+01 0.  1.
</event>
<event>
 5   0  0.2008643E-02  0.8833778E+03  0.7818609E-02  0.9446602E-01
        2   -1    0    0  501    0  0.00000000000E+00  0.00000000000E+00  0.13441881347E+04  0.13441881347E+04  0.25500000920E-02 0. -1.
       -2   -1    0    0    0  501  0.00000000000E+00  0.00000000000E+00 -0.14513523846E+03  0.14513523848E+03  0.25500000920E-02 0.  1.
    10030    2    1    2    0    0  0.00000000000E+00  0.00000000000E+00  0.11990528962E+04  0.14893233731E+04  0.88337775719E+03 0.  0.
        3    1    3    3  502    0 -0.17990261258E+03  0.17118850432E+03 -0.16289223794E+02  0.24886904796E+03  0.10100000352E+00 0.  1.
       -3    1    3    3    0  502  0.17990261258E+03 -0.17118850432E+03  0.12153421200E+04  0.12404543252E+04  0.10100000352E+00 0. -1.
</event>
<event>
 5   0  0.2008770E-02  0.9011425E+03  0.7818609E-02  0.9424154E-01
       -2   -1    0    0    0  501  0.00000000000E+00  0.00000000000E+00  0.30346320585E+03  0.30346320586E+03  0.25500000920E-02 0. -1.
        2   -1    0    0  501    0  0.00000000000E+00  0.00000000000E+00 -0.66899204221E+03  0.66899204221E+03  0.25500000920E-02 0.  1.
    10030    2    1    2    0    0  0.00000000000E+00  0.00000000000E+00 -0.36552883636E+03  0.97245524807E+03  0.90114254105E+03 0.  0.
        1    1    3    3  502    0 -0.14621559441E+03 -0.43219460599E+02  0.27477843859E+03  0.31424530572E+03  0.50400001928E-02 0. -1.
       -1    1    3    3    0  502  0.14621559441E+03  0.43219460599E+02 -0.64030727496E+03  0.65820994235E+03  0.50400001928E-02 0.  1.
</event>
<event>
 5   0  0.1924218E-02  0.8844609E+03  0.7818609E-02  0.9445217E-01
       -2   -1    0    0    0  501  0.00000000000E+00  0.00000000000E+00  0.11497455580E+03  0.11497455583E+03  0.25500000920E-02 0.  1.
        2   -1    0    0  501    0  0.00000000000E+00  0.00000000000E+00 -0.17009655654E+04  0.17009655654E+04  0.25500000920E-02 0. -1.
    10030    2    1    2    0    0  0.00000000000E+00  0.00000000000E+00 -0.15859910096E+04  0.18159401213E+04  0.88446087613E+03 0.  0.
        4    1    3    3  502    0  0.14930111170E+03 -0.79503197689E+02 -0.16319184041E+04  0.16406617174E+04  0.12699999809E+01 0. -1.
       -4    1    3    3    0  502 -0.14930111170E+03  0.79503197689E+02  0.45927394473E+02  0.17527840387E+03  0.12699999809E+01 0.  1.
</event>
<event>
 5   0  0.1226424E-02  0.8978536E+03  0.7818609E-02  0.9428268E-01
       -1   -1    0    0    0  501  0.00000000000E+00  0.00000000000E+00  0.45167977346E+03  0.45167977349E+03  0.50400001928E-02 0.  1.
        1   -1    0    0  501    0  0.00000000000E+00  0.00000000000E+00 -0.44619064966E+03  0.44619064969E+03  0.50400001928E-02 0. -1.
    10030    2    1    2    0    0  0.00000000000E+00  0.00000000000E+00  0.54891238079E+01  0.89787042318E+03  0.89785364416E+03 0.  0.
        1    1    3    3  502    0  0.21259682170E+03 -0.14055892296E+03  0.37232023348E+03  0.45119460957E+03  0.50400001928E-02 0.  1.
       -1    1    3    3    0  502 -0.21259682170E+03  0.14055892296E+03 -0.36683110967E+03  0.44667581361E+03  0.50400001928E-02 0. -1.
</event>
<event>
 5   0  0.2008643E-02  0.9113314E+03  0.7818609E-02  0.9411526E-01
       -2   -1    0    0    0  501  0.00000000000E+00  0.00000000000E+00  0.16828043865E+03  0.16828043867E+03  0.25500000920E-02 0.  1.
        2   -1    0    0  501    0  0.00000000000E+00  0.00000000000E+00 -0.12338405529E+04  0.12338405529E+04  0.25500000920E-02 0. -1.
    10030    2    1    2    0    0  0.00000000000E+00  0.00000000000E+00 -0.10655601142E+04  0.14021209915E+04  0.91133139851E+03 0.  0.
        3    1    3    3  502    0 -0.12534812068E+02 -0.14245174370E+03 -0.11984220830E+04  0.12069238252E+04  0.10100000352E+00 0. -1.
       -3    1    3    3    0  502  0.12534812068E+02  0.14245174370E+03  0.13286196873E+03  0.19519716631E+03  0.10100000352E+00 0.  1.
</event>
<event>
 5   0  0.1226424E-02  0.8796996E+03  0.7818609E-02  0.9451320E-01
        1   -1    0    0  501    0  0.00000000000E+00  0.00000000000E+00  0.70928934368E+03  0.70928934370E+03  0.50400001928E-02 0. -1.
       -1   -1    0    0    0  501  0.00000000000E+00  0.00000000000E+00 -0.27276296320E+03  0.27276296325E+03  0.50400001928E-02 0.  1.
    10030    2    1    2    0    0  0.00000000000E+00  0.00000000000E+00  0.43652638047E+03  0.98205230695E+03  0.87969963779E+03 0.  0.
        1    1    3    3  502    0  0.79476903036E+02  0.14539805712E+01  0.70120428343E+03  0.70569550042E+03  0.50400001928E-02 0. -1.
       -1    1    3    3    0  502 -0.79476903036E+02 -0.14539805712E+01 -0.26467790296E+03  0.27635680653E+03  0.50400001928E-02 0.  1.
</event>
<event>
 5   0  0.1924218E-02  0.9167838E+03  0.7818609E-02  0.9404841E-01
        2   -1    0    0  501    0  0.00000000000E+00  0.00000000000E+00  0.12341821350E+04  0.12341821350E+04  0.25500000920E-02 0. -1.
       -2   -1    0    0    0  501  0.00000000000E+00  0.00000000000E+00 -0.17025292882E+03  0.17025292884E+03  0.25500000920E-02 0.  1.
    10030    2    1    2    0    0  0.00000000000E+00  0.00000000000E+00  0.10639292062E+04  0.14044350639E+04  0.91678377649E+03 0.  0.
        4    1    3    3  502    0  0.16946707326E+03  0.23505794917E+03 -0.12135345608E+02  0.29003483911E+03  0.12699999809E+01 0.  1.
       -4    1    3    3    0  502 -0.16946707326E+03 -0.23505794917E+03  0.10760645518E+04  0.11144002248E+04  0.12699999809E+01 0. -1.
</event>
<event>
 5   0  0.1968763E-02  0.8982388E+03  0.7818609E-02  0.9427786E-01
       -2   -1    0    0    0  501  0.00000000000E+00  0.00000000000E+00  0.40800308451E+03  0.40800308452E+03  0.25500000920E-02 0.  1.
        2   -1    0    0  501    0  0.00000000000E+00  0.00000000000E+00 -0.49437915304E+03  0.49437915305E+03  0.25500000920E-02 0. -1.
    10030    2    1    2    0    0  0.00000000000E+00  0.00000000000E+00 -0.86376068529E+02  0.90238223756E+03  0.89823876417E+03 0.  0.
        2    1    3    3  502    0  0.20911289917E+03  0.34299870898E+03  0.15856639955E+03  0.43187917527E+03  0.25500000920E-02 0.  1.
       -2    1    3    3    0  502 -0.20911289917E+03 -0.34299870898E+03 -0.24494246808E+03  0.47050306230E+03  0.25500000920E-02 0. -1.
</event>
<event>
 5   0  0.2008770E-02  0.9055599E+03  0.7818609E-02  0.9418658E-01
       -2   -1    0    0    0  501  0.00000000000E+00  0.00000000000E+00  0.14657675339E+03  0.14657675341E+03  0.25500000920E-02 0. -1.
        2   -1    0    0  501    0  0.00000000000E+00  0.00000000000E+00 -0.13986506957E+04  0.13986506957E+04  0.25500000920E-02 0.  1.
    10030    2    1    2    0    0  0.00000000000E+00  0.00000000000E+00 -0.12520739423E+04  0.15452274491E+04  0.90555988896E+03 0.  0.
        1    1    3    3  502    0  0.34072550994E+03 -0.17241484818E+03 -0.21089612779E+03  0.43623150933E+03  0.50400001928E-02 0. -1.
       -1    1    3    3    0  502 -0.34072550994E+03  0.17241484818E+03 -0.10411778145E+04  0.11089959398E+04  0.50400001928E-02 0.  1.
</event>
<event>
 5   0  0.2008770E-02  0.8513329E+03  0.7818609E-02  0.9488550E-01
       -2   -1    0    0    0  501  0.00000000000E+00  0.00000000000E+00  0.26407952709E+03  0.26407952710E+03  0.25500000920E-02 0. -1.
        2   -1    0    0  501    0  0.00000000000E+00  0.00000000000E+00 -0.68612636218E+03  0.68612636219E+03  0.25500000920E-02 0.  1.
    10030    2    1    2    0    0  0.00000000000E+00  0.00000000000E+00 -0.42204683510E+03  0.95020588929E+03  0.85133289671E+03 0.  0.
        1    1    3    3  502    0  0.21925988432E+03 -0.31875027239E+03 -0.12880309290E+02  0.38709499533E+03  0.50400001928E-02 0. -1.
       -1    1    3    3    0  502 -0.21925988432E+03  0.31875027239E+03 -0.40916652581E+03  0.56311089395E+03  0.50400001928E-02 0.  1.
</event>
<event>
 5   0  0.7893875E-03  0.8987063E+03  0.7818609E-02  0.9427200E-01
       -3   -1    0    0    0  501  0.00000000000E+00  0.00000000000E+00  0.53633550039E+03  0.53633550990E+03  0.10100000352E+00 0. -1.
        3   -1    0    0  501    0  0.00000000000E+00  0.00000000000E+00 -0.37647745992E+03  0.37647747347E+03  0.10100000352E+00 0.  1.
    10030    2    1    2    0    0  0.00000000000E+00  0.00000000000E+00  0.15985804047E+03  0.91281298337E+03  0.89870626430E+03 0.  0.
        4    1    3    3  502    0  0.10844721678E+03 -0.39926197691E+03  0.25802586623E+03  0.48759602703E+03  0.12699999809E+01 0. -1.
       -4    1    3    3    0  502 -0.10844721678E+03  0.39926197691E+03 -0.98167825757E+02  0.42521695633E+03  0.12699999809E+01 0.  1.
</event>
<event>
 5   0  0.1968763E-02  0.9136605E+03  0.7818609E-02  0.9408664E-01
       -2   -1    0    0    0  501  0.00000000000E+00  0.00000000000E+00  0.79929117717E+03  0.79929117717E+03  0.25500000920E-02 0.  1.
        2   -1    0    0  501    0  0.00000000000E+00  0.00000000000E+00 -0.26109871327E+03  0.26109871328E+03  0.25500000920E-02 0. -1.
    10030    2    1    2    0    0  0.00000000000E+00  0.00000000000E+00  0.53819246390E+03  0.10603898905E+04  0.91366054505E+03 0.  0.
        2    1    3    3  502    0  0.40627918047E+03 -0.96959176734E+02  0.54370331401E+02  0.42121252044E+03  0.25500000920E-02 0. -1.
       -2    1    3    3    0  502 -0.40627918047E+03  0.96959176734E+02  0.48382213249E+03  0.63917737001E+03  0.25500000920E-02 0.  1.
</event>
<event>
 5   0  0.1162839E-02  0.8224023E+03  0.7818609E-02  0.9528145E-01
        1   -1    0    0  501    0  0.00000000000E+00  0.00000000000E+00  0.27797283790E+03  0.27797283794E+03  0.50400001928E-02 0. -1.
       -1   -1    0    0    0  501  0.00000000000E+00  0.00000000000E+00 -0.60828387100E+03  0.60828387102E+03  0.50400001928E-02 0.  1.
    10030    2    1    2    0    0  0.00000000000E+00  0.00000000000E+00 -0.33031103310E+03  0.88625670896E+03  0.82240231979E+03 0.  0.
        2    1    3    3  502    0  0.31309902477E+03  0.14594251548E+03  0.75224693370E+02  0.35353779379E+03  0.25500000920E-02 0. -1.
       -2    1    3    3    0  502 -0.31309902477E+03 -0.14594251548E+03 -0.40553572647E+03  0.53271891518E+03  0.25500000920E-02 0.  1.
</event>
<event>
 5   0  0.1162839E-02  0.8610990E+03  0.7818609E-02  0.9475560E-01
       -1   -1    0    0    0  501  0.00000000000E+00  0.00000000000E+00  0.13370736624E+04  0.13370736624E+04  0.50400001928E-02 0. -1.
        1   -1    0    0  501    0  0.00000000000E+00  0.00000000000E+00 -0.13864074214E+03  0.13864074223E+03  0.50400001928E-02 0.  1.
    10030    2    1    2    0    0  0.00000000000E+00  0.00000000000E+00  0.11984329203E+04  0.14757144047E+04  0.86109903014E+03 0.  0.
        2    1    3    3  502    0  0.30460223855E+02  0.42946954807E+03  0.59753124745E+03  0.73648863510E+03  0.25500000920E-02 0. -1.
       -2    1    3    3    0  502 -0.30460223855E+02 -0.42946954807E+03  0.60090167285E+03  0.73922576957E+03  0.25500000920E-02 0.  1.
</event>
<event>
 5   0  0.1175993E-02  0.8973141E+03  0.7818609E-02  0.9428945E-01
        1   -1    0    0  501    0  0.00000000000E+00  0.00000000000E+00  0.65006392149E+03  0.65006392151E+03  0.50400001928E-02 0. -1.
       -1   -1    0    0    0  501  0.00000000000E+00  0.00000000000E+00 -0.30965134401E+03  0.30965134405E+03  0.50400001928E-02 0.  1.
    10030    2    1    2    0    0  0.00000000000E+00  0.00000000000E+00  0.34041257748E+03  0.95971526555E+03  0.89731414122E+03 0.  0.
        4    1    3    3  502    0 -0.17738467457E+03  0.29359233995E+03 -0.13909258607E+03  0.37014881500E+03  0.12699999809E+01 0.  1.
       -4    1    3    3    0  502  0.17738467457E+03 -0.29359233995E+03  0.47950516355E+03  0.58956645055E+03  0.12699999809E+01 0. -1.
</event>
<event>
 5   0  0.1177712E-02  0.9052887E+03  0.7818609E-02  0.9418994E-01
       -1   -1    0    0    0  501  0.00000000000E+00  0.00000000000E+00  0.29748997857E+03  0.29748997861E+03  0.50400001928E-02 0. -1.
        1   -1    0    0  501    0  0.00000000000E+00  0.00000000000E+00 -0.68871873229E+03  0.68871873231E+03  0.50400001928E-02 0.  1.
    10030    2    1    2    0    0  0.00000000000E+00  0.00000000000E+00 -0.39122875372E+03  0.98620871092E+03  0.90528872950E+03 0.  0.
        5    1    3    3  502    0  0.22287366387E+03  0.17749508371E+03 -0.57874326611E+03  0.64509149185E+03  0.46999998093E+01 0.  1.
       -5    1    3    3    0  502 -0.22287366387E+03 -0.17749508371E+03  0.18751451240E+03  0.34111721907E+03  0.46999998093E+01 0. -1.
</event>
<event>
 5   0  0.1177712E-02  0.9002278E+03  0.7818609E-02  0.9425297E-01
        1   -1    0    0  501    0  0.00000000000E+00  0.00000000000E+00  0.83374237536E+03  0.83374237538E+03  0.50400001928E-02 0.  1.
       -1   -1    0    0    0  501  0.00000000000E+00  0.00000000000E+00 -0.24300372263E+03  0.24300372268E+03  0.50400001928E-02 0. -1.
    10030    2    1    2    0    0  0.00000000000E+00  0.00000000000E+00  0.59073865273E+03  0.10767460981E+04  0.90022775110E+03 0.  0.
        5    1    3    3  502    0  0.36784650145E+03 -0.17579935845E+03  0.52345416802E+03  0.66350796460E+03  0.46999998093E+01 0.  1.
       -5    1    3    3    0  502 -0.36784650145E+03  0.17579935845E+03  0.67284484709E+02  0.41323813346E+03  0.46999998093E+01 0. -1.
</event>
<event>
 5   0  0.2008643E-02  0.9006382E+03  0.7818609E-02  0.9424784E-01
       -2   -1    0    0    0  501  0.00000000000E+00  0.00000000000E+00  0.21802731799E+03  0.21802731800E+03  0.25500000920E-02 0. -1.
        2   -1    0    0  501    0  0.00000000000E+00  0.00000000000E+00 -0.93010044679E+03  0.93010044679E+03  0.25500000920E-02 0.  1.
    10030    2    1    2    0    0  0.00000000000E+00  0.00000000000E+00 -0.71207312880E+03  0.11481277648E+04  0.90063823122E+03 0.  0.
        3    1    3    3  502    0 -0.32869498937E+03  0.23755998086E+03 -0.60555815625E+03  0.72881810580E+03  0.10100000352E+00 0.  1.
       -3    1    3    3    0  502  0.32869498937E+03 -0.23755998086E+03 -0.10651497255E+03  0.41930965899E+03  0.10100000352E+00 0. -1.
</event>
<event>
 5   0  0.2008643E-02  0.9087807E+03  0.7818609E-02  0.9414671E-01
        2   -1    0    0  501    0  0.00000000000E+00  0.00000000000E+00  0.29338253129E+03  0.29338253130E+03  0.25500000920E-02 0. -1.
       -2   -1    0    0    0  501  0.00000000000E+00  0.00000000000E+00 -0.70375891458E+03  0.70375891459E+03  0.25500000920E-02 0.  1.
    10030    2    1    2    0    0  0.00000000000E+00  0.00000000000E+00 -0.41037638330E+03  0.99714144589E+03  0.90878065954E+03 0.  0.
        3    1    3    3  502    0  0.10378428639E+03 -0.99439972563E+02 -0.67815807800E+03  0.69322281786E+03  0.10100000352E+00 0.  1.
       -3    1    3    3    0  502 -0.10378428639E+03  0.99439972563E+02  0.26778169470E+03  0.30391862803E+03  0.10100000352E+00 0. -1.
</event>
<event>
 5   0  0.1177712E-02  0.8165819E+03  0.7818609E-02  0.9536321E-01
       -1   -1    0    0    0  501  0.00000000000E+00  0.00000000000E+00  0.32822822240E+03  0.32822822244E+03  0.50400001928E-02 0.  1.
        1   -1    0    0  501    0  0.00000000000E+00  0.00000000000E+00 -0.50788293499E+03  0.50788293501E+03  0.50400001928E-02 0. -1.
    10030    2    1    2    0    0  0.00000000000E+00  0.00000000000E+00 -0.17965471259E+03  0.83611115745E+03  0.81658193212E+03 0.  0.
        5    1    3    3  502    0  0.29097511736E+03 -0.17675023921E+03  0.14088852348E+03  0.36848179335E+03  0.46999998093E+01 0.  1.
       -5    1    3    3    0  502 -0.29097511736E+03  0.17675023921E+03 -0.32054323607E+03  0.46762936410E+03  0.46999998093E+01 0. -1.
</event>
<event>
 5   0  0.2008770E-02  0.9062406E+03  0.7818609E-02  0.9417814E-01
       -2   -1    0    0    0  501  0.00000000000E+00  0.00000000000E+00  0.11309965184E+03  0.11309965187E+03  0.25500000920E-02 0.  1.
        2   -1    0    0  501    0  0.00000000000E+00  0.00000000000E+00 -0.18153727519E+04  0.18153727519E+04  0.25500000920E-02 0. -1.
    10030    2    1    2    0    0  0.00000000000E+00  0.00000000000E+00 -0.17022731001E+04  0.19284724038E+04  0.90624064407E+03 0.  0.
        1    1    3    3  502    0 -0.20978469149E+03  0.19733285860E+03 -0.10674044193E+03  0.30715370067E+03  0.50400001928E-02 0.  1.
       -1    1    3    3    0  502  0.20978469149E+03 -0.19733285860E+03 -0.15955326582E+04  0.16213187031E+04  0.50400001928E-02 0. -1.
</event>
<event>
 5   0  0.1162839E-02  0.8570672E+03  0.7818609E-02  0.9480900E-01
       -1   -1    0    0    0  501  0.00000000000E+00  0.00000000000E+00  0.17226967013E+03  0.17226967020E+03  0.50400001928E-02 0. -1.
        1   -1    0    0  501    0  0.00000000000E+00  0.00000000000E+00 -0.10660091331E+04  0.10660091331E+04  0.50400001928E-02 0.  1.
    10030    2    1    2    0    0  0.00000000000E+00  0.00000000000E+00 -0.89373946299E+03  0.12382788033E+04  0.85706718937E+03 0.  0.
        2    1    3    3  502    0  0.41415990124E+03  0.93794366571E+02 -0.53005773726E+03  0.67918113331E+03  0.25500000920E-02 0. -1.
       -2    1    3    3    0  502 -0.41415990124E+03 -0.93794366571E+02 -0.36368172573E+03  0.55909767003E+03  0.25500000920E-02 0.  1.
</event>
<event>
 5   0  0.2008643E-02  0.9084370E+03  0.7818609E-02  0.9415096E-01
        2   -1    0    0  501    0  0.00000000000E+00  0.00000000000E+00  0.21257103293E+03  0.21257103295E+03  0.25500000920E-02 0.  1.
       -2   -1    0    0    0  501  0.00000000000E+00  0.00000000000E+00 -0.97056705143E+03  0.97056705143E+03  0.25500000920E-02 0. -1.
    10030    2    1    2    0    0  0.00000000000E+00  0.00000000000E+00 -0.75799601849E+03  0.11831380844E+04  0.90843698882E+03 0.  0.
        3    1    3    3  502    0 -0.28473259012E+03  0.32184929893E+03 -0.57065198268E+03  0.71435517401E+03  0.10100000352E+00 0. -1.
       -3    1    3    3    0  502  0.28473259012E+03 -0.32184929893E+03 -0.18734403581E+03  0.46878291037E+03  0.10100000352E+00 0.  1.
</event>
<event>
 5   0  0.1924218E-02  0.8992053E+03  0.7818609E-02  0.9426575E-01
       -2   -1    0    0    0  501  0.00000000000E+00  0.00000000000E+00  0.33871983978E+03  0.33871983979E+03  0.25500000920E-02 0. -1.
        2   -1    0    0  501    0  0.00000000000E+00  0.00000000000E+00 -0.59678392106E+03  0.59678392106E+03  0.25500000920E-02 0.  1.
    10030    2    1    2    0    0  0.00000000000E+00  0.00000000000E+00 -0.25806408128E+03  0.93550376085E+03  0.89920532501E+03 0.  0.
        4    1    3    3  502    0  0.22629624276E+03 -0.38085435840E+03 -0.49249306885E+02  0.44574335545E+03  0.12699999809E+01 0. -1.
       -4    1    3    3    0  502 -0.22629624276E+03  0.38085435840E+03 -0.20881477439E+03  0.48976040541E+03  0.12699999809E+01 0.  1.
</event>
<event>
 5   0  0.2041861E-02  0.8777037E+03  0.7818609E-02  0.9453890E-01
        2   -1    0    0  501    0  0.00000000000E+00  0.00000000000E+00  0.41439311228E+03  0.41439311228E+03  0.25500000920E-02 0. -1.
       -2   -1    0    0    0  501  0.00000000000E+00  0.00000000000E+00 -0.46475426195E+03  0.46475426196E+03  0.25500000920E-02 0.  1.
    10030    2    1    2    0    0  0.00000000000E+00  0.00000000000E+00 -0.50361149676E+02  0.87914737424E+03  0.87770374286E+03 0.  0.
        5    1    3    3  502    0 -0.17071654555E+03 -0.27028406403E+03 -0.32629315745E+03  0.45682264479E+03  0.46999998093E+01 0.  1.
       -5    1    3    3    0  502  0.17071654555E+03  0.27028406403E+03  0.27593200777E+03  0.42232472945E+03  0.46999998093E+01 0. -1.
</event>
<event>
 5   0  0.1226424E-02  0.9134715E+03  0.7818609E-02  0.9408896E-01
        1   -1    0    0  501    0  0.00000000000E+00  0.00000000000E+00  0.54084409875E+03  0.54084409877E+03  0.50400001928E-02 0. -1.
       -1   -1    0    0    0  501  0.00000000000E+00  0.00000000000E+00 -0.38570739383E+03  0.38570739386E+03  0.50400001928E-02 0.  1.
    10030    2    1    2    0    0  0.00000000000E+00  0.00000000000E+00  0.15513670492E+03  0.92655149263E+03  0.91347154924E+03 0.  0.
        1    1    3    3  502    0  0.31015887279E+02 -0.36670466815E+03  0.35194728550E+03  0.50921625141E+03  0.50400001928E-02 0. -1.
       -1    1    3    3    0  502 -0.31015887279E+02  0.36670466815E+03 -0.19681058058E+03  0.41733524121E+03  0.50400001928E-02 0.  1.
</event>
<event>
 5   0  0.7893875E-03  0.8966459E+03  0.7818609E-02  0.9429784E-01
        3   -1    0    0  501    0  0.00000000000E+00  0.00000000000E+00  0.43555649575E+03  0.43555650746E+03  0.10100000352E+00 0. -1.
       -3   -1    0    0    0  501  0.00000000000E+00  0.00000000000E+00 -0.46146356180E+03  0.46146357286E+03  0.10100000352E+00 0.  1.
    10030    2    1    2    0    0  0.00000000000E+00  0.00000000000E+00 -0.25907066052E+02  0.89702008032E+03  0.89664588798E+03 0.  0.
        5    1    3    3  502    0 -0.88568704860E+02  0.34140787396E+02  0.42536326687E+03  0.43585090071E+03  0.46999998093E+01 0. -1.
       -5    1    3    3    0  502  0.88568704860E+02 -0.34140787396E+02 -0.45127033293E+03  0.46116917961E+03  0.46999998093E+01 0.  1.
</event>
<event>
 5   0  0.1226424E-02  0.8551489E+03  0.7818609E-02  0.9483452E-01
        1   -1    0    0  501    0  0.00000000000E+00  0.00000000000E+00  0.73111243580E+03  0.73111243582E+03  0.50400001928E-02 0. -1.
       -1   -1    0    0    0  501  0.00000000000E+00  0.00000000000E+00 -0.25005717731E+03  0.25005717737E+03  0.50400001928E-02 0.  1.
    10030    2    1    2    0    0  0.00000000000E+00  0.00000000000E+00  0.48105525848E+03  0.98116961318E+03  0.85514890406E+03 0.  0.
        1    1    3    3  502    0 -0.13642956209E+02  0.21571273460E+03 -0.18275873396E+03  0.28305276715E+03  0.50400001928E-02 0.  1.
       -1    1    3    3    0  502  0.13642956209E+02 -0.21571273460E+03  0.66381399245E+03  0.69811684603E+03  0.50400001928E-02 0. -1.
</event>
<event>
 5   0  0.1175993E-02  0.9424326E+03  0.7818609E-02  0.9374040E-01
       -1   -1    0    0    0  501  0.00000000000E+00  0.00000000000E+00  0.16790166683E+03  0.16790166691E+03  0.50400001928E-02 0. -1.
        1   -1    0    0  501    0  0.00000000000E+00  0.00000000000E+00 -0.13224693169E+04  0.13224693169E+04  0.50400001928E-02 0.  1.
    10030    2    1    2    0    0  0.00000000000E+00  0.00000000000E+00 -0.11545676501E+04  0.14903709838E+04  0.94243260280E+03 0.  0.
        4    1    3    3  502    0  0.33235790913E+03 -0.19304084130E+03 -0.10083928638E+04  0.10791590832E+04  0.12699999809E+01 0.  1.
       -4    1    3    3    0  502 -0.33235790913E+03  0.19304084130E+03 -0.14617478625E+03  0.41121190061E+03  0.12699999809E+01 0. -1.
</event>
<event>
 5   0  0.1177712E-02  0.9169719E+03  0.7818609E-02  0.9404611E-01
       -1   -1    0    0    0  501  0.00000000000E+00  0.00000000000E+00  0.16310385879E+03  0.16310385887E+03  0.50400001928E-02 0.  1.
        1   -1    0    0  501    0  0.00000000000E+00  0.00000000000E+00 -0.12888069529E+04  0.12888069529E+04  0.50400001928E-02 0. -1.
    10030    2    1    2    0    0  0.00000000000E+00  0.00000000000E+00 -0.11257030941E+04  0.14519108118E+04  0.91697194574E+03 0.  0.
        5    1    3    3  502    0  0.21627300102E+03 -0.34633277348E+03 -0.23273810706E+03  0.47001012482E+03  0.46999998093E+01 0.  1.
       -5    1    3    3    0  502 -0.21627300102E+03  0.34633277348E+03 -0.89296498705E+03  0.98190068696E+03  0.46999998093E+01 0. -1.
</event>
<event>
 5   0  0.2008643E-02  0.8756517E+03  0.7818609E-02  0.9456540E-01
       -2   -1    0    0    0  501  0.00000000000E+00  0.00000000000E+00  0.22009274413E+03  0.22009274414E+03  0.25500000920E-02 0. -1.
        2   -1    0    0  501    0  0.00000000000E+00  0.00000000000E+00 -0.87095767934E+03  0.87095767935E+03  0.25500000920E-02 0.  1.
    10030    2    1    2    0    0  0.00000000000E+00  0.00000000000E+00 -0.65086493522E+03  0.10910504235E+04  0.87565167887E+03 0.  0.
        3    1    3    3  502    0 -0.74769203350E+02  0.11641162112E+03 -0.84300367582E+03  0.85428174916E+03  0.10100000352E+00 0.  1.
       -3    1    3    3    0  502  0.74769203350E+02 -0.11641162112E+03  0.19213874060E+03  0.23676867433E+03  0.10100000352E+00 0. -1.
</event>
<event>
 5   0  0.1162839E-02  0.8595980E+03  0.7818609E-02  0.9477545E-01
       -1   -1    0    0    0  501  0.00000000000E+00  0.00000000000E+00  0.53660375470E+03  0.53660375472E+03  0.50400001928E-02 0.  1.
        1   -1    0    0  501    0  0.00000000000E+00  0.00000000000E+00 -0.34425250897E+03  0.34425250901E+03  0.50400001928E-02 0. -1.
    10030    2    1    2    0    0  0.00000000000E+00  0.00000000000E+00  0.19235124572E+03  0.88085626373E+03  0.85959801979E+03 0.  0.
        2    1    3    3  502    0  0.40705270499E+03  0.92898776480E+02  0.20070366188E+03  0.46325376114E+03  0.25500000920E-02 0. -1.
       -2    1    3    3    0  502 -0.40705270499E+03 -0.92898776480E+02 -0.83524161552E+01  0.41760250259E+03  0.25500000920E-02 0.  1.
</event>
<event>
 5   0  0.1175993E-02  0.7926605E+03  0.7818609E-02  0.9570702E-01
        1   -1    0    0  501    0  0.00000000000E+00  0.00000000000E+00  0.31712012915E+03  0.31712012919E+03  0.50400001928E-02 0.  1.
       -1   -1    0    0    0  501  0.00000000000E+00  0.00000000000E+00 -0.49532549493E+03  0.49532549495E+03  0.50400001928E-02 0. -1.
    10030    2    1    2    0    0  0.00000000000E+00  0.00000000000E+00 -0.17820536578E+03  0.81244562414E+03  0.79266054512E+03 0.  0.
        4    1    3    3  502    0  0.25060146530E+03 -0.11196845061E+02  0.22539418240E+03  0.33723969831E+03  0.12699999809E+01 0.  1.
       -4    1    3    3    0  502 -0.25060146530E+03  0.11196845061E+02 -0.40359954819E+03  0.47520592583E+03  0.12699999809E+01 0. -1.
</event>
<event>
 5   0  0.1206541E-02  0.8279616E+03  0.7818609E-02  0.9520403E-01
       -1   -1    0    0    0  501  0.00000000000E+00  0.00000000000E+00  0.16619193382E+03  0.16619193389E+03  0.50400001928E-02 0.  1.
        1   -1    0    0  501    0  0.00000000000E+00  0.00000000000E+00 -0.10312178175E+04  0.10312178175E+04  0.50400001928E-02 0. -1.
    10030    2    1    2    0    0  0.00000000000E+00  0.00000000000E+00 -0.86502588367E+03  0.11974097514E+04  0.82796155304E+03 0.  0.
        3    1    3    3  502    0 -0.10148647431E+03 -0.22183821376E+03 -0.91622430080E+03  0.94814486083E+03  0.10100000352E+00 0. -1.
       -3    1    3    3    0  502  0.10148647431E+03  0.22183821376E+03  0.51198417124E+02  0.24926489056E+03  0.10100000352E+00 0.  1.
</event>
<event>
 5   0  0.1175993E-02  0.9015369E+03  0.7818609E-02  0.9423662E-01
       -1   -1    0    0    0  501  0.00000000000E+00  0.00000000000E+00  0.37615627960E+03  0.37615627964E+03  0.50400001928E-02 0.  1.
        1   -1    0    0  501    0  0.00000000000E+00  0.00000000000E+00 -0.54018024777E+03  0.54018024779E+03  0.50400001928E-02 0. -1.
    10030    2    1    2    0    0  0.00000000000E+00  0.00000000000E+00 -0.16402396817E+03  0.91633652743E+03  0.90153689296E+03 0.  0.
        4    1    3    3  502    0  0.23678152153E+03  0.27061555927E+02  0.30688206593E+03  0.38855634345E+03  0.12699999809E+01 0.  1.
       -4    1    3    3    0  502 -0.23678152153E+03 -0.27061555927E+02 -0.47090603410E+03  0.52778018398E+03  0.12699999809E+01 0. -1.
</event>
<event>
 5   0  0.1968763E-02  0.8903261E+03  0.7818609E-02  0.9437756E-01
       -2   -1    0    0    0  501  0.00000000000E+00  0.00000000000E+00  0.37425765223E+03  0.37425765224E+03  0.25500000920E-02 0.  1.
        2   -1    0    0  501    0  0.00000000000E+00  0.00000000000E+00 -0.52950193318E+03  0.52950193318E+03  0.25500000920E-02 0. -1.
    10030    2    1    2    0    0  0.00000000000E+00  0.00000000000E+00 -0.15524428094E+03  0.90375958542E+03  0.89032612086E+03 0.  0.
        2    1    3    3  502    0  0.37608997598E+03  0.93676899609E+02  0.14465928528E+03  0.41369716022E+03  0.25500000920E-02 0.  1.
       -2    1    3    3    0  502 -0.37608997598E+03 -0.93676899609E+02 -0.29990356622E+03  0.49006242520E+03  0.25500000920E-02 0. -1.
</event>
<event>
 5   0  0.2041861E-02  0.9031942E+03  0.7818609E-02  0.9421597E-01
       -2   -1    0    0    0  501  0.00000000000E+00  0.00000000000E+00  0.36078231237E+03  0.36078231238E+03  0.25500000920E-02 0.  1.
        2   -1    0    0  501    0  0.00000000000E+00  0.00000000000E+00 -0.56527138733E+03  0.56527138734E+03  0.25500000920E-02 0. -1.
    10030    2    1    2    0    0  0.00000000000E+00  0.00000000000E+00 -0.20448907496E+03  0.92605369972E+03  0.90319415022E+03 0.  0.
        5    1    3    3  502    0 -0.30169157595E+03 -0.20260663314E+03  0.17258928258E+03  0.40233866984E+03  0.46999998093E+01 0.  1.
       -5    1    3    3    0  502  0.30169157595E+03  0.20260663314E+03 -0.37707835754E+03  0.52371502988E+03  0.46999998093E+01 0. -1.
</event>
<event>
 5   0  0.2008643E-02  0.8956081E+03  0.7818609E-02  0.9431088E-01
       -2   -1    0    0    0  501  0.00000000000E+00  0.00000000000E+00  0.32617411885E+03  0.32617411886E+03  0.25500000920E-02 0. -1.
        2   -1    0    0  501    0  0.00000000000E+00  0.00000000000E+00 -0.61478969716E+03  0.61478969717E+03  0.25500000920E-02 0.  1.
    10030    2    1    2    0    0  0.00000000000E+00  0.00000000000E+00 -0.28861557831E+03  0.94096381603E+03  0.89560814592E+03 0.  0.
        3    1    3    3  502    0  0.18310449890E+03  0.17866551936E+03 -0.53045257666E+03  0.58892153264E+03  0.10100000352E+00 0.  1.
       -3    1    3    3    0  502 -0.18310449890E+03 -0.17866551936E+03  0.24183699834E+03  0.35204228339E+03  0.10100000352E+00 0. -1.
</event>
<event>
 5   0  0.2041861E-02  0.8099489E+03  0.7818609E-02  0.9545727E-01
        2   -1    0    0  501    0  0.00000000000E+00  0.00000000000E+00  0.49737174892E+03  0.49737174892E+03  0.25500000920E-02 0.  1.
       -2   -1    0    0    0  501  0.00000000000E+00  0.00000000000E+00 -0.32974191001E+03  0.32974191001E+03  0.25500000920E-02 0. -1.
    10030    2    1    2    0    0  0.00000000000E+00  0.00000000000E+00  0.16762983891E+03  0.82711365894E+03  0.80994891315E+03 0.  0.
        5    1    3    3  502    0  0.34833924257E+03 -0.19607189715E+03  0.14997844359E+03  0.42696608801E+03  0.46999998093E+01 0.  1.
       -5    1    3    3    0  502 -0.34833924257E+03  0.19607189715E+03  0.17651395326E+02  0.40014757093E+03  0.46999998093E+01 0. -1.
</event>
<event>
 5   0  0.1175993E-02  0.8632137E+03  0.7818609E-02  0.9472772E-01
       -1   -1    0    0    0  501  0.00000000000E+00  0.00000000000E+00  0.16459917889E+03  0.16459917897E+03  0.50400001928E-02 0. -1.
        1   -1    0    0  501    0  0.00000000000E+00  0.00000000000E+00 -0.11317459343E+04  0.11317459343E+04  0.50400001928E-02 0.  1.
    10030    2    1    2    0    0  0.00000000000E+00  0.00000000000E+00 -0.96714675540E+03  0.12963451133E+04  0.86321365039E+03 0.  0.
        4    1    3    3  502    0 -0.41194485073E+02  0.28689653136E+03 -0.96384806526E+03  0.10064846303E+04  0.12699999809E+01 0.  1.
       -4    1    3    3    0  502  0.41194485073E+02 -0.28689653136E+03 -0.32986901446E+01  0.28986048293E+03  0.12699999809E+01 0. -1.
</event>
<event>
 5   0  0.1206541E-02  0.8758502E+03  0.7818609E-02  0.9456284E-01
       -1   -1    0    0    0  501  0.00000000000E+00  0.00000000000E+00  0.96640339531E+02  0.96640339662E+02  0.50400001928E-02 0.  1.
        1   -1    0    0  501    0  0.00000000000E+00  0.00000000000E+00 -0.19844549664E+04  0.19844549664E+04  0.50400001928E-02 0. -1.
    10030    2    1    2    0    0  0.00000000000E+00  0.00000000000E+00 -0.18878146269E+04  0.20810953061E+04  0.87585021980E+03 0.  0.
        3    1    3    3  502    0  0.18101774172E+03 -0.38077653121E+03 -0.66256227286E+03  0.78533239151E+03  0.10100000352E+00 0. -1.
       -3    1    3    3    0  502 -0.18101774172E+03  0.38077653121E+03 -0.12252523540E+04  0.12957629146E+04  0.10100000352E+00 0.  1.
</event>
<event>
 5   0  0.1206541E-02  0.8964634E+03  0.7818609E-02  0.9430013E-01
       -1   -1    0    0    0  501  0.00000000000E+00  0.00000000000E+00  0.24435312382E+03  0.24435312387E+03  0.50400001928E-02 0. -1.
        1   -1    0    0  501    0  0.00000000000E+00  0.00000000000E+00 -0.82221840520E+03  0.82221840522E+03  0.50400001928E-02 0.  1.
    10030    2    1    2    0    0  0.00000000000E+00  0.00000000000E+00 -0.57786528139E+03  0.10665715291E+04  0.89646335298E+03 0.  0.
        3    1    3    3  502    0  0.39725852817E+02 -0.13801252634E+03  0.21623843619E+03  0.25958557798E+03  0.10100000352E+00 0. -1.
       -3    1    3    3    0  502 -0.39725852817E+02  0.13801252634E+03 -0.79410371758E+03  0.80698595111E+03  0.10100000352E+00 0.  1.
</event>
<event>
 5   0  0.1177712E-02  0.9153470E+03  0.7818609E-02  0.9406598E-01
       -1   -1    0    0    0  501  0.00000000000E+00  0.00000000000E+00  0.93510090252E+03  0.93510090254E+03  0.50400001928E-02 0. -1.
        1   -1    0    0  501    0  0.00000000000E+00  0.00000000000E+00 -0.22400261192E+03  0.22400261198E+03  0.50400001928E-02 0.  1.
    10030    2    1    2    0    0  0.00000000000E+00  0.00000000000E+00  0.71109829060E+03  0.11591035145E+04  0.91534702625E+03 0.  0.
        5    1    3    3  502    0  0.17025507202E+03 -0.60630265008E+02 -0.17686940624E+03  0.25291835727E+03  0.46999998093E+01 0.  1.
       -5    1    3    3    0  502 -0.17025507202E+03  0.60630265008E+02  0.88796769684E+03  0.90618515725E+03  0.46999998093E+01 0. -1.
</event>
<event>
 5   0  0.1968763E-02  0.8884532E+03  0.7818609E-02  0.9440132E-01
        2   -1    0    0  501    0  0.00000000000E+00  0.00000000000E+00  0.11427848808E+04  0.11427848808E+04  0.25500000920E-02 0.  1.
       -2   -1    0    0    0  501  0.00000000000E+00  0.00000000000E+00 -0.17268102268E+03  0.17268102270E+03  0.25500000920E-02 0. -1.
    10030    2    1    2    0    0  0.00000000000E+00  0.00000000000E+00  0.97010385808E+03  0.13154659035E+04  0.88845317700E+03 0.  0.
        2    1    3    3  502    0  0.11685789916E+03  0.39202205959E+03  0.74150453262E+03  0.84685656147E+03  0.25500000920E-02 0.  1.
       -2    1    3    3    0  502 -0.11685789916E+03 -0.39202205959E+03  0.22859932546E+03  0.46860934200E+03  0.25500000920E-02 0. -1.
</event>
<event>
 5   0  0.2008643E-02  0.8899285E+03  0.7818609E-02  0.9438260E-01
       -2   -1    0    0    0  501  0.00000000000E+00  0.00000000000E+00  0.30717736340E+03  0.30717736341E+03  0.25500000920E-02 0. -1.
        2   -1    0    0  501    0  0.00000000000E+00  0.00000000000E+00 -0.64455652473E+03  0.64455652474E+03  0.25500000920E-02 0.  1.
    10030    2    1    2    0    0  0.00000000000E+00  0.00000000000E+00 -0.33737916133E+03  0.95173388815E+03  0.88992847766E+03 0.  0.
        3    1    3    3  502    0 -0.14231347857E+03 -0.15215016105E+03 -0.58917567846E+03  0.62492462584E+03  0.10100000352E+00 0.  1.
       -3    1    3    3    0  502  0.14231347857E+03  0.15215016105E+03  0.25179651713E+03  0.32680926231E+03  0.10100000352E+00 0. -1.
</event>
<event>
 5   0  0.2008643E-02  0.9892281E+03  0.7818609E-02  0.9320439E-01
        2   -1    0    0  501    0  0.00000000000E+00  0.00000000000E+00  0.36553589112E+03  0.36553589113E+03  0.25500000920E-02 0.  1.
       -2   -1    0    0    0  501  0.00000000000E+00  0.00000000000E+00 -0.66927237461E+03  0.66927237461E+03  0.25500000920E-02 0. -1.
    10030    2    1    2    0    0  0.00000000000E+00  0.00000000000E+00 -0.30373648349E+03  0.10348082657E+04  0.98922813115E+03 0.  0.
        3    1    3    3  502    0 -0.69434970740E+02  0.73149648768E+02 -0.65840151408E+03  0.66608156424E+03  0.10100000352E+00 0. -1.
       -3    1    3    3    0  502  0.69434970740E+02 -0.73149648768E+02  0.35466503059E+03  0.36872670151E+03  0.10100000352E+00 0.  1.
</event>
<event>
 5   0  0.1162839E-02  0.8548505E+03  0.7818609E-02  0.9483850E-01
        1   -1    0    0  501    0  0.00000000000E+00  0.00000000000E+00  0.16432314824E+04  0.16432314824E+04  0.50400001928E-02 0. -1.
       -1   -1    0    0    0  501  0.00000000000E+00  0.00000000000E+00 -0.11117869535E+03  0.11117869546E+03  0.50400001928E-02 0.  1.
    10030    2    1    2    0    0  0.00000000000E+00  0.00000000000E+00  0.15320527871E+04  0.17544101779E+04  0.85485047224E+03 0.  0.
        2    1    3    3  502    0  0.30962797402E+03  0.14021649015E+03  0.12978938208E+04  0.13416625941E+04  0.25500000920E-02 0. -1.
       -2    1    3    3    0  502 -0.30962797402E+03 -0.14021649015E+03  0.23415896626E+03  0.41274758375E+03  0.25500000920E-02 0.  1.
</event>
<event>
 5   0  0.1924218E-02  0.9034041E+03  0.7818609E-02  0.9421336E-01
        2   -1    0    0  501    0  0.00000000000E+00  0.00000000000E+00  0.10834356041E+04  0.10834356041E+04  0.25500000920E-02 0. -1.
       -2   -1    0    0    0  501  0.00000000000E+00  0.00000000000E+00 -0.18832198037E+03  0.18832198039E+03  0.25500000920E-02 0.  1.
    10030    2    1    2    0    0  0.00000000000E+00  0.00000000000E+00  0.89511362371E+03  0.12717575845E+04  0.90340409248E+03 0.  0.
        4    1    3    3  502    0  0.18442965765E+03  0.79401848120E+02  0.10171508341E+04  0.10367817438E+04  0.12699999809E+01 0. -1.
       -4    1    3    3    0  502 -0.18442965765E+03 -0.79401848120E+02 -0.12203721034E+03  0.23497584070E+03  0.12699999809E+01 0.  1.
</event>
<event>
 5   0  0.2008770E-02  0.9406294E+03  0.7818609E-02  0.9376171E-01
       -2   -1    0    0    0  501  0.00000000000E+00  0.00000000000E+00  0.24775402072E+03  0.24775402073E+03  0.25500000920E-02 0. -1.
        2   -1    0    0  501    0  0.00000000000E+00  0.00000000000E+00 -0.89280449189E+03  0.89280449189E+03  0.25500000920E-02 0.  1.
    10030    2    1    2    0    0  0.00000000000E+00  0.00000000000E+00 -0.64505047117E+03  0.11405585126E+04  0.94062936928E+03 0.  0.
        1    1    3    3  502    0  0.35351253640E+03 -0.25285608771E+03 -0.54040834420E+03  0.69350450106E+03  0.50400001928E-02 0.  1.
       -1    1    3    3    0  502 -0.35351253640E+03  0.25285608771E+03 -0.10464212697E+03  0.44705401156E+03  0.50400001928E-02 0. -1.
</event>
<event>
 5   0  0.2008643E-02  0.8925098E+03  0.7818609E-02  0.9434993E-01
       -2   -1    0    0    0  501  0.00000000000E+00  0.00000000000E+00  0.47801440643E+03  0.47801440643E+03  0.25500000920E-02 0.  1.
        2   -1    0    0  501    0  0.00000000000E+00  0.00000000000E+00 -0.41660550062E+03  0.41660550063E+03  0.25500000920E-02 0. -1.
    10030    2    1    2    0    0  0.00000000000E+00  0.00000000000E+00  0.61408905808E+02  0.89461990706E+03  0.89250978952E+03 0.  0.
        3    1    3    3  502    0  0.11624408515E+03 -0.36515409775E+03  0.25992220831E+03  0.46304402276E+03  0.10100000352E+00 0.  1.
       -3    1    3    3    0  502 -0.11624408515E+03  0.36515409775E+03 -0.19851330251E+03  0.43157588430E+03  0.10100000352E+00 0. -1.
</event>
<event>
 5   0  0.7893875E-03  0.1010694E+04  0.7818609E-02  0.9296893E-01
        3   -1    0    0  501    0  0.00000000000E+00  0.00000000000E+00  0.30825161480E+03  0.30825163134E+03  0.10100000352E+00 0. -1.
       -3   -1    0    0    0  501  0.00000000000E+00  0.00000000000E+00 -0.82846431353E+03  0.82846431968E+03  0.10100000352E+00 0.  1.
    10030    2    1    2    0    0  0.00000000000E+00  0.00000000000E+00 -0.52021269873E+03  0.11367159510E+04  0.10106937723E+04 0.  0.
        1    1    3    3  502    0  0.12246297713E+03  0.46671422161E+03 -0.91192733748E+02  0.49105545525E+03  0.50400001928E-02 0. -1.
       -1    1    3    3    0  502 -0.12246297713E+03 -0.46671422161E+03 -0.42901996498E+03  0.64566049577E+03  0.50400001928E-02 0.  1.
</event>
<event>
 5   0  0.2008643E-02  0.8776168E+03  0.7818609E-02  0.9454002E-01
        2   -1    0    0  501    0  0.00000000000E+00  0.00000000000E+00  0.11345676411E+04  0.11345676411E+04  0.25500000920E-02 0. -1.
       -2   -1    0    0    0  501  0.00000000000E+00  0.00000000000E+00 -0.16971470850E+03  0.16971470852E+03  0.25500000920E-02 0.  1.
    10030    2    1    2    0    0  0.00000000000E+00  0.00000000000E+00  0.96485293258E+03  0.13042823496E+04  0.87761681043E+03 0.  0.
        3    1    3    3  502    0 -0.87162994698E+01  0.33538141522E+02 -0.16767809860E+03  0.17122130640E+03  0.10100000352E+00 0.  1.
       -3    1    3    3    0  502  0.87162994698E+01 -0.33538141522E+02  0.11325310312E+04  0.11330610432E+04  0.10100000352E+00 0. -1.
</event>
<event>
 5   0  0.2041861E-02  0.8837667E+03  0.7818609E-02  0.9446104E-01
       -2   -1    0    0    0  501  0.00000000000E+00  0.00000000000E+00  0.26130883711E+03  0.26130883713E+03  0.25500000920E-02 0. -1.
        2   -1    0    0  501    0  0.00000000000E+00  0.00000000000E+00 -0.74724185554E+03  0.74724185554E+03  0.25500000920E-02 0.  1.
    10030    2    1    2    0    0  0.00000000000E+00  0.00000000000E+00 -0.48593301842E+03  0.10085506927E+04  0.88376671203E+03 0.  0.
        5    1    3    3  502    0  0.10030216782E+03 -0.20089498493E+03  0.19131726171E+03  0.29503170078E+03  0.46999998093E+01 0. -1.
       -5    1    3    3    0  502 -0.10030216782E+03  0.20089498493E+03 -0.67725028013E+03  0.71351899188E+03  0.46999998093E+01 0.  1.
</event>
<event>
 5   0  0.1206541E-02  0.9123739E+03  0.7818609E-02  0.9410244E-01
       -1   -1    0    0    0  501  0.00000000000E+00  0.00000000000E+00  0.48835985251E+03  0.48835985254E+03  0.50400001928E-02 0.  1.
        1   -1    0    0  501    0  0.00000000000E+00  0.00000000000E+00 -0.42613358493E+03  0.42613358496E+03  0.50400001928E-02 0. -1.
    10030    2    1    2    0    0  0.00000000000E+00  0.00000000000E+00  0.62226267580E+02  0.91449343750E+03  0.91237390299E+03 0.  0.
        3    1    3    3  502    0 -0.65601899328E+02  0.11170319155E+03 -0.40731049693E+03  0.42741439296E+03  0.10100000352E+00 0. -1.
       -3    1    3    3    0  502  0.65601899328E+02 -0.11170319155E+03  0.46953676451E+03  0.48707904454E+03  0.10100000352E+00 0.  1.
</event>
<event>
 5   0  0.7893875E-03  0.9507447E+03  0.7818609E-02  0.9364281E-01
       -3   -1    0    0    0  501  0.00000000000E+00  0.00000000000E+00  0.48949470983E+03  0.48949472025E+03  0.10100000352E+00 0. -1.
        3   -1    0    0  501    0  0.00000000000E+00  0.00000000000E+00 -0.46165742551E+03  0.46165743656E+03  0.10100000352E+00 0.  1.
    10030    2    1    2    0    0  0.00000000000E+00  0.00000000000E+00  0.27837284320E+02  0.95115215682E+03  0.95074471390E+03 0.  0.
        4    1    3    3  502    0  0.59693784129E+02 -0.21569252407E+03 -0.40565428440E+03  0.46329647544E+03  0.12699999809E+01 0.  1.
       -4    1    3    3    0  502 -0.59693784129E+02  0.21569252407E+03  0.43349156872E+03  0.48785568138E+03  0.12699999809E+01 0. -1.
</event>
<event>
 5   0  0.1162839E-02  0.8924851E+03  0.7818609E-02  0.9435024E-01
       -1   -1    0    0    0  501  0.00000000000E+00  0.00000000000E+00  0.31750352833E+03  0.31750352837E+03  0.50400001928E-02 0.  1.
        1   -1    0    0  501    0  0.00000000000E+00  0.00000000000E+00 -0.62718171004E+03  0.62718171006E+03  0.50400001928E-02 0. -1.
    10030    2    1    2    0    0  0.00000000000E+00  0.00000000000E+00 -0.30967818171E+03  0.94468523842E+03  0.89248508305E+03 0.  0.
        2    1    3    3  502    0 -0.37842467718E+03  0.23582356975E+03 -0.17360790197E+03  0.47849524134E+03  0.25500000920E-02 0.  1.
       -2    1    3    3    0  502  0.37842467718E+03 -0.23582356975E+03 -0.13607027974E+03  0.46618999709E+03  0.25500000920E-02 0. -1.
</event>
<event>
 5   0  0.1175993E-02  0.8934799E+03  0.7818609E-02  0.9433769E-01
       -1   -1    0    0    0  501  0.00000000000E+00  0.00000000000E+00  0.64745311546E+02  0.64745311742E+02  0.50400001928E-02 0.  1.
        1   -1    0    0  501    0  0.00000000000E+00  0.00000000000E+00 -0.30824872782E+04  0.30824872782E+04  0.50400001928E-02 0. -1.
    10030    2    1    2    0    0  0.00000000000E+00  0.00000000000E+00 -0.30177419667E+04  0.31472325899E+04  0.89347993705E+03 0.  0.
        4    1    3    3  502    0  0.40951279005E+03  0.17823610878E+03 -0.14725794050E+04  0.15388179076E+04  0.12699999809E+01 0.  1.
       -4    1    3    3    0  502 -0.40951279005E+03 -0.17823610878E+03 -0.15451625617E+04  0.16084146824E+04  0.12699999809E+01 0. -1.
</event>
<event>
 5   0  0.2008643E-02  0.9051474E+03  0.7818609E-02  0.9419170E-01
       -2   -1    0    0    0  501  0.00000000000E+00  0.00000000000E+00  0.26079469326E+03  0.26079469327E+03  0.25500000920E-02 0.  1.
        2   -1    0    0  501    0  0.00000000000E+00  0.00000000000E+00 -0.78537998393E+03  0.78537998393E+03  0.25500000920E-02 0. -1.
    10030    2    1    2    0    0  0.00000000000E+00  0.00000000000E+00 -0.52458529067E+03  0.10461746772E+04  0.90514735156E+03 0.  0.
        3    1    3    3  502    0  0.30096628912E+03 -0.16253342617E+03  0.80233908498E+02  0.35133361935E+03  0.10100000352E+00 0.  1.
       -3    1    3    3    0  502 -0.30096628912E+03  0.16253342617E+03 -0.60481919916E+03  0.69484105786E+03  0.10100000352E+00 0. -1.
</event>
<event>
 5   0  0.2008643E-02  0.9097699E+03  0.7818609E-02  0.9413450E-01
       -2   -1    0    0    0  501  0.00000000000E+00  0.00000000000E+00  0.47714113995E+03  0.47714113996E+03  0.25500000920E-02 0. -1.
        2   -1    0    0  501    0  0.00000000000E+00  0.00000000000E+00 -0.43366690466E+03  0.43366690466E+03  0.25500000920E-02 0.  1.
    10030    2    1    2    0    0  0.00000000000E+00  0.00000000000E+00  0.43474235298E+02  0.91080804462E+03  0.90976990773E+03 0.  0.
        3    1    3    3  502    0  0.41682987249E+03 -0.64154894917E+02  0.19239370340E+03  0.46354971734E+03  0.10100000352E+00 0. -1.
       -3    1    3    3    0  502 -0.41682987249E+03  0.64154894917E+02 -0.14891946811E+03  0.44725832728E+03  0.10100000352E+00 0.  1.
</event>
<event>
 5   0  0.2008770E-02  0.9277513E+03  0.7818609E-02  0.9391541E-01
        2   -1    0    0  501    0  0.00000000000E+00  0.00000000000E+00  0.14047769143E+04  0.14047769143E+04  0.25500000920E-02 0.  1.
       -2   -1    0    0    0  501  0.00000000000E+00  0.00000000000E+00 -0.15317778720E+03  0.15317778722E+03  0.25500000920E-02 0. -1.
    10030    2    1    2    0    0  0.00000000000E+00  0.00000000000E+00  0.12515991271E+04  0.15579547015E+04  0.92775130128E+03 0.  0.
        1    1    3    3  502    0  0.19797675224E+03  0.25150101390E+03  0.11896305127E+04  0.12319368130E+04  0.50400001928E-02 0.  1.
       -1    1    3    3    0  502 -0.19797675224E+03 -0.25150101390E+03  0.61968614342E+02  0.32601788848E+03  0.50400001928E-02 0. -1.
</event>
<event>
 5   0  0.1226424E-02  0.8929696E+03  0.7818609E-02  0.9434413E-01
        1   -1    0    0  501    0  0.00000000000E+00  0.00000000000E+00  0.58758221705E+03  0.58758221707E+03  0.50400001928E-02 0. -1.
       -1   -1    0    0    0  501  0.00000000000E+00  0.00000000000E+00 -0.33926941737E+03  0.33926941740E+03  0.50400001928E-02 0.  1.
    10030    2    1    2    0    0  0.00000000000E+00  0.00000000000E+00  0.24831279968E+03  0.92685163447E+03  0.89296959962E+03 0.  0.
        1    1    3    3  502    0  0.12776147124E+03  0.36006944754E+03 -0.11564142521E+03  0.39918158754E+03  0.50400001928E-02 0.  1.
       -1    1    3    3    0  502 -0.12776147124E+03 -0.36006944754E+03  0.36395422489E+03  0.52767004693E+03  0.50400001928E-02 0. -1.
</event>
<event>
 5   0  0.1968763E-02  0.8691670E+03  0.7818609E-02  0.9464967E-01
        2   -1    0    0  501    0  0.00000000000E+00  0.00000000000E+00  0.10532248020E+04  0.10532248020E+04  0.25500000920E-02 0.  1.
       -2   -1    0    0    0  501  0.00000000000E+00  0.00000000000E+00 -0.17931862451E+03  0.17931862453E+03  0.25500000920E-02 0. -1.
    10030    2    1    2    0    0  0.00000000000E+00  0.00000000000E+00  0.87390617751E+03  0.12325434266E+04  0.86916700999E+03 0.  0.
        2    1    3    3  502    0 -0.15567212617E+02 -0.24920348558E+03  0.94135339242E+03  0.97390498754E+03  0.25500000920E-02 0.  1.
       -2    1    3    3    0  502  0.15567212617E+02  0.24920348558E+03 -0.67447214908E+02  0.25863843902E+03  0.25500000920E-02 0. -1.
</event>
<event>
 5   0  0.2008643E-02  0.9277172E+03  0.7818609E-02  0.9391582E-01
       -2   -1    0    0    0  501  0.00000000000E+00  0.00000000000E+00  0.37931108446E+03  0.37931108447E+03  0.25500000920E-02 0.  1.
        2   -1    0    0  501    0  0.00000000000E+00  0.00000000000E+00 -0.56725149654E+03  0.56725149655E+03  0.25500000920E-02 0. -1.
    10030    2    1    2    0    0  0.00000000000E+00  0.00000000000E+00 -0.18794041208E+03  0.94656258102E+03  0.92771715587E+03 0.  0.
        3    1    3    3  502    0 -0.64111798485E+02 -0.23697853302E+03 -0.49553286031E+03  0.55301173014E+03  0.10100000352E+00 0. -1.
       -3    1    3    3    0  502  0.64111798485E+02  0.23697853302E+03  0.30759244823E+03  0.39355085088E+03  0.10100000352E+00 0.  1.
</event>
<event>
 5   0  0.1226424E-02  0.9134988E+03  0.7818609E-02  0.9408863E-01
        1   -1    0    0  501    0  0.00000000000E+00  0.00000000000E+00  0.12963776710E+04  0.12963776710E+04  0.50400001928E-02 0. -1.
       -1   -1    0    0    0  501  0.00000000000E+00  0.00000000000E+00 -0.16092533843E+03  0.16092533851E+03  0.50400001928E-02 0.  1.
    10030    2    1    2    0    0  0.00000000000E+00  0.00000000000E+00  0.11354523326E+04  0.14573030095E+04  0.91349880241E+03 0.  0.
        1    1    3    3  502    0  0.38672443795E+03  0.10520719115E+03  0.91722273443E+03  0.10009604830E+04  0.50400001928E-02 0. -1.
       -1    1    3    3    0  502 -0.38672443795E+03 -0.10520719115E+03  0.21822959817E+03  0.45634252653E+03  0.50400001928E-02 0.  1.
</event>
<event>
 5   0  0.1924218E-02  0.9332271E+03  0.7818609E-02  0.9384973E-01
       -2   -1    0    0    0  501  0.00000000000E+00  0.00000000000E+00  0.31575272761E+03  0.31575272762E+03  0.25500000920E-02 0.  1.
        2   -1    0    0  501    0  0.00000000000E+00  0.00000000000E+00 -0.68955286571E+03  0.68955286572E+03  0.25500000920E-02 0. -1.
    10030    2    1    2    0    0  0.00000000000E+00  0.00000000000E+00 -0.37380013810E+03  0.10053055933E+04  0.93322708531E+03 0.  0.
        4    1    3    3  502    0 -0.43354717452E+03  0.11347355884E+03 -0.32688760984E+03  0.55470399625E+03  0.12699999809E+01 0. -1.
       -4    1    3    3    0  502  0.43354717452E+03 -0.11347355884E+03 -0.46912528264E+02  0.45060159709E+03  0.12699999809E+01 0.  1.
</event>
<event>
 5   0  0.1177712E-02  0.9550859E+03  0.7818609E-02  0.9359226E-01
       -1   -1    0    0    0  501  0.00000000000E+00  0.00000000000E+00  0.59510620160E+03  0.59510620162E+03  0.50400001928E-02 0.  1.
        1   -1    0    0  501    0  0.00000000000E+00  0.00000000000E+00 -0.38320432155E+03  0.38320432158E+03  0.50400001928E-02 0. -1.
    10030    2    1    2    0    0  0.00000000000E+00  0.00000000000E+00  0.21190188005E+03  0.97831052321E+03  0.95508589825E+03 0.  0.
        5    1    3    3  502    0  0.11936975125E+03 -0.59155463792E+02 -0.36375909594E+03  0.38741615388E+03  0.46999998093E+01 0. -1.
       -5    1    3    3    0  502 -0.11936975125E+03  0.59155463792E+02  0.57566097600E+03  0.59089436932E+03  0.46999998093E+01 0.  1.
</event>
<event>
 5   0  0.2041861E-02  0.9168631E+03  0.7818609E-02  0.9404744E-01
       -2   -1    0    0    0  501  0.00000000000E+00  0.00000000000E+00  0.19155130856E+03  0.19155130858E+03  0.25500000920E-02 0.  1.
        2   -1    0    0  501    0  0.00000000000E+00  0.00000000000E+00 -0.10971446778E+04  0.10971446778E+04  0.25500000920E-02 0. -1.
    10030    2    1    2    0    0  0.00000000000E+00  0.00000000000E+00 -0.90559336924E+03  0.12886959864E+04  0.91686312768E+03 0.  0.
        5    1    3    3  502    0  0.16927494367E+03  0.36015714502E+03 -0.77260225819E+03  0.86908199557E+03  0.46999998093E+01 0. -1.
       -5    1    3    3    0  502 -0.16927494367E+03 -0.36015714502E+03 -0.13299111105E+03  0.41961399081E+03  0.46999998093E+01 0.  1.
</event>
<event>
 5   0  0.1924218E-02  0.8954310E+03  0.7818609E-02  0.9431311E-01
        2   -1    0    0  501    0  0.00000000000E+00  0.00000000000E+00  0.11416442821E+04  0.11416442821E+04  0.25500000920E-02 0. -1.
       -2   -1    0    0    0  501  0.00000000000E+00  0.00000000000E+00 -0.17557936848E+03  0.17557936850E+03  0.25500000920E-02 0.  1.
    10030    2    1    2    0    0  0.00000000000E+00  0.00000000000E+00  0.96606491364E+03  0.13172236506E+04  0.89543102938E+03 0.  0.
        4    1    3    3  502    0 -0.40619535071E+02  0.12803077390E+03  0.11113029080E+04  0.11193916168E+04  0.12699999809E+01 0. -1.
       -4    1    3    3    0  502  0.40619535071E+02 -0.12803077390E+03 -0.14523799432E+03  0.19783203378E+03  0.12699999809E+01 0.  1.
</event>
<event>
 5   0  0.2008643E-02  0.8951589E+03  0.7818609E-02  0.9431653E-01
        2   -1    0    0  501    0  0.00000000000E+00  0.00000000000E+00  0.11528192695E+04  0.11528192695E+04  0.25500000920E-02 0.  1.
       -2   -1    0    0    0  501  0.00000000000E+00  0.00000000000E+00 -0.17377170783E+03  0.17377170785E+03  0.25500000920E-02 0. -1.
    10030    2    1    2    0    0  0.00000000000E+00  0.00000000000E+00  0.97904756169E+03  0.13265909774E+04  0.89515892063E+03 0.  0.
        3    1    3    3  502    0  0.47158193216E+02  0.42440781912E+03  0.29080015460E+03  0.51663394414E+03  0.10100000352E+00 0.  1.
       -3    1    3    3    0  502 -0.47158193216E+02 -0.42440781912E+03  0.68824740709E+03  0.80995703324E+03  0.10100000352E+00 0. -1.
</event>
<event>
 5   0  0.2008643E-02  0.9082256E+03  0.7818609E-02  0.9415357E-01
       -2   -1    0    0    0  501  0.00000000000E+00  0.00000000000E+00  0.92899760450E+03  0.92899760450E+03  0.25500000920E-02 0.  1.
        2   -1    0    0  501    0  0.00000000000E+00  0.00000000000E+00 -0.22197950415E+03  0.22197950417E+03  0.25500000920E-02 0. -1.
    10030    2    1    2    0    0  0.00000000000E+00  0.00000000000E+00  0.70701810034E+03  0.11509771087E+04  0.90822558347E+03 0.  0.
        3    1    3    3  502    0 -0.10763719532E+03  0.19870053954E+03  0.85268067567E+03  0.88211791451E+03  0.10100000352E+00 0.  1.
       -3    1    3    3    0  502  0.10763719532E+03 -0.19870053954E+03 -0.14566257533E+03  0.26885919416E+03  0.10100000352E+00 0. -1.
</event>
<event>
 5   0  0.1924218E-02  0.8915311E+03  0.7818609E-02  0.9436230E-01
       -2   -1    0    0    0  501  0.00000000000E+00  0.00000000000E+00  0.13091246349E+03  0.13091246351E+03  0.25500000920E-02 0. -1.
        2   -1    0    0  501    0  0.00000000000E+00  0.00000000000E+00 -0.15178610784E+04  0.15178610784E+04  0.25500000920E-02 0.  1.
    10030    2    1    2    0    0  0.00000000000E+00  0.00000000000E+00 -0.13869486149E+04  0.16487735419E+04  0.89153111673E+03 0.  0.
        4    1    3    3  502    0  0.16542557484E+03 -0.20096576336E+03 -0.24235161058E+02  0.26142267459E+03  0.12699999809E+01 0. -1.
       -4    1    3    3    0  502 -0.16542557484E+03  0.20096576336E+03 -0.13627134538E+04  0.13873508673E+04  0.12699999809E+01 0.  1.
</event>
<event>
 5   0  0.2008643E-02  0.8855963E+03  0.7818609E-02  0.9443768E-01
        2   -1    0    0  501    0  0.00000000000E+00  0.00000000000E+00  0.72866157006E+03  0.72866157007E+03  0.25500000920E-02 0.  1.
       -2   -1    0    0    0  501  0.00000000000E+00  0.00000000000E+00 -0.26908266602E+03  0.26908266603E+03  0.25500000920E-02 0. -1.
    10030    2    1    2    0    0  0.00000000000E+00  0.00000000000E+00  0.45957890404E+03  0.99774423610E+03  0.88559629157E+03 0.  0.
        3    1    3    3  502    0  0.22140103944E+03  0.37325164943E+03  0.13070332409E+03  0.45323126899E+03  0.10100000352E+00 0. -1.
       -3    1    3    3    0  502 -0.22140103944E+03 -0.37325164943E+03  0.32887557995E+03  0.54451296711E+03  0.10100000352E+00 0.  1.
</event>
<event>
 5   0  0.7893875E-03  0.9097347E+03  0.7818609E-02  0.9413494E-01
        3   -1    0    0  501    0  0.00000000000E+00  0.00000000000E+00  0.53904354024E+03  0.53904354970E+03  0.10100000352E+00 0.  1.
       -3   -1    0    0    0  501  0.00000000000E+00  0.00000000000E+00 -0.38383597142E+03  0.38383598470E+03  0.10100000352E+00 0. -1.
    10030    2    1    2    0    0  0.00000000000E+00  0.00000000000E+00  0.15520756882E+03  0.92287953440E+03  0.90973471166E+03 0.  0.
        4    1    3    3  502    0 -0.28042699300E+03  0.50732857391E+02  0.43725363332E+03  0.52192477808E+03  0.12699999809E+01 0.  1.
       -4    1    3    3    0  502  0.28042699300E+03 -0.50732857391E+02 -0.28204606450E+03  0.40095475633E+03  0.12699999809E+01 0. -1.
</event>
<event>
 5   0  0.1177712E-02  0.9000291E+03  0.7818609E-02  0.9425545E-01
        1   -1    0    0  501    0  0.00000000000E+00  0.00000000000E+00  0.68756951672E+03  0.68756951674E+03  0.50400001928E-02 0. -1.
       -1   -1    0    0    0  501  0.00000000000E+00  0.00000000000E+00 -0.29453471365E+03  0.29453471369E+03  0.50400001928E-02 0.  1.
    10030    2    1    2    0    0  0.00000000000E+00  0.00000000000E+00  0.39303480307E+03  0.98210423043E+03  0.90002909009E+03 0.  0.
        5    1    3    3  502    0  0.57074282743E+02 -0.54104561253E+02 -0.28695097156E+03  0.29756970172E+03  0.46999998093E+01 0.  1.
       -5    1    3    3    0  502 -0.57074282743E+02  0.54104561253E+02  0.67998577463E+03  0.68453452871E+03  0.46999998093E+01 0. -1.
</event>
<event>
 5   0  0.2008770E-02  0.7942405E+03  0.7818609E-02  0.9568391E-01
        2   -1    0    0  501    0  0.00000000000E+00  0.00000000000E+00  0.13269125636E+04  0.13269125636E+04  0.25500000920E-02 0. -1.
       -2   -1    0    0    0  501  0.00000000000E+00  0.00000000000E+00 -0.11885070098E+03  0.11885070101E+03  0.25500000920E-02 0.  1.
    10030    2    1    2    0    0  0.00000000000E+00  0.00000000000E+00  0.12080618627E+04  0.14457632647E+04  0.79424048839E+03 0.  0.
        1    1    3    3  502    0 -0.36370685848E+03  0.10789572804E+03  0.39034553894E+03  0.54432876723E+03  0.50400001928E-02 0.  1.
       -1    1    3    3    0  502  0.36370685848E+03 -0.10789572804E+03  0.81771632372E+03  0.90143449743E+03  0.50400001928E-02 0. -1.
</event>
<event>
 5   0  0.1226424E-02  0.9038390E+03  0.7818609E-02  0.9420795E-01
        1   -1    0    0  501    0  0.00000000000E+00  0.00000000000E+00  0.65354534443E+03  0.65354534445E+03  0.50400001928E-02 0. -1.
       -1   -1    0    0    0  501  0.00000000000E+00  0.00000000000E+00 -0.31249741940E+03  0.31249741944E+03  0.50400001928E-02 0.  1.
    10030    2    1    2    0    0  0.00000000000E+00  0.00000000000E+00  0.34104792503E+03  0.96604276389E+03  0.90383899811E+03 0.  0.
        1    1    3    3  502    0 -0.18857087961E+03 -0.15748249386E+03  0.57593231627E+03  0.62614514728E+03  0.50400001928E-02 0. -1.
       -1    1    3    3    0  502  0.18857087961E+03  0.15748249386E+03 -0.23488439123E+03  0.33989761662E+03  0.50400001928E-02 0.  1.
</event>
<event>
 5   0  0.1924218E-02  0.9065434E+03  0.7818609E-02  0.9417439E-01
        2   -1    0    0  501    0  0.00000000000E+00  0.00000000000E+00  0.54169079305E+03  0.54169079305E+03  0.25500000920E-02 0. -1.
       -2   -1    0    0    0  501  0.00000000000E+00  0.00000000000E+00 -0.37928507880E+03  0.37928507881E+03  0.25500000920E-02 0.  1.
    10030    2    1    2    0    0  0.00000000000E+00  0.00000000000E+00  0.16240571425E+03  0.92097587186E+03  0.90654340245E+03 0.  0.
        4    1    3    3  502    0  0.30341573442E+03  0.99042403509E+02 -0.24576430504E+03  0.40283025224E+03  0.12699999809E+01 0.  1.
       -4    1    3    3    0  502 -0.30341573442E+03 -0.99042403509E+02  0.40817001929E+03  0.51814561962E+03  0.12699999809E+01 0. -1.
</event>
<event>
 5   0  0.1924218E-02  0.8951887E+03  0.7818609E-02  0.9431616E-01
        2   -1    0    0  501    0  0.00000000000E+00  0.00000000000E+00  0.10809215085E+04  0.10809215085E+04  0.25500000920E-02 0. -1.
       -2   -1    0    0    0  501  0.00000000000E+00  0.00000000000E+00 -0.18534249881E+03  0.18534249882E+03  0.25500000920E-02 0.  1.
    10030    2    1    2    0    0  0.00000000000E+00  0.00000000000E+00  0.89557900967E+03  0.12662640073E+04  0.89518868047E+03 0.  0.
        4    1    3    3  502    0  0.81204944341E+02  0.17592023731E+02 -0.17433543479E+03  0.19312736473E+03  0.12699999809E+01 0.  1.
       -4    1    3    3    0  502 -0.81204944341E+02 -0.17592023731E+02  0.10699144445E+04  0.10731366426E+04  0.12699999809E+01 0. -1.
</event>
<event>
 5   0  0.1177712E-02  0.8798994E+03  0.7818609E-02  0.9451063E-01
       -1   -1    0    0    0  501  0.00000000000E+00  0.00000000000E+00  0.41592355286E+03  0.41592355289E+03  0.50400001928E-02 0.  1.
        1   -1    0    0  501    0  0.00000000000E+00  0.00000000000E+00 -0.46536378070E+03  0.46536378073E+03  0.50400001928E-02 0. -1.
    10030    2    1    2    0    0  0.00000000000E+00  0.00000000000E+00 -0.49440227844E+02  0.88128733361E+03  0.87989944213E+03 0.  0.
        5    1    3    3  502    0 -0.41750955027E+03  0.13831597152E+03 -0.15317307131E+02  0.44011616926E+03  0.46999998093E+01 0.  1.
       -5    1    3    3    0  502  0.41750955027E+03 -0.13831597152E+03 -0.34122920714E+02  0.44117116436E+03  0.46999998093E+01 0. -1.
</event>
<event>
 5   0  0.1924218E-02  0.8983175E+03  0.7818609E-02  0.9427687E-01
        2   -1    0    0  501    0  0.00000000000E+00  0.00000000000E+00  0.14455675583E+04  0.14455675583E+04  0.25500000920E-02 0.  1.
       -2   -1    0    0    0  501  0.00000000000E+00  0.00000000000E+00 -0.13956011405E+03  0.13956011407E+03  0.25500000920E-02 0. -1.
    10030    2    1    2    0    0  0.00000000000E+00  0.00000000000E+00  0.13060074442E+04  0.15851276723E+04  0.89831747911E+03 0.  0.
        4    1    3    3  502    0  0.54473175739E+02 -0.31698234229E+03  0.99775725467E+02  0.33675204601E+03  0.12699999809E+01 0. -1.
       -4    1    3    3    0  502 -0.54473175739E+02  0.31698234229E+03  0.12062317188E+04  0.12483756263E+04  0.12699999809E+01 0.  1.
</event>
<event>
 5   0  0.2008770E-02  0.8897824E+03  0.7818609E-02  0.9438445E-01
       -2   -1    0    0    0  501  0.00000000000E+00  0.00000000000E+00  0.10233083742E+04  0.10233083742E+04  0.25500000920E-02 0. -1.
        2   -1    0    0  501    0  0.00000000000E+00  0.00000000000E+00 -0.19341986748E+03  0.19341986750E+03  0.25500000920E-02 0.  1.
    10030    2    1    2    0    0  0.00000000000E+00  0.00000000000E+00  0.82988850672E+03  0.12167282417E+04  0.88978237821E+03 0.  0.
        1    1    3    3  502    0  0.29863062370E+03  0.23325006294E+03  0.73371533151E+03  0.82578691500E+03  0.50400001928E-02 0. -1.
       -1    1    3    3    0  502 -0.29863062370E+03 -0.23325006294E+03  0.96173175212E+02  0.39094132671E+03  0.50400001928E-02 0.  1.
</event>
<event>
 5   0  0.1175993E-02  0.8848130E+03  0.7818609E-02  0.9444768E-01
        1   -1    0    0  501    0  0.00000000000E+00  0.00000000000E+00  0.12375263977E+04  0.12375263977E+04  0.50400001928E-02 0. -1.
       -1   -1    0    0    0  501  0.00000000000E+00  0.00000000000E+00 -0.15815705705E+03  0.15815705713E+03  0.50400001928E-02 0.  1.
    10030    2    1    2    0    0  0.00000000000E+00  0.00000000000E+00  0.10793693406E+04  0.13956834548E+04  0.88481304951E+03 0.  0.
        4    1    3    3  502    0 -0.81344819532E+02 -0.41561653998E+03  0.74148923902E+03  0.85390982689E+03  0.12699999809E+01 0. -1.
       -4    1    3    3    0  502  0.81344819532E+02  0.41561653998E+03  0.33788010161E+03  0.54177362794E+03  0.12699999809E+01 0.  1.
</event>
<event>
 5   0  0.7893875E-03  0.9148653E+03  0.7818609E-02  0.9407188E-01
        3   -1    0    0  501    0  0.00000000000E+00  0.00000000000E+00  0.23313573825E+03  0.23313576013E+03  0.10100000352E+00 0.  1.
       -3   -1    0    0    0  501  0.00000000000E+00  0.00000000000E+00 -0.89752267941E+03  0.89752268510E+03  0.10100000352E+00 0. -1.
    10030    2    1    2    0    0  0.00000000000E+00  0.00000000000E+00 -0.66438694116E+03  0.11306584452E+04  0.91486529728E+03 0.  0.
        2    1    3    3  502    0 -0.30329688149E+03  0.14854203765E+03 -0.71349801101E+03  0.78938783053E+03  0.25500000920E-02 0. -1.
       -2    1    3    3    0  502  0.30329688149E+03 -0.14854203765E+03  0.49111069842E+02  0.34127061470E+03  0.25500000920E-02 0.  1.
</event>
<event>
 5   0  0.1206541E-02  0.9069237E+03  0.7818609E-02  0.9416968E-01
       -1   -1    0    0    0  501  0.00000000000E+00  0.00000000000E+00  0.25300436844E+03  0.25300436849E+03  0.50400001928E-02 0. -1.
        1   -1    0    0  501    0  0.00000000000E+00  0.00000000000E+00 -0.81274341094E+03  0.81274341096E+03  0.50400001928E-02 0.  1.
    10030    2    1    2    0    0  0.00000000000E+00  0.00000000000E+00 -0.55973904250E+03  0.10657477794E+04  0.90692366475E+03 0.  0.
        3    1    3    3  502    0 -0.11477436891E+03  0.13537339583E+03  0.21049455384E+03  0.27533085453E+03  0.10100000352E+00 0. -1.
       -3    1    3    3    0  502  0.11477436891E+03 -0.13537339583E+03 -0.77023359634E+03  0.79041692492E+03  0.10100000352E+00 0.  1.
</event>
<event>
 5   0  0.1924218E-02  0.9100548E+03  0.7818609E-02  0.9413099E-01
        2   -1    0    0  501    0  0.00000000000E+00  0.00000000000E+00  0.92424714705E+03  0.92424714705E+03  0.25500000920E-02 0. -1.
       -2   -1    0    0    0  501  0.00000000000E+00  0.00000000000E+00 -0.22402010409E+03  0.22402010411E+03  0.25500000920E-02 0.  1.
    10030    2    1    2    0    0  0.00000000000E+00  0.00000000000E+00  0.70022704295E+03  0.11482672512E+04  0.91005481615E+03 0.  0.
        4    1    3    3  502    0 -0.13251504505E+03  0.27394768475E+03  0.77695418802E+03  0.83442614672E+03  0.12699999809E+01 0. -1.
       -4    1    3    3    0  502  0.13251504505E+03 -0.27394768475E+03 -0.76727145068E+02  0.31384110444E+03  0.12699999809E+01 0.  1.
</event>
<event>
 5   0  0.2008770E-02  0.8898563E+03  0.7818609E-02  0.9438351E-01
       -2   -1    0    0    0  501  0.00000000000E+00  0.00000000000E+00  0.15850282089E+04  0.15850282089E+04  0.25500000920E-02 0.  1.
        2   -1    0    0  501    0  0.00000000000E+00  0.00000000000E+00 -0.12489433719E+03  0.12489433721E+03  0.25500000920E-02 0. -1.
    10030    2    1    2    0    0  0.00000000000E+00  0.00000000000E+00  0.14601338717E+04  0.17099225461E+04  0.88985627513E+03 0.  0.
        1    1    3    3  502    0  0.23497278437E+03  0.48497012356E+02  0.10062293611E+02  0.24013625170E+03  0.50400001928E-02 0. -1.
       -1    1    3    3    0  502 -0.23497278437E+03 -0.48497012356E+02  0.14500715781E+04  0.14697862944E+04  0.50400001928E-02 0.  1.
</event>
<event>
 5   0  0.1968763E-02  0.8562079E+03  0.7818609E-02  0.9482043E-01
        2   -1    0    0  501    0  0.00000000000E+00  0.00000000000E+00  0.13788326051E+04  0.13788326051E+04  0.25500000920E-02 0.  1.
       -2   -1    0    0    0  501  0.00000000000E+00  0.00000000000E+00 -0.13291895913E+03  0.13291895916E+03  0.25500000920E-02 0. -1.
    10030    2    1    2    0    0  0.00000000000E+00  0.00000000000E+00  0.12459136460E+04  0.15117515643E+04  0.85620790633E+03 0.  0.
        2    1    3    3  502    0  0.11203477268E+03 -0.16381815566E+03  0.12927005833E+04  0.13078466945E+04  0.25500000920E-02 0.  1.
       -2    1    3    3    0  502 -0.11203477268E+03  0.16381815566E+03 -0.46786937256E+02  0.20390486977E+03  0.25500000920E-02 0. -1.
</event>
<event>
 5   0  0.2041861E-02  0.8753860E+03  0.7818609E-02  0.9456884E-01
        2   -1    0    0  501    0  0.00000000000E+00  0.00000000000E+00  0.25506575625E+03  0.25506575626E+03  0.25500000920E-02 0. -1.
       -2   -1    0    0    0  501  0.00000000000E+00  0.00000000000E+00 -0.75108140844E+03  0.75108140844E+03  0.25500000920E-02 0.  1.
    10030    2    1    2    0    0  0.00000000000E+00  0.00000000000E+00 -0.49601565219E+03  0.10061471647E+04  0.87538596620E+03 0.  0.
        5    1    3    3  502    0 -0.31383663879E+03  0.27544946557E+03 -0.97324685253E+02  0.42878902538E+03  0.46999998093E+01 0. -1.
       -5    1    3    3    0  502  0.31383663879E+03 -0.27544946557E+03 -0.39869096693E+03  0.57735813932E+03  0.46999998093E+01 0.  1.
</event>
<event>
 5   0  0.1968763E-02  0.7120596E+03  0.7818609E-02  0.9696828E-01
        2   -1    0    0  501    0  0.00000000000E+00  0.00000000000E+00  0.63075704749E+03  0.63075704749E+03  0.25500000920E-02 0.  1.
       -2   -1    0    0    0  501  0.00000000000E+00  0.00000000000E+00 -0.20096047368E+03  0.20096047369E+03  0.25500000920E-02 0. -1.
    10030    2    1    2    0    0  0.00000000000E+00  0.00000000000E+00  0.42979657381E+03  0.83171752119E+03  0.71205964651E+03 0.  0.
        2    1    3    3  502    0  0.32006844844E+03 -0.15080093226E+03  0.16857972101E+03  0.39192327719E+03  0.25500000920E-02 0. -1.
       -2    1    3    3    0  502 -0.32006844844E+03  0.15080093226E+03  0.26121685281E+03  0.43979424400E+03  0.25500000920E-02 0.  1.
</event>
<event>
 5   0  0.1206541E-02  0.9266348E+03  0.7818609E-02  0.9392886E-01
       -1   -1    0    0    0  501  0.00000000000E+00  0.00000000000E+00  0.90486585850E+03  0.90486585851E+03  0.50400001928E-02 0.  1.
        1   -1    0    0  501    0  0.00000000000E+00  0.00000000000E+00 -0.23723186593E+03  0.23723186598E+03  0.50400001928E-02 0. -1.
    10030    2    1    2    0    0  0.00000000000E+00  0.00000000000E+00  0.66763399257E+03  0.11420977245E+04  0.92663480630E+03 0.  0.
        3    1    3    3  502    0  0.16045437935E+03 -0.28204491598E+03  0.74142238607E+03  0.80932200467E+03  0.10100000352E+00 0.  1.
       -3    1    3    3    0  502 -0.16045437935E+03  0.28204491598E+03 -0.73788393499E+02  0.33277571982E+03  0.10100000352E+00 0. -1.
</event>
<event>
 5   0  0.2008770E-02  0.8922342E+03  0.7818609E-02  0.9435341E-01
        2   -1    0    0  501    0  0.00000000000E+00  0.00000000000E+00  0.13726962339E+04  0.13726962339E+04  0.25500000920E-02 0. -1.
       -2   -1    0    0    0  501  0.00000000000E+00  0.00000000000E+00 -0.14498506512E+03  0.14498506514E+03  0.25500000920E-02 0.  1.
    10030    2    1    2    0    0  0.00000000000E+00  0.00000000000E+00  0.12277111687E+04  0.15176812990E+04  0.89223416852E+03 0.  0.
        1    1    3    3  502    0 -0.16151087011E+03  0.50687646709E+02  0.13159451193E+04  0.13267880599E+04  0.50400001928E-02 0. -1.
       -1    1    3    3    0  502  0.16151087011E+03 -0.50687646709E+02 -0.88233950572E+02  0.19089323915E+03  0.50400001928E-02 0.  1.
</event>
<event>
 5   0  0.1162839E-02  0.8986358E+03  0.7818609E-02  0.9427288E-01
       -1   -1    0    0    0  501  0.00000000000E+00  0.00000000000E+00  0.17499234175E+03  0.17499234183E+03  0.50400001928E-02 0. -1.
        1   -1    0    0  501    0  0.00000000000E+00  0.00000000000E+00 -0.11536880771E+04  0.11536880771E+04  0.50400001928E-02 0.  1.
    10030    2    1    2    0    0  0.00000000000E+00  0.00000000000E+00 -0.97869573533E+03  0.13286804189E+04  0.89863580681E+03 0.  0.
        2    1    3    3  502    0  0.15370471797E+03 -0.16923321418E+03  0.82570310432E+02  0.24306969633E+03  0.25500000920E-02 0. -1.
       -2    1    3    3    0  502 -0.15370471797E+03  0.16923321418E+03 -0.10612660458E+04  0.10856107226E+04  0.25500000920E-02 0.  1.
</event>
<event>
 5   0  0.1175993E-02  0.9067910E+03  0.7818609E-02  0.9417132E-01
       -1   -1    0    0    0  501  0.00000000000E+00  0.00000000000E+00  0.73633775943E+03  0.73633775945E+03  0.50400001928E-02 0.  1.
        1   -1    0    0  501    0  0.00000000000E+00  0.00000000000E+00 -0.27917553630E+03  0.27917553635E+03  0.50400001928E-02 0. -1.
    10030    2    1    2    0    0  0.00000000000E+00  0.00000000000E+00  0.45716222313E+03  0.10155132958E+04  0.90679102095E+03 0.  0.
        4    1    3    3  502    0  0.45000708436E+03 -0.48836294644E+02  0.19949573781E+03  0.49466303880E+03  0.12699999809E+01 0. -1.
       -4    1    3    3    0  502 -0.45000708436E+03  0.48836294644E+02  0.25766648532E+03  0.52085025699E+03  0.12699999809E+01 0.  1.
</event>
<event>
 5   0  0.2008643E-02  0.9097248E+03  0.7818609E-02  0.9413506E-01
        2   -1    0    0  501    0  0.00000000000E+00  0.00000000000E+00  0.99207919813E+03  0.99207919813E+03  0.25500000920E-02 0.  1.
       -2   -1    0    0    0  501  0.00000000000E+00  0.00000000000E+00 -0.20855170003E+03  0.20855170005E+03  0.25500000920E-02 0. -1.
    10030    2    1    2    0    0  0.00000000000E+00  0.00000000000E+00  0.78352749809E+03  0.12006308982E+04  0.90972480091E+03 0.  0.
        3    1    3    3  502    0  0.11611928467E+03  0.14668115610E+03  0.93895400916E+03  0.95740988681E+03  0.10100000352E+00 0.  1.
       -3    1    3    3    0  502 -0.11611928467E+03 -0.14668115610E+03 -0.15542651107E+03  0.24322101137E+03  0.10100000352E+00 0. -1.
</event>
<event>
 5   0  0.2041861E-02  0.9000102E+03  0.7818609E-02  0.9425569E-01
        2   -1    0    0  501    0  0.00000000000E+00  0.00000000000E+00  0.55364235088E+03  0.55364235089E+03  0.25500000920E-02 0. -1.
       -2   -1    0    0    0  501  0.00000000000E+00  0.00000000000E+00 -0.36576789649E+03  0.36576789650E+03  0.25500000920E-02 0.  1.
    10030    2    1    2    0    0  0.00000000000E+00  0.00000000000E+00  0.18787445439E+03  0.91941024739E+03  0.90001021794E+03 0.  0.
        5    1    3    3  502    0 -0.18406341540E+03  0.24913263434E+03 -0.23949708757E+03  0.39157037086E+03  0.46999998093E+01 0. -1.
       -5    1    3    3    0  502  0.18406341540E+03 -0.24913263434E+03  0.42737154196E+03  0.52783987653E+03  0.46999998093E+01 0.  1.
</event>
<event>
 5   0  0.7893875E-03  0.8933787E+03  0.7818609E-02  0.9433896E-01
        3   -1    0    0  501    0  0.00000000000E+00  0.00000000000E+00  0.39372101728E+03  0.39372103023E+03  0.10100000352E+00 0. -1.
       -3   -1    0    0    0  501  0.00000000000E+00  0.00000000000E+00 -0.50678359354E+03  0.50678360360E+03  0.10100000352E+00 0.  1.
    10030    2    1    2    0    0  0.00000000000E+00  0.00000000000E+00 -0.11306257626E+03  0.90050463383E+03  0.89337867078E+03 0.  0.
        1    1    3    3  502    0  0.92759677883E+00  0.39049649441E+03 -0.27515528502E+03  0.47770158413E+03  0.50400001928E-02 0.  1.
       -1    1    3    3    0  502 -0.92759677883E+00 -0.39049649441E+03  0.16209270876E+03  0.42280304970E+03  0.50400001928E-02 0. -1.
</event>
<event>
 5   0  0.1177712E-02  0.8919069E+03  0.7818609E-02  0.9435755E-01
        1   -1    0    0  501    0  0.00000000000E+00  0.00000000000E+00  0.16749125097E+04  0.16749125097E+04  0.50400001928E-02 0.  1.
       -1   -1    0    0    0  501  0.00000000000E+00  0.00000000000E+00 -0.11873722891E+03  0.11873722902E+03  0.50400001928E-02 0. -1.
    10030    2    1    2    0    0  0.00000000000E+00  0.00000000000E+00  0.15561752808E+04  0.17936497387E+04  0.89190687893E+03 0.  0.
        5    1    3    3  502    0 -0.19340651530E+03 -0.25336440274E+02 -0.28343039162E+02  0.19716346831E+03  0.46999998093E+01 0. -1.
       -5    1    3    3    0  502  0.19340651530E+03  0.25336440274E+02  0.15845183200E+04  0.15964862704E+04  0.46999998093E+01 0.  1.
</event>
<event>
 5   0  0.2041861E-02  0.9161668E+03  0.7818609E-02  0.9405595E-01
       -2   -1    0    0    0  501  0.00000000000E+00  0.00000000000E+00  0.31039010212E+03  0.31039010213E+03  0.25500000920E-02 0. -1.
        2   -1    0    0  501    0  0.00000000000E+00  0.00000000000E+00 -0.67605373924E+03  0.67605373924E+03  0.25500000920E-02 0.  1.
    10030    2    1    2    0    0  0.00000000000E+00  0.00000000000E+00 -0.36566363712E+03  0.98644384137E+03  0.91616677339E+03 0.  0.
        5    1    3    3  502    0 -0.31537747105E+03  0.12564251640E+03 -0.51394230410E+03  0.61596085356E+03  0.46999998093E+01 0.  1.
       -5    1    3    3    0  502  0.31537747105E+03 -0.12564251640E+03  0.14827866699E+03  0.37048298781E+03  0.46999998093E+01 0. -1.
</event>
<event>
 5   0  0.2008770E-02  0.9274297E+03  0.7818609E-02  0.9391928E-01
       -2   -1    0    0    0  501  0.00000000000E+00  0.00000000000E+00  0.20139161325E+03  0.20139161327E+03  0.25500000920E-02 0.  1.
        2   -1    0    0  501    0  0.00000000000E+00  0.00000000000E+00 -0.10677279323E+04  0.10677279323E+04  0.25500000920E-02 0. -1.
    10030    2    1    2    0    0  0.00000000000E+00  0.00000000000E+00 -0.86633631904E+03  0.12691195456E+04  0.92742967564E+03 0.  0.
        1    1    3    3  502    0  0.43946368913E+03  0.13898998725E+03 -0.36359472679E+03  0.58706701150E+03  0.50400001928E-02 0.  1.
       -1    1    3    3    0  502 -0.43946368913E+03 -0.13898998725E+03 -0.50274159226E+03  0.68205253407E+03  0.50400001928E-02 0. -1.
</event>
<event>
 5   0  0.1175993E-02  0.8839796E+03  0.7818609E-02  0.9445832E-01
        1   -1    0    0  501    0  0.00000000000E+00  0.00000000000E+00  0.56728631706E+03  0.56728631708E+03  0.50400001928E-02 0.  1.
       -1   -1    0    0    0  501  0.00000000000E+00  0.00000000000E+00 -0.34436755635E+03  0.34436755638E+03  0.50400001928E-02 0. -1.
    10030    2    1    2    0    0  0.00000000000E+00  0.00000000000E+00  0.22291876072E+03  0.91165387347E+03  0.88397964407E+03 0.  0.
        4    1    3    3  502    0 -0.24315834794E+03  0.15246336426E+03  0.45811079841E+03  0.54059058088E+03  0.12699999809E+01 0.  1.
       -4    1    3    3    0  502  0.24315834794E+03 -0.15246336426E+03 -0.23519203769E+03  0.37106329259E+03  0.12699999809E+01 0. -1.
</event>
<event>
 5   0  0.7893875E-03  0.9072442E+03  0.7818609E-02  0.9416571E-01
        3   -1    0    0  501    0  0.00000000000E+00  0.00000000000E+00  0.18137720071E+03  0.18137722883E+03  0.10100000352E+00 0.  1.
       -3   -1    0    0    0  501  0.00000000000E+00  0.00000000000E+00 -0.11345030739E+04  0.11345030784E+04  0.10100000352E+00 0. -1.
    10030    2    1    2    0    0  0.00000000000E+00  0.00000000000E+00 -0.95312587315E+03  0.13158803072E+04  0.90724420791E+03 0.  0.
        5    1    3    3  502    0 -0.15371643968E+03  0.35691067847E+03 -0.81590091518E+03  0.90373135922E+03  0.46999998093E+01 0. -1.
       -5    1    3    3    0  502  0.15371643968E+03 -0.35691067847E+03 -0.13722495796E+03  0.41214894798E+03  0.46999998093E+01 0.  1.
</event>
<event>
 5   0  0.1177712E-02  0.9050043E+03  0.7818609E-02  0.9419347E-01
       -1   -1    0    0    0  501  0.00000000000E+00  0.00000000000E+00  0.11019714478E+03  0.11019714490E+03  0.50400001928E-02 0.  1.
        1   -1    0    0  501    0  0.00000000000E+00  0.00000000000E+00 -0.18581081250E+04  0.18581081251E+04  0.50400001928E-02 0. -1.
    10030    2    1    2    0    0  0.00000000000E+00  0.00000000000E+00 -0.17479109803E+04  0.19683052700E+04  0.90500433191E+03 0.  0.
        5    1    3    3  502    0 -0.37622680857E+03  0.10545505700E+03 -0.13702395542E+04  0.14248669785E+04  0.46999998093E+01 0.  1.
       -5    1    3    3    0  502  0.37622680857E+03 -0.10545505700E+03 -0.37767142602E+03  0.54343829141E+03  0.46999998093E+01 0. -1.
</event>
<event>
 5   0  0.2041861E-02  0.9174233E+03  0.7818609E-02  0.9404060E-01
       -2   -1    0    0    0  501  0.00000000000E+00  0.00000000000E+00  0.22125642259E+03  0.22125642260E+03  0.25500000920E-02 0.  1.
        2   -1    0    0  501    0  0.00000000000E+00  0.00000000000E+00 -0.95100685670E+03  0.95100685670E+03  0.25500000920E-02 0. -1.
    10030    2    1    2    0    0  0.00000000000E+00  0.00000000000E+00 -0.72975043411E+03  0.11722632793E+04  0.91742329375E+03 0.  0.
        5    1    3    3  502    0 -0.39286542095E+03  0.22022769844E+03 -0.47590821818E+03  0.65525124972E+03  0.46999998093E+01 0. -1.
       -5    1    3    3    0  502  0.39286542095E+03 -0.22022769844E+03 -0.25384221593E+03  0.51701202958E+03  0.46999998093E+01 0.  1.
</event>
<event>
 5   0  0.1968763E-02  0.7440581E+03  0.7818609E-02  0.9644719E-01
       -2   -1    0    0    0  501  0.00000000000E+00  0.00000000000E+00  0.26169296785E+03  0.26169296786E+03  0.25500000920E-02 0.  1.
        2   -1    0    0  501    0  0.00000000000E+00  0.00000000000E+00 -0.52888552650E+03  0.52888552650E+03  0.25500000920E-02 0. -1.
    10030    2    1    2    0    0  0.00000000000E+00  0.00000000000E+00 -0.26719255865E+03  0.79057849437E+03  0.74405812432E+03 0.  0.
        2    1    3    3  502    0  0.17822660762E+03 -0.12139892758E+03 -0.45570571688E+03  0.50415287730E+03  0.25500000920E-02 0. -1.
       -2    1    3    3    0  502 -0.17822660762E+03  0.12139892758E+03  0.18851315824E+03  0.28642561707E+03  0.25500000920E-02 0.  1.
</event>
<event>
 5   0  0.2008643E-02  0.8974820E+03  0.7818609E-02  0.9428735E-01
        2   -1    0    0  501    0  0.00000000000E+00  0.00000000000E+00  0.77761212653E+03  0.77761212653E+03  0.25500000920E-02 0.  1.
       -2   -1    0    0    0  501  0.00000000000E+00  0.00000000000E+00 -0.25895748249E+03  0.25895748250E+03  0.25500000920E-02 0. -1.
    10030    2    1    2    0    0  0.00000000000E+00  0.00000000000E+00  0.51865464404E+03  0.10365696090E+04  0.89748198566E+03 0.  0.
        3    1    3    3  502    0  0.20520461066E+03 -0.21546237048E+03 -0.12864041926E+03  0.32416251017E+03  0.10100000352E+00 0. -1.
       -3    1    3    3    0  502 -0.20520461066E+03  0.21546237048E+03  0.64729506330E+03  0.71240709886E+03  0.10100000352E+00 0.  1.
</event>
<event>
 5   0  0.1226424E-02  0.8781271E+03  0.7818609E-02  0.9453344E-01
        1   -1    0    0  501    0  0.00000000000E+00  0.00000000000E+00  0.69301697982E+03  0.69301697984E+03  0.50400001928E-02 0.  1.
       -1   -1    0    0    0  501  0.00000000000E+00  0.00000000000E+00 -0.27817037789E+03  0.27817037793E+03  0.50400001928E-02 0. -1.
    10030    2    1    2    0    0  0.00000000000E+00  0.00000000000E+00  0.41484660194E+03  0.97118735778E+03  0.87812708691E+03 0.  0.
        1    1    3    3  502    0 -0.12164273318E+03  0.18491646801E+03 -0.21195268244E+03  0.30645553396E+03  0.50400001928E-02 0. -1.
       -1    1    3    3    0  502  0.12164273318E+03 -0.18491646801E+03  0.62679928437E+03  0.66473182382E+03  0.50400001928E-02 0.  1.
</event>
<event>
 5   0  0.2008643E-02  0.8662012E+03  0.7818609E-02  0.9468847E-01
       -2   -1    0    0    0  501  0.00000000000E+00  0.00000000000E+00  0.13125778473E+03  0.13125778475E+03  0.25500000920E-02 0. -1.
        2   -1    0    0  501    0  0.00000000000E+00  0.00000000000E+00 -0.14290666178E+04  0.14290666178E+04  0.25500000920E-02 0.  1.
    10030    2    1    2    0    0  0.00000000000E+00  0.00000000000E+00 -0.12978088331E+04  0.15603244026E+04  0.86620117410E+03 0.  0.
        3    1    3    3  502    0 -0.23618179045E+03 -0.26154663216E+03 -0.11024264462E+04  0.11573817686E+04  0.10100000352E+00 0.  1.
       -3    1    3    3    0  502  0.23618179045E+03  0.26154663216E+03 -0.19538238694E+03  0.40294263396E+03  0.10100000352E+00 0. -1.
</event>
<event>
 5   0  0.2041861E-02  0.9003369E+03  0.7818609E-02  0.9425160E-01
        2   -1    0    0  501    0  0.00000000000E+00  0.00000000000E+00  0.51965197842E+03  0.51965197842E+03  0.25500000920E-02 0.  1.
       -2   -1    0    0    0  501  0.00000000000E+00  0.00000000000E+00 -0.38997568397E+03  0.38997568398E+03  0.25500000920E-02 0. -1.
    10030    2    1    2    0    0  0.00000000000E+00  0.00000000000E+00  0.12967629444E+03  0.90962766241E+03  0.90033690521E+03 0.  0.
        5    1    3    3  502    0  0.36396291625E+03 -0.13619795749E+03 -0.16468595819E+03  0.42209293154E+03  0.46999998093E+01 0. -1.
       -5    1    3    3    0  502 -0.36396291625E+03  0.13619795749E+03  0.29436225264E+03  0.48753473087E+03  0.46999998093E+01 0.  1.
</event>
<event>
 5   0  0.1175993E-02  0.9072494E+03  0.7818609E-02  0.9416564E-01
       -1   -1    0    0    0  501  0.00000000000E+00  0.00000000000E+00  0.20928432565E+03  0.20928432571E+03  0.50400001928E-02 0. -1.
        1   -1    0    0  501    0  0.00000000000E+00  0.00000000000E+00 -0.98323356725E+03  0.98323356726E+03  0.50400001928E-02 0.  1.
    10030    2    1    2    0    0  0.00000000000E+00  0.00000000000E+00 -0.77394924160E+03  0.11925178930E+04  0.90724941250E+03 0.  0.
        4    1    3    3  502    0  0.93856760201E+02 -0.33520943674E+03 -0.76928985317E+03  0.84438317664E+03  0.12699999809E+01 0.  1.
       -4    1    3    3    0  502 -0.93856760201E+02  0.33520943674E+03 -0.46593884334E+01  0.34813471633E+03  0.12699999809E+01 0. -1.
</event>
<event>
 5   0  0.1162839E-02  0.9245753E+03  0.7818609E-02  0.9395372E-01
        1   -1    0    0  501    0  0.00000000000E+00  0.00000000000E+00  0.13171339888E+04  0.13171339888E+04  0.50400001928E-02 0.  1.
       -1   -1    0    0    0  501  0.00000000000E+00  0.00000000000E+00 -0.16225369852E+03  0.16225369860E+03  0.50400001928E-02 0. -1.
    10030    2    1    2    0    0  0.00000000000E+00  0.00000000000E+00  0.11548802902E+04  0.14793876874E+04  0.92457527804E+03 0.  0.
        2    1    3    3  502    0  0.12410183885E+03  0.20809942927E+03  0.12073959561E+04  0.12314672686E+04  0.25500000920E-02 0.  1.
       -2    1    3    3    0  502 -0.12410183885E+03 -0.20809942927E+03 -0.52515665859E+02  0.24792041875E+03  0.25500000920E-02 0. -1.
</event>
<event>
 5   0  0.1924218E-02  0.9178307E+03  0.7818609E-02  0.9403563E-01
        2   -1    0    0  501    0  0.00000000000E+00  0.00000000000E+00  0.11362704355E+04  0.11362704355E+04  0.25500000920E-02 0. -1.
       -2   -1    0    0    0  501  0.00000000000E+00  0.00000000000E+00 -0.18534609932E+03  0.18534609934E+03  0.25500000920E-02 0.  1.
    10030    2    1    2    0    0  0.00000000000E+00  0.00000000000E+00  0.95092433622E+03  0.13216165349E+04  0.91783068812E+03 0.  0.
        4    1    3    3  502    0  0.24483311893E+03  0.25131854782E+03  0.49529950274E+02  0.35434319166E+03  0.12699999809E+01 0.  1.
       -4    1    3    3    0  502 -0.24483311893E+03 -0.25131854782E+03  0.90139438595E+03  0.96727334323E+03  0.12699999809E+01 0. -1.
</event>
<event>
 5   0  0.1924218E-02  0.8857120E+03  0.7818609E-02  0.9443621E-01
        2   -1    0    0  501    0  0.00000000000E+00  0.00000000000E+00  0.11911865429E+04  0.11911865429E+04  0.25500000920E-02 0. -1.
       -2   -1    0    0    0  501  0.00000000000E+00  0.00000000000E+00 -0.16464375080E+03  0.16464375082E+03  0.25500000920E-02 0.  1.
    10030    2    1    2    0    0  0.00000000000E+00  0.00000000000E+00  0.10265427921E+04  0.13558302937E+04  0.88571196299E+03 0.  0.
        4    1    3    3  502    0 -0.15176660715E+03 -0.14493743290E+03 -0.83693307017E+02  0.22593393955E+03  0.12699999809E+01 0.  1.
       -4    1    3    3    0  502  0.15176660715E+03  0.14493743290E+03  0.11102360991E+04  0.11298963542E+04  0.12699999809E+01 0. -1.
</event>
<event>
 5   0  0.1968763E-02  0.8199694E+03  0.7818609E-02  0.9531554E-01
        2   -1    0    0  501    0  0.00000000000E+00  0.00000000000E+00  0.81565447242E+03  0.81565447243E+03  0.25500000920E-02 0.  1.
       -2   -1    0    0    0  501  0.00000000000E+00  0.00000000000E+00 -0.20607679367E+03  0.20607679368E+03  0.25500000920E-02 0. -1.
    10030    2    1    2    0    0  0.00000000000E+00  0.00000000000E+00  0.60957767876E+03  0.10217312661E+04  0.81996941023E+03 0.  0.
        2    1    3    3  502    0  0.38728426061E+03  0.12219599932E+03  0.37490669367E+03  0.55269882372E+03  0.25500000920E-02 0.  1.
       -2    1    3    3    0  502 -0.38728426061E+03 -0.12219599932E+03  0.23467098508E+03  0.46903244239E+03  0.25500000920E-02 0. -1.
</event>
<event>
 5   0  0.2008770E-02  0.8804750E+03  0.7818609E-02  0.9450323E-01
        2   -1    0    0  501    0  0.00000000000E+00  0.00000000000E+00  0.82094035850E+03  0.82094035851E+03  0.25500000920E-02 0.  1.
       -2   -1    0    0    0  501  0.00000000000E+00  0.00000000000E+00 -0.23608177012E+03  0.23608177013E+03  0.25500000920E-02 0. -1.
    10030    2    1    2    0    0  0.00000000000E+00  0.00000000000E+00  0.58485858838E+03  0.10570221286E+04  0.88047499228E+03 0.  0.
        1    1    3    3  502    0  0.28003618310E+03  0.33830606575E+03  0.32919314646E+03  0.54885279053E+03  0.50400001928E-02 0.  1.
       -1    1    3    3    0  502 -0.28003618310E+03 -0.33830606575E+03  0.25566544193E+03  0.50816933811E+03  0.50400001928E-02 0. -1.
</event>
<event>
 5   0  0.1924218E-02  0.7896018E+03  0.7818609E-02  0.9575191E-01
        2   -1    0    0  501    0  0.00000000000E+00  0.00000000000E+00  0.42828197866E+03  0.42828197867E+03  0.25500000920E-02 0. -1.
       -2   -1    0    0    0  501  0.00000000000E+00  0.00000000000E+00 -0.36393725244E+03  0.36393725245E+03  0.25500000920E-02 0.  1.
    10030    2    1    2    0    0  0.00000000000E+00  0.00000000000E+00  0.64344726218E+02  0.79221923112E+03  0.78960184041E+03 0.  0.
        4    1    3    3  502    0  0.27433456493E+03  0.10326311997E+03 -0.23317250119E+03  0.37455807784E+03  0.12699999809E+01 0.  1.
       -4    1    3    3    0  502 -0.27433456493E+03 -0.10326311997E+03  0.29751722740E+03  0.41766115329E+03  0.12699999809E+01 0. -1.
</event>
<event>
 5   0  0.2008643E-02  0.8931802E+03  0.7818609E-02  0.9434147E-01
       -2   -1    0    0    0  501  0.00000000000E+00  0.00000000000E+00  0.23032902795E+03  0.23032902797E+03  0.25500000920E-02 0. -1.
        2   -1    0    0  501    0  0.00000000000E+00  0.00000000000E+00 -0.86590360176E+03  0.86590360177E+03  0.25500000920E-02 0.  1.
    10030    2    1    2    0    0  0.00000000000E+00  0.00000000000E+00 -0.63557457381E+03  0.10962326297E+04  0.89318023916E+03 0.  0.
        3    1    3    3  502    0 -0.12621921202E+03  0.68539428797E+02 -0.83678340925E+03  0.84902027478E+03  0.10100000352E+00 0.  1.
       -3    1    3    3    0  502  0.12621921202E+03 -0.68539428797E+02  0.20120883544E+03  0.24721235496E+03  0.10100000352E+00 0. -1.
</event>
<event>
 5   0  0.7893875E-03  0.8959781E+03  0.7818609E-02  0.9430623E-01
       -3   -1    0    0    0  501  0.00000000000E+00  0.00000000000E+00  0.21858221982E+03  0.21858224316E+03  0.10100000352E+00 0. -1.
        3   -1    0    0  501    0  0.00000000000E+00  0.00000000000E+00 -0.91816333454E+03  0.91816334009E+03  0.10100000352E+00 0.  1.
    10030    2    1    2    0    0  0.00000000000E+00  0.00000000000E+00 -0.69958111471E+03  0.11367455832E+04  0.89597811635E+03 0.  0.
        5    1    3    3  502    0  0.27711505762E+02  0.35711295511E+03 -0.69110817778E+03  0.77842802728E+03  0.46999998093E+01 0.  1.
       -5    1    3    3    0  502 -0.27711505762E+02 -0.35711295511E+03 -0.84729369301E+01  0.35831755597E+03  0.46999998093E+01 0. -1.
</event>
<event>
 5   0  0.1226424E-02  0.8994979E+03  0.7818609E-02  0.9426209E-01
       -1   -1    0    0    0  501  0.00000000000E+00  0.00000000000E+00  0.32151234681E+03  0.32151234685E+03  0.50400001928E-02 0. -1.
        1   -1    0    0  501    0  0.00000000000E+00  0.00000000000E+00 -0.62913323076E+03  0.62913323078E+03  0.50400001928E-02 0.  1.
    10030    2    1    2    0    0  0.00000000000E+00  0.00000000000E+00 -0.30762088395E+03  0.95064557763E+03  0.89949786327E+03 0.  0.
        1    1    3    3  502    0  0.22468620162E+03  0.31322943233E+02 -0.56423397012E+03  0.60813237789E+03  0.50400001928E-02 0.  1.
       -1    1    3    3    0  502 -0.22468620162E+03 -0.31322943233E+02  0.25661308617E+03  0.34251319974E+03  0.50400001928E-02 0. -1.
</event>
<event>
 5   0  0.1226424E-02  0.8986083E+03  0.7818609E-02  0.9427323E-01
        1   -1    0    0  501    0  0.00000000000E+00  0.00000000000E+00  0.59104983178E+03  0.59104983180E+03  0.50400001928E-02 0. -1.
       -1   -1    0    0    0  501  0.00000000000E+00  0.00000000000E+00 -0.34155192085E+03  0.34155192089E+03  0.50400001928E-02 0.  1.
    10030    2    1    2    0    0  0.00000000000E+00  0.00000000000E+00  0.24949791093E+03  0.93260175269E+03  0.89860826925E+03 0.  0.
        1    1    3    3  502    0  0.97819428279E+02 -0.23840615437E+03  0.50673217856E+03  0.56849242370E+03  0.50400001928E-02 0. -1.
       -1    1    3    3    0  502 -0.97819428279E+02  0.23840615437E+03 -0.25723426763E+03  0.36410932899E+03  0.50400001928E-02 0.  1.
</event>
<event>
 5   0  0.1175993E-02  0.8926156E+03  0.7818609E-02  0.9434860E-01
       -1   -1    0    0    0  501  0.00000000000E+00  0.00000000000E+00  0.34509703128E+03  0.34509703132E+03  0.50400001928E-02 0.  1.
        1   -1    0    0  501    0  0.00000000000E+00  0.00000000000E+00 -0.57720182887E+03  0.57720182889E+03  0.50400001928E-02 0. -1.
    10030    2    1    2    0    0  0.00000000000E+00  0.00000000000E+00 -0.23210479759E+03  0.92229886021E+03  0.89261556702E+03 0.  0.
        4    1    3    3  502    0  0.25697239457E+03  0.29371938975E+03  0.10767312290E+03  0.40484689177E+03  0.12699999809E+01 0. -1.
       -4    1    3    3    0  502 -0.25697239457E+03 -0.29371938975E+03 -0.33977792049E+03  0.51745196843E+03  0.12699999809E+01 0.  1.
</event>
<event>
 5   0  0.1226424E-02  0.8929263E+03  0.7818609E-02  0.9434467E-01
       -1   -1    0    0    0  501  0.00000000000E+00  0.00000000000E+00  0.27088987805E+03  0.27088987809E+03  0.50400001928E-02 0.  1.
        1   -1    0    0  501    0  0.00000000000E+00  0.00000000000E+00 -0.73583164858E+03  0.73583164859E+03  0.50400001928E-02 0. -1.
    10030    2    1    2    0    0  0.00000000000E+00  0.00000000000E+00 -0.46494177053E+03  0.10067215267E+04  0.89292630285E+03 0.  0.
        1    1    3    3  502    0  0.78805624780E+02 -0.24191928089E+01 -0.72792071295E+03  0.73217808172E+03  0.50400001928E-02 0. -1.
       -1    1    3    3    0  502 -0.78805624780E+02  0.24191928089E+01  0.26297894242E+03  0.27454344496E+03  0.50400001928E-02 0.  1.
</event>
<event>
 5   0  0.2008770E-02  0.9076350E+03  0.7818609E-02  0.9416087E-01
        2   -1    0    0  501    0  0.00000000000E+00  0.00000000000E+00  0.10750674324E+04  0.10750674324E+04  0.25500000920E-02 0. -1.
       -2   -1    0    0    0  501  0.00000000000E+00  0.00000000000E+00 -0.19156966181E+03  0.19156966183E+03  0.25500000920E-02 0.  1.
    10030    2    1    2    0    0  0.00000000000E+00  0.00000000000E+00  0.88349777057E+03  0.12666370942E+04  0.90763495847E+03 0.  0.
        1    1    3    3  502    0  0.43813540573E+03  0.11815247394E+03  0.43440889935E+03  0.62819880031E+03  0.50400001928E-02 0. -1.
       -1    1    3    3    0  502 -0.43813540573E+03 -0.11815247394E+03  0.44908887122E+03  0.63843829391E+03  0.50400001928E-02 0.  1.
</event>
<event>
 5   0  0.1924218E-02  0.8945113E+03  0.7818609E-02  0.9432469E-01
       -2   -1    0    0    0  501  0.00000000000E+00  0.00000000000E+00  0.30684068384E+03  0.30684068385E+03  0.25500000920E-02 0. -1.
        2   -1    0    0  501    0  0.00000000000E+00  0.00000000000E+00 -0.65192670007E+03  0.65192670007E+03  0.25500000920E-02 0.  1.
    10030    2    1    2    0    0  0.00000000000E+00  0.00000000000E+00 -0.34508601623E+03  0.95876738392E+03  0.89451134027E+03 0.  0.
        4    1    3    3  502    0  0.21860827782E+03  0.37511804241E+03 -0.28764864752E+03  0.52081328918E+03  0.12699999809E+01 0.  1.
       -4    1    3    3    0  502 -0.21860827782E+03 -0.37511804241E+03 -0.57437368712E+02  0.43795409474E+03  0.12699999809E+01 0. -1.
</event>
<event>
 5   0  0.1968763E-02  0.9063120E+03  0.7818609E-02  0.9417725E-01
       -2   -1    0    0    0  501  0.00000000000E+00  0.00000000000E+00  0.28698399065E+03  0.28698399066E+03  0.25500000920E-02 0.  1.
        2   -1    0    0  501    0  0.00000000000E+00  0.00000000000E+00 -0.71554634532E+03  0.71554634532E+03  0.25500000920E-02 0. -1.
    10030    2    1    2    0    0  0.00000000000E+00  0.00000000000E+00 -0.42856235467E+03  0.10025303360E+04  0.90631196766E+03 0.  0.
        2    1    3    3  502    0 -0.19151728360E+03 -0.38730857561E+03 -0.63162948713E+02  0.43666504412E+03  0.25500000920E-02 0.  1.
       -2    1    3    3    0  502  0.19151728360E+03  0.38730857561E+03 -0.36539940596E+03  0.56586529186E+03  0.25500000920E-02 0. -1.
</event>
<event>
 5   0  0.1177712E-02  0.9003039E+03  0.7818609E-02  0.9425202E-01
        1   -1    0    0  501    0  0.00000000000E+00  0.00000000000E+00  0.98865241084E+03  0.98865241085E+03  0.50400001928E-02 0.  1.
       -1   -1    0    0    0  501  0.00000000000E+00  0.00000000000E+00 -0.20496262727E+03  0.20496262733E+03  0.50400001928E-02 0. -1.
    10030    2    1    2    0    0  0.00000000000E+00  0.00000000000E+00  0.78368978357E+03  0.11936150382E+04  0.90030393895E+03 0.  0.
        5    1    3    3  502    0  0.98215357400E+02 -0.21643069955E+03  0.89864789418E+03  0.92955829933E+03  0.46999998093E+01 0.  1.
       -5    1    3    3    0  502 -0.98215357400E+02  0.21643069955E+03 -0.11495811061E+03  0.26405673885E+03  0.46999998093E+01 0. -1.
</event>
<event>
 5   0  0.1206541E-02  0.8847568E+03  0.7818609E-02  0.9444839E-01
       -1   -1    0    0    0  501  0.00000000000E+00  0.00000000000E+00  0.25652812777E+03  0.25652812782E+03  0.50400001928E-02 0.  1.
        1   -1    0    0  501    0  0.00000000000E+00  0.00000000000E+00 -0.76287404979E+03  0.76287404981E+03  0.50400001928E-02 0. -1.
    10030    2    1    2    0    0  0.00000000000E+00  0.00000000000E+00 -0.50634592203E+03  0.10194021776E+04  0.88475680670E+03 0.  0.
        3    1    3    3  502    0  0.39111392073E+03 -0.92647986475E+02 -0.46607730547E+03  0.61545252722E+03  0.10100000352E+00 0. -1.
       -3    1    3    3    0  502 -0.39111392073E+03  0.92647986475E+02 -0.40268616555E+02  0.40394965041E+03  0.10100000352E+00 0.  1.
</event>
<event>
 5   0  0.2008770E-02  0.1013670E+04  0.7818609E-02  0.9293677E-01
        2   -1    0    0  501    0  0.00000000000E+00  0.00000000000E+00  0.10231785415E+04  0.10231785415E+04  0.25500000920E-02 0.  1.
       -2   -1    0    0    0  501  0.00000000000E+00  0.00000000000E+00 -0.25106252770E+03  0.25106252772E+03  0.25500000920E-02 0. -1.
    10030    2    1    2    0    0  0.00000000000E+00  0.00000000000E+00  0.77211601379E+03  0.12742410692E+04  0.10136701454E+04 0.  0.
        1    1    3    3  502    0  0.29787861952E+03  0.40892416571E+03  0.42441669516E+03  0.66036366983E+03  0.50400001928E-02 0.  1.
       -1    1    3    3    0  502 -0.29787861952E+03 -0.40892416571E+03  0.34769931864E+03  0.61387739939E+03  0.50400001928E-02 0. -1.
</event>
<event>
 5   0  0.1175993E-02  0.8869662E+03  0.7818609E-02  0.9442023E-01
       -1   -1    0    0    0  501  0.00000000000E+00  0.00000000000E+00  0.95229184827E+03  0.95229184828E+03  0.50400001928E-02 0.  1.
        1   -1    0    0  501    0  0.00000000000E+00  0.00000000000E+00 -0.20653044747E+03  0.20653044753E+03  0.50400001928E-02 0. -1.
    10030    2    1    2    0    0  0.00000000000E+00  0.00000000000E+00  0.74576140080E+03  0.11588222958E+04  0.88696620362E+03 0.  0.
        4    1    3    3  502    0 -0.16296780379E+03 -0.40780860385E+03  0.45351718286E+03  0.63130484751E+03  0.12699999809E+01 0.  1.
       -4    1    3    3    0  502  0.16296780379E+03  0.40780860385E+03  0.29224421794E+03  0.52751744830E+03  0.12699999809E+01 0. -1.
</event>
<event>
 5   0  0.1226424E-02  0.9275762E+03  0.7818609E-02  0.9391752E-01
        1   -1    0    0  501    0  0.00000000000E+00  0.00000000000E+00  0.73770182527E+03  0.73770182529E+03  0.50400001928E-02 0. -1.
       -1   -1    0    0    0  501  0.00000000000E+00  0.00000000000E+00 -0.29158041105E+03  0.29158041110E+03  0.50400001928E-02 0.  1.
    10030    2    1    2    0    0  0.00000000000E+00  0.00000000000E+00  0.44612141421E+03  0.10292822364E+04  0.92757619952E+03 0.  0.
        1    1    3    3  502    0  0.39510009212E+03 -0.13660077002E+03  0.44591903282E+03  0.61123451884E+03  0.50400001928E-02 0.  1.
       -1    1    3    3    0  502 -0.39510009212E+03  0.13660077002E+03  0.20238139899E+00  0.41804771755E+03  0.50400001928E-02 0. -1.
</event>
<event>
 5   0  0.1226424E-02  0.9287440E+03  0.7818609E-02  0.9390347E-01
       -1   -1    0    0    0  501  0.00000000000E+00  0.00000000000E+00  0.14377017789E+03  0.14377017797E+03  0.50400001928E-02 0. -1.
        1   -1    0    0  501    0  0.00000000000E+00  0.00000000000E+00 -0.14999030930E+04  0.14999030931E+04  0.50400001928E-02 0.  1.
    10030    2    1    2    0    0  0.00000000000E+00  0.00000000000E+00 -0.13561329152E+04  0.16436732710E+04  0.92874395735E+03 0.  0.
        1    1    3    3  502    0  0.34733715459E+02  0.73528880838E+02  0.13107070344E+03  0.15424803608E+03  0.50400001928E-02 0. -1.
       -1    1    3    3    0  502 -0.34733715459E+02 -0.73528880838E+02 -0.14872036186E+04  0.14894252350E+04  0.50400001928E-02 0.  1.
</event>
<event>
 5   0  0.7893875E-03  0.8994238E+03  0.7818609E-02  0.9426302E-01
       -3   -1    0    0    0  501  0.00000000000E+00  0.00000000000E+00  0.60331939082E+03  0.60331939928E+03  0.10100000352E+00 0. -1.
        3   -1    0    0  501    0  0.00000000000E+00  0.00000000000E+00 -0.33521349021E+03  0.33521350542E+03  0.10100000352E+00 0.  1.
    10030    2    1    2    0    0  0.00000000000E+00  0.00000000000E+00  0.26810590061E+03  0.93853290470E+03  0.89942383739E+03 0.  0.
        1    1    3    3  502    0 -0.22156395585E+03  0.14577667446E+03 -0.24491850053E+03  0.36100761388E+03  0.50400001928E-02 0.  1.
       -1    1    3    3    0  502  0.22156395585E+03 -0.14577667446E+03  0.51302440114E+03  0.57752529083E+03  0.50400001928E-02 0. -1.
</event>
<event>
 5   0  0.1177712E-02  0.8308388E+03  0.7818609E-02  0.9516421E-01
       -1   -1    0    0    0  501  0.00000000000E+00  0.00000000000E+00  0.15456548888E+03  0.15456548897E+03  0.50400001928E-02 0. -1.
        1   -1    0    0  501    0  0.00000000000E+00  0.00000000000E+00 -0.11165059817E+04  0.11165059817E+04  0.50400001928E-02 0.  1.
    10030    2    1    2    0    0  0.00000000000E+00  0.00000000000E+00 -0.96194049281E+03  0.12710714707E+04  0.83083883627E+03 0.  0.
        5    1    3    3  502    0  0.32628586655E+03 -0.23229826088E+03 -0.64943789611E+03  0.76303120488E+03  0.46999998093E+01 0. -1.
       -5    1    3    3    0  502 -0.32628586655E+03  0.23229826088E+03 -0.31250259670E+03  0.50804026579E+03  0.46999998093E+01 0.  1.
</event>
<event>
 5   0  0.1206541E-02  0.8963846E+03  0.7818609E-02  0.9430112E-01
       -1   -1    0    0    0  501  0.00000000000E+00  0.00000000000E+00  0.45614118655E+03  0.45614118657E+03  0.50400001928E-02 0. -1.
        1   -1    0    0  501    0  0.00000000000E+00  0.00000000000E+00 -0.44038195421E+03  0.44038195423E+03  0.50400001928E-02 0.  1.
    10030    2    1    2    0    0  0.00000000000E+00  0.00000000000E+00  0.15759232340E+02  0.89652314081E+03  0.89638462091E+03 0.  0.
        3    1    3    3  502    0  0.24220028471E+03 -0.37677307562E+03  0.23926051449E+02  0.44854363730E+03  0.10100000352E+00 0. -1.
       -3    1    3    3    0  502 -0.24220028471E+03  0.37677307562E+03 -0.81668191086E+01  0.44797950351E+03  0.10100000352E+00 0.  1.
</event>
<event>
 5   0  0.1924218E-02  0.9206805E+03  0.7818609E-02  0.9400093E-01
       -2   -1    0    0    0  501  0.00000000000E+00  0.00000000000E+00  0.47137205311E+03  0.47137205311E+03  0.25500000920E-02 0.  1.
        2   -1    0    0  501    0  0.00000000000E+00  0.00000000000E+00 -0.44956664487E+03  0.44956664488E+03  0.25500000920E-02 0. -1.
    10030    2    1    2    0    0  0.00000000000E+00  0.00000000000E+00  0.21805408235E+02  0.92093869799E+03  0.92068051442E+03 0.  0.
        4    1    3    3  502    0  0.25424534096E+03 -0.34270106046E+03 -0.16185018328E+03  0.45637901460E+03  0.12699999809E+01 0.  1.
       -4    1    3    3    0  502 -0.25424534096E+03  0.34270106046E+03  0.18365559152E+03  0.46455968339E+03  0.12699999809E+01 0. -1.
</event>
<event>
 5   0  0.2008770E-02  0.8935131E+03  0.7818609E-02  0.9433727E-01
       -2   -1    0    0    0  501  0.00000000000E+00  0.00000000000E+00  0.17603717866E+03  0.17603717868E+03  0.25500000920E-02 0.  1.
        2   -1    0    0  501    0  0.00000000000E+00  0.00000000000E+00 -0.11338025150E+04  0.11338025150E+04  0.25500000920E-02 0. -1.
    10030    2    1    2    0    0  0.00000000000E+00  0.00000000000E+00 -0.95776533631E+03  0.13098396937E+04  0.89351305734E+03 0.  0.
        1    1    3    3  502    0  0.26855883138E+03 -0.14006273708E+02 -0.10018596936E+04  0.10373248611E+04  0.50400001928E-02 0. -1.
       -1    1    3    3    0  502 -0.26855883138E+03  0.14006273708E+02  0.44094357319E+02  0.27251483260E+03  0.50400001928E-02 0.  1.
</event>
<event>
 5   0  0.1175993E-02  0.8860981E+03  0.7818609E-02  0.9443128E-01
        1   -1    0    0  501    0  0.00000000000E+00  0.00000000000E+00  0.21996884776E+03  0.21996884782E+03  0.50400001928E-02 0.  1.
       -1   -1    0    0    0  501  0.00000000000E+00  0.00000000000E+00 -0.89236489773E+03  0.89236489775E+03  0.50400001928E-02 0. -1.
    10030    2    1    2    0    0  0.00000000000E+00  0.00000000000E+00 -0.67239604998E+03  0.11123337456E+04  0.88609813988E+03 0.  0.
        4    1    3    3  502    0  0.36516567268E+03  0.19890905106E+03 -0.14425322828E+03  0.44013791688E+03  0.12699999809E+01 0.  1.
       -4    1    3    3    0  502 -0.36516567268E+03 -0.19890905106E+03 -0.52814282169E+03  0.67219582869E+03  0.12699999809E+01 0. -1.
</event>
<event>
 5   0  0.2041861E-02  0.9064922E+03  0.7818609E-02  0.9417502E-01
        2   -1    0    0  501    0  0.00000000000E+00  0.00000000000E+00  0.14458631554E+04  0.14458631554E+04  0.25500000920E-02 0.  1.
       -2   -1    0    0    0  501  0.00000000000E+00  0.00000000000E+00 -0.14208260810E+03  0.14208260812E+03  0.25500000920E-02 0. -1.
    10030    2    1    2    0    0  0.00000000000E+00  0.00000000000E+00  0.13037805473E+04  0.15879457636E+04  0.90649215792E+03 0.  0.
        5    1    3    3  502    0 -0.14574511573E+03 -0.13705312757E+03 -0.60502169895E+02  0.20906410762E+03  0.46999998093E+01 0. -1.
       -5    1    3    3    0  502  0.14574511573E+03  0.13705312757E+03  0.13642827172E+04  0.13788816559E+04  0.46999998093E+01 0.  1.
</event>
<event>
 5   0  0.1175993E-02  0.9262277E+03  0.7818609E-02  0.9393377E-01
        1   -1    0    0  501    0  0.00000000000E+00  0.00000000000E+00  0.34813545589E+03  0.34813545592E+03  0.50400001928E-02 0.  1.
       -1   -1    0    0    0  501  0.00000000000E+00  0.00000000000E+00 -0.61606605679E+03  0.61606605681E+03  0.50400001928E-02 0. -1.
    10030    2    1    2    0    0  0.00000000000E+00  0.00000000000E+00 -0.26793060090E+03  0.96420151273E+03  0.92622769892E+03 0.  0.
        4    1    3    3  502    0  0.23687197321E+03  0.37424907021E+03 -0.27479712942E+03  0.52123485444E+03  0.12699999809E+01 0. -1.
       -4    1    3    3    0  502 -0.23687197321E+03 -0.37424907021E+03  0.68665285240E+01  0.44296665829E+03  0.12699999809E+01 0.  1.
</event>
<event>
 5   0  0.1226424E-02  0.9020563E+03  0.7818609E-02  0.9423015E-01
       -1   -1    0    0    0  501  0.00000000000E+00  0.00000000000E+00  0.11065694739E+04  0.11065694739E+04  0.50400001928E-02 0. -1.
        1   -1    0    0  501    0  0.00000000000E+00  0.00000000000E+00 -0.18383517233E+03  0.18383517240E+03  0.50400001928E-02 0.  1.
    10030    2    1    2    0    0  0.00000000000E+00  0.00000000000E+00  0.92273430154E+03  0.12904046463E+04  0.90205629532E+03 0.  0.
        1    1    3    3  502    0  0.47205954720E+02 -0.28392855422E+03  0.95811332763E+03  0.10004124023E+04  0.50400001928E-02 0. -1.
       -1    1    3    3    0  502 -0.47205954720E+02  0.28392855422E+03 -0.35379026090E+02  0.28999224399E+03  0.50400001928E-02 0.  1.
</event>
<event>
 5   0  0.1226424E-02  0.9228702E+03  0.7818609E-02  0.9397436E-01
       -1   -1    0    0    0  501  0.00000000000E+00  0.00000000000E+00  0.84065910120E+03  0.84065910122E+03  0.50400001928E-02 0.  1.
        1   -1    0    0  501    0  0.00000000000E+00  0.00000000000E+00 -0.25328026051E+03  0.25328026056E+03  0.50400001928E-02 0. -1.
    10030    2    1    2    0    0  0.00000000000E+00  0.00000000000E+00  0.58737884069E+03  0.10939393618E+04  0.92287021014E+03 0.  0.
        1    1    3    3  502    0  0.25791245394E+03 -0.37149870267E+03  0.40227982979E+03  0.60527612002E+03  0.50400001928E-02 0.  1.
       -1    1    3    3    0  502 -0.25791245394E+03  0.37149870267E+03  0.18509901090E+03  0.48866324176E+03  0.50400001928E-02 0. -1.
</event>
<event>
 5   0  0.1206541E-02  0.9632401E+03  0.7818609E-02  0.9349807E-01
        1   -1    0    0  501    0  0.00000000000E+00  0.00000000000E+00  0.53835816919E+03  0.53835816921E+03  0.50400001928E-02 0.  1.
       -1   -1    0    0    0  501  0.00000000000E+00  0.00000000000E+00 -0.43086160567E+03  0.43086160570E+03  0.50400001928E-02 0. -1.
    10030    2    1    2    0    0  0.00000000000E+00  0.00000000000E+00  0.10749656352E+03  0.96921977491E+03  0.96324008477E+03 0.  0.
        3    1    3    3  502    0  0.44443407057E+03 -0.13799810758E+03  0.17858593756E+03  0.49845568316E+03  0.10100000352E+00 0. -1.
       -3    1    3    3    0  502 -0.44443407057E+03  0.13799810758E+03 -0.71089374040E+02  0.47076409175E+03  0.10100000352E+00 0.  1.
</event>
<event>
 5   0  0.2041861E-02  0.8785906E+03  0.7818609E-02  0.9452747E-01
       -2   -1    0    0    0  501  0.00000000000E+00  0.00000000000E+00  0.36829408320E+03  0.36829408321E+03  0.25500000920E-02 0. -1.
        2   -1    0    0  501    0  0.00000000000E+00  0.00000000000E+00 -0.52398444826E+03  0.52398444827E+03  0.25500000920E-02 0.  1.
    10030    2    1    2    0    0  0.00000000000E+00  0.00000000000E+00 -0.15569036506E+03  0.89227853148E+03  0.87859062593E+03 0.  0.
        5    1    3    3  502    0 -0.40570949232E+03 -0.87168873803E+02  0.68481719329E+02  0.42060722842E+03  0.46999998093E+01 0.  1.
       -5    1    3    3    0  502  0.40570949232E+03  0.87168873803E+02 -0.22417208439E+03  0.47167130306E+03  0.46999998093E+01 0. -1.
</event>
<event>
 5   0  0.2008770E-02  0.8669398E+03  0.7818609E-02  0.9467879E-01
        2   -1    0    0  501    0  0.00000000000E+00  0.00000000000E+00  0.92319551671E+03  0.92319551672E+03  0.25500000920E-02 0.  1.
       -2   -1    0    0    0  501  0.00000000000E+00  0.00000000000E+00 -0.20352802588E+03  0.20352802590E+03  0.25500000920E-02 0. -1.
    10030    2    1    2    0    0  0.00000000000E+00  0.00000000000E+00  0.71966749083E+03  0.11267235426E+04  0.86693981575E+03 0.  0.
        1    1    3    3  502    0 -0.29002164666E+03 -0.27552408613E+03  0.57680267890E+03  0.70194544515E+03  0.50400001928E-02 0.  1.
       -1    1    3    3    0  502  0.29002164666E+03  0.27552408613E+03  0.14286481193E+03  0.42477809746E+03  0.50400001928E-02 0. -1.
</event>
<event>
 5   0  0.1175993E-02  0.9053798E+03  0.7818609E-02  0.9418881E-01
       -1   -1    0    0    0  501  0.00000000000E+00  0.00000000000E+00  0.23746966549E+03  0.23746966555E+03  0.50400001928E-02 0.  1.
        1   -1    0    0  501    0  0.00000000000E+00  0.00000000000E+00 -0.86296562184E+03  0.86296562185E+03  0.50400001928E-02 0. -1.
    10030    2    1    2    0    0  0.00000000000E+00  0.00000000000E+00 -0.62549595634E+03  0.11004352874E+04  0.90537982656E+03 0.  0.
        4    1    3    3  502    0  0.22884514535E+03 -0.35742709357E+03 -0.50416467659E+03  0.65902038041E+03  0.12699999809E+01 0. -1.
       -4    1    3    3    0  502 -0.22884514535E+03  0.35742709357E+03 -0.12133127975E+03  0.44141490699E+03  0.12699999809E+01 0.  1.
</event>
<event>
 5   0  0.1206541E-02  0.9108908E+03  0.7818609E-02  0.9412069E-01
        1   -1    0    0  501    0  0.00000000000E+00  0.00000000000E+00  0.92357209646E+03  0.92357209648E+03  0.50400001928E-02 0.  1.
       -1   -1    0    0    0  501  0.00000000000E+00  0.00000000000E+00 -0.22459592065E+03  0.22459592070E+03  0.50400001928E-02 0. -1.
    10030    2    1    2    0    0  0.00000000000E+00  0.00000000000E+00  0.69897617582E+03  0.11481680172E+04  0.91089082843E+03 0.  0.
        3    1    3    3  502    0 -0.31833899999E+03 -0.25826478081E+03  0.99319571394E+02  0.42178762830E+03  0.10100000352E+00 0. -1.
       -3    1    3    3    0  502  0.31833899999E+03  0.25826478081E+03  0.59965660442E+03  0.72638038888E+03  0.10100000352E+00 0.  1.
</event>
<event>
 5   0  0.2041861E-02  0.8920643E+03  0.7818609E-02  0.9435556E-01
        2   -1    0    0  501    0  0.00000000000E+00  0.00000000000E+00  0.28675662274E+03  0.28675662275E+03  0.25500000920E-02 0. -1.
       -2   -1    0    0    0  501  0.00000000000E+00  0.00000000000E+00 -0.69377530822E+03  0.69377530822E+03  0.25500000920E-02 0.  1.
    10030    2    1    2    0    0  0.00000000000E+00  0.00000000000E+00 -0.40701868548E+03  0.98053193098E+03  0.89206426749E+03 0.  0.
        5    1    3    3  502    0 -0.14694871566E+03 -0.19101008530E+03 -0.61601932186E+03  0.66149880773E+03  0.46999998093E+01 0.  1.
       -5    1    3    3    0  502  0.14694871566E+03  0.19101008530E+03  0.20900063639E+03  0.31903312325E+03  0.46999998093E+01 0. -1.
</event>
<event>
 5   0  0.1206541E-02  0.8979471E+03  0.7818609E-02  0.9428151E-01
        1   -1    0    0  501    0  0.00000000000E+00  0.00000000000E+00  0.65408310261E+03  0.65408310263E+03  0.50400001928E-02 0.  1.
       -1   -1    0    0    0  501  0.00000000000E+00  0.00000000000E+00 -0.30818295529E+03  0.30818295533E+03  0.50400001928E-02 0. -1.
    10030    2    1    2    0    0  0.00000000000E+00  0.00000000000E+00  0.34590014732E+03  0.96226605796E+03  0.89794713341E+03 0.  0.
        3    1    3    3  502    0 -0.38890492887E+03 -0.20536791683E+03  0.76181166655E+02  0.44634807641E+03  0.10100000352E+00 0. -1.
       -3    1    3    3    0  502  0.38890492887E+03  0.20536791683E+03  0.26971898066E+03  0.51591798155E+03  0.10100000352E+00 0.  1.
</event>
<event>
 5   0  0.1226424E-02  0.8842767E+03  0.7818609E-02  0.9445453E-01
        1   -1    0    0  501    0  0.00000000000E+00  0.00000000000E+00  0.20485172546E+03  0.20485172552E+03  0.50400001928E-02 0.  1.
       -1   -1    0    0    0  501  0.00000000000E+00  0.00000000000E+00 -0.95428200085E+03  0.95428200087E+03  0.50400001928E-02 0. -1.
    10030    2    1    2    0    0  0.00000000000E+00  0.00000000000E+00 -0.74943027539E+03  0.11591337264E+04  0.88427668633E+03 0.  0.
        1    1    3    3  502    0 -0.44766512122E+02  0.30995915975E+03  0.34396443206E+02  0.31505846545E+03  0.50400001928E-02 0.  1.
       -1    1    3    3    0  502  0.44766512122E+02 -0.30995915975E+03 -0.78382671860E+03  0.84407526094E+03  0.50400001928E-02 0. -1.
</event>
<event>
 5   0  0.1924218E-02  0.9044406E+03  0.7818609E-02  0.9420047E-01
       -2   -1    0    0    0  501  0.00000000000E+00  0.00000000000E+00  0.40407709567E+03  0.40407709568E+03  0.25500000920E-02 0. -1.
        2   -1    0    0  501    0  0.00000000000E+00  0.00000000000E+00 -0.50609950102E+03  0.50609950103E+03  0.25500000920E-02 0.  1.
    10030    2    1    2    0    0  0.00000000000E+00  0.00000000000E+00 -0.10202240535E+03  0.91017659671E+03  0.90444063708E+03 0.  0.
        4    1    3    3  502    0 -0.43366383305E+03 -0.60159123495E+02 -0.16494655463E+03  0.46785940091E+03  0.12699999809E+01 0.  1.
       -4    1    3    3    0  502  0.43366383305E+03  0.60159123495E+02  0.62924149280E+02  0.44231719580E+03  0.12699999809E+01 0. -1.
</event>
<event>
 5   0  0.1968763E-02  0.8810104E+03  0.7818609E-02  0.9449636E-01
        2   -1    0    0  501    0  0.00000000000E+00  0.00000000000E+00  0.85674530651E+03  0.85674530652E+03  0.25500000920E-02 0.  1.
       -2   -1    0    0    0  501  0.00000000000E+00  0.00000000000E+00 -0.22649070028E+03  0.22649070030E+03  0.25500000920E-02 0. -1.
    10030    2    1    2    0    0  0.00000000000E+00  0.00000000000E+00  0.63025460623E+03  0.10832360068E+04  0.88101043001E+03 0.  0.
        2    1    3    3  502    0  0.91619218517E+02  0.21797128847E+03 -0.14185631590E+03  0.27573316479E+03  0.25500000920E-02 0. -1.
       -2    1    3    3    0  502 -0.91619218517E+02 -0.21797128847E+03  0.77211092213E+03  0.80750284202E+03  0.25500000920E-02 0.  1.
</event>
<event>
 5   0  0.1162839E-02  0.8754174E+03  0.7818609E-02  0.9456844E-01
        1   -1    0    0  501    0  0.00000000000E+00  0.00000000000E+00  0.11109362679E+04  0.11109362680E+04  0.50400001928E-02 0. -1.
       -1   -1    0    0    0  501  0.00000000000E+00  0.00000000000E+00 -0.17245714126E+03  0.17245714133E+03  0.50400001928E-02 0.  1.
    10030    2    1    2    0    0  0.00000000000E+00  0.00000000000E+00  0.93847912669E+03  0.12833934093E+04  0.87541737005E+03 0.  0.
        2    1    3    3  502    0 -0.31990661037E+03  0.28279256758E+03  0.61044415799E+03  0.74495231100E+03  0.25500000920E-02 0. -1.
       -2    1    3    3    0  502  0.31990661037E+03 -0.28279256758E+03  0.32803496870E+03  0.53844109829E+03  0.25500000920E-02 0.  1.
</event>
<event>
 5   0  0.1968763E-02  0.9153077E+03  0.7818609E-02  0.9406646E-01
       -2   -1    0    0    0  501  0.00000000000E+00  0.00000000000E+00  0.19726846653E+03  0.19726846655E+03  0.25500000920E-02 0. -1.
        2   -1    0    0  501    0  0.00000000000E+00  0.00000000000E+00 -0.10617360024E+04  0.10617360024E+04  0.25500000920E-02 0.  1.
    10030    2    1    2    0    0  0.00000000000E+00  0.00000000000E+00 -0.86446753590E+03  0.12590044690E+04  0.91530767084E+03 0.  0.
        2    1    3    3  502    0  0.13961820990E+03  0.33860097775E+03 -0.80969016378E+03  0.88867430930E+03  0.25500000920E-02 0.  1.
       -2    1    3    3    0  502 -0.13961820990E+03 -0.33860097775E+03 -0.54777372121E+02  0.37033015969E+03  0.25500000920E-02 0. -1.
</event>
<event>
 5   0  0.1162839E-02  0.8876878E+03  0.7818609E-02  0.9441104E-01
        1   -1    0    0  501    0  0.00000000000E+00  0.00000000000E+00  0.47281690544E+03  0.47281690546E+03  0.50400001928E-02 0. -1.
       -1   -1    0    0    0  501  0.00000000000E+00  0.00000000000E+00 -0.41664632991E+03  0.41664632994E+03  0.50400001928E-02 0.  1.
    10030    2    1    2    0    0  0.00000000000E+00  0.00000000000E+00  0.56170575530E+02  0.88946323540E+03  0.88768784693E+03 0.  0.
        2    1    3    3  502    0  0.13040914199E+03 -0.33632828451E+03  0.28720289661E+03  0.46109517793E+03  0.25500000920E-02 0. -1.
       -2    1    3    3    0  502 -0.13040914199E+03  0.33632828451E+03 -0.23103232108E+03  0.42836805748E+03  0.25500000920E-02 0.  1.
</event>
<event>
 5   0  0.1177712E-02  0.8727973E+03  0.7818609E-02  0.9460240E-01
       -1   -1    0    0    0  501  0.00000000000E+00  0.00000000000E+00  0.10891813934E+04  0.10891813934E+04  0.50400001928E-02 0. -1.
        1   -1    0    0  501    0  0.00000000000E+00  0.00000000000E+00 -0.17485038428E+03  0.17485038436E+03  0.50400001928E-02 0.  1.
    10030    2    1    2    0    0  0.00000000000E+00  0.00000000000E+00  0.91433100911E+03  0.12640317778E+04  0.87279730807E+03 0.  0.
        5    1    3    3  502    0 -0.13337609696E+03  0.30008424467E+03  0.87335123172E+03  0.93306173487E+03  0.46999998093E+01 0. -1.
       -5    1    3    3    0  502  0.13337609696E+03 -0.30008424467E+03  0.40979777396E+02  0.33097004289E+03  0.46999998093E+01 0.  1.
</event>
<event>
 5   0  0.1226424E-02  0.8998340E+03  0.7818609E-02  0.9425789E-01
        1   -1    0    0  501    0  0.00000000000E+00  0.00000000000E+00  0.17158667439E+04  0.17158667439E+04  0.50400001928E-02 0. -1.
       -1   -1    0    0    0  501  0.00000000000E+00  0.00000000000E+00 -0.11797262168E+03  0.11797262179E+03  0.50400001928E-02 0.  1.
    10030    2    1    2    0    0  0.00000000000E+00  0.00000000000E+00  0.15978941222E+04  0.18338393657E+04  0.89983398099E+03 0.  0.
        1    1    3    3  502    0 -0.13447520242E+02 -0.34774099972E+03  0.21778219983E+03  0.41052859252E+03  0.50400001928E-02 0.  1.
       -1    1    3    3    0  502  0.13447520242E+02  0.34774099972E+03  0.13801119224E+04  0.14233107732E+04  0.50400001928E-02 0. -1.
</event>
<event>
 5   0  0.1968763E-02  0.9113616E+03  0.7818609E-02  0.9411489E-01
       -2   -1    0    0    0  501  0.00000000000E+00  0.00000000000E+00  0.13164125975E+03  0.13164125977E+03  0.25500000920E-02 0.  1.
        2   -1    0    0  501    0  0.00000000000E+00  0.00000000000E+00 -0.15773550718E+04  0.15773550718E+04  0.25500000920E-02 0. -1.
    10030    2    1    2    0    0  0.00000000000E+00  0.00000000000E+00 -0.14457138121E+04  0.17089963316E+04  0.91136163787E+03 0.  0.
        2    1    3    3  502    0 -0.39359969718E+03 -0.19819363669E+03 -0.50543280403E+03  0.67056972690E+03  0.25500000920E-02 0. -1.
       -2    1    3    3    0  502  0.39359969718E+03  0.19819363669E+03 -0.94028100805E+03  0.10384266047E+04  0.25500000920E-02 0.  1.
</event>
<event>
 5   0  0.1924218E-02  0.9015839E+03  0.7818609E-02  0.9423604E-01
       -2   -1    0    0    0  501  0.00000000000E+00  0.00000000000E+00  0.11424867219E+03  0.11424867222E+03  0.25500000920E-02 0.  1.
        2   -1    0    0  501    0  0.00000000000E+00  0.00000000000E+00 -0.17786937105E+04  0.17786937105E+04  0.25500000920E-02 0. -1.
    10030    2    1    2    0    0  0.00000000000E+00  0.00000000000E+00 -0.16644450383E+04  0.18929423827E+04  0.90158392774E+03 0.  0.
        4    1    3    3  502    0 -0.16011264327E+03  0.12136728041E+03  0.15042722881E+02  0.20147945727E+03  0.12699999809E+01 0.  1.
       -4    1    3    3    0  502  0.16011264327E+03 -0.12136728041E+03 -0.16794877612E+04  0.16914629255E+04  0.12699999809E+01 0. -1.
</event>
<event>
 5   0  0.2008770E-02  0.8653546E+03  0.7818609E-02  0.9469957E-01
       -2   -1    0    0    0  501  0.00000000000E+00  0.00000000000E+00  0.50901837756E+03  0.50901837757E+03  0.25500000920E-02 0.  1.
        2   -1    0    0  501    0  0.00000000000E+00  0.00000000000E+00 -0.36778560277E+03  0.36778560278E+03  0.25500000920E-02 0. -1.
    10030    2    1    2    0    0  0.00000000000E+00  0.00000000000E+00  0.14123277480E+03  0.87680398035E+03  0.86535456506E+03 0.  0.
        1    1    3    3  502    0  0.20045588733E+03 -0.19670519627E+03  0.40411273440E+03  0.49212051282E+03  0.50400001928E-02 0.  1.
       -1    1    3    3    0  502 -0.20045588733E+03  0.19670519627E+03 -0.26287995960E+03  0.38468346753E+03  0.50400001928E-02 0. -1.
</event>
<event>
 5   0  0.2008770E-02  0.9014290E+03  0.7818609E-02  0.9423797E-01
        2   -1    0    0  501    0  0.00000000000E+00  0.00000000000E+00  0.15147531154E+04  0.15147531154E+04  0.25500000920E-02 0. -1.
       -2   -1    0    0    0  501  0.00000000000E+00  0.00000000000E+00 -0.13411001804E+03  0.13411001806E+03  0.25500000920E-02 0.  1.
    10030    2    1    2    0    0  0.00000000000E+00  0.00000000000E+00  0.13806430974E+04  0.16488631335E+04  0.90142901585E+03 0.  0.
        1    1    3    3  502    0  0.34580067664E+03  0.13784071304E+03  0.11551074963E+04  0.12136109336E+04  0.50400001928E-02 0. -1.
       -1    1    3    3    0  502 -0.34580067664E+03 -0.13784071304E+03  0.22553560113E+03  0.43525219992E+03  0.50400001928E-02 0.  1.
</event>
<event>
 5   0  0.1162839E-02  0.9033225E+03  0.7818609E-02  0.9421438E-01
       -1   -1    0    0    0  501  0.00000000000E+00  0.00000000000E+00  0.22709998407E+03  0.22709998413E+03  0.50400001928E-02 0.  1.
        1   -1    0    0  501    0  0.00000000000E+00  0.00000000000E+00 -0.89827347517E+03  0.89827347518E+03  0.50400001928E-02 0. -1.
    10030    2    1    2    0    0  0.00000000000E+00  0.00000000000E+00 -0.67117349110E+03  0.11253734593E+04  0.90332251592E+03 0.  0.
        2    1    3    3  502    0 -0.24551651420E+03  0.28616911615E+03 -0.25814778994E+02  0.37793851961E+03  0.25500000920E-02 0.  1.
       -2    1    3    3    0  502  0.24551651420E+03 -0.28616911615E+03 -0.64535871211E+03  0.74743493970E+03  0.25500000920E-02 0. -1.
</event>
<event>
 5   0  0.7893875E-03  0.7839851E+03  0.7818609E-02  0.9583492E-01
        4   -1    0    0  501    0  0.00000000000E+00  0.00000000000E+00  0.27667119045E+03  0.27667410527E+03  0.12699999809E+01 0.  1.
       -4   -1    0    0    0  501  0.00000000000E+00  0.00000000000E+00 -0.55537525228E+03  0.55537670436E+03  0.12699999809E+01 0. -1.
    10030    2    1    2    0    0  0.00000000000E+00  0.00000000000E+00 -0.27870406183E+03  0.83205080962E+03  0.78398507365E+03 0.  0.
        2    1    3    3  502    0  0.29841630305E+03 -0.23056594453E+03 -0.25289332154E+03  0.45405723955E+03  0.25500000920E-02 0.  1.
       -2    1    3    3    0  502 -0.29841630305E+03  0.23056594453E+03 -0.25810740290E+02  0.37799357008E+03  0.25500000920E-02 0. -1.
</event>
<event>
 5   0  0.2008770E-02  0.9187353E+03  0.7818609E-02  0.9402460E-01
        2   -1    0    0  501    0  0.00000000000E+00  0.00000000000E+00  0.10037255546E+04  0.10037255546E+04  0.25500000920E-02 0.  1.
       -2   -1    0    0    0  501  0.00000000000E+00  0.00000000000E+00 -0.21023538402E+03  0.21023538404E+03  0.25500000920E-02 0. -1.
    10030    2    1    2    0    0  0.00000000000E+00  0.00000000000E+00  0.79349017058E+03  0.12139609386E+04  0.91873527730E+03 0.  0.
        1    1    3    3  502    0 -0.27137101163E+03  0.16361929832E+03  0.83618747619E+03  0.89421641458E+03  0.50400001928E-02 0.  1.
       -1    1    3    3    0  502  0.27137101163E+03 -0.16361929832E+03 -0.42697305612E+02  0.31974452407E+03  0.50400001928E-02 0. -1.
</event>
<event>
 5   0  0.2041861E-02  0.9176338E+03  0.7818609E-02  0.9403803E-01
       -2   -1    0    0    0  501  0.00000000000E+00  0.00000000000E+00  0.31025580179E+03  0.31025580180E+03  0.25500000920E-02 0.  1.
        2   -1    0    0  501    0  0.00000000000E+00  0.00000000000E+00 -0.67851416735E+03  0.67851416736E+03  0.25500000920E-02 0. -1.
    10030    2    1    2    0    0  0.00000000000E+00  0.00000000000E+00 -0.36825836556E+03  0.98876996916E+03  0.91763382027E+03 0.  0.
        5    1    3    3  502    0 -0.15492608207E+02  0.69974779570E+02 -0.67241919086E+03  0.67624414890E+03  0.46999998093E+01 0. -1.
       -5    1    3    3    0  502  0.15492608207E+02 -0.69974779570E+02  0.30416082530E+03  0.31252582026E+03  0.46999998093E+01 0.  1.
</event>
<event>
 5   0  0.1924218E-02  0.8883162E+03  0.7818609E-02  0.9440306E-01
       -2   -1    0    0    0  501  0.00000000000E+00  0.00000000000E+00  0.51634132346E+03  0.51634132346E+03  0.25500000920E-02 0. -1.
        2   -1    0    0  501    0  0.00000000000E+00  0.00000000000E+00 -0.38206592819E+03  0.38206592820E+03  0.25500000920E-02 0.  1.
    10030    2    1    2    0    0  0.00000000000E+00  0.00000000000E+00  0.13427539527E+03  0.89840725166E+03  0.88831622076E+03 0.  0.
        4    1    3    3  502    0 -0.86542726369E+02 -0.92822023891E+02 -0.36333725860E+03  0.38486510363E+03  0.12699999809E+01 0.  1.
       -4    1    3    3    0  502  0.86542726369E+02  0.92822023891E+02  0.49761265387E+03  0.51354214803E+03  0.12699999809E+01 0. -1.
</event>
<event>
 5   0  0.1226424E-02  0.8877274E+03  0.7818609E-02  0.9441054E-01
       -1   -1    0    0    0  501  0.00000000000E+00  0.00000000000E+00  0.19823257610E+03  0.19823257617E+03  0.50400001928E-02 0.  1.
        1   -1    0    0  501    0  0.00000000000E+00  0.00000000000E+00 -0.99385779563E+03  0.99385779564E+03  0.50400001928E-02 0. -1.
    10030    2    1    2    0    0  0.00000000000E+00  0.00000000000E+00 -0.79562521952E+03  0.11920903718E+04  0.88772741571E+03 0.  0.
        1    1    3    3  502    0  0.23417499875E+03 -0.25900628435E+00  0.10852969235E+03  0.25810209467E+03  0.50400001928E-02 0.  1.
       -1    1    3    3    0  502 -0.23417499875E+03  0.25900628435E+00 -0.90415491188E+03  0.93398827713E+03  0.50400001928E-02 0. -1.
</event>
<event>
 5   0  0.2008643E-02  0.9039007E+03  0.7818609E-02  0.9420719E-01
       -2   -1    0    0    0  501  0.00000000000E+00  0.00000000000E+00  0.10398388801E+03  0.10398388805E+03  0.25500000920E-02 0.  1.
        2   -1    0    0  501    0  0.00000000000E+00  0.00000000000E+00 -0.19643341079E+04  0.19643341079E+04  0.25500000920E-02 0. -1.
    10030    2    1    2    0    0  0.00000000000E+00  0.00000000000E+00 -0.18603502198E+04  0.20683179959E+04  0.90390065368E+03 0.  0.
        3    1    3    3  502    0 -0.21590104715E+03  0.20085097367E+03 -0.14646700370E+03  0.32925213615E+03  0.10100000352E+00 0.  1.
       -3    1    3    3    0  502  0.21590104715E+03 -0.20085097367E+03 -0.17138832161E+04  0.17390658598E+04  0.10100000352E+00 0. -1.
</event>
<event>
 5   0  0.2008770E-02  0.9670659E+03  0.7818609E-02  0.9345423E-01
       -2   -1    0    0    0  501  0.00000000000E+00  0.00000000000E+00  0.45221775363E+03  0.45221775363E+03  0.25500000920E-02 0.  1.
        2   -1    0    0  501    0  0.00000000000E+00  0.00000000000E+00 -0.51701662143E+03  0.51701662144E+03  0.25500000920E-02 0. -1.
    10030    2    1    2    0    0  0.00000000000E+00  0.00000000000E+00 -0.64798867806E+02  0.96923437507E+03  0.96706586154E+03 0.  0.
        1    1    3    3  502    0 -0.20490801656E+02  0.14490486309E+03 -0.49428726413E+03  0.51549703376E+03  0.50400001928E-02 0. -1.
       -1    1    3    3    0  502  0.20490801656E+02 -0.14490486309E+03  0.42948839633E+03  0.45373734132E+03  0.50400001928E-02 0.  1.
</event>
<event>
 5   0  0.1175993E-02  0.9401439E+03  0.7818609E-02  0.9376746E-01
        1   -1    0    0  501    0  0.00000000000E+00  0.00000000000E+00  0.87998913035E+03  0.87998913037E+03  0.50400001928E-02 0.  1.
       -1   -1    0    0    0  501  0.00000000000E+00  0.00000000000E+00 -0.25110266493E+03  0.25110266498E+03  0.50400001928E-02 0. -1.
    10030    2    1    2    0    0  0.00000000000E+00  0.00000000000E+00  0.62888646542E+03  0.11310917954E+04  0.94014385236E+03 0.  0.
        4    1    3    3  502    0 -0.22793277863E+03  0.13000418821E+03 -0.15478556194E+03  0.30465492547E+03  0.12699999809E+01 0. -1.
       -4    1    3    3    0  502  0.22793277863E+03 -0.13000418821E+03  0.78367202736E+03  0.82643686988E+03  0.12699999809E+01 0.  1.
</event>
<event>
 5   0  0.2008643E-02  0.7929271E+03  0.7818609E-02  0.9570312E-01
        2   -1    0    0  501    0  0.00000000000E+00  0.00000000000E+00  0.38014507090E+03  0.38014507090E+03  0.25500000920E-02 0. -1.
       -2   -1    0    0    0  501  0.00000000000E+00  0.00000000000E+00 -0.41348257963E+03  0.41348257964E+03  0.25500000920E-02 0.  1.
    10030    2    1    2    0    0  0.00000000000E+00  0.00000000000E+00 -0.33337508739E+02  0.79362765055E+03  0.79292714560E+03 0.  0.
        3    1    3    3  502    0  0.27222257461E+03  0.28807890792E+03 -0.72388049079E+01  0.39641770623E+03  0.10100000352E+00 0.  1.
       -3    1    3    3    0  502 -0.27222257461E+03 -0.28807890792E+03 -0.26098703831E+02  0.39720994431E+03  0.10100000352E+00 0. -1.
</event>
<event>
 5   0  0.2008770E-02  0.8686771E+03  0.7818609E-02  0.9465606E-01
        2   -1    0    0  501    0  0.00000000000E+00  0.00000000000E+00  0.12532737723E+04  0.12532737723E+04  0.25500000920E-02 0. -1.
       -2   -1    0    0    0  501  0.00000000000E+00  0.00000000000E+00 -0.15052576005E+03  0.15052576007E+03  0.25500000920E-02 0.  1.
    10030    2    1    2    0    0  0.00000000000E+00  0.00000000000E+00  0.11027480122E+04  0.14037995323E+04  0.86867712561E+03 0.  0.
        1    1    3    3  502    0  0.32501821726E+03 -0.26552707780E+03  0.73211206384E+03  0.84387768346E+03  0.50400001928E-02 0.  1.
       -1    1    3    3    0  502 -0.32501821726E+03  0.26552707780E+03  0.37063594837E+03  0.55992184887E+03  0.50400001928E-02 0. -1.
</event>
<event>
 5   0  0.1162839E-02  0.7281831E+03  0.7818609E-02  0.9670213E-01
       -1   -1    0    0    0  501  0.00000000000E+00  0.00000000000E+00  0.40627536297E+03  0.40627536300E+03  0.50400001928E-02 0.  1.
        1   -1    0    0  501    0  0.00000000000E+00  0.00000000000E+00 -0.32628768380E+03  0.32628768384E+03  0.50400001928E-02 0. -1.
    10030    2    1    2    0    0  0.00000000000E+00  0.00000000000E+00  0.79987679168E+02  0.73256304684E+03  0.72818307367E+03 0.  0.
        2    1    3    3  502    0 -0.25108441194E+02 -0.22057452121E+03 -0.25032313110E+03  0.33458216210E+03  0.25500000920E-02 0. -1.
       -2    1    3    3    0  502  0.25108441194E+02  0.22057452121E+03  0.33031081027E+03  0.39798088473E+03  0.25500000920E-02 0.  1.
</event>
<event>
 5   0  0.2041861E-02  0.9197476E+03  0.7818609E-02  0.9401227E-01
       -2   -1    0    0    0  501  0.00000000000E+00  0.00000000000E+00  0.34514676163E+03  0.34514676164E+03  0.25500000920E-02 0. -1.
        2   -1    0    0  501    0  0.00000000000E+00  0.00000000000E+00 -0.61273620809E+03  0.61273620809E+03  0.25500000920E-02 0.  1.
    10030    2    1    2    0    0  0.00000000000E+00  0.00000000000E+00 -0.26758944646E+03  0.95788296973E+03  0.91974761312E+03 0.  0.
        5    1    3    3  502    0 -0.23114519616E+03 -0.36455180415E+03 -0.29891079458E+03  0.52506749350E+03  0.46999998093E+01 0.  1.
       -5    1    3    3    0  502  0.23114519616E+03  0.36455180415E+03  0.31321348118E+02  0.43281547623E+03  0.46999998093E+01 0. -1.
</event>
<event>
 5   0  0.1226424E-02  0.7993629E+03  0.7818609E-02  0.9560940E-01
        1   -1    0    0  501    0  0.00000000000E+00  0.00000000000E+00  0.11383490734E+03  0.11383490745E+03  0.50400001928E-02 0. -1.
       -1   -1    0    0    0  501  0.00000000000E+00  0.00000000000E+00 -0.14033063757E+04  0.14033063757E+04  0.50400001928E-02 0.  1.
    10030    2    1    2    0    0  0.00000000000E+00  0.00000000000E+00 -0.12894714684E+04  0.15171412832E+04  0.79936287464E+03 0.  0.
        1    1    3    3  502    0  0.10697034517E+02  0.38896938486E+03 -0.81799620193E+03  0.90583077631E+03  0.50400001928E-02 0.  1.
       -1    1    3    3    0  502 -0.10697034517E+02 -0.38896938486E+03 -0.47147526647E+03  0.61131050688E+03  0.50400001928E-02 0. -1.
</event>
<event>
 5   0  0.2008770E-02  0.8938268E+03  0.7818609E-02  0.9433331E-01
       -2   -1    0    0    0  501  0.00000000000E+00  0.00000000000E+00  0.11898739280E+03  0.11898739283E+03  0.25500000920E-02 0.  1.
        2   -1    0    0  501    0  0.00000000000E+00  0.00000000000E+00 -0.16785946938E+04  0.16785946938E+04  0.25500000920E-02 0. -1.
    10030    2    1    2    0    0  0.00000000000E+00  0.00000000000E+00 -0.15596073010E+04  0.17975820866E+04  0.89382684278E+03 0.  0.
        1    1    3    3  502    0 -0.87266826297E+02 -0.15835133530E+03  0.42149055638E+02  0.18565340632E+03  0.50400001928E-02 0.  1.
       -1    1    3    3    0  502  0.87266826297E+02  0.15835133530E+03 -0.16017563566E+04  0.16119286803E+04  0.50400001928E-02 0. -1.
</event>
<event>
 5   0  0.1968763E-02  0.9889989E+03  0.7818609E-02  0.9320694E-01
       -2   -1    0    0    0  501  0.00000000000E+00  0.00000000000E+00  0.32826221424E+03  0.32826221425E+03  0.25500000920E-02 0. -1.
        2   -1    0    0  501    0  0.00000000000E+00  0.00000000000E+00 -0.74492185840E+03  0.74492185840E+03  0.25500000920E-02 0.  1.
    10030    2    1    2    0    0  0.00000000000E+00  0.00000000000E+00 -0.41665964416E+03  0.10731840726E+04  0.98899888509E+03 0.  0.
        2    1    3    3  502    0  0.34846465596E+03  0.86489908424E+02  0.16064596061E+03  0.39333858872E+03  0.25500000920E-02 0. -1.
       -2    1    3    3    0  502 -0.34846465596E+03 -0.86489908424E+02 -0.57730560477E+03  0.67984548393E+03  0.25500000920E-02 0.  1.
</event>
<event>
 5   0  0.1177712E-02  0.9123866E+03  0.7818609E-02  0.9410229E-01
       -1   -1    0    0    0  501  0.00000000000E+00  0.00000000000E+00  0.40919123515E+03  0.40919123519E+03  0.50400001928E-02 0.  1.
        1   -1    0    0  501    0  0.00000000000E+00  0.00000000000E+00 -0.50859429109E+03  0.50859429111E+03  0.50400001928E-02 0. -1.
    10030    2    1    2    0    0  0.00000000000E+00  0.00000000000E+00 -0.99403055931E+02  0.91778552630E+03  0.91238659830E+03 0.  0.
        5    1    3    3  502    0  0.24004272446E+03  0.33030139991E+03 -0.25430302347E+03  0.48105263963E+03  0.46999998093E+01 0. -1.
       -5    1    3    3    0  502 -0.24004272446E+03 -0.33030139991E+03  0.15489996754E+03  0.43673288666E+03  0.46999998093E+01 0.  1.
</event>
<event>
 5   0  0.1206541E-02  0.8985122E+03  0.7818609E-02  0.9427443E-01
       -1   -1    0    0    0  501  0.00000000000E+00  0.00000000000E+00  0.53362669001E+03  0.53362669003E+03  0.50400001928E-02 0. -1.
        1   -1    0    0  501    0  0.00000000000E+00  0.00000000000E+00 -0.37822513818E+03  0.37822513822E+03  0.50400001928E-02 0.  1.
    10030    2    1    2    0    0  0.00000000000E+00  0.00000000000E+00  0.15540155182E+03  0.91185182825E+03  0.89851216707E+03 0.  0.
        3    1    3    3  502    0 -0.29200341249E+03 -0.27808979543E+03 -0.12330822483E+03  0.42166913064E+03  0.10100000352E+00 0.  1.
       -3    1    3    3    0  502  0.29200341249E+03  0.27808979543E+03  0.27870977666E+03  0.49018269760E+03  0.10100000352E+00 0. -1.
</event>
<event>
 5   0  0.2008770E-02  0.8941188E+03  0.7818609E-02  0.9432963E-01
        2   -1    0    0  501    0  0.00000000000E+00  0.00000000000E+00  0.15058682473E+03  0.15058682475E+03  0.25500000920E-02 0. -1.
       -2   -1    0    0    0  501  0.00000000000E+00  0.00000000000E+00 -0.13272217812E+04  0.13272217812E+04  0.25500000920E-02 0.  1.
    10030    2    1    2    0    0  0.00000000000E+00  0.00000000000E+00 -0.11766349565E+04  0.14778086059E+04  0.89411881482E+03 0.  0.
        1    1    3    3  502    0 -0.31422527033E+03  0.84524737417E+02 -0.10950059837E+04  0.11423309748E+04  0.50400001928E-02 0.  1.
       -1    1    3    3    0  502  0.31422527033E+03 -0.84524737417E+02 -0.81628972790E+02  0.33547763111E+03  0.50400001928E-02 0. -1.
</event>
<event>
 5   0  0.2041861E-02  0.9174019E+03  0.7818609E-02  0.9404086E-01
       -2   -1    0    0    0  501  0.00000000000E+00  0.00000000000E+00  0.16140075298E+03  0.16140075300E+03  0.25500000920E-02 0. -1.
        2   -1    0    0  501    0  0.00000000000E+00  0.00000000000E+00 -0.13036281620E+04  0.13036281620E+04  0.25500000920E-02 0.  1.
    10030    2    1    2    0    0  0.00000000000E+00  0.00000000000E+00 -0.11422274090E+04  0.14650289150E+04  0.91740191186E+03 0.  0.
        5    1    3    3  502    0 -0.33001574837E+03  0.18899404404E+02 -0.10789203953E+04  0.11284320499E+04  0.46999998093E+01 0.  1.
       -5    1    3    3    0  502  0.33001574837E+03 -0.18899404404E+02 -0.63307013698E+02  0.33659686517E+03  0.46999998093E+01 0. -1.
</event>
<event>
 5   0  0.1177712E-02  0.8718499E+03  0.7818609E-02  0.9461471E-01
        1   -1    0    0  501    0  0.00000000000E+00  0.00000000000E+00  0.33395103647E+03  0.33395103651E+03  0.50400001928E-02 0.  1.
       -1   -1    0    0    0  501  0.00000000000E+00  0.00000000000E+00 -0.56903723373E+03  0.56903723375E+03  0.50400001928E-02 0. -1.
    10030    2    1    2    0    0  0.00000000000E+00  0.00000000000E+00 -0.23508619726E+03  0.90298827026E+03  0.87184992750E+03 0.  0.
        5    1    3    3  502    0  0.12697479736E+03 -0.41697550843E+03 -0.12185225006E+03  0.45261599026E+03  0.46999998093E+01 0.  1.
       -5    1    3    3    0  502 -0.12697479736E+03  0.41697550843E+03 -0.11323394720E+03  0.45037228000E+03  0.46999998093E+01 0. -1.
</event>
<event>
 5   0  0.2008770E-02  0.9005865E+03  0.7818609E-02  0.9424849E-01
       -2   -1    0    0    0  501  0.00000000000E+00  0.00000000000E+00  0.24667055075E+03  0.24667055076E+03  0.25500000920E-02 0.  1.
        2   -1    0    0  501    0  0.00000000000E+00  0.00000000000E+00 -0.82200339198E+03  0.82200339198E+03  0.25500000920E-02 0. -1.
    10030    2    1    2    0    0  0.00000000000E+00  0.00000000000E+00 -0.57533284123E+03  0.10686739427E+04  0.90058654093E+03 0.  0.
        1    1    3    3  502    0  0.11574553016E+03  0.10530198447E+03  0.21336994217E+03  0.26459831431E+03  0.50400001928E-02 0.  1.
       -1    1    3    3    0  502 -0.11574553016E+03 -0.10530198447E+03 -0.78870278340E+03  0.80407562844E+03  0.50400001928E-02 0. -1.
</event>
<event>
 5   0  0.1175993E-02  0.8739804E+03  0.7818609E-02  0.9458705E-01
       -1   -1    0    0    0  501  0.00000000000E+00  0.00000000000E+00  0.27954706440E+03  0.27954706444E+03  0.50400001928E-02 0.  1.
        1   -1    0    0  501    0  0.00000000000E+00  0.00000000000E+00 -0.68310664012E+03  0.68310664014E+03  0.50400001928E-02 0. -1.
    10030    2    1    2    0    0  0.00000000000E+00  0.00000000000E+00 -0.40355957572E+03  0.96265370458E+03  0.87398044817E+03 0.  0.
        4    1    3    3  502    0 -0.32864365702E+03  0.10761663210E+02  0.11523455786E+03  0.34842945186E+03  0.12699999809E+01 0.  1.
       -4    1    3    3    0  502  0.32864365702E+03 -0.10761663210E+02 -0.51879413359E+03  0.61422425273E+03  0.12699999809E+01 0. -1.
</event>
<event>
 5   0  0.2008643E-02  0.9123168E+03  0.7818609E-02  0.9410314E-01
        2   -1    0    0  501    0  0.00000000000E+00  0.00000000000E+00  0.41623814202E+03  0.41623814203E+03  0.25500000920E-02 0.  1.
       -2   -1    0    0    0  501  0.00000000000E+00  0.00000000000E+00 -0.49990727154E+03  0.49990727155E+03  0.25500000920E-02 0. -1.
    10030    2    1    2    0    0  0.00000000000E+00  0.00000000000E+00 -0.83669129521E+02  0.91614541357E+03  0.91231677370E+03 0.  0.
        3    1    3    3  502    0 -0.28560444190E+03 -0.10973393135E+03 -0.38158713804E+03  0.48910140773E+03  0.10100000352E+00 0. -1.
       -3    1    3    3    0  502  0.28560444190E+03  0.10973393135E+03  0.29791800852E+03  0.42704400584E+03  0.10100000352E+00 0.  1.
</event>
<event>
 5   0  0.7893875E-03  0.8904792E+03  0.7818609E-02  0.9437562E-01
       -3   -1    0    0    0  501  0.00000000000E+00  0.00000000000E+00  0.21160949860E+03  0.21160952270E+03  0.10100000352E+00 0. -1.
        3   -1    0    0  501    0  0.00000000000E+00  0.00000000000E+00 -0.93681178235E+03  0.93681178779E+03  0.10100000352E+00 0.  1.
    10030    2    1    2    0    0  0.00000000000E+00  0.00000000000E+00 -0.72520228375E+03  0.11484213105E+04  0.89047917104E+03 0.  0.
        5    1    3    3  502    0  0.15321201041E+03 -0.39153456858E+03 -0.55145238369E+03  0.69346597610E+03  0.46999998093E+01 0.  1.
       -5    1    3    3    0  502 -0.15321201041E+03  0.39153456858E+03 -0.17374990006E+03  0.45495533440E+03  0.46999998093E+01 0. -1.
</event>
<event>
 5   0  0.1924218E-02  0.9100578E+03  0.7818609E-02  0.9413095E-01
       -2   -1    0    0    0  501  0.00000000000E+00  0.00000000000E+00  0.10339510774E+03  0.10339510777E+03  0.25500000920E-02 0. -1.
        2   -1    0    0  501    0  0.00000000000E+00  0.00000000000E+00 -0.20025250248E+04  0.20025250248E+04  0.25500000920E-02 0.  1.
    10030    2    1    2    0    0  0.00000000000E+00  0.00000000000E+00 -0.18991299170E+04  0.21059201326E+04  0.91005777998E+03 0.  0.
        4    1    3    3  502    0 -0.12355800857E+03 -0.43754810534E+03 -0.90722655993E+03  0.10147790744E+04  0.12699999809E+01 0. -1.
       -4    1    3    3    0  502  0.12355800857E+03  0.43754810534E+03 -0.99190335711E+03  0.10911410581E+04  0.12699999809E+01 0.  1.
</event>
<event>
 5   0  0.1968763E-02  0.9021642E+03  0.7818609E-02  0.9422880E-01
       -2   -1    0    0    0  501  0.00000000000E+00  0.00000000000E+00  0.13122622693E+03  0.13122622696E+03  0.25500000920E-02 0.  1.
        2   -1    0    0  501    0  0.00000000000E+00  0.00000000000E+00 -0.15505671492E+04  0.15505671492E+04  0.25500000920E-02 0. -1.
    10030    2    1    2    0    0  0.00000000000E+00  0.00000000000E+00 -0.14193409223E+04  0.16817933762E+04  0.90216423475E+03 0.  0.
        2    1    3    3  502    0 -0.34541007364E+03  0.26206139305E+03 -0.94168955672E+03  0.10367080177E+04  0.25500000920E-02 0. -1.
       -2    1    3    3    0  502  0.34541007364E+03 -0.26206139305E+03 -0.47765136556E+03  0.64508535848E+03  0.25500000920E-02 0.  1.
</event>
<event>
 5   0  0.1968763E-02  0.9024962E+03  0.7818609E-02  0.9422466E-01
       -2   -1    0    0    0  501  0.00000000000E+00  0.00000000000E+00  0.89420732473E+03  0.89420732474E+03  0.25500000920E-02 0.  1.
        2   -1    0    0  501    0  0.00000000000E+00  0.00000000000E+00 -0.22771548887E+03  0.22771548888E+03  0.25500000920E-02 0. -1.
    10030    2    1    2    0    0  0.00000000000E+00  0.00000000000E+00  0.66649183587E+03  0.11219228136E+04  0.90249622295E+03 0.  0.
        2    1    3    3  502    0 -0.51068969262E+02 -0.34932826063E+03 -0.16131036250E+02  0.35340979561E+03  0.25500000920E-02 0. -1.
       -2    1    3    3    0  502  0.51068969262E+02  0.34932826063E+03  0.68262287212E+03  0.76851301801E+03  0.25500000920E-02 0.  1.
</event>
<event>
 5   0  0.2008770E-02  0.8819609E+03  0.7818609E-02  0.9448416E-01
        2   -1    0    0  501    0  0.00000000000E+00  0.00000000000E+00  0.12280133255E+04  0.12280133255E+04  0.25500000920E-02 0.  1.
       -2   -1    0    0    0  501  0.00000000000E+00  0.00000000000E+00 -0.15835639275E+03  0.15835639277E+03  0.25500000920E-02 0. -1.
    10030    2    1    2    0    0  0.00000000000E+00  0.00000000000E+00  0.10696569328E+04  0.13863697183E+04  0.88196090729E+03 0.  0.
        1    1    3    3  502    0 -0.26204758376E+02 -0.31807559316E+03  0.10131797222E+04  0.10622579356E+04  0.50400001928E-02 0.  1.
       -1    1    3    3    0  502  0.26204758376E+02  0.31807559316E+03  0.56477210579E+02  0.32411178267E+03  0.50400001928E-02 0. -1.
</event>
<event>
 5   0  0.1177712E-02  0.8917303E+03  0.7818609E-02  0.9435978E-01
       -1   -1    0    0    0  501  0.00000000000E+00  0.00000000000E+00  0.45289146399E+03  0.45289146402E+03  0.50400001928E-02 0. -1.
        1   -1    0    0  501    0  0.00000000000E+00  0.00000000000E+00 -0.43894780834E+03  0.43894780837E+03  0.50400001928E-02 0.  1.
    10030    2    1    2    0    0  0.00000000000E+00  0.00000000000E+00  0.13943655645E+02  0.89183927239E+03  0.89173026317E+03 0.  0.
        5    1    3    3  502    0 -0.14302570383E+03  0.38253121190E+02 -0.41361967692E+03  0.43934380657E+03  0.46999998093E+01 0.  1.
       -5    1    3    3    0  502  0.14302570383E+03 -0.38253121190E+02  0.42756333256E+03  0.45249546582E+03  0.46999998093E+01 0. -1.
</event>
<event>
 5   0  0.1226424E-02  0.7507198E+03  0.7818609E-02  0.9634222E-01
        1   -1    0    0  501    0  0.00000000000E+00  0.00000000000E+00  0.39929050515E+03  0.39929050518E+03  0.50400001928E-02 0. -1.
       -1   -1    0    0    0  501  0.00000000000E+00  0.00000000000E+00 -0.35286349360E+03  0.35286349364E+03  0.50400001928E-02 0.  1.
    10030    2    1    2    0    0  0.00000000000E+00  0.00000000000E+00  0.46427011546E+02  0.75215399882E+03  0.75071976832E+03 0.  0.
        1    1    3    3  502    0 -0.34249754875E+03  0.49737558590E+02  0.16880680800E+03  0.38506380522E+03  0.50400001928E-02 0.  1.
       -1    1    3    3    0  502  0.34249754875E+03 -0.49737558590E+02 -0.12237979646E+03  0.36709019361E+03  0.50400001928E-02 0. -1.
</event>
<event>
 5   0  0.2008770E-02  0.8694271E+03  0.7818609E-02  0.9464627E-01
        2   -1    0    0  501    0  0.00000000000E+00  0.00000000000E+00  0.12040833679E+04  0.12040833679E+04  0.25500000920E-02 0.  1.
       -2   -1    0    0    0  501  0.00000000000E+00  0.00000000000E+00 -0.15694584709E+03  0.15694584711E+03  0.25500000920E-02 0. -1.
    10030    2    1    2    0    0  0.00000000000E+00  0.00000000000E+00  0.10471375208E+04  0.13610292150E+04  0.86942713130E+03 0.  0.
        1    1    3    3  502    0  0.37355283278E+02 -0.10337309372E+03  0.11819711338E+04  0.11870708381E+04  0.50400001928E-02 0.  1.
       -1    1    3    3    0  502 -0.37355283278E+02  0.10337309372E+03 -0.13483361292E+03  0.17395837690E+03  0.50400001928E-02 0. -1.
</event>
<event>
 5   0  0.1162839E-02  0.9049263E+03  0.7818609E-02  0.9419444E-01
       -1   -1    0    0    0  501  0.00000000000E+00  0.00000000000E+00  0.16193945205E+03  0.16193945213E+03  0.50400001928E-02 0. -1.
        1   -1    0    0  501    0  0.00000000000E+00  0.00000000000E+00 -0.12641941920E+04  0.12641941920E+04  0.50400001928E-02 0.  1.
    10030    2    1    2    0    0  0.00000000000E+00  0.00000000000E+00 -0.11022547400E+04  0.14261336442E+04  0.90492632807E+03 0.  0.
        2    1    3    3  502    0 -0.50523794207E+02  0.10149006794E+03  0.13919281152E+03  0.17952026754E+03  0.25500000920E-02 0. -1.
       -2    1    3    3    0  502  0.50523794207E+02 -0.10149006794E+03 -0.12414475515E+04  0.12466133766E+04  0.25500000920E-02 0.  1.
</event>
<event>
 5   0  0.1206541E-02  0.8868753E+03  0.7818609E-02  0.9442138E-01
       -1   -1    0    0    0  501  0.00000000000E+00  0.00000000000E+00  0.11410476721E+03  0.11410476732E+03  0.50400001928E-02 0. -1.
        1   -1    0    0  501    0  0.00000000000E+00  0.00000000000E+00 -0.17233018775E+04  0.17233018775E+04  0.50400001928E-02 0.  1.
    10030    2    1    2    0    0  0.00000000000E+00  0.00000000000E+00 -0.16091971103E+04  0.18374066449E+04  0.88687532309E+03 0.  0.
        3    1    3    3  502    0 -0.37323057960E+03  0.16747377993E+03 -0.11591593081E+04  0.12292269295E+04  0.10100000352E+00 0.  1.
       -3    1    3    3    0  502  0.37323057960E+03 -0.16747377993E+03 -0.45003780222E+03  0.60817971533E+03  0.10100000352E+00 0. -1.
</event>
<event>
 5   0  0.1175993E-02  0.8818573E+03  0.7818609E-02  0.9448549E-01
        1   -1    0    0  501    0  0.00000000000E+00  0.00000000000E+00  0.29214541499E+03  0.29214541503E+03  0.50400001928E-02 0. -1.
       -1   -1    0    0    0  501  0.00000000000E+00  0.00000000000E+00 -0.66548390042E+03  0.66548390044E+03  0.50400001928E-02 0.  1.
    10030    2    1    2    0    0  0.00000000000E+00  0.00000000000E+00 -0.37333848543E+03  0.95762931547E+03  0.88185729069E+03 0.  0.
        4    1    3    3  502    0  0.61620877511E+01  0.61471650847E+02 -0.66075865273E+03  0.66364172958E+03  0.12699999809E+01 0.  1.
       -4    1    3    3    0  502 -0.61620877511E+01 -0.61471650847E+02  0.28742016730E+03  0.29398758588E+03  0.12699999809E+01 0. -1.
</event>
<event>
 5   0  0.2008770E-02  0.9150222E+03  0.7818609E-02  0.9406995E-01
       -2   -1    0    0    0  501  0.00000000000E+00  0.00000000000E+00  0.80862800624E+03  0.80862800624E+03  0.25500000920E-02 0. -1.
        2   -1    0    0  501    0  0.00000000000E+00  0.00000000000E+00 -0.25885376431E+03  0.25885376432E+03  0.25500000920E-02 0.  1.
    10030    2    1    2    0    0  0.00000000000E+00  0.00000000000E+00  0.54977424194E+03  0.10674817706E+04  0.91502219284E+03 0.  0.
        1    1    3    3  502    0 -0.40956969865E+03  0.19945444300E+03  0.22557088136E+03  0.50834204570E+03  0.50400001928E-02 0.  1.
       -1    1    3    3    0  502  0.40956969865E+03 -0.19945444300E+03  0.32420336058E+03  0.55913972486E+03  0.50400001928E-02 0. -1.
</event>
<event>
 5   0  0.1162839E-02  0.9015074E+03  0.7818609E-02  0.9423699E-01
        1   -1    0    0  501    0  0.00000000000E+00  0.00000000000E+00  0.45946801852E+03  0.45946801855E+03  0.50400001928E-02 0.  1.
       -1   -1    0    0    0  501  0.00000000000E+00  0.00000000000E+00 -0.44220460998E+03  0.44220461001E+03  0.50400001928E-02 0. -1.
    10030    2    1    2    0    0  0.00000000000E+00  0.00000000000E+00  0.17263408540E+02  0.90167262856E+03  0.90150735096E+03 0.  0.
        2    1    3    3  502    0 -0.39428587376E+03 -0.16276917866E+03  0.15434204360E+03  0.45362608192E+03  0.25500000920E-02 0.  1.
       -2    1    3    3    0  502  0.39428587376E+03  0.16276917866E+03 -0.13707863506E+03  0.44804654665E+03  0.25500000920E-02 0. -1.
</event>
<event>
 5   0  0.1206541E-02  0.9170673E+03  0.7818609E-02  0.9404494E-01
       -1   -1    0    0    0  501  0.00000000000E+00  0.00000000000E+00  0.18638981643E+03  0.18638981650E+03  0.50400001928E-02 0. -1.
        1   -1    0    0  501    0  0.00000000000E+00  0.00000000000E+00 -0.11280289213E+04  0.11280289213E+04  0.50400001928E-02 0.  1.
    10030    2    1    2    0    0  0.00000000000E+00  0.00000000000E+00 -0.94163910483E+03  0.13144187378E+04  0.91706729004E+03 0.  0.
        3    1    3    3  502    0  0.43153355269E+03 -0.13727008480E+03 -0.36757517059E+03  0.58324591684E+03  0.10100000352E+00 0. -1.
       -3    1    3    3    0  502 -0.43153355269E+03  0.13727008480E+03 -0.57406393424E+03  0.73117282093E+03  0.10100000352E+00 0.  1.
</event>
<event>
 5   0  0.1177712E-02  0.8952766E+03  0.7818609E-02  0.9431505E-01
       -1   -1    0    0    0  501  0.00000000000E+00  0.00000000000E+00  0.92310281935E+03  0.92310281936E+03  0.50400001928E-02 0. -1.
        1   -1    0    0  501    0  0.00000000000E+00  0.00000000000E+00 -0.21707227975E+03  0.21707227981E+03  0.50400001928E-02 0.  1.
    10030    2    1    2    0    0  0.00000000000E+00  0.00000000000E+00  0.70603053960E+03  0.11401750992E+04  0.89527656840E+03 0.  0.
        5    1    3    3  502    0 -0.33614660630E+03 -0.53581796176E+02  0.72320395538E+03  0.79931946109E+03  0.46999998093E+01 0. -1.
       -5    1    3    3    0  502  0.33614660630E+03  0.53581796176E+02 -0.17173415776E+02  0.34085563808E+03  0.46999998093E+01 0.  1.
</event>
<event>
 5   0  0.2008770E-02  0.8993678E+03  0.7818609E-02  0.9426372E-01
        2   -1    0    0  501    0  0.00000000000E+00  0.00000000000E+00  0.11377975775E+04  0.11377975775E+04  0.25500000920E-02 0.  1.
       -2   -1    0    0    0  501  0.00000000000E+00  0.00000000000E+00 -0.17772545785E+03  0.17772545787E+03  0.25500000920E-02 0. -1.
    10030    2    1    2    0    0  0.00000000000E+00  0.00000000000E+00  0.96007211965E+03  0.13155230354E+04  0.89936776775E+03 0.  0.
        1    1    3    3  502    0 -0.11874074819E+03 -0.36667163436E+03  0.14117675072E+03  0.41046111594E+03  0.50400001928E-02 0. -1.
       -1    1    3    3    0  502  0.11874074819E+03  0.36667163436E+03  0.81889536894E+03  0.90506191944E+03  0.50400001928E-02 0.  1.
</event>
<event>
 5   0  0.7893875E-03  0.8918230E+03  0.7818609E-02  0.9435861E-01
        3   -1    0    0  501    0  0.00000000000E+00  0.00000000000E+00  0.57019145655E+03  0.57019146550E+03  0.10100000352E+00 0. -1.
       -3   -1    0    0    0  501  0.00000000000E+00  0.00000000000E+00 -0.34871979901E+03  0.34871981364E+03  0.10100000352E+00 0.  1.
    10030    2    1    2    0    0  0.00000000000E+00  0.00000000000E+00  0.22147165754E+03  0.91891127913E+03  0.89182298906E+03 0.  0.
        4    1    3    3  502    0  0.72329945683E+01  0.18460767057E+03 -0.30742741717E+03  0.35867190853E+03  0.12699999809E+01 0.  1.
       -4    1    3    3    0  502 -0.72329945683E+01 -0.18460767057E+03  0.52889907471E+03  0.56023937060E+03  0.12699999809E+01 0. -1.
</event>
<event>
 5   0  0.1177712E-02  0.9195988E+03  0.7818609E-02  0.9401408E-01
        1   -1    0    0  501    0  0.00000000000E+00  0.00000000000E+00  0.28589884827E+03  0.28589884832E+03  0.50400001928E-02 0. -1.
       -1   -1    0    0    0  501  0.00000000000E+00  0.00000000000E+00 -0.73947647398E+03  0.73947647400E+03  0.50400001928E-02 0.  1.
    10030    2    1    2    0    0  0.00000000000E+00  0.00000000000E+00 -0.45357762571E+03  0.10253753223E+04  0.91959876526E+03 0.  0.
        5    1    3    3  502    0  0.83353293345E+02 -0.20035740592E+03 -0.67875567590E+03  0.71261646008E+03  0.46999998093E+01 0.  1.
       -5    1    3    3    0  502 -0.83353293345E+02  0.20035740592E+03  0.22517805019E+03  0.31275886223E+03  0.46999998093E+01 0. -1.
</event>
<event>
 5   0  0.7893875E-03  0.8959781E+03  0.7818609E-02  0.9430623E-01
       -3   -1    0    0    0  501  0.00000000000E+00  0.00000000000E+00  0.63248729243E+03  0.63248730050E+03  0.10100000352E+00 0. -1.
        3   -1    0    0  501    0  0.00000000000E+00  0.00000000000E+00 -0.31730939220E+03  0.31730940828E+03  0.10100000352E+00 0.  1.
    10030    2    1    2    0    0  0.00000000000E+00  0.00000000000E+00  0.31517790023E+03  0.94979670877E+03  0.89597805732E+03 0.  0.
        3    1    3    3  502    0 -0.15135979150E+03 -0.30167439936E+03 -0.15468476278E+03  0.37127431335E+03  0.10100000352E+00 0.  1.
       -3    1    3    3    0  502  0.15135979150E+03  0.30167439936E+03  0.46986266301E+03  0.57852239543E+03  0.10100000352E+00 0. -1.
</event>
<event>
 5   0  0.1968763E-02  0.8849326E+03  0.7818609E-02  0.9444615E-01
       -2   -1    0    0    0  501  0.00000000000E+00  0.00000000000E+00  0.14182217703E+03  0.14182217705E+03  0.25500000920E-02 0. -1.
        2   -1    0    0  501    0  0.00000000000E+00  0.00000000000E+00 -0.13804358077E+04  0.13804358077E+04  0.25500000920E-02 0.  1.
    10030    2    1    2    0    0  0.00000000000E+00  0.00000000000E+00 -0.12386136306E+04  0.15222579847E+04  0.88493256580E+03 0.  0.
        2    1    3    3  502    0 -0.17903475717E+03 -0.24719610620E+03 -0.11703528110E+04  0.12094978551E+04  0.25500000920E-02 0.  1.
       -2    1    3    3    0  502  0.17903475717E+03  0.24719610620E+03 -0.68260819639E+02  0.31276012965E+03  0.25500000920E-02 0. -1.
</event>
<event>
 5   0  0.1162839E-02  0.9026239E+03  0.7818609E-02  0.9422307E-01
        1   -1    0    0  501    0  0.00000000000E+00  0.00000000000E+00  0.14091740747E+04  0.14091740747E+04  0.50400001928E-02 0.  1.
       -1   -1    0    0    0  501  0.00000000000E+00  0.00000000000E+00 -0.14454033288E+03  0.14454033297E+03  0.50400001928E-02 0. -1.
    10030    2    1    2    0    0  0.00000000000E+00  0.00000000000E+00  0.12646337418E+04  0.15537144076E+04  0.90262393037E+03 0.  0.
        2    1    3    3  502    0 -0.19985785364E+03 -0.77459369963E+02  0.13159677970E+04  0.13333095509E+04  0.25500000920E-02 0.  1.
       -2    1    3    3    0  502  0.19985785364E+03  0.77459369963E+02 -0.51334055232E+02  0.22040485678E+03  0.25500000920E-02 0. -1.
</event>
<event>
 5   0  0.2041861E-02  0.9031297E+03  0.7818609E-02  0.9421678E-01
        2   -1    0    0  501    0  0.00000000000E+00  0.00000000000E+00  0.42708030695E+03  0.42708030695E+03  0.25500000920E-02 0.  1.
       -2   -1    0    0    0  501  0.00000000000E+00  0.00000000000E+00 -0.47745307144E+03  0.47745307145E+03  0.25500000920E-02 0. -1.
    10030    2    1    2    0    0  0.00000000000E+00  0.00000000000E+00 -0.50372764497E+02  0.90453337840E+03  0.90312967908E+03 0.  0.
        5    1    3    3  502    0 -0.35708254106E+03  0.17937790116E+03  0.18538868447E+03  0.44053992654E+03  0.46999998093E+01 0.  1.
       -5    1    3    3    0  502  0.35708254106E+03 -0.17937790116E+03 -0.23576144896E+03  0.46399345186E+03  0.46999998093E+01 0. -1.
</event>
<event>
 5   0  0.1924218E-02  0.8570358E+03  0.7818609E-02  0.9480942E-01
       -2   -1    0    0    0  501  0.00000000000E+00  0.00000000000E+00  0.24024069622E+03  0.24024069624E+03  0.25500000920E-02 0.  1.
        2   -1    0    0  501    0  0.00000000000E+00  0.00000000000E+00 -0.76434835987E+03  0.76434835988E+03  0.25500000920E-02 0. -1.
    10030    2    1    2    0    0  0.00000000000E+00  0.00000000000E+00 -0.52410766365E+03  0.10045890561E+04  0.85703578022E+03 0.  0.
        4    1    3    3  502    0  0.85678425248E+01  0.42798760618E+03 -0.23922905030E+03  0.49038653160E+03  0.12699999809E+01 0.  1.
       -4    1    3    3    0  502 -0.85678425248E+01 -0.42798760618E+03 -0.28487861335E+03  0.51420252451E+03  0.12699999809E+01 0. -1.
</event>
<event>
 5   0  0.1924218E-02  0.8923178E+03  0.7818609E-02  0.9435236E-01
        2   -1    0    0  501    0  0.00000000000E+00  0.00000000000E+00  0.10115784042E+04  0.10115784042E+04  0.25500000920E-02 0. -1.
       -2   -1    0    0    0  501  0.00000000000E+00  0.00000000000E+00 -0.19677937158E+03  0.19677937159E+03  0.25500000920E-02 0.  1.
    10030    2    1    2    0    0  0.00000000000E+00  0.00000000000E+00  0.81479903267E+03  0.12083577758E+04  0.89231779698E+03 0.  0.
        4    1    3    3  502    0  0.77708839181E+02  0.25888788812E+03 -0.73275845358E+02  0.28005814524E+03  0.12699999809E+01 0.  1.
       -4    1    3    3    0  502 -0.77708839181E+02 -0.25888788812E+03  0.88807487802E+03  0.92829963060E+03  0.12699999809E+01 0. -1.
</event>
<event>
 5   0  0.1177712E-02  0.9367661E+03  0.7818609E-02  0.9380754E-01
       -1   -1    0    0    0  501  0.00000000000E+00  0.00000000000E+00  0.54708398549E+03  0.54708398551E+03  0.50400001928E-02 0.  1.
        1   -1    0    0  501    0  0.00000000000E+00  0.00000000000E+00 -0.40100363663E+03  0.40100363666E+03  0.50400001928E-02 0. -1.
    10030    2    1    2    0    0  0.00000000000E+00  0.00000000000E+00  0.14608034886E+03  0.94808762217E+03  0.93676607058E+03 0.  0.
        5    1    3    3  502    0  0.56285632080E+02 -0.40745021675E+03  0.29974925643E+03  0.50897490924E+03  0.46999998093E+01 0.  1.
       -5    1    3    3    0  502 -0.56285632080E+02  0.40745021675E+03 -0.15366890757E+03  0.43911271293E+03  0.46999998093E+01 0. -1.
</event>
<event>
 5   0  0.1177712E-02  0.8854673E+03  0.7818609E-02  0.9443933E-01
        1   -1    0    0  501    0  0.00000000000E+00  0.00000000000E+00  0.10903361739E+04  0.10903361739E+04  0.50400001928E-02 0. -1.
       -1   -1    0    0    0  501  0.00000000000E+00  0.00000000000E+00 -0.17977306671E+03  0.17977306678E+03  0.50400001928E-02 0.  1.
    10030    2    1    2    0    0  0.00000000000E+00  0.00000000000E+00  0.91056310723E+03  0.12701092407E+04  0.88546728406E+03 0.  0.
        5    1    3    3  502    0 -0.13909037555E+03  0.19837854361E+03 -0.76201336099E+02  0.25402541754E+03  0.46999998093E+01 0.  1.
       -5    1    3    3    0  502  0.13909037555E+03 -0.19837854361E+03  0.98676444332E+03  0.10160838232E+04  0.46999998093E+01 0. -1.
</event>
<event>
 5   0  0.1177712E-02  0.9023963E+03  0.7818609E-02  0.9422591E-01
        1   -1    0    0  501    0  0.00000000000E+00  0.00000000000E+00  0.39388014381E+03  0.39388014385E+03  0.50400001928E-02 0.  1.
       -1   -1    0    0    0  501  0.00000000000E+00  0.00000000000E+00 -0.51685709941E+03  0.51685709943E+03  0.50400001928E-02 0. -1.
    10030    2    1    2    0    0  0.00000000000E+00  0.00000000000E+00 -0.12297695559E+03  0.91073724328E+03  0.90239625148E+03 0.  0.
        5    1    3    3  502    0  0.19107141124E+02 -0.25669804894E+03 -0.43545179802E+03  0.50586493214E+03  0.46999998093E+01 0. -1.
       -5    1    3    3    0  502 -0.19107141124E+02  0.25669804894E+03  0.31247484243E+03  0.40487231113E+03  0.46999998093E+01 0.  1.
</event>
<event>
 5   0  0.1924218E-02  0.9193678E+03  0.7818609E-02  0.9401689E-01
       -2   -1    0    0    0  501  0.00000000000E+00  0.00000000000E+00  0.13441101463E+03  0.13441101465E+03  0.25500000920E-02 0. -1.
        2   -1    0    0  501    0  0.00000000000E+00  0.00000000000E+00 -0.15721129392E+04  0.15721129392E+04  0.25500000920E-02 0.  1.
    10030    2    1    2    0    0  0.00000000000E+00  0.00000000000E+00 -0.14377019245E+04  0.17065239538E+04  0.91936781602E+03 0.  0.
        4    1    3    3  502    0 -0.34794506685E+03 -0.27904485375E+03 -0.92534674179E+03  0.10272292857E+04  0.12699999809E+01 0. -1.
       -4    1    3    3    0  502  0.34794506685E+03  0.27904485375E+03 -0.51235518274E+03  0.67929466811E+03  0.12699999809E+01 0.  1.
</event>
<event>
 5   0  0.2041861E-02  0.9070126E+03  0.7818609E-02  0.9416858E-01
       -2   -1    0    0    0  501  0.00000000000E+00  0.00000000000E+00  0.22763393974E+03  0.22763393975E+03  0.25500000920E-02 0.  1.
        2   -1    0    0  501    0  0.00000000000E+00  0.00000000000E+00 -0.90350311870E+03  0.90350311870E+03  0.25500000920E-02 0. -1.
    10030    2    1    2    0    0  0.00000000000E+00  0.00000000000E+00 -0.67586917896E+03  0.11311370585E+04  0.90701262282E+03 0.  0.
        5    1    3    3  502    0  0.16663366803E+03 -0.23253118496E+03 -0.77674495045E+03  0.82776345616E+03  0.46999998093E+01 0.  1.
       -5    1    3    3    0  502 -0.16663366803E+03  0.23253118496E+03  0.10087577149E+03  0.30337360230E+03  0.46999998093E+01 0. -1.
</event>
<event>
 5   0  0.1206541E-02  0.9240205E+03  0.7818609E-02  0.9396043E-01
        1   -1    0    0  501    0  0.00000000000E+00  0.00000000000E+00  0.42820878540E+03  0.42820878543E+03  0.50400001928E-02 0.  1.
       -1   -1    0    0    0  501  0.00000000000E+00  0.00000000000E+00 -0.49847987809E+03  0.49847987811E+03  0.50400001928E-02 0. -1.
    10030    2    1    2    0    0  0.00000000000E+00  0.00000000000E+00 -0.70271092685E+02  0.92668866355E+03  0.92402048282E+03 0.  0.
        3    1    3    3  502    0 -0.23515229843E+03 -0.25667390479E+03  0.26951019874E+03  0.44024294915E+03  0.10100000352E+00 0.  1.
       -3    1    3    3    0  502  0.23515229843E+03  0.25667390479E+03 -0.33978129142E+03  0.48644571440E+03  0.10100000352E+00 0. -1.
</event>
<event>
 5   0  0.1924218E-02  0.9006691E+03  0.7818609E-02  0.9424745E-01
       -2   -1    0    0    0  501  0.00000000000E+00  0.00000000000E+00  0.19079685922E+03  0.19079685924E+03  0.25500000920E-02 0. -1.
        2   -1    0    0  501    0  0.00000000000E+00  0.00000000000E+00 -0.10629168081E+04  0.10629168081E+04  0.25500000920E-02 0.  1.
    10030    2    1    2    0    0  0.00000000000E+00  0.00000000000E+00 -0.87211994887E+03  0.12537136673E+04  0.90066905934E+03 0.  0.
        4    1    3    3  502    0 -0.21641872577E+03 -0.33505691087E+03 -0.72704506751E+03  0.82927458751E+03  0.12699999809E+01 0.  1.
       -4    1    3    3    0  502  0.21641872577E+03  0.33505691087E+03 -0.14507488136E+03  0.42443907983E+03  0.12699999809E+01 0. -1.
</event>
<event>
 5   0  0.2008770E-02  0.9077668E+03  0.7818609E-02  0.9415924E-01
        2   -1    0    0  501    0  0.00000000000E+00  0.00000000000E+00  0.87228527237E+03  0.87228527238E+03  0.25500000920E-02 0. -1.
       -2   -1    0    0    0  501  0.00000000000E+00  0.00000000000E+00 -0.23617288932E+03  0.23617288934E+03  0.25500000920E-02 0.  1.
    10030    2    1    2    0    0  0.00000000000E+00  0.00000000000E+00  0.63611238305E+03  0.11084581617E+04  0.90776678305E+03 0.  0.
        1    1    3    3  502    0  0.29424425022E+03  0.16698239185E+03  0.68751657089E+03  0.76625180799E+03  0.50400001928E-02 0. -1.
       -1    1    3    3    0  502 -0.29424425022E+03 -0.16698239185E+03 -0.51404187840E+02  0.34220635372E+03  0.50400001928E-02 0.  1.
</event>
<event>
 5   0  0.7893875E-03  0.9090855E+03  0.7818609E-02  0.9414295E-01
       -3   -1    0    0    0  501  0.00000000000E+00  0.00000000000E+00  0.10256818615E+04  0.10256818665E+04  0.10100000352E+00 0. -1.
        3   -1    0    0  501    0  0.00000000000E+00  0.00000000000E+00 -0.20143583615E+03  0.20143586147E+03  0.10100000352E+00 0.  1.
    10030    2    1    2    0    0  0.00000000000E+00  0.00000000000E+00  0.82424602538E+03  0.12271177280E+04  0.90908547891E+03 0.  0.
        3    1    3    3  502    0 -0.10959161530E+03  0.43103916375E+03  0.28546818522E+03  0.52848574040E+03  0.10100000352E+00 0.  1.
       -3    1    3    3    0  502  0.10959161530E+03 -0.43103916375E+03  0.53877784016E+03  0.69863198758E+03  0.10100000352E+00 0. -1.
</event>
<event>
 5   0  0.1226424E-02  0.9343827E+03  0.7818609E-02  0.9383593E-01
       -1   -1    0    0    0  501  0.00000000000E+00  0.00000000000E+00  0.23306318832E+03  0.23306318837E+03  0.50400001928E-02 0. -1.
        1   -1    0    0  501    0  0.00000000000E+00  0.00000000000E+00 -0.93651757956E+03  0.93651757958E+03  0.50400001928E-02 0.  1.
    10030    2    1    2    0    0  0.00000000000E+00  0.00000000000E+00 -0.70345439125E+03  0.11695807679E+04  0.93438273324E+03 0.  0.
        1    1    3    3  502    0 -0.26384360419E+03 -0.10420066760E+03 -0.81637573948E+03  0.86425723870E+03  0.50400001928E-02 0.  1.
       -1    1    3    3    0  502  0.26384360419E+03  0.10420066760E+03  0.11292134824E+03  0.30532352925E+03  0.50400001928E-02 0. -1.
</event>
<event>
 5   0  0.2008643E-02  0.9066356E+03  0.7818609E-02  0.9417324E-01
        2   -1    0    0  501    0  0.00000000000E+00  0.00000000000E+00  0.15887540453E+04  0.15887540453E+04  0.25500000920E-02 0.  1.
       -2   -1    0    0    0  501  0.00000000000E+00  0.00000000000E+00 -0.12934476653E+03  0.12934476655E+03  0.25500000920E-02 0. -1.
    10030    2    1    2    0    0  0.00000000000E+00  0.00000000000E+00  0.14594092787E+04  0.17180988118E+04  0.90663558517E+03 0.  0.
        3    1    3    3  502    0 -0.27073994926E+02  0.33131047410E+03  0.14562618111E+03  0.36291407561E+03  0.10100000352E+00 0. -1.
       -3    1    3    3    0  502  0.27073994926E+02 -0.33131047410E+03  0.13137830976E+04  0.13551847362E+04  0.10100000352E+00 0.  1.
</event>
<event>
 5   0  0.1206541E-02  0.7573473E+03  0.7818609E-02  0.9623894E-01
        1   -1    0    0  501    0  0.00000000000E+00  0.00000000000E+00  0.10428505406E+04  0.10428505407E+04  0.50400001928E-02 0.  1.
       -1   -1    0    0    0  501  0.00000000000E+00  0.00000000000E+00 -0.13750171989E+03  0.13750171998E+03  0.50400001928E-02 0. -1.
    10030    2    1    2    0    0  0.00000000000E+00  0.00000000000E+00  0.90534882075E+03  0.11803522606E+04  0.75734732584E+03 0.  0.
        3    1    3    3  502    0  0.33291185276E+03 -0.17417856088E+02  0.73260415871E+03  0.80488666716E+03  0.10100000352E+00 0.  1.
       -3    1    3    3    0  502 -0.33291185276E+03  0.17417856088E+02  0.17274466205E+03  0.37546559348E+03  0.10100000352E+00 0. -1.
</event>
<event>
 5   0  0.1177712E-02  0.8817423E+03  0.7818609E-02  0.9448697E-01
        1   -1    0    0  501    0  0.00000000000E+00  0.00000000000E+00  0.73721144160E+03  0.73721144162E+03  0.50400001928E-02 0. -1.
       -1   -1    0    0    0  501  0.00000000000E+00  0.00000000000E+00 -0.26365214952E+03  0.26365214957E+03  0.50400001928E-02 0.  1.
    10030    2    1    2    0    0  0.00000000000E+00  0.00000000000E+00  0.47355929208E+03  0.10008635912E+04  0.88174232350E+03 0.  0.
        5    1    3    3  502    0 -0.18445712197E+03  0.26292058191E+03  0.57955962913E+03  0.66261837882E+03  0.46999998093E+01 0. -1.
       -5    1    3    3    0  502  0.18445712197E+03 -0.26292058191E+03 -0.10600033705E+03  0.33824521237E+03  0.46999998093E+01 0.  1.
</event>
<event>
 5   0  0.7893875E-03  0.9133984E+03  0.7818609E-02  0.9408986E-01
       -3   -1    0    0    0  501  0.00000000000E+00  0.00000000000E+00  0.45547569361E+03  0.45547570480E+03  0.10100000352E+00 0. -1.
        3   -1    0    0  501    0  0.00000000000E+00  0.00000000000E+00 -0.45792599309E+03  0.45792600423E+03  0.10100000352E+00 0.  1.
    10030    2    1    2    0    0  0.00000000000E+00  0.00000000000E+00 -0.24502994869E+01  0.91340170904E+03  0.91339842243E+03 0.  0.
        3    1    3    3  502    0  0.24838997095E+03  0.13105622050E+03 -0.36136648604E+03  0.45766697285E+03  0.10100000352E+00 0.  1.
       -3    1    3    3    0  502 -0.24838997095E+03 -0.13105622050E+03  0.35891618656E+03  0.45573473619E+03  0.10100000352E+00 0. -1.
</event>
<event>
 5   0  0.1226424E-02  0.9102344E+03  0.7818609E-02  0.9412878E-01
        1   -1    0    0  501    0  0.00000000000E+00  0.00000000000E+00  0.16393923316E+04  0.16393923316E+04  0.50400001928E-02 0.  1.
       -1   -1    0    0    0  501  0.00000000000E+00  0.00000000000E+00 -0.12634662062E+03  0.12634662072E+03  0.50400001928E-02 0. -1.
    10030    2    1    2    0    0  0.00000000000E+00  0.00000000000E+00  0.15130457110E+04  0.17657389523E+04  0.91023443369E+03 0.  0.
        1    1    3    3  502    0 -0.90697778412E+02 -0.18583084815E+03 -0.29957363503E+02  0.20894170188E+03  0.50400001928E-02 0. -1.
       -1    1    3    3    0  502  0.90697778412E+02  0.18583084815E+03  0.15430030745E+04  0.15567972505E+04  0.50400001928E-02 0.  1.
</event>
<event>
 5   0  0.1226424E-02  0.9039121E+03  0.7818609E-02  0.9420704E-01
        1   -1    0    0  501    0  0.00000000000E+00  0.00000000000E+00  0.69378270173E+03  0.69378270175E+03  0.50400001928E-02 0. -1.
       -1   -1    0    0    0  501  0.00000000000E+00  0.00000000000E+00 -0.29442112282E+03  0.29442112286E+03  0.50400001928E-02 0.  1.
    10030    2    1    2    0    0  0.00000000000E+00  0.00000000000E+00  0.39936157891E+03  0.98820382461E+03  0.90391212420E+03 0.  0.
        1    1    3    3  502    0  0.42936666377E+02 -0.21392375696E+03 -0.23302799102E+03  0.31923185263E+03  0.50400001928E-02 0.  1.
       -1    1    3    3    0  502 -0.42936666377E+02  0.21392375696E+03  0.63238956993E+03  0.66897197198E+03  0.50400001928E-02 0. -1.
</event>
<event>
 5   0  0.7893875E-03  0.9025941E+03  0.7818609E-02  0.9422344E-01
        3   -1    0    0  501    0  0.00000000000E+00  0.00000000000E+00  0.14051162946E+03  0.14051166576E+03  0.10100000352E+00 0.  1.
       -3   -1    0    0    0  501  0.00000000000E+00  0.00000000000E+00 -0.14494813934E+04  0.14494813969E+04  0.10100000352E+00 0. -1.
    10030    2    1    2    0    0  0.00000000000E+00  0.00000000000E+00 -0.13089697639E+04  0.15899930627E+04  0.90259409284E+03 0.  0.
        3    1    3    3  502    0 -0.28100872425E+03  0.13646386162E+03 -0.12282326152E+04  0.12673372305E+04  0.10100000352E+00 0. -1.
       -3    1    3    3    0  502  0.28100872425E+03 -0.13646386162E+03 -0.80737148754E+02  0.32265583216E+03  0.10100000352E+00 0.  1.
</event>
<event>
 5   0  0.2008643E-02  0.9349855E+03  0.7818609E-02  0.9382874E-01
       -2   -1    0    0    0  501  0.00000000000E+00  0.00000000000E+00  0.89684148761E+03  0.89684148761E+03  0.25500000920E-02 0.  1.
        2   -1    0    0  501    0  0.00000000000E+00  0.00000000000E+00 -0.24368795023E+03  0.24368795024E+03  0.25500000920E-02 0. -1.
    10030    2    1    2    0    0  0.00000000000E+00  0.00000000000E+00  0.65315353738E+03  0.11405294379E+04  0.93498548396E+03 0.  0.
        3    1    3    3  502    0  0.14463072631E+03 -0.47745284507E+02  0.86572766717E+03  0.87902335754E+03  0.10100000352E+00 0.  1.
       -3    1    3    3    0  502 -0.14463072631E+03  0.47745284507E+02 -0.21257412979E+03  0.26150608032E+03  0.10100000352E+00 0. -1.
</event>
<event>
 5   0  0.7893875E-03  0.9121157E+03  0.7818609E-02  0.9410562E-01
       -3   -1    0    0    0  501  0.00000000000E+00  0.00000000000E+00  0.39391774942E+03  0.39391776236E+03  0.10100000352E+00 0.  1.
        3   -1    0    0  501    0  0.00000000000E+00  0.00000000000E+00 -0.52800041644E+03  0.52800042610E+03  0.10100000352E+00 0. -1.
    10030    2    1    2    0    0  0.00000000000E+00  0.00000000000E+00 -0.13408266702E+03  0.92191818846E+03  0.91211566406E+03 0.  0.
        5    1    3    3  502    0  0.35668861264E+03  0.12325615523E+03  0.19173321655E+03  0.42332323645E+03  0.46999998093E+01 0.  1.
       -5    1    3    3    0  502 -0.35668861264E+03 -0.12325615523E+03 -0.32581588357E+03  0.49859495201E+03  0.46999998093E+01 0. -1.
</event>
<event>
 5   0  0.1226424E-02  0.9181541E+03  0.7818609E-02  0.9403168E-01
       -1   -1    0    0    0  501  0.00000000000E+00  0.00000000000E+00  0.46243599403E+03  0.46243599406E+03  0.50400001928E-02 0.  1.
        1   -1    0    0  501    0  0.00000000000E+00  0.00000000000E+00 -0.45574250466E+03  0.45574250468E+03  0.50400001928E-02 0. -1.
    10030    2    1    2    0    0  0.00000000000E+00  0.00000000000E+00  0.66934893789E+01  0.91817849874E+03  0.91815410077E+03 0.  0.
        1    1    3    3  502    0  0.15435079717E+03  0.18733284906E+03 -0.38632240045E+03  0.45624857483E+03  0.50400001928E-02 0. -1.
       -1    1    3    3    0  502 -0.15435079717E+03 -0.18733284906E+03  0.39301588983E+03  0.46192992391E+03  0.50400001928E-02 0.  1.
</event>
<event>
 5   0  0.1162839E-02  0.9065843E+03  0.7818609E-02  0.9417388E-01
       -1   -1    0    0    0  501  0.00000000000E+00  0.00000000000E+00  0.20014449054E+03  0.20014449061E+03  0.50400001928E-02 0.  1.
        1   -1    0    0  501    0  0.00000000000E+00  0.00000000000E+00 -0.10266272767E+04  0.10266272767E+04  0.50400001928E-02 0. -1.
    10030    2    1    2    0    0  0.00000000000E+00  0.00000000000E+00 -0.82648278613E+03  0.12267717673E+04  0.90658434426E+03 0.  0.
        2    1    3    3  502    0 -0.30316129425E+03 -0.12415013451E+03 -0.83718593054E+03  0.89899961543E+03  0.25500000920E-02 0. -1.
       -2    1    3    3    0  502  0.30316129425E+03  0.12415013451E+03  0.10703144414E+02  0.32777215186E+03  0.25500000920E-02 0.  1.
</event>
<event>
 5   0  0.1206541E-02  0.8700643E+03  0.7818609E-02  0.9463796E-01
        1   -1    0    0  501    0  0.00000000000E+00  0.00000000000E+00  0.21616717207E+03  0.21616717213E+03  0.50400001928E-02 0. -1.
       -1   -1    0    0    0  501  0.00000000000E+00  0.00000000000E+00 -0.87549362392E+03  0.87549362393E+03  0.50400001928E-02 0.  1.
    10030    2    1    2    0    0  0.00000000000E+00  0.00000000000E+00 -0.65932645185E+03  0.10916607961E+04  0.87006432149E+03 0.  0.
        3    1    3    3  502    0 -0.19561885769E+03 -0.38563748424E+03 -0.26988461294E+03  0.50972612375E+03  0.10100000352E+00 0. -1.
       -3    1    3    3    0  502  0.19561885769E+03  0.38563748424E+03 -0.38944183891E+03  0.58193467230E+03  0.10100000352E+00 0.  1.
</event>
<event>
 5   0  0.1924218E-02  0.9071499E+03  0.7818609E-02  0.9416688E-01
        2   -1    0    0  501    0  0.00000000000E+00  0.00000000000E+00  0.40478306400E+03  0.40478306401E+03  0.25500000920E-02 0. -1.
       -2   -1    0    0    0  501  0.00000000000E+00  0.00000000000E+00 -0.50824812369E+03  0.50824812370E+03  0.25500000920E-02 0.  1.
    10030    2    1    2    0    0  0.00000000000E+00  0.00000000000E+00 -0.10346505969E+03  0.91303118770E+03  0.90714989453E+03 0.  0.
        4    1    3    3  502    0  0.25596668046E+03 -0.14416917488E+03 -0.39955212972E+03  0.49593065015E+03  0.12699999809E+01 0.  1.
       -4    1    3    3    0  502 -0.25596668046E+03  0.14416917488E+03  0.29608707003E+03  0.41710053755E+03  0.12699999809E+01 0. -1.
</event>
<event>
 5   0  0.2008643E-02  0.8888919E+03  0.7818609E-02  0.9439575E-01
       -2   -1    0    0    0  501  0.00000000000E+00  0.00000000000E+00  0.19250170920E+03  0.19250170922E+03  0.25500000920E-02 0.  1.
        2   -1    0    0  501    0  0.00000000000E+00  0.00000000000E+00 -0.10261321584E+04  0.10261321584E+04  0.25500000920E-02 0. -1.
    10030    2    1    2    0    0  0.00000000000E+00  0.00000000000E+00 -0.83363044922E+03  0.12186338676E+04  0.88889188179E+03 0.  0.
        3    1    3    3  502    0  0.12053343100E+03 -0.47180664014E+02  0.16608862795E+03  0.21057009659E+03  0.10100000352E+00 0.  1.
       -3    1    3    3    0  502 -0.12053343100E+03  0.47180664014E+02 -0.99971907717E+03  0.10080637711E+04  0.10100000352E+00 0. -1.
</event>
<event>
 5   0  0.1175993E-02  0.8818508E+03  0.7818609E-02  0.9448558E-01
        1   -1    0    0  501    0  0.00000000000E+00  0.00000000000E+00  0.12900090162E+04  0.12900090162E+04  0.50400001928E-02 0. -1.
       -1   -1    0    0    0  501  0.00000000000E+00  0.00000000000E+00 -0.15070840939E+03  0.15070840948E+03  0.50400001928E-02 0.  1.
    10030    2    1    2    0    0  0.00000000000E+00  0.00000000000E+00  0.11393006068E+04  0.14407174257E+04  0.88185079690E+03 0.  0.
        4    1    3    3  502    0  0.36084076790E+03 -0.15225785704E+03  0.90055917592E+03  0.98203714647E+03  0.12699999809E+01 0.  1.
       -4    1    3    3    0  502 -0.36084076790E+03  0.15225785704E+03  0.23874143086E+03  0.45868027919E+03  0.12699999809E+01 0. -1.
</event>
<event>
 5   0  0.1162839E-02  0.8812124E+03  0.7818609E-02  0.9449376E-01
        1   -1    0    0  501    0  0.00000000000E+00  0.00000000000E+00  0.84593638450E+03  0.84593638451E+03  0.50400001928E-02 0.  1.
       -1   -1    0    0    0  501  0.00000000000E+00  0.00000000000E+00 -0.22948988650E+03  0.22948988655E+03  0.50400001928E-02 0. -1.
    10030    2    1    2    0    0  0.00000000000E+00  0.00000000000E+00  0.61644649800E+03  0.10754262711E+04  0.88121244862E+03 0.  0.
        2    1    3    3  502    0  0.28914093357E+03 -0.17149362003E+03  0.65581341315E+03  0.73695574769E+03  0.25500000920E-02 0.  1.
       -2    1    3    3    0  502 -0.28914093357E+03  0.17149362003E+03 -0.39366915156E+02  0.33847052337E+03  0.25500000920E-02 0. -1.
</event>
<event>
 5   0  0.1162839E-02  0.8722117E+03  0.7818609E-02  0.9461001E-01
       -1   -1    0    0    0  501  0.00000000000E+00  0.00000000000E+00  0.10466943334E+03  0.10466943346E+03  0.50400001928E-02 0. -1.
        1   -1    0    0  501    0  0.00000000000E+00  0.00000000000E+00 -0.18170377740E+04  0.18170377740E+04  0.50400001928E-02 0.  1.
    10030    2    1    2    0    0  0.00000000000E+00  0.00000000000E+00 -0.17123683407E+04  0.19217072075E+04  0.87221170431E+03 0.  0.
        2    1    3    3  502    0  0.37364531248E+03 -0.15964518077E+03 -0.50718569980E+03  0.64987286247E+03  0.25500000920E-02 0. -1.
       -2    1    3    3    0  502 -0.37364531248E+03  0.15964518077E+03 -0.12051826409E+04  0.12718343450E+04  0.25500000920E-02 0.  1.
</event>
<event>
 5   0  0.1226424E-02  0.9031041E+03  0.7818609E-02  0.9421709E-01
        1   -1    0    0  501    0  0.00000000000E+00  0.00000000000E+00  0.88184376882E+03  0.88184376883E+03  0.50400001928E-02 0.  1.
       -1   -1    0    0    0  501  0.00000000000E+00  0.00000000000E+00 -0.23121924521E+03  0.23121924526E+03  0.50400001928E-02 0. -1.
    10030    2    1    2    0    0  0.00000000000E+00  0.00000000000E+00  0.65062452361E+03  0.11130630141E+04  0.90310409290E+03 0.  0.
        1    1    3    3  502    0  0.10905633583E+03 -0.31031357877E+03 -0.55985176095E+02  0.33364972879E+03  0.50400001928E-02 0. -1.
       -1    1    3    3    0  502 -0.10905633583E+03  0.31031357877E+03  0.70660969970E+03  0.77941328530E+03  0.50400001928E-02 0.  1.
</event>
<event>
 5   0  0.1177712E-02  0.9096988E+03  0.7818609E-02  0.9413538E-01
       -1   -1    0    0    0  501  0.00000000000E+00  0.00000000000E+00  0.31987410333E+03  0.31987410337E+03  0.50400001928E-02 0. -1.
        1   -1    0    0  501    0  0.00000000000E+00  0.00000000000E+00 -0.64677932846E+03  0.64677932848E+03  0.50400001928E-02 0.  1.
    10030    2    1    2    0    0  0.00000000000E+00  0.00000000000E+00 -0.32690522512E+03  0.96665343185E+03  0.90969875843E+03 0.  0.
        5    1    3    3  502    0 -0.10943240564E+03  0.20549440354E+03  0.25173016743E+03  0.34291918652E+03  0.46999998093E+01 0. -1.
       -5    1    3    3    0  502  0.10943240564E+03 -0.20549440354E+03 -0.57863539255E+03  0.62373424533E+03  0.46999998093E+01 0.  1.
</event>
<event>
 5   0  0.1175993E-02  0.8967665E+03  0.7818609E-02  0.9429633E-01
        1   -1    0    0  501    0  0.00000000000E+00  0.00000000000E+00  0.41009761772E+03  0.41009761775E+03  0.50400001928E-02 0.  1.
       -1   -1    0    0    0  501  0.00000000000E+00  0.00000000000E+00 -0.49024308963E+03  0.49024308966E+03  0.50400001928E-02 0. -1.
    10030    2    1    2    0    0  0.00000000000E+00  0.00000000000E+00 -0.80145471915E+02  0.90034070740E+03  0.89676646500E+03 0.  0.
        4    1    3    3  502    0  0.53900866711E+02  0.16560914688E+03 -0.45489530126E+03  0.48709654174E+03  0.12699999809E+01 0. -1.
       -4    1    3    3    0  502 -0.53900866711E+02 -0.16560914688E+03  0.37474982935E+03  0.41324416567E+03  0.12699999809E+01 0.  1.
</event>
<event>
 5   0  0.1924218E-02  0.8978777E+03  0.7818609E-02  0.9428238E-01
       -2   -1    0    0    0  501  0.00000000000E+00  0.00000000000E+00  0.29094440941E+03  0.29094440942E+03  0.25500000920E-02 0.  1.
        2   -1    0    0  501    0  0.00000000000E+00  0.00000000000E+00 -0.69273061720E+03  0.69273061720E+03  0.25500000920E-02 0. -1.
    10030    2    1    2    0    0  0.00000000000E+00  0.00000000000E+00 -0.40178620778E+03  0.98367502663E+03  0.89787772065E+03 0.  0.
        4    1    3    3  502    0 -0.33256684159E+03  0.26648097366E+03 -0.46223014123E+02  0.42866186369E+03  0.12699999809E+01 0.  1.
       -4    1    3    3    0  502  0.33256684159E+03 -0.26648097366E+03 -0.35556319366E+03  0.55501316294E+03  0.12699999809E+01 0. -1.
</event>
<event>
 5   0  0.7893875E-03  0.9190974E+03  0.7818609E-02  0.9402019E-01
        3   -1    0    0  501    0  0.00000000000E+00  0.00000000000E+00  0.69300662430E+03  0.69300663166E+03  0.10100000352E+00 0.  1.
       -3   -1    0    0    0  501  0.00000000000E+00  0.00000000000E+00 -0.30473736978E+03  0.30473738652E+03  0.10100000352E+00 0. -1.
    10030    2    1    2    0    0  0.00000000000E+00  0.00000000000E+00  0.38826925451E+03  0.99774401818E+03  0.91909744413E+03 0.  0.
        4    1    3    3  502    0 -0.27901475106E+02  0.44312543723E+03  0.65483118354E+02  0.44880763933E+03  0.12699999809E+01 0. -1.
       -4    1    3    3    0  502  0.27901475106E+02 -0.44312543723E+03  0.32278613616E+03  0.54893637885E+03  0.12699999809E+01 0.  1.
</event>
<event>
 5   0  0.1924218E-02  0.1164755E+04  0.7818609E-02  0.9144279E-01
        2   -1    0    0  501    0  0.00000000000E+00  0.00000000000E+00  0.42207289403E+03  0.42207289404E+03  0.25500000920E-02 0. -1.
       -2   -1    0    0    0  501  0.00000000000E+00  0.00000000000E+00 -0.80356581550E+03  0.80356581551E+03  0.25500000920E-02 0.  1.
    10030    2    1    2    0    0  0.00000000000E+00  0.00000000000E+00 -0.38149292148E+03  0.12256387095E+04  0.11647546511E+04 0.  0.
        4    1    3    3  502    0 -0.12208603013E+03  0.22404985232E+03 -0.74161703651E+03  0.78428360738E+03  0.12699999809E+01 0.  1.
       -4    1    3    3    0  502  0.12208603013E+03 -0.22404985232E+03  0.36012411503E+03  0.44135510216E+03  0.12699999809E+01 0. -1.
</event>
<event>
 5   0  0.1226424E-02  0.8696957E+03  0.7818609E-02  0.9464277E-01
        1   -1    0    0  501    0  0.00000000000E+00  0.00000000000E+00  0.82157379699E+03  0.82157379700E+03  0.50400001928E-02 0.  1.
       -1   -1    0    0    0  501  0.00000000000E+00  0.00000000000E+00 -0.23015906044E+03  0.23015906049E+03  0.50400001928E-02 0. -1.
    10030    2    1    2    0    0  0.00000000000E+00  0.00000000000E+00  0.59141473655E+03  0.10517328575E+04  0.86969570134E+03 0.  0.
        1    1    3    3  502    0 -0.20598815032E+03  0.17436102893E+03 -0.11663013999E+03  0.29399910895E+03  0.50400001928E-02 0. -1.
       -1    1    3    3    0  502  0.20598815032E+03 -0.17436102893E+03  0.70804487654E+03  0.75773374855E+03  0.50400001928E-02 0.  1.
</event>
<event>
 5   0  0.1175993E-02  0.8852697E+03  0.7818609E-02  0.9444185E-01
       -1   -1    0    0    0  501  0.00000000000E+00  0.00000000000E+00  0.18021790291E+03  0.18021790299E+03  0.50400001928E-02 0.  1.
        1   -1    0    0  501    0  0.00000000000E+00  0.00000000000E+00 -0.10871594650E+04  0.10871594650E+04  0.50400001928E-02 0. -1.
    10030    2    1    2    0    0  0.00000000000E+00  0.00000000000E+00 -0.90694156207E+03  0.12673773680E+04  0.88526967409E+03 0.  0.
        4    1    3    3  502    0 -0.47645806435E+02 -0.13291218329E+03  0.14711099948E+03  0.20390936811E+03  0.12699999809E+01 0.  1.
       -4    1    3    3    0  502  0.47645806435E+02  0.13291218329E+03 -0.10540525615E+04  0.10634679999E+04  0.12699999809E+01 0. -1.
</event>
<event>
 5   0  0.1924218E-02  0.9171556E+03  0.7818609E-02  0.9404387E-01
        2   -1    0    0  501    0  0.00000000000E+00  0.00000000000E+00  0.56492587444E+03  0.56492587445E+03  0.25500000920E-02 0. -1.
       -2   -1    0    0    0  501  0.00000000000E+00  0.00000000000E+00 -0.37224989903E+03  0.37224989904E+03  0.25500000920E-02 0.  1.
    10030    2    1    2    0    0  0.00000000000E+00  0.00000000000E+00  0.19267597541E+03  0.93717577349E+03  0.91715560234E+03 0.  0.
        4    1    3    3  502    0 -0.32362280947E+03  0.12644440122E+03 -0.20948093455E+03  0.40571391922E+03  0.12699999809E+01 0.  1.
       -4    1    3    3    0  502  0.32362280947E+03 -0.12644440122E+03  0.40215690996E+03  0.53146185427E+03  0.12699999809E+01 0. -1.
</event>
<event>
 5   0  0.1924218E-02  0.9104093E+03  0.7818609E-02  0.9412662E-01
       -2   -1    0    0    0  501  0.00000000000E+00  0.00000000000E+00  0.92776412708E+03  0.92776412709E+03  0.25500000920E-02 0. -1.
        2   -1    0    0  501    0  0.00000000000E+00  0.00000000000E+00 -0.22334479032E+03  0.22334479033E+03  0.25500000920E-02 0.  1.
    10030    2    1    2    0    0  0.00000000000E+00  0.00000000000E+00  0.70441933677E+03  0.11511089174E+04  0.91040932429E+03 0.  0.
        4    1    3    3  502    0 -0.22362221848E+02  0.41026329222E+03  0.10446214062E+03  0.42394573902E+03  0.12699999809E+01 0.  1.
       -4    1    3    3    0  502  0.22362221848E+02 -0.41026329222E+03  0.59995719615E+03  0.72716317840E+03  0.12699999809E+01 0. -1.
</event>
<event>
 5   0  0.2041861E-02  0.8874848E+03  0.7818609E-02  0.9441363E-01
        2   -1    0    0  501    0  0.00000000000E+00  0.00000000000E+00  0.91554502192E+03  0.91554502192E+03  0.25500000920E-02 0. -1.
       -2   -1    0    0    0  501  0.00000000000E+00  0.00000000000E+00 -0.21507112472E+03  0.21507112474E+03  0.25500000920E-02 0.  1.
    10030    2    1    2    0    0  0.00000000000E+00  0.00000000000E+00  0.70047389719E+03  0.11306161467E+04  0.88748475505E+03 0.  0.
        5    1    3    3  502    0 -0.39520004245E+03  0.19942720765E+03  0.38910664428E+03  0.58938981610E+03  0.46999998093E+01 0. -1.
       -5    1    3    3    0  502  0.39520004245E+03 -0.19942720765E+03  0.31136725291E+03  0.54122633055E+03  0.46999998093E+01 0.  1.
</event>
<event>
 5   0  0.2008770E-02  0.9767093E+03  0.7818609E-02  0.9334465E-01
       -2   -1    0    0    0  501  0.00000000000E+00  0.00000000000E+00  0.29242496116E+03  0.29242496117E+03  0.25500000920E-02 0.  1.
        2   -1    0    0  501    0  0.00000000000E+00  0.00000000000E+00 -0.81556050380E+03  0.81556050381E+03  0.25500000920E-02 0. -1.
    10030    2    1    2    0    0  0.00000000000E+00  0.00000000000E+00 -0.52313554265E+03  0.11079854650E+04  0.97670926821E+03 0.  0.
        1    1    3    3  502    0  0.82169379690E+02 -0.13745129132E+02 -0.80743961071E+03  0.81172622263E+03  0.50400001928E-02 0. -1.
       -1    1    3    3    0  502 -0.82169379690E+02  0.13745129132E+02  0.28430406806E+03  0.29625924235E+03  0.50400001928E-02 0.  1.
</event>
<event>
 5   0  0.1177712E-02  0.9346290E+03  0.7818609E-02  0.9383300E-01
        1   -1    0    0  501    0  0.00000000000E+00  0.00000000000E+00  0.10639778370E+04  0.10639778371E+04  0.50400001928E-02 0.  1.
       -1   -1    0    0    0  501  0.00000000000E+00  0.00000000000E+00 -0.20525128697E+03  0.20525128704E+03  0.50400001928E-02 0. -1.
    10030    2    1    2    0    0  0.00000000000E+00  0.00000000000E+00  0.85872655008E+03  0.12692291241E+04  0.93462895400E+03 0.  0.
        5    1    3    3  502    0 -0.13577341023E+03  0.31873672084E+03  0.85520765077E+03  0.92272950103E+03  0.46999998093E+01 0.  1.
       -5    1    3    3    0  502  0.13577341023E+03 -0.31873672084E+03  0.35188993045E+01  0.34649962307E+03  0.46999998093E+01 0. -1.
</event>
<event>
 5   0  0.2041861E-02  0.8702400E+03  0.7818609E-02  0.9463567E-01
        2   -1    0    0  501    0  0.00000000000E+00  0.00000000000E+00  0.96573942349E+03  0.96573942349E+03  0.25500000920E-02 0.  1.
       -2   -1    0    0    0  501  0.00000000000E+00  0.00000000000E+00 -0.19604607640E+03  0.19604607642E+03  0.25500000920E-02 0. -1.
    10030    2    1    2    0    0  0.00000000000E+00  0.00000000000E+00  0.76969334709E+03  0.11617854999E+04  0.87024002393E+03 0.  0.
        5    1    3    3  502    0  0.29396239349E+03  0.22859089581E+03  0.84424323447E+02  0.38186023990E+03  0.46999998093E+01 0.  1.
       -5    1    3    3    0  502 -0.29396239349E+03 -0.22859089581E+03  0.68526902364E+03  0.77992526000E+03  0.46999998093E+01 0. -1.
</event>
<event>
 5   0  0.7893875E-03  0.8849426E+03  0.7818609E-02  0.9444602E-01
       -4   -1    0    0    0  501  0.00000000000E+00  0.00000000000E+00  0.45093206386E+03  0.45093385227E+03  0.12699999809E+01 0.  1.
        4   -1    0    0  501    0  0.00000000000E+00  0.00000000000E+00 -0.43416566858E+03  0.43416752604E+03  0.12699999809E+01 0. -1.
    10030    2    1    2    0    0  0.00000000000E+00  0.00000000000E+00  0.16766395287E+02  0.88510137831E+03  0.88494256191E+03 0.  0.
        1    1    3    3  502    0 -0.89610621874E+01  0.13965428482E+03  0.42821704901E+03  0.45050356380E+03  0.50400001928E-02 0.  1.
       -1    1    3    3    0  502  0.89610621874E+01 -0.13965428482E+03 -0.41145065373E+03  0.43459781451E+03  0.50400001928E-02 0. -1.
</event>
<event>
 5   0  0.2041861E-02  0.9035430E+03  0.7818609E-02  0.9421163E-01
        2   -1    0    0  501    0  0.00000000000E+00  0.00000000000E+00  0.59139866183E+03  0.59139866183E+03  0.25500000920E-02 0. -1.
       -2   -1    0    0    0  501  0.00000000000E+00  0.00000000000E+00 -0.34510979390E+03  0.34510979391E+03  0.25500000920E-02 0.  1.
    10030    2    1    2    0    0  0.00000000000E+00  0.00000000000E+00  0.24628886792E+03  0.93650845574E+03  0.90354296036E+03 0.  0.
        5    1    3    3  502    0  0.16439793456E+03  0.16939222657E+03  0.52236596035E+03  0.57324400899E+03  0.46999998093E+01 0. -1.
       -5    1    3    3    0  502 -0.16439793456E+03 -0.16939222657E+03 -0.27607709243E+03  0.36326444675E+03  0.46999998093E+01 0.  1.
</event>
<event>
 5   0  0.1206541E-02  0.8784202E+03  0.7818609E-02  0.9452967E-01
       -1   -1    0    0    0  501  0.00000000000E+00  0.00000000000E+00  0.27037796315E+03  0.27037796320E+03  0.50400001928E-02 0. -1.
        1   -1    0    0  501    0  0.00000000000E+00  0.00000000000E+00 -0.71346617257E+03  0.71346617258E+03  0.50400001928E-02 0.  1.
    10030    2    1    2    0    0  0.00000000000E+00  0.00000000000E+00 -0.44308820942E+03  0.98384413578E+03  0.87842024236E+03 0.  0.
        3    1    3    3  502    0  0.40536561746E+03  0.16446999282E+03 -0.17767926547E+03  0.47216691322E+03  0.10100000352E+00 0. -1.
       -3    1    3    3    0  502 -0.40536561746E+03 -0.16446999282E+03 -0.26540894394E+03  0.51167722256E+03  0.10100000352E+00 0.  1.
</event>
<event>
 5   0  0.1162839E-02  0.9490046E+03  0.7818609E-02  0.9366315E-01
        1   -1    0    0  501    0  0.00000000000E+00  0.00000000000E+00  0.64219653068E+03  0.64219653070E+03  0.50400001928E-02 0.  1.
       -1   -1    0    0    0  501  0.00000000000E+00  0.00000000000E+00 -0.35059741564E+03  0.35059741567E+03  0.50400001928E-02 0. -1.
    10030    2    1    2    0    0  0.00000000000E+00  0.00000000000E+00  0.29159911504E+03  0.99279394637E+03  0.94900462383E+03 0.  0.
        2    1    3    3  502    0  0.25008383430E+03  0.36123782440E+03  0.33328319716E+03  0.55146385147E+03  0.25500000920E-02 0.  1.
       -2    1    3    3    0  502 -0.25008383430E+03 -0.36123782440E+03 -0.41684082119E+02  0.44133009490E+03  0.25500000920E-02 0. -1.
</event>
<event>
 5   0  0.1206541E-02  0.9248658E+03  0.7818609E-02  0.9395021E-01
       -1   -1    0    0    0  501  0.00000000000E+00  0.00000000000E+00  0.56175735454E+03  0.56175735456E+03  0.50400001928E-02 0. -1.
        1   -1    0    0  501    0  0.00000000000E+00  0.00000000000E+00 -0.38067006344E+03  0.38067006348E+03  0.50400001928E-02 0.  1.
    10030    2    1    2    0    0  0.00000000000E+00  0.00000000000E+00  0.18108729110E+03  0.94242741804E+03  0.92486584502E+03 0.  0.
        3    1    3    3  502    0 -0.37186322289E+03 -0.94005337917E+02  0.35376023589E+03  0.52179073851E+03  0.10100000352E+00 0. -1.
       -3    1    3    3    0  502  0.37186322289E+03  0.94005337917E+02 -0.17267294480E+03  0.42063667953E+03  0.10100000352E+00 0.  1.
</event>
<event>
 5   0  0.1206541E-02  0.9041573E+03  0.7818609E-02  0.9420400E-01
       -1   -1    0    0    0  501  0.00000000000E+00  0.00000000000E+00  0.59642705171E+03  0.59642705174E+03  0.50400001928E-02 0. -1.
        1   -1    0    0  501    0  0.00000000000E+00  0.00000000000E+00 -0.34266569732E+03  0.34266569735E+03  0.50400001928E-02 0.  1.
    10030    2    1    2    0    0  0.00000000000E+00  0.00000000000E+00  0.25376135440E+03  0.93909274909E+03  0.90415726862E+03 0.  0.
        3    1    3    3  502    0 -0.12627475535E+03  0.14228243377E+03  0.55283080651E+03  0.58464648774E+03  0.10100000352E+00 0. -1.
       -3    1    3    3    0  502  0.12627475535E+03 -0.14228243377E+03 -0.29906945211E+03  0.35444626135E+03  0.10100000352E+00 0.  1.
</event>
<event>
 5   0  0.1968763E-02  0.9123938E+03  0.7818609E-02  0.9410220E-01
        2   -1    0    0  501    0  0.00000000000E+00  0.00000000000E+00  0.89858347990E+03  0.89858347990E+03  0.25500000920E-02 0. -1.
       -2   -1    0    0    0  501  0.00000000000E+00  0.00000000000E+00 -0.23160411315E+03  0.23160411316E+03  0.25500000920E-02 0.  1.
    10030    2    1    2    0    0  0.00000000000E+00  0.00000000000E+00  0.66697936675E+03  0.11301875931E+04  0.91239384031E+03 0.  0.
        2    1    3    3  502    0 -0.41191776465E+03 -0.17181501258E+03  0.21650582379E+03  0.49605585888E+03  0.25500000920E-02 0.  1.
       -2    1    3    3    0  502  0.41191776465E+03  0.17181501258E+03  0.45047354296E+03  0.63413173418E+03  0.25500000920E-02 0. -1.
</event>
<event>
 5   0  0.1206541E-02  0.9171283E+03  0.7818609E-02  0.9404420E-01
       -1   -1    0    0    0  501  0.00000000000E+00  0.00000000000E+00  0.79051000492E+03  0.79051000494E+03  0.50400001928E-02 0.  1.
        1   -1    0    0  501    0  0.00000000000E+00  0.00000000000E+00 -0.26600685165E+03  0.26600685170E+03  0.50400001928E-02 0. -1.
    10030    2    1    2    0    0  0.00000000000E+00  0.00000000000E+00  0.52450315327E+03  0.10565168566E+04  0.91712829559E+03 0.  0.
        3    1    3    3  502    0  0.67397489205E+02 -0.42211193406E+03  0.45349531000E+03  0.62320053981E+03  0.10100000352E+00 0.  1.
       -3    1    3    3    0  502 -0.67397489205E+02  0.42211193406E+03  0.71007843274E+02  0.43331631683E+03  0.10100000352E+00 0. -1.
</event>
<event>
 5   0  0.1162839E-02  0.8877880E+03  0.7818609E-02  0.9440977E-01
       -1   -1    0    0    0  501  0.00000000000E+00  0.00000000000E+00  0.12955183908E+03  0.12955183918E+03  0.50400001928E-02 0.  1.
        1   -1    0    0  501    0  0.00000000000E+00  0.00000000000E+00 -0.15209502636E+04  0.15209502636E+04  0.50400001928E-02 0. -1.
    10030    2    1    2    0    0  0.00000000000E+00  0.00000000000E+00 -0.13913984245E+04  0.16505021028E+04  0.88778804652E+03 0.  0.
        2    1    3    3  502    0 -0.25662006517E+02 -0.33912080199E+03 -0.16534402110E+03  0.37815354321E+03  0.25500000920E-02 0.  1.
       -2    1    3    3    0  502  0.25662006517E+02  0.33912080199E+03 -0.12260544034E+04  0.12723485596E+04  0.25500000920E-02 0. -1.
</event>
<event>
 5   0  0.1226424E-02  0.9027335E+03  0.7818609E-02  0.9422171E-01
        1   -1    0    0  501    0  0.00000000000E+00  0.00000000000E+00  0.97344678889E+03  0.97344678891E+03  0.50400001928E-02 0.  1.
       -1   -1    0    0    0  501  0.00000000000E+00  0.00000000000E+00 -0.20928926532E+03  0.20928926538E+03  0.50400001928E-02 0. -1.
    10030    2    1    2    0    0  0.00000000000E+00  0.00000000000E+00  0.76415752357E+03  0.11827360543E+04  0.90273354501E+03 0.  0.
        1    1    3    3  502    0 -0.25630551905E+03 -0.51965632237E+02  0.86407068902E+03  0.90277965289E+03  0.50400001928E-02 0.  1.
       -1    1    3    3    0  502  0.25630551905E+03  0.51965632237E+02 -0.99913165447E+02  0.27995640140E+03  0.50400001928E-02 0. -1.
</event>
<event>
 5   0  0.2008770E-02  0.8712204E+03  0.7818609E-02  0.9462290E-01
       -2   -1    0    0    0  501  0.00000000000E+00  0.00000000000E+00  0.17318188746E+03  0.17318188748E+03  0.25500000920E-02 0.  1.
        2   -1    0    0  501    0  0.00000000000E+00  0.00000000000E+00 -0.10957049008E+04  0.10957049008E+04  0.25500000920E-02 0. -1.
    10030    2    1    2    0    0  0.00000000000E+00  0.00000000000E+00 -0.92252301337E+03  0.12688867883E+04  0.87122039195E+03 0.  0.
        1    1    3    3  502    0  0.72651203770E+02  0.10036121515E+03 -0.10695017424E+04  0.10766543308E+04  0.50400001928E-02 0. -1.
       -1    1    3    3    0  502 -0.72651203770E+02 -0.10036121515E+03  0.14697872904E+03  0.19223245754E+03  0.50400001928E-02 0.  1.
</event>
<event>
 5   0  0.1968763E-02  0.8626507E+03  0.7818609E-02  0.9473513E-01
       -2   -1    0    0    0  501  0.00000000000E+00  0.00000000000E+00  0.19084756633E+03  0.19084756635E+03  0.25500000920E-02 0.  1.
        2   -1    0    0  501    0  0.00000000000E+00  0.00000000000E+00 -0.97481756923E+03  0.97481756923E+03  0.25500000920E-02 0. -1.
    10030    2    1    2    0    0  0.00000000000E+00  0.00000000000E+00 -0.78397000290E+03  0.11656651356E+04  0.86265070734E+03 0.  0.
        2    1    3    3  502    0  0.90065201750E+02 -0.39883305597E+03 -0.57756571975E+03  0.70764518492E+03  0.25500000920E-02 0. -1.
       -2    1    3    3    0  502 -0.90065201750E+02  0.39883305597E+03 -0.20640428315E+03  0.45801995067E+03  0.25500000920E-02 0.  1.
</event>
<event>
 5   0  0.1206541E-02  0.9028442E+03  0.7818609E-02  0.9422033E-01
       -1   -1    0    0    0  501  0.00000000000E+00  0.00000000000E+00  0.43762835528E+03  0.43762835531E+03  0.50400001928E-02 0.  1.
        1   -1    0    0  501    0  0.00000000000E+00  0.00000000000E+00 -0.46565063769E+03  0.46565063772E+03  0.50400001928E-02 0. -1.
    10030    2    1    2    0    0  0.00000000000E+00  0.00000000000E+00 -0.28022282414E+02  0.90327899302E+03  0.90284422296E+03 0.  0.
        3    1    3    3  502    0  0.35603797970E+03 -0.26844100090E+03 -0.84460237176E+02  0.45382502776E+03  0.10100000352E+00 0. -1.
       -3    1    3    3    0  502 -0.35603797970E+03  0.26844100090E+03  0.56437954763E+02  0.44945396527E+03  0.10100000352E+00 0.  1.
</event>
<event>
 5   0  0.2008770E-02  0.8164283E+03  0.7818609E-02  0.9536538E-01
        2   -1    0    0  501    0  0.00000000000E+00  0.00000000000E+00  0.96876138575E+03  0.96876138575E+03  0.25500000920E-02 0.  1.
       -2   -1    0    0    0  501  0.00000000000E+00  0.00000000000E+00 -0.17201221805E+03  0.17201221807E+03  0.25500000920E-02 0. -1.
    10030    2    1    2    0    0  0.00000000000E+00  0.00000000000E+00  0.79674916770E+03  0.11407736038E+04  0.81642830606E+03 0.  0.
        1    1    3    3  502    0 -0.37964903226E+02  0.27068357615E+03  0.82202241839E+03  0.86627466120E+03  0.50400001928E-02 0.  1.
       -1    1    3    3    0  502  0.37964903226E+02 -0.27068357615E+03 -0.25273250692E+02  0.27449894262E+03  0.50400001928E-02 0. -1.
</event>
<event>
 5   0  0.1226424E-02  0.9036716E+03  0.7818609E-02  0.9421003E-01
        1   -1    0    0  501    0  0.00000000000E+00  0.00000000000E+00  0.51101290085E+03  0.51101290087E+03  0.50400001928E-02 0. -1.
       -1   -1    0    0    0  501  0.00000000000E+00  0.00000000000E+00 -0.39951160984E+03  0.39951160987E+03  0.50400001928E-02 0.  1.
    10030    2    1    2    0    0  0.00000000000E+00  0.00000000000E+00  0.11150129100E+03  0.91052451075E+03  0.90367159233E+03 0.  0.
        1    1    3    3  502    0 -0.69076739234E+02  0.36663457216E+03  0.31256205769E+03  0.48671094639E+03  0.50400001928E-02 0.  1.
       -1    1    3    3    0  502  0.69076739234E+02 -0.36663457216E+03 -0.20106076668E+03  0.42381356435E+03  0.50400001928E-02 0. -1.
</event>
<event>
 5   0  0.1206541E-02  0.8772056E+03  0.7818609E-02  0.9454533E-01
        1   -1    0    0  501    0  0.00000000000E+00  0.00000000000E+00  0.63712696612E+03  0.63712696614E+03  0.50400001928E-02 0. -1.
       -1   -1    0    0    0  501  0.00000000000E+00  0.00000000000E+00 -0.30193734799E+03  0.30193734804E+03  0.50400001928E-02 0.  1.
    10030    2    1    2    0    0  0.00000000000E+00  0.00000000000E+00  0.33518961812E+03  0.93906431418E+03  0.87720562359E+03 0.  0.
        3    1    3    3  502    0  0.35866102503E+03  0.11796923563E+03  0.40653369462E+03  0.55481900336E+03  0.10100000352E+00 0. -1.
       -3    1    3    3    0  502 -0.35866102503E+03 -0.11796923563E+03 -0.71344076498E+02  0.38424531081E+03  0.10100000352E+00 0.  1.
</event>
<event>
 5   0  0.1924218E-02  0.9573689E+03  0.7818609E-02  0.9356579E-01
        2   -1    0    0  501    0  0.00000000000E+00  0.00000000000E+00  0.16136903139E+04  0.16136903139E+04  0.25500000920E-02 0.  1.
       -2   -1    0    0    0  501  0.00000000000E+00  0.00000000000E+00 -0.14199675174E+03  0.14199675176E+03  0.25500000920E-02 0. -1.
    10030    2    1    2    0    0  0.00000000000E+00  0.00000000000E+00  0.14716935622E+04  0.17556870657E+04  0.95736885873E+03 0.  0.
        4    1    3    3  502    0  0.15593557603E+03  0.20506468909E+02  0.15649508690E+04  0.15728347829E+04  0.12699999809E+01 0.  1.
       -4    1    3    3    0  502 -0.15593557603E+03 -0.20506468909E+02 -0.93257306806E+02  0.18285228276E+03  0.12699999809E+01 0. -1.
</event>
<event>
 5   0  0.2041861E-02  0.8909209E+03  0.7818609E-02  0.9437002E-01
       -2   -1    0    0    0  501  0.00000000000E+00  0.00000000000E+00  0.96755790754E+02  0.96755790788E+02  0.25500000920E-02 0. -1.
        2   -1    0    0  501    0  0.00000000000E+00  0.00000000000E+00 -0.20508852441E+04  0.20508852441E+04  0.25500000920E-02 0.  1.
    10030    2    1    2    0    0  0.00000000000E+00  0.00000000000E+00 -0.19541294534E+04  0.21476410349E+04  0.89092092484E+03 0.  0.
        5    1    3    3  502    0 -0.33266603697E+03 -0.22242178095E+03 -0.14486703320E+04  0.15029324541E+04  0.46999998093E+01 0.  1.
       -5    1    3    3    0  502  0.33266603697E+03  0.22242178095E+03 -0.50545912138E+03  0.64470858082E+03  0.46999998093E+01 0. -1.
</event>
<event>
 5   0  0.7893875E-03  0.8645547E+03  0.7818609E-02  0.9471008E-01
       -3   -1    0    0    0  501  0.00000000000E+00  0.00000000000E+00  0.56492474081E+03  0.56492474983E+03  0.10100000352E+00 0. -1.
        3   -1    0    0  501    0  0.00000000000E+00  0.00000000000E+00 -0.33077628191E+03  0.33077629733E+03  0.10100000352E+00 0.  1.
    10030    2    1    2    0    0  0.00000000000E+00  0.00000000000E+00  0.23414845889E+03  0.89570104716E+03  0.86455472070E+03 0.  0.
        2    1    3    3  502    0  0.17218852188E+03 -0.32236865304E+03  0.35624429556E+03  0.51037283789E+03  0.25500000920E-02 0. -1.
       -2    1    3    3    0  502 -0.17218852188E+03  0.32236865304E+03 -0.12209583666E+03  0.38532820928E+03  0.25500000920E-02 0.  1.
</event>
<event>
 5   0  0.2008770E-02  0.8974854E+03  0.7818609E-02  0.9428730E-01
        2   -1    0    0  501    0  0.00000000000E+00  0.00000000000E+00  0.76981023944E+03  0.76981023944E+03  0.25500000920E-02 0. -1.
       -2   -1    0    0    0  501  0.00000000000E+00  0.00000000000E+00 -0.26158394653E+03  0.26158394655E+03  0.25500000920E-02 0.  1.
    10030    2    1    2    0    0  0.00000000000E+00  0.00000000000E+00  0.50822629291E+03  0.10313941860E+04  0.89748537709E+03 0.  0.
        1    1    3    3  502    0  0.21779469434E+03 -0.16464478252E+03 -0.15515140395E+03  0.31402928441E+03  0.50400001928E-02 0.  1.
       -1    1    3    3    0  502 -0.21779469434E+03  0.16464478252E+03  0.66337769686E+03  0.71736490158E+03  0.50400001928E-02 0. -1.
</event>
<event>
 5   0  0.2041861E-02  0.9047427E+03  0.7818609E-02  0.9419672E-01
        2   -1    0    0  501    0  0.00000000000E+00  0.00000000000E+00  0.77643154337E+03  0.77643154337E+03  0.25500000920E-02 0.  1.
       -2   -1    0    0    0  501  0.00000000000E+00  0.00000000000E+00 -0.26356453795E+03  0.26356453796E+03  0.25500000920E-02 0. -1.
    10030    2    1    2    0    0  0.00000000000E+00  0.00000000000E+00  0.51286700542E+03  0.10399960813E+04  0.90474266173E+03 0.  0.
        5    1    3    3  502    0  0.33294253592E+03  0.14152090446E+03  0.56857733770E+03  0.67392965328E+03  0.46999998093E+01 0.  1.
       -5    1    3    3    0  502 -0.33294253592E+03 -0.14152090446E+03 -0.55710332280E+02  0.36606642806E+03  0.46999998093E+01 0. -1.
</event>
<event>
 5   0  0.1924218E-02  0.8827924E+03  0.7818609E-02  0.9447351E-01
        2   -1    0    0  501    0  0.00000000000E+00  0.00000000000E+00  0.30885628521E+03  0.30885628523E+03  0.25500000920E-02 0. -1.
       -2   -1    0    0    0  501  0.00000000000E+00  0.00000000000E+00 -0.63081314892E+03  0.63081314893E+03  0.25500000920E-02 0.  1.
    10030    2    1    2    0    0  0.00000000000E+00  0.00000000000E+00 -0.32195686371E+03  0.93966943415E+03  0.88279240107E+03 0.  0.
        4    1    3    3  502    0 -0.42880966943E+03  0.74702570316E+02 -0.82971094922E+02  0.44310723544E+03  0.12699999809E+01 0.  1.
       -4    1    3    3    0  502  0.42880966943E+03 -0.74702570316E+02 -0.23898576879E+03  0.49656219871E+03  0.12699999809E+01 0. -1.
</event>
<event>
 5   0  0.1206541E-02  0.8952044E+03  0.7818609E-02  0.9431596E-01
       -1   -1    0    0    0  501  0.00000000000E+00  0.00000000000E+00  0.49682537169E+03  0.49682537172E+03  0.50400001928E-02 0.  1.
        1   -1    0    0  501    0  0.00000000000E+00  0.00000000000E+00 -0.40325581409E+03  0.40325581412E+03  0.50400001928E-02 0. -1.
    10030    2    1    2    0    0  0.00000000000E+00  0.00000000000E+00  0.93569557602E+02  0.90008118584E+03  0.89520437833E+03 0.  0.
        3    1    3    3  502    0  0.11083952747E+03 -0.21295755760E+03  0.42661437369E+03  0.48952646121E+03  0.10100000352E+00 0.  1.
       -3    1    3    3    0  502 -0.11083952747E+03  0.21295755760E+03 -0.33304481608E+03  0.41055472462E+03  0.10100000352E+00 0. -1.
</event>
<event>
 5   0  0.1206541E-02  0.8910466E+03  0.7818609E-02  0.9436843E-01
        1   -1    0    0  501    0  0.00000000000E+00  0.00000000000E+00  0.53902903928E+03  0.53902903930E+03  0.50400001928E-02 0.  1.
       -1   -1    0    0    0  501  0.00000000000E+00  0.00000000000E+00 -0.36823805948E+03  0.36823805951E+03  0.50400001928E-02 0. -1.
    10030    2    1    2    0    0  0.00000000000E+00  0.00000000000E+00  0.17079097980E+03  0.90726709881E+03  0.89104659239E+03 0.  0.
        3    1    3    3  502    0 -0.17103173498E+03  0.29601336536E+03  0.37627983823E+03  0.50839187022E+03  0.10100000352E+00 0.  1.
       -3    1    3    3    0  502  0.17103173498E+03 -0.29601336536E+03 -0.20548885843E+03  0.39887522859E+03  0.10100000352E+00 0. -1.
</event>
<event>
 5   0  0.2008643E-02  0.8640105E+03  0.7818609E-02  0.9471723E-01
        2   -1    0    0  501    0  0.00000000000E+00  0.00000000000E+00  0.10541886845E+04  0.10541886845E+04  0.25500000920E-02 0. -1.
       -2   -1    0    0    0  501  0.00000000000E+00  0.00000000000E+00 -0.17703521288E+03  0.17703521289E+03  0.25500000920E-02 0.  1.
    10030    2    1    2    0    0  0.00000000000E+00  0.00000000000E+00  0.87715347161E+03  0.12312238974E+04  0.86401045869E+03 0.  0.
        3    1    3    3  502    0 -0.35692722914E+03  0.24253241253E+03  0.46741304420E+03  0.63615562728E+03  0.10100000352E+00 0.  1.
       -3    1    3    3    0  502  0.35692722914E+03 -0.24253241253E+03  0.40974042741E+03  0.59506827010E+03  0.10100000352E+00 0. -1.
</event>
<event>
 5   0  0.1924218E-02  0.8997812E+03  0.7818609E-02  0.9425855E-01
        2   -1    0    0  501    0  0.00000000000E+00  0.00000000000E+00  0.36525382341E+03  0.36525382342E+03  0.25500000920E-02 0. -1.
       -2   -1    0    0    0  501  0.00000000000E+00  0.00000000000E+00 -0.55413948952E+03  0.55413948952E+03  0.25500000920E-02 0.  1.
    10030    2    1    2    0    0  0.00000000000E+00  0.00000000000E+00 -0.18888566610E+03  0.91939331295E+03  0.89978123398E+03 0.  0.
        4    1    3    3  502    0  0.28192275800E+03 -0.28434633540E+03 -0.30401494964E+03  0.50275240670E+03  0.12699999809E+01 0.  1.
       -4    1    3    3    0  502 -0.28192275800E+03  0.28434633540E+03  0.11512928354E+03  0.41664090625E+03  0.12699999809E+01 0. -1.
</event>
<event>
 5   0  0.1162839E-02  0.9095132E+03  0.7818609E-02  0.9413767E-01
        1   -1    0    0  501    0  0.00000000000E+00  0.00000000000E+00  0.13998804319E+04  0.13998804319E+04  0.50400001928E-02 0.  1.
       -1   -1    0    0    0  501  0.00000000000E+00  0.00000000000E+00 -0.14772944337E+03  0.14772944345E+03  0.50400001928E-02 0. -1.
    10030    2    1    2    0    0  0.00000000000E+00  0.00000000000E+00  0.12521509885E+04  0.15476098753E+04  0.90951318199E+03 0.  0.
        2    1    3    3  502    0 -0.24123530780E+03  0.14034618059E+03  0.15134562366E+02  0.27950058877E+03  0.25500000920E-02 0. -1.
       -2    1    3    3    0  502  0.24123530780E+03 -0.14034618059E+03  0.12370164261E+04  0.12681092866E+04  0.25500000920E-02 0.  1.
</event>
<event>
 5   0  0.1226424E-02  0.9033047E+03  0.7818609E-02  0.9421460E-01
       -1   -1    0    0    0  501  0.00000000000E+00  0.00000000000E+00  0.31845059976E+03  0.31845059980E+03  0.50400001928E-02 0.  1.
        1   -1    0    0  501    0  0.00000000000E+00  0.00000000000E+00 -0.64056984167E+03  0.64056984169E+03  0.50400001928E-02 0. -1.
    10030    2    1    2    0    0  0.00000000000E+00  0.00000000000E+00 -0.32211924191E+03  0.95902044149E+03  0.90330471115E+03 0.  0.
        1    1    3    3  502    0 -0.44852829303E+03  0.51427792712E+02 -0.17479608324E+03  0.48412407320E+03  0.50400001928E-02 0. -1.
       -1    1    3    3    0  502  0.44852829303E+03 -0.51427792712E+02 -0.14732315867E+03  0.47489636829E+03  0.50400001928E-02 0.  1.
</event>
<event>
 5   0  0.1162839E-02  0.9045316E+03  0.7818609E-02  0.9419934E-01
       -1   -1    0    0    0  501  0.00000000000E+00  0.00000000000E+00  0.28338283647E+03  0.28338283652E+03  0.50400001928E-02 0. -1.
        1   -1    0    0  501    0  0.00000000000E+00  0.00000000000E+00 -0.72179506699E+03  0.72179506701E+03  0.50400001928E-02 0.  1.
    10030    2    1    2    0    0  0.00000000000E+00  0.00000000000E+00 -0.43841223052E+03  0.10051779035E+04  0.90453155493E+03 0.  0.
        2    1    3    3  502    0  0.48032133202E+02 -0.39383198181E+03  0.22053482141E+02  0.39736264520E+03  0.25500000920E-02 0. -1.
       -2    1    3    3    0  502 -0.48032133202E+02  0.39383198181E+03 -0.46046571266E+03  0.60781525833E+03  0.25500000920E-02 0.  1.
</event>
<event>
 5   0  0.7893875E-03  0.8963668E+03  0.7818609E-02  0.9430135E-01
       -3   -1    0    0    0  501  0.00000000000E+00  0.00000000000E+00  0.15698698260E+04  0.15698698293E+04  0.10100000352E+00 0.  1.
        3   -1    0    0  501    0  0.00000000000E+00  0.00000000000E+00 -0.12795220791E+03  0.12795224777E+03  0.10100000352E+00 0. -1.
    10030    2    1    2    0    0  0.00000000000E+00  0.00000000000E+00  0.14419176181E+04  0.16978220771E+04  0.89636677086E+03 0.  0.
        4    1    3    3  502    0 -0.52200965500E+02 -0.33181242872E+03  0.12829792756E+04  0.13262208953E+04  0.12699999809E+01 0.  1.
       -4    1    3    3    0  502  0.52200965500E+02  0.33181242872E+03  0.15893834253E+03  0.37160118175E+03  0.12699999809E+01 0. -1.
</event>
<event>
 5   0  0.1924218E-02  0.8975222E+03  0.7818609E-02  0.9428684E-01
       -2   -1    0    0    0  501  0.00000000000E+00  0.00000000000E+00  0.24439237956E+03  0.24439237957E+03  0.25500000920E-02 0. -1.
        2   -1    0    0  501    0  0.00000000000E+00  0.00000000000E+00 -0.82402944452E+03  0.82402944452E+03  0.25500000920E-02 0.  1.
    10030    2    1    2    0    0  0.00000000000E+00  0.00000000000E+00 -0.57963706496E+03  0.10684218241E+04  0.89752218196E+03 0.  0.
        4    1    3    3  502    0 -0.42021154741E+03 -0.14649107152E+02 -0.10313781744E+03  0.43293343969E+03  0.12699999809E+01 0. -1.
       -4    1    3    3    0  502  0.42021154741E+03  0.14649107152E+02 -0.47649924752E+03  0.63548838440E+03  0.12699999809E+01 0.  1.
</event>
<event>
 5   0  0.1924218E-02  0.9035911E+03  0.7818609E-02  0.9421103E-01
        2   -1    0    0  501    0  0.00000000000E+00  0.00000000000E+00  0.46120236361E+03  0.46120236361E+03  0.25500000920E-02 0.  1.
       -2   -1    0    0    0  501  0.00000000000E+00  0.00000000000E+00 -0.44258061198E+03  0.44258061199E+03  0.25500000920E-02 0. -1.
    10030    2    1    2    0    0  0.00000000000E+00  0.00000000000E+00  0.18621751624E+02  0.90378297560E+03  0.90359111182E+03 0.  0.
        4    1    3    3  502    0  0.17022192562E+03 -0.34719979391E+03  0.24301495714E+03  0.45670678027E+03  0.12699999809E+01 0.  1.
       -4    1    3    3    0  502 -0.17022192562E+03  0.34719979391E+03 -0.22439320551E+03  0.44707619533E+03  0.12699999809E+01 0. -1.
</event>
<event>
 5   0  0.2041861E-02  0.9125892E+03  0.7818609E-02  0.9409980E-01
        2   -1    0    0  501    0  0.00000000000E+00  0.00000000000E+00  0.13622879061E+04  0.13622879061E+04  0.25500000920E-02 0.  1.
       -2   -1    0    0    0  501  0.00000000000E+00  0.00000000000E+00 -0.15283463746E+03  0.15283463748E+03  0.25500000920E-02 0. -1.
    10030    2    1    2    0    0  0.00000000000E+00  0.00000000000E+00  0.12094532686E+04  0.15151225435E+04  0.91258923565E+03 0.  0.
        5    1    3    3  502    0  0.39468027396E+03 -0.16398863388E+03  0.86993966791E+03  0.96926874833E+03  0.46999998093E+01 0.  1.
       -5    1    3    3    0  502 -0.39468027396E+03  0.16398863388E+03  0.33951360070E+03  0.54585379521E+03  0.46999998093E+01 0. -1.
</event>
<event>
 5   0  0.7893875E-03  0.9072089E+03  0.7818609E-02  0.9416615E-01
        3   -1    0    0  501    0  0.00000000000E+00  0.00000000000E+00  0.39216642431E+03  0.39216643732E+03  0.10100000352E+00 0. -1.
       -3   -1    0    0    0  501  0.00000000000E+00  0.00000000000E+00 -0.52466755569E+03  0.52466756541E+03  0.10100000352E+00 0.  1.
    10030    2    1    2    0    0  0.00000000000E+00  0.00000000000E+00 -0.13250113138E+03  0.91683400273E+03  0.90720892784E+03 0.  0.
        3    1    3    3  502    0 -0.35953270846E+03  0.25033300689E+03 -0.18508474137E+03  0.47559095290E+03  0.10100000352E+00 0.  1.
       -3    1    3    3    0  502  0.35953270846E+03 -0.25033300689E+03  0.52583609988E+02  0.44124304983E+03  0.10100000352E+00 0. -1.
</event>
<event>
 5   0  0.1206541E-02  0.9013451E+03  0.7818609E-02  0.9423902E-01
       -1   -1    0    0    0  501  0.00000000000E+00  0.00000000000E+00  0.46967625822E+03  0.46967625825E+03  0.50400001928E-02 0.  1.
        1   -1    0    0  501    0  0.00000000000E+00  0.00000000000E+00 -0.43243772756E+03  0.43243772759E+03  0.50400001928E-02 0. -1.
    10030    2    1    2    0    0  0.00000000000E+00  0.00000000000E+00  0.37238530664E+02  0.90211398583E+03  0.90134507003E+03 0.  0.
        3    1    3    3  502    0 -0.21734371114E+03  0.27613817666E+01  0.41374689478E+03  0.46736753967E+03  0.10100000352E+00 0.  1.
       -3    1    3    3    0  502  0.21734371114E+03 -0.27613817666E+01 -0.37650836411E+03  0.43474644616E+03  0.10100000352E+00 0. -1.
</event>
<event>
 5   0  0.1162839E-02  0.9139662E+03  0.7818609E-02  0.9408290E-01
       -1   -1    0    0    0  501  0.00000000000E+00  0.00000000000E+00  0.25298697308E+03  0.25298697313E+03  0.50400001928E-02 0. -1.
        1   -1    0    0  501    0  0.00000000000E+00  0.00000000000E+00 -0.82547148580E+03  0.82547148581E+03  0.50400001928E-02 0.  1.
    10030    2    1    2    0    0  0.00000000000E+00  0.00000000000E+00 -0.57248451271E+03  0.10784584589E+04  0.91396615385E+03 0.  0.
        2    1    3    3  502    0  0.21951022897E+03  0.60420363364E+02 -0.75378422961E+03  0.78741731360E+03  0.25500000920E-02 0.  1.
       -2    1    3    3    0  502 -0.21951022897E+03 -0.60420363364E+02  0.18129971690E+03  0.29104114535E+03  0.25500000920E-02 0. -1.
</event>
<event>
 5   0  0.2008770E-02  0.8798227E+03  0.7818609E-02  0.9451162E-01
        2   -1    0    0  501    0  0.00000000000E+00  0.00000000000E+00  0.88294379467E+03  0.88294379467E+03  0.25500000920E-02 0. -1.
       -2   -1    0    0    0  501  0.00000000000E+00  0.00000000000E+00 -0.21917815837E+03  0.21917815839E+03  0.25500000920E-02 0.  1.
    10030    2    1    2    0    0  0.00000000000E+00  0.00000000000E+00  0.66376563630E+03  0.11021219531E+04  0.87982269775E+03 0.  0.
        1    1    3    3  502    0 -0.86104443782E+02  0.11271273544E+02 -0.20833481395E+03  0.22570868742E+03  0.50400001928E-02 0.  1.
       -1    1    3    3    0  502  0.86104443782E+02 -0.11271273544E+02  0.87210045025E+03  0.87641326564E+03  0.50400001928E-02 0. -1.
</event>
<event>
 5   0  0.1162839E-02  0.8377534E+03  0.7818609E-02  0.9506923E-01
       -1   -1    0    0    0  501  0.00000000000E+00  0.00000000000E+00  0.46715287866E+03  0.46715287869E+03  0.50400001928E-02 0.  1.
        1   -1    0    0  501    0  0.00000000000E+00  0.00000000000E+00 -0.37558942760E+03  0.37558942763E+03  0.50400001928E-02 0. -1.
    10030    2    1    2    0    0  0.00000000000E+00  0.00000000000E+00  0.91563451061E+02  0.84274230632E+03  0.83775338214E+03 0.  0.
        2    1    3    3  502    0 -0.87033954544E+02  0.36912856150E+03  0.22468025441E+03  0.44080837207E+03  0.25500000920E-02 0.  1.
       -2    1    3    3    0  502  0.87033954544E+02 -0.36912856150E+03 -0.13311680335E+03  0.40193393425E+03  0.25500000920E-02 0. -1.
</event>
<event>
 5   0  0.1924218E-02  0.8967590E+03  0.7818609E-02  0.9429642E-01
        2   -1    0    0  501    0  0.00000000000E+00  0.00000000000E+00  0.17655307895E+04  0.17655307895E+04  0.25500000920E-02 0. -1.
       -2   -1    0    0    0  501  0.00000000000E+00  0.00000000000E+00 -0.11387179318E+03  0.11387179321E+03  0.25500000920E-02 0.  1.
    10030    2    1    2    0    0  0.00000000000E+00  0.00000000000E+00  0.16516589963E+04  0.18794025827E+04  0.89675895746E+03 0.  0.
        4    1    3    3  502    0  0.37967368797E+03  0.23848871671E+03  0.81811013774E+03  0.93291735310E+03  0.12699999809E+01 0. -1.
       -4    1    3    3    0  502 -0.37967368797E+03 -0.23848871671E+03  0.83354885856E+03  0.94648522959E+03  0.12699999809E+01 0.  1.
</event>
<event>
 5   0  0.1177712E-02  0.8710118E+03  0.7818609E-02  0.9462562E-01
       -1   -1    0    0    0  501  0.00000000000E+00  0.00000000000E+00  0.55843456630E+03  0.55843456632E+03  0.50400001928E-02 0.  1.
        1   -1    0    0  501    0  0.00000000000E+00  0.00000000000E+00 -0.33963761370E+03  0.33963761374E+03  0.50400001928E-02 0. -1.
    10030    2    1    2    0    0  0.00000000000E+00  0.00000000000E+00  0.21879695260E+03  0.89807218006E+03  0.87101178760E+03 0.  0.
        5    1    3    3  502    0 -0.14257243794E+03 -0.41103221113E+03  0.89594595555E+02  0.44421127878E+03  0.46999998093E+01 0.  1.
       -5    1    3    3    0  502  0.14257243794E+03  0.41103221113E+03  0.12920235705E+03  0.45386090128E+03  0.46999998093E+01 0. -1.
</event>
<event>
 5   0  0.1968763E-02  0.9085591E+03  0.7818609E-02  0.9414945E-01
        2   -1    0    0  501    0  0.00000000000E+00  0.00000000000E+00  0.22167553716E+04  0.22167553716E+04  0.25500000920E-02 0.  1.
       -2   -1    0    0    0  501  0.00000000000E+00  0.00000000000E+00 -0.93095482896E+02  0.93095482931E+02  0.25500000920E-02 0. -1.
    10030    2    1    2    0    0  0.00000000000E+00  0.00000000000E+00  0.21236598887E+04  0.23098508545E+04  0.90855910501E+03 0.  0.
        2    1    3    3  502    0 -0.14387935528E+03 -0.22460156051E+03  0.12695033610E+03  0.29540399067E+03  0.25500000920E-02 0. -1.
       -2    1    3    3    0  502  0.14387935528E+03  0.22460156051E+03  0.19967095526E+04  0.20144468639E+04  0.25500000920E-02 0.  1.
</event>
<event>
 5   0  0.1175993E-02  0.8506832E+03  0.7818609E-02  0.9489420E-01
       -1   -1    0    0    0  501  0.00000000000E+00  0.00000000000E+00  0.25242049110E+03  0.25242049115E+03  0.50400001928E-02 0.  1.
        1   -1    0    0  501    0  0.00000000000E+00  0.00000000000E+00 -0.71672256047E+03  0.71672256048E+03  0.50400001928E-02 0. -1.
    10030    2    1    2    0    0  0.00000000000E+00  0.00000000000E+00 -0.46430206937E+03  0.96914305163E+03  0.85068316247E+03 0.  0.
        4    1    3    3  502    0  0.18407855387E+03 -0.91437638067E+02 -0.65638781657E+03  0.68781707909E+03  0.12699999809E+01 0. -1.
       -4    1    3    3    0  502 -0.18407855387E+03  0.91437638067E+02  0.19208574720E+03  0.28132597254E+03  0.12699999809E+01 0.  1.
</event>
<event>
 5   0  0.1924218E-02  0.8534642E+03  0.7818609E-02  0.9485699E-01
        2   -1    0    0  501    0  0.00000000000E+00  0.00000000000E+00  0.49474167411E+03  0.49474167411E+03  0.25500000920E-02 0.  1.
       -2   -1    0    0    0  501  0.00000000000E+00  0.00000000000E+00 -0.36807141806E+03  0.36807141807E+03  0.25500000920E-02 0. -1.
    10030    2    1    2    0    0  0.00000000000E+00  0.00000000000E+00  0.12667025604E+03  0.86281309219E+03  0.85346416344E+03 0.  0.
        4    1    3    3  502    0 -0.14621929528E+03  0.13139858567E+03  0.44623589189E+03  0.48762050279E+03  0.12699999809E+01 0.  1.
       -4    1    3    3    0  502  0.14621929528E+03 -0.13139858567E+03 -0.31956563584E+03  0.37519258940E+03  0.12699999809E+01 0. -1.
</event>
<event>
 5   0  0.1206541E-02  0.9034101E+03  0.7818609E-02  0.9421329E-01
        1   -1    0    0  501    0  0.00000000000E+00  0.00000000000E+00  0.56100062578E+03  0.56100062580E+03  0.50400001928E-02 0. -1.
       -1   -1    0    0    0  501  0.00000000000E+00  0.00000000000E+00 -0.36370271515E+03  0.36370271519E+03  0.50400001928E-02 0.  1.
    10030    2    1    2    0    0  0.00000000000E+00  0.00000000000E+00  0.19729791063E+03  0.92470334099E+03  0.90341009697E+03 0.  0.
        3    1    3    3  502    0  0.20319879905E+03  0.32147756506E+03 -0.15081638288E+03  0.40912488108E+03  0.10100000352E+00 0.  1.
       -3    1    3    3    0  502 -0.20319879905E+03 -0.32147756506E+03  0.34811429351E+03  0.51557845991E+03  0.10100000352E+00 0. -1.
</event>
<event>
 5   0  0.2041861E-02  0.9070095E+03  0.7818609E-02  0.9416861E-01
       -2   -1    0    0    0  501  0.00000000000E+00  0.00000000000E+00  0.88973348002E+03  0.88973348002E+03  0.25500000920E-02 0.  1.
        2   -1    0    0  501    0  0.00000000000E+00  0.00000000000E+00 -0.23115525124E+03  0.23115525126E+03  0.25500000920E-02 0. -1.
    10030    2    1    2    0    0  0.00000000000E+00  0.00000000000E+00  0.65857822877E+03  0.11208887313E+04  0.90700951731E+03 0.  0.
        5    1    3    3  502    0 -0.18036565814E+03  0.39288741018E+03  0.16005939361E+03  0.46101343494E+03  0.46999998093E+01 0. -1.
       -5    1    3    3    0  502  0.18036565814E+03 -0.39288741018E+03  0.49851883516E+03  0.65987529634E+03  0.46999998093E+01 0.  1.
</event>
<event>
 5   0  0.2041861E-02  0.8683375E+03  0.7818609E-02  0.9466050E-01
        2   -1    0    0  501    0  0.00000000000E+00  0.00000000000E+00  0.93217350844E+03  0.93217350844E+03  0.25500000920E-02 0.  1.
       -2   -1    0    0    0  501  0.00000000000E+00  0.00000000000E+00 -0.20221825620E+03  0.20221825621E+03  0.25500000920E-02 0. -1.
    10030    2    1    2    0    0  0.00000000000E+00  0.00000000000E+00  0.72995525224E+03  0.11343917647E+04  0.86833749513E+03 0.  0.
        5    1    3    3  502    0  0.71116254890E+02 -0.30762862627E+03 -0.24291955514E+02  0.31670977647E+03  0.46999998093E+01 0. -1.
       -5    1    3    3    0  502 -0.71116254890E+02  0.30762862627E+03  0.75424720775E+03  0.81768198819E+03  0.46999998093E+01 0.  1.
</event>
<event>
 5   0  0.2008770E-02  0.8712359E+03  0.7818609E-02  0.9462270E-01
        2   -1    0    0  501    0  0.00000000000E+00  0.00000000000E+00  0.22943478867E+03  0.22943478869E+03  0.25500000920E-02 0.  1.
       -2   -1    0    0    0  501  0.00000000000E+00  0.00000000000E+00 -0.82708902148E+03  0.82708902148E+03  0.25500000920E-02 0. -1.
    10030    2    1    2    0    0  0.00000000000E+00  0.00000000000E+00 -0.59765423281E+03  0.10565238102E+04  0.87123589197E+03 0.  0.
        1    1    3    3  502    0 -0.38865584086E+03  0.12178128734E+03 -0.48621915928E+03  0.63426580821E+03  0.50400001928E-02 0. -1.
       -1    1    3    3    0  502  0.38865584086E+03 -0.12178128734E+03 -0.11143507353E+03  0.42225800196E+03  0.50400001928E-02 0.  1.
</event>
<event>
 5   0  0.1162839E-02  0.8168488E+03  0.7818609E-02  0.9535944E-01
        1   -1    0    0  501    0  0.00000000000E+00  0.00000000000E+00  0.11442365169E+03  0.11442365180E+03  0.50400001928E-02 0. -1.
       -1   -1    0    0    0  501  0.00000000000E+00  0.00000000000E+00 -0.14578321043E+04  0.14578321043E+04  0.50400001928E-02 0.  1.
    10030    2    1    2    0    0  0.00000000000E+00  0.00000000000E+00 -0.13434084526E+04  0.15722557561E+04  0.81684875715E+03 0.  0.
        2    1    3    3  502    0  0.27337585818E+03  0.42950242810E+02 -0.12498806310E+04  0.12801486925E+04  0.25500000920E-02 0.  1.
       -2    1    3    3    0  502 -0.27337585818E+03 -0.42950242810E+02 -0.93527821650E+02  0.29210706363E+03  0.25500000920E-02 0. -1.
</event>
<event>
 5   0  0.1206541E-02  0.8988768E+03  0.7818609E-02  0.9426987E-01
       -1   -1    0    0    0  501  0.00000000000E+00  0.00000000000E+00  0.25720502028E+03  0.25720502033E+03  0.50400001928E-02 0.  1.
        1   -1    0    0  501    0  0.00000000000E+00  0.00000000000E+00 -0.78534572069E+03  0.78534572071E+03  0.50400001928E-02 0. -1.
    10030    2    1    2    0    0  0.00000000000E+00  0.00000000000E+00 -0.52814070041E+03  0.10425507410E+04  0.89887677032E+03 0.  0.
        3    1    3    3  502    0  0.18462481805E+03 -0.15851937301E+03  0.17418874832E+03  0.29925982908E+03  0.10100000352E+00 0.  1.
       -3    1    3    3    0  502 -0.18462481805E+03  0.15851937301E+03 -0.70232944872E+03  0.74329091196E+03  0.10100000352E+00 0. -1.
</event>
<event>
 5   0  0.1226424E-02  0.8994845E+03  0.7818609E-02  0.9426226E-01
       -1   -1    0    0    0  501  0.00000000000E+00  0.00000000000E+00  0.15256740724E+03  0.15256740732E+03  0.50400001928E-02 0.  1.
        1   -1    0    0  501    0  0.00000000000E+00  0.00000000000E+00 -0.13257620543E+04  0.13257620543E+04  0.50400001928E-02 0. -1.
    10030    2    1    2    0    0  0.00000000000E+00  0.00000000000E+00 -0.11731946471E+04  0.14783294616E+04  0.89948447304E+03 0.  0.
        1    1    3    3  502    0  0.24726515990E+03  0.17633854266E+03 -0.11317755742E+04  0.11718153828E+04  0.50400001928E-02 0. -1.
       -1    1    3    3    0  502 -0.24726515990E+03 -0.17633854266E+03 -0.41419072886E+02  0.30651407888E+03  0.50400001928E-02 0.  1.
</event>
<event>
 5   0  0.1924218E-02  0.9442590E+03  0.7818609E-02  0.9371886E-01
        2   -1    0    0  501    0  0.00000000000E+00  0.00000000000E+00  0.19804226986E+03  0.19804226988E+03  0.25500000920E-02 0. -1.
       -2   -1    0    0    0  501  0.00000000000E+00  0.00000000000E+00 -0.11255489572E+04  0.11255489572E+04  0.25500000920E-02 0.  1.
    10030    2    1    2    0    0  0.00000000000E+00  0.00000000000E+00 -0.92750668731E+03  0.13235912271E+04  0.94425901178E+03 0.  0.
        4    1    3    3  502    0 -0.74350499247E+02 -0.41690798635E+03 -0.17118416783E+03  0.45677773374E+03  0.12699999809E+01 0. -1.
       -4    1    3    3    0  502  0.74350499247E+02  0.41690798635E+03 -0.75632251948E+03  0.86681349332E+03  0.12699999809E+01 0.  1.
</event>
<event>
 5   0  0.1177712E-02  0.8921029E+03  0.7818609E-02  0.9435507E-01
        1   -1    0    0  501    0  0.00000000000E+00  0.00000000000E+00  0.47277073900E+03  0.47277073903E+03  0.50400001928E-02 0.  1.
       -1   -1    0    0    0  501  0.00000000000E+00  0.00000000000E+00 -0.42084220124E+03  0.42084220127E+03  0.50400001928E-02 0. -1.
    10030    2    1    2    0    0  0.00000000000E+00  0.00000000000E+00  0.51928537762E+02  0.89361294030E+03  0.89210286068E+03 0.  0.
        5    1    3    3  502    0 -0.18878096434E+03 -0.72341573164E+02  0.42421521487E+03  0.46994914004E+03  0.46999998093E+01 0.  1.
       -5    1    3    3    0  502  0.18878096434E+03  0.72341573164E+02 -0.37228667710E+03  0.42366380026E+03  0.46999998093E+01 0. -1.
</event>
<event>
 5   0  0.1175993E-02  0.9061600E+03  0.7818609E-02  0.9417914E-01
        1   -1    0    0  501    0  0.00000000000E+00  0.00000000000E+00  0.32464947771E+03  0.32464947775E+03  0.50400001928E-02 0. -1.
       -1   -1    0    0    0  501  0.00000000000E+00  0.00000000000E+00 -0.63231737777E+03  0.63231737779E+03  0.50400001928E-02 0.  1.
    10030    2    1    2    0    0  0.00000000000E+00  0.00000000000E+00 -0.30766790005E+03  0.95696685554E+03  0.90616004430E+03 0.  0.
        4    1    3    3  502    0 -0.12951867416E+03  0.25905132739E+03 -0.52179034213E+03  0.59678258287E+03  0.12699999809E+01 0.  1.
       -4    1    3    3    0  502  0.12951867416E+03 -0.25905132739E+03  0.21412244207E+03  0.36018427267E+03  0.12699999809E+01 0. -1.
</event>
<event>
 5   0  0.1162839E-02  0.8919031E+03  0.7818609E-02  0.9435760E-01
       -1   -1    0    0    0  501  0.00000000000E+00  0.00000000000E+00  0.11313554804E+03  0.11313554816E+03  0.50400001928E-02 0. -1.
        1   -1    0    0  501    0  0.00000000000E+00  0.00000000000E+00 -0.17578276072E+04  0.17578276072E+04  0.50400001928E-02 0.  1.
    10030    2    1    2    0    0  0.00000000000E+00  0.00000000000E+00 -0.16446920592E+04  0.18709631554E+04  0.89190311093E+03 0.  0.
        2    1    3    3  502    0  0.40779108444E+03 -0.17915884630E+03 -0.86836835910E+03  0.97593804508E+03  0.25500000920E-02 0. -1.
       -2    1    3    3    0  502 -0.40779108444E+03  0.17915884630E+03 -0.77632370006E+03  0.89502511028E+03  0.25500000920E-02 0.  1.
</event>
<event>
 5   0  0.2008643E-02  0.9084740E+03  0.7818609E-02  0.9415050E-01
        2   -1    0    0  501    0  0.00000000000E+00  0.00000000000E+00  0.75285618590E+03  0.75285618590E+03  0.25500000920E-02 0.  1.
       -2   -1    0    0    0  501  0.00000000000E+00  0.00000000000E+00 -0.27406464819E+03  0.27406464821E+03  0.25500000920E-02 0. -1.
    10030    2    1    2    0    0  0.00000000000E+00  0.00000000000E+00  0.47879153770E+03  0.10269208341E+04  0.90847402987E+03 0.  0.
        3    1    3    3  502    0 -0.34239331688E+03 -0.16719496669E+03  0.51890816303E+03  0.64378026701E+03  0.10100000352E+00 0.  1.
       -3    1    3    3    0  502  0.34239331688E+03  0.16719496669E+03 -0.40116625325E+02  0.38314056710E+03  0.10100000352E+00 0. -1.
</event>
<event>
 5   0  0.1924218E-02  0.8838138E+03  0.7818609E-02  0.9446044E-01
       -2   -1    0    0    0  501  0.00000000000E+00  0.00000000000E+00  0.32498577755E+03  0.32498577756E+03  0.25500000920E-02 0.  1.
        2   -1    0    0  501    0  0.00000000000E+00  0.00000000000E+00 -0.60089306135E+03  0.60089306136E+03  0.25500000920E-02 0. -1.
    10030    2    1    2    0    0  0.00000000000E+00  0.00000000000E+00 -0.27590728380E+03  0.92587883892E+03  0.88381377852E+03 0.  0.
        4    1    3    3  502    0  0.11244883963E+03 -0.20355114418E+03 -0.53160725243E+03  0.58024623529E+03  0.12699999809E+01 0. -1.
       -4    1    3    3    0  502 -0.11244883963E+03  0.20355114418E+03  0.25569996863E+03  0.34563260363E+03  0.12699999809E+01 0.  1.
</event>
<event>
 5   0  0.2008770E-02  0.9055942E+03  0.7818609E-02  0.9418615E-01
       -2   -1    0    0    0  501  0.00000000000E+00  0.00000000000E+00  0.17404323386E+03  0.17404323388E+03  0.25500000920E-02 0. -1.
        2   -1    0    0  501    0  0.00000000000E+00  0.00000000000E+00 -0.11780130074E+04  0.11780130074E+04  0.25500000920E-02 0.  1.
    10030    2    1    2    0    0  0.00000000000E+00  0.00000000000E+00 -0.10039697735E+04  0.13520562413E+04  0.90559415490E+03 0.  0.
        1    1    3    3  502    0  0.31776652691E+02 -0.85391045275E+02  0.16021576937E+03  0.18431082184E+03  0.50400001928E-02 0. -1.
       -1    1    3    3    0  502 -0.31776652691E+02  0.85391045275E+02 -0.11641855429E+04  0.11677454194E+04  0.50400001928E-02 0.  1.
</event>
<event>
 5   0  0.2008643E-02  0.6225452E+03  0.7818609E-02  0.9859705E-01
        2   -1    0    0  501    0  0.00000000000E+00  0.00000000000E+00  0.13431701465E+04  0.13431701465E+04  0.25500000920E-02 0.  1.
       -2   -1    0    0    0  501  0.00000000000E+00  0.00000000000E+00 -0.72135793379E+02  0.72135793424E+02  0.25500000920E-02 0. -1.
    10030    2    1    2    0    0  0.00000000000E+00  0.00000000000E+00  0.12710343531E+04  0.14153059399E+04  0.62254524074E+03 0.  0.
        3    1    3    3  502    0 -0.29134036476E+03 -0.89406527956E+02  0.49141222665E+03  0.57823760003E+03  0.10100000352E+00 0. -1.
       -3    1    3    3    0  502  0.29134036476E+03  0.89406527956E+02  0.77962212645E+03  0.83706833988E+03  0.10100000352E+00 0.  1.
</event>
<event>
 5   0  0.1177712E-02  0.9170753E+03  0.7818609E-02  0.9404485E-01
        1   -1    0    0  501    0  0.00000000000E+00  0.00000000000E+00  0.34682918694E+03  0.34682918697E+03  0.50400001928E-02 0. -1.
       -1   -1    0    0    0  501  0.00000000000E+00  0.00000000000E+00 -0.60622569067E+03  0.60622569069E+03  0.50400001928E-02 0.  1.
    10030    2    1    2    0    0  0.00000000000E+00  0.00000000000E+00 -0.25939650374E+03  0.95305487767E+03  0.91707527155E+03 0.  0.
        5    1    3    3  502    0  0.34184010761E+03  0.59955718064E+02 -0.44109610030E+03  0.56128175366E+03  0.46999998093E+01 0.  1.
       -5    1    3    3    0  502 -0.34184010761E+03 -0.59955718064E+02  0.18169959656E+03  0.39177312400E+03  0.46999998093E+01 0. -1.
</event>
<event>
 5   0  0.1175993E-02  0.8789853E+03  0.7818609E-02  0.9452239E-01
        1   -1    0    0  501    0  0.00000000000E+00  0.00000000000E+00  0.11321332355E+03  0.11321332366E+03  0.50400001928E-02 0. -1.
       -1   -1    0    0    0  501  0.00000000000E+00  0.00000000000E+00 -0.17061045666E+04  0.17061045666E+04  0.50400001928E-02 0.  1.
    10030    2    1    2    0    0  0.00000000000E+00  0.00000000000E+00 -0.15928912430E+04  0.18193178902E+04  0.87898525222E+03 0.  0.
        4    1    3    3  502    0 -0.42056435636E+03 -0.10618443909E+03 -0.94284078817E+03  0.10378342246E+04  0.12699999809E+01 0.  1.
       -4    1    3    3    0  502  0.42056435636E+03  0.10618443909E+03 -0.65005045484E+03  0.78148366565E+03  0.12699999809E+01 0. -1.
</event>
<event>
 5   0  0.1206541E-02  0.9239462E+03  0.7818609E-02  0.9396133E-01
       -1   -1    0    0    0  501  0.00000000000E+00  0.00000000000E+00  0.18984656088E+03  0.18984656095E+03  0.50400001928E-02 0. -1.
        1   -1    0    0  501    0  0.00000000000E+00  0.00000000000E+00 -0.11241664836E+04  0.11241664836E+04  0.50400001928E-02 0.  1.
    10030    2    1    2    0    0  0.00000000000E+00  0.00000000000E+00 -0.93431992271E+03  0.13140130446E+04  0.92394619069E+03 0.  0.
        3    1    3    3  502    0  0.22946564139E+03  0.18157963023E+03 -0.97556208875E+03  0.10185023524E+04  0.10100000352E+00 0.  1.
       -3    1    3    3    0  502 -0.22946564139E+03 -0.18157963023E+03  0.41242166046E+02  0.29551069212E+03  0.10100000352E+00 0. -1.
</event>
<event>
 5   0  0.1226424E-02  0.9259462E+03  0.7818609E-02  0.9393716E-01
        1   -1    0    0  501    0  0.00000000000E+00  0.00000000000E+00  0.13923277069E+03  0.13923277079E+03  0.50400001928E-02 0.  1.
       -1   -1    0    0    0  501  0.00000000000E+00  0.00000000000E+00 -0.15394657225E+04  0.15394657225E+04  0.50400001928E-02 0. -1.
    10030    2    1    2    0    0  0.00000000000E+00  0.00000000000E+00 -0.14002329518E+04  0.16786984933E+04  0.92594617126E+03 0.  0.
        1    1    3    3  502    0 -0.12004143077E+03  0.14769186443E+03 -0.14652633753E+04  0.14775721949E+04  0.50400001928E-02 0. -1.
       -1    1    3    3    0  502  0.12004143077E+03 -0.14769186443E+03  0.65030423509E+02  0.20112629845E+03  0.50400001928E-02 0.  1.
</event>
<event>
 5   0  0.1924218E-02  0.8369573E+03  0.7818609E-02  0.9508012E-01
       -2   -1    0    0    0  501  0.00000000000E+00  0.00000000000E+00  0.10935512554E+03  0.10935512557E+03  0.25500000920E-02 0. -1.
        2   -1    0    0  501    0  0.00000000000E+00  0.00000000000E+00 -0.16014282463E+04  0.16014282463E+04  0.25500000920E-02 0.  1.
    10030    2    1    2    0    0  0.00000000000E+00  0.00000000000E+00 -0.14920731207E+04  0.17107833718E+04  0.83695731539E+03 0.  0.
        4    1    3    3  502    0 -0.13175564489E+02  0.10814820921E+03  0.79853970697E+02  0.13508478890E+03  0.12699999809E+01 0. -1.
       -4    1    3    3    0  502  0.13175564489E+02 -0.10814820921E+03 -0.15719270914E+04  0.15756985829E+04  0.12699999809E+01 0.  1.
</event>
<event>
 5   0  0.2008770E-02  0.9202408E+03  0.7818609E-02  0.9400627E-01
        2   -1    0    0  501    0  0.00000000000E+00  0.00000000000E+00  0.21020278659E+04  0.21020278659E+04  0.25500000920E-02 0.  1.
       -2   -1    0    0    0  501  0.00000000000E+00  0.00000000000E+00 -0.10071739344E+03  0.10071739347E+03  0.25500000920E-02 0. -1.
    10030    2    1    2    0    0  0.00000000000E+00  0.00000000000E+00  0.20013104725E+04  0.22027452594E+04  0.92024076769E+03 0.  0.
        1    1    3    3  502    0  0.38329476367E+03 -0.20060996241E+03  0.13757164276E+04  0.14421355422E+04  0.50400001928E-02 0.  1.
       -1    1    3    3    0  502 -0.38329476367E+03  0.20060996241E+03  0.62559404485E+03  0.76060971717E+03  0.50400001928E-02 0. -1.
</event>
<event>
 5   0  0.1968763E-02  0.9088563E+03  0.7818609E-02  0.9414578E-01
        2   -1    0    0  501    0  0.00000000000E+00  0.00000000000E+00  0.13182747593E+04  0.13182747593E+04  0.25500000920E-02 0.  1.
       -2   -1    0    0    0  501  0.00000000000E+00  0.00000000000E+00 -0.15664787482E+03  0.15664787484E+03  0.25500000920E-02 0. -1.
    10030    2    1    2    0    0  0.00000000000E+00  0.00000000000E+00  0.11616268845E+04  0.14749226342E+04  0.90885629115E+03 0.  0.
        2    1    3    3  502    0  0.62205943570E+02 -0.19208060989E+03 -0.79862074526E+02  0.21712321632E+03  0.25500000920E-02 0. -1.
       -2    1    3    3    0  502 -0.62205943570E+02  0.19208060989E+03  0.12414889590E+04  0.12577994178E+04  0.25500000920E-02 0.  1.
</event>
<event>
 5   0  0.1226424E-02  0.9064505E+03  0.7818609E-02  0.9417554E-01
       -1   -1    0    0    0  501  0.00000000000E+00  0.00000000000E+00  0.69404220501E+03  0.69404220503E+03  0.50400001928E-02 0.  1.
        1   -1    0    0  501    0  0.00000000000E+00  0.00000000000E+00 -0.29596632082E+03  0.29596632086E+03  0.50400001928E-02 0. -1.
    10030    2    1    2    0    0  0.00000000000E+00  0.00000000000E+00  0.39807588419E+03  0.99000852589E+03  0.90645047948E+03 0.  0.
        1    1    3    3  502    0 -0.19945801753E+03 -0.35934047846E+03  0.40771048277E+03  0.57891011220E+03  0.50400001928E-02 0.  1.
       -1    1    3    3    0  502  0.19945801753E+03  0.35934047846E+03 -0.96345985753E+01  0.41109841369E+03  0.50400001928E-02 0. -1.
</event>
<event>
 5   0  0.2008643E-02  0.9012816E+03  0.7818609E-02  0.9423981E-01
        2   -1    0    0  501    0  0.00000000000E+00  0.00000000000E+00  0.68698542115E+03  0.68698542116E+03  0.25500000920E-02 0. -1.
       -2   -1    0    0    0  501  0.00000000000E+00  0.00000000000E+00 -0.29560617759E+03  0.29560617760E+03  0.25500000920E-02 0.  1.
    10030    2    1    2    0    0  0.00000000000E+00  0.00000000000E+00  0.39137924356E+03  0.98259159876E+03  0.90128160841E+03 0.  0.
        3    1    3    3  502    0  0.19338067651E+03 -0.25116815853E+03 -0.15351251574E+03  0.35220396448E+03  0.10100000352E+00 0.  1.
       -3    1    3    3    0  502 -0.19338067651E+03  0.25116815853E+03  0.54489175930E+03  0.63038763428E+03  0.10100000352E+00 0. -1.
</event>
<event>
 5   0  0.2041861E-02  0.8869593E+03  0.7818609E-02  0.9442031E-01
       -2   -1    0    0    0  501  0.00000000000E+00  0.00000000000E+00  0.43283677271E+03  0.43283677272E+03  0.25500000920E-02 0. -1.
        2   -1    0    0  501    0  0.00000000000E+00  0.00000000000E+00 -0.45438419084E+03  0.45438419084E+03  0.25500000920E-02 0.  1.
    10030    2    1    2    0    0  0.00000000000E+00  0.00000000000E+00 -0.21547418128E+02  0.88722096356E+03  0.88695927018E+03 0.  0.
        5    1    3    3  502    0 -0.23430486243E+03 -0.36551856956E+02 -0.38560722031E+03  0.45271384467E+03  0.46999998093E+01 0.  1.
       -5    1    3    3    0  502  0.23430486243E+03  0.36551856956E+02  0.36405980218E+03  0.43450711889E+03  0.46999998093E+01 0. -1.
</event>
<event>
 5   0  0.2008770E-02  0.9042784E+03  0.7818609E-02  0.9420249E-01
        2   -1    0    0  501    0  0.00000000000E+00  0.00000000000E+00  0.16763446364E+04  0.16763446364E+04  0.25500000920E-02 0.  1.
       -2   -1    0    0    0  501  0.00000000000E+00  0.00000000000E+00 -0.12194977026E+03  0.12194977028E+03  0.25500000920E-02 0. -1.
    10030    2    1    2    0    0  0.00000000000E+00  0.00000000000E+00  0.15543948661E+04  0.17982944067E+04  0.90427837153E+03 0.  0.
        1    1    3    3  502    0 -0.36179909494E+03  0.86819122731E+02  0.12880668244E+04  0.13407282683E+04  0.50400001928E-02 0.  1.
       -1    1    3    3    0  502  0.36179909494E+03 -0.86819122731E+02  0.26632804171E+03  0.45756613839E+03  0.50400001928E-02 0. -1.
</event>
<event>
 5   0  0.1226424E-02  0.7477722E+03  0.7818609E-02  0.9638852E-01
        1   -1    0    0  501    0  0.00000000000E+00  0.00000000000E+00  0.82765184029E+03  0.82765184031E+03  0.50400001928E-02 0. -1.
       -1   -1    0    0    0  501  0.00000000000E+00  0.00000000000E+00 -0.16890050526E+03  0.16890050533E+03  0.50400001928E-02 0.  1.
    10030    2    1    2    0    0  0.00000000000E+00  0.00000000000E+00  0.65875133503E+03  0.99655234564E+03  0.74777219539E+03 0.  0.
        1    1    3    3  502    0  0.40326141393E+02  0.13650529646E+03  0.79013159910E+03  0.80284982255E+03  0.50400001928E-02 0. -1.
       -1    1    3    3    0  502 -0.40326141393E+02 -0.13650529646E+03 -0.13138026406E+03  0.19370252310E+03  0.50400001928E-02 0.  1.
</event>
<event>
 5   0  0.1175993E-02  0.8959365E+03  0.7818609E-02  0.9430675E-01
       -1   -1    0    0    0  501  0.00000000000E+00  0.00000000000E+00  0.47063732094E+03  0.47063732096E+03  0.50400001928E-02 0. -1.
        1   -1    0    0  501    0  0.00000000000E+00  0.00000000000E+00 -0.42639104588E+03  0.42639104591E+03  0.50400001928E-02 0.  1.
    10030    2    1    2    0    0  0.00000000000E+00  0.00000000000E+00  0.44246275051E+02  0.89702836688E+03  0.89593646992E+03 0.  0.
        4    1    3    3  502    0  0.16028469664E+03 -0.19485825083E+03  0.39272692813E+03  0.46679436036E+03  0.12699999809E+01 0. -1.
       -4    1    3    3    0  502 -0.16028469664E+03  0.19485825083E+03 -0.34848065307E+03  0.43023400651E+03  0.12699999809E+01 0.  1.
</event>
<event>
 5   0  0.1206541E-02  0.9022639E+03  0.7818609E-02  0.9422756E-01
        1   -1    0    0  501    0  0.00000000000E+00  0.00000000000E+00  0.29640224042E+03  0.29640224047E+03  0.50400001928E-02 0. -1.
       -1   -1    0    0    0  501  0.00000000000E+00  0.00000000000E+00 -0.68663454161E+03  0.68663454163E+03  0.50400001928E-02 0.  1.
    10030    2    1    2    0    0  0.00000000000E+00  0.00000000000E+00 -0.39023230118E+03  0.98303678209E+03  0.90226385612E+03 0.  0.
        3    1    3    3  502    0  0.27050867992E+02 -0.43408352505E+03 -0.32567600266E+03  0.54334622948E+03  0.10100000352E+00 0.  1.
       -3    1    3    3    0  502 -0.27050867992E+02  0.43408352505E+03 -0.64556298524E+02  0.43969055261E+03  0.10100000352E+00 0. -1.
</event>
<event>
 5   0  0.1924218E-02  0.8939798E+03  0.7818609E-02  0.9433138E-01
       -2   -1    0    0    0  501  0.00000000000E+00  0.00000000000E+00  0.38837634579E+03  0.38837634580E+03  0.25500000920E-02 0.  1.
        2   -1    0    0  501    0  0.00000000000E+00  0.00000000000E+00 -0.51444938673E+03  0.51444938674E+03  0.25500000920E-02 0. -1.
    10030    2    1    2    0    0  0.00000000000E+00  0.00000000000E+00 -0.12607304095E+03  0.90282573253E+03  0.89397980496E+03 0.  0.
        4    1    3    3  502    0 -0.20174209384E+03  0.25060379249E+03  0.25035039216E+03  0.40765066539E+03  0.12699999809E+01 0.  1.
       -4    1    3    3    0  502  0.20174209384E+03 -0.25060379249E+03 -0.37642343310E+03  0.49517506715E+03  0.12699999809E+01 0. -1.
</event>
<event>
 5   0  0.2041861E-02  0.9342733E+03  0.7818609E-02  0.9383724E-01
        2   -1    0    0  501    0  0.00000000000E+00  0.00000000000E+00  0.12261969053E+04  0.12261969053E+04  0.25500000920E-02 0.  1.
       -2   -1    0    0    0  501  0.00000000000E+00  0.00000000000E+00 -0.17796216975E+03  0.17796216976E+03  0.25500000920E-02 0. -1.
    10030    2    1    2    0    0  0.00000000000E+00  0.00000000000E+00  0.10482347356E+04  0.14041590751E+04  0.93427332580E+03 0.  0.
        5    1    3    3  502    0  0.44230373032E+03 -0.14685921912E+03  0.57151016906E+03  0.73745927578E+03  0.46999998093E+01 0. -1.
       -5    1    3    3    0  502 -0.44230373032E+03  0.14685921912E+03  0.47672456653E+03  0.66669979933E+03  0.46999998093E+01 0.  1.
</event>
<event>
 5   0  0.1968763E-02  0.8998808E+03  0.7818609E-02  0.9425730E-01
        2   -1    0    0  501    0  0.00000000000E+00  0.00000000000E+00  0.13698460521E+04  0.13698460521E+04  0.25500000920E-02 0.  1.
       -2   -1    0    0    0  501  0.00000000000E+00  0.00000000000E+00 -0.14778766945E+03  0.14778766947E+03  0.25500000920E-02 0. -1.
    10030    2    1    2    0    0  0.00000000000E+00  0.00000000000E+00  0.12220583827E+04  0.15176337216E+04  0.89988078225E+03 0.  0.
        2    1    3    3  502    0 -0.82200160747E+02  0.23694943975E+03  0.12410258966E+04  0.12661149946E+04  0.25500000920E-02 0.  1.
       -2    1    3    3    0  502  0.82200160747E+02 -0.23694943975E+03 -0.18967513986E+02  0.25151872697E+03  0.25500000920E-02 0. -1.
</event>
<event>
 5   0  0.2008643E-02  0.9057361E+03  0.7818609E-02  0.9418439E-01
        2   -1    0    0  501    0  0.00000000000E+00  0.00000000000E+00  0.17617121072E+03  0.17617121074E+03  0.25500000920E-02 0. -1.
       -2   -1    0    0    0  501  0.00000000000E+00  0.00000000000E+00 -0.11641487282E+04  0.11641487282E+04  0.25500000920E-02 0.  1.
    10030    2    1    2    0    0  0.00000000000E+00  0.00000000000E+00 -0.98797751750E+03  0.13403199390E+04  0.90573614463E+03 0.  0.
        3    1    3    3  502    0  0.29816429729E+03 -0.32335405105E+03 -0.65357331205E+03  0.78779304068E+03  0.10100000352E+00 0.  1.
       -3    1    3    3    0  502 -0.29816429729E+03  0.32335405105E+03 -0.33440420545E+03  0.55252689829E+03  0.10100000352E+00 0. -1.
</event>
<event>
 5   0  0.1968763E-02  0.8979684E+03  0.7818609E-02  0.9428125E-01
        2   -1    0    0  501    0  0.00000000000E+00  0.00000000000E+00  0.90738585922E+03  0.90738585922E+03  0.25500000920E-02 0.  1.
       -2   -1    0    0    0  501  0.00000000000E+00  0.00000000000E+00 -0.22216218696E+03  0.22216218697E+03  0.25500000920E-02 0. -1.
    10030    2    1    2    0    0  0.00000000000E+00  0.00000000000E+00  0.68522367226E+03  0.11295480462E+04  0.89796843354E+03 0.  0.
        2    1    3    3  502    0  0.25538669027E+03  0.33221614903E+02  0.80523736846E+03  0.84541898301E+03  0.25500000920E-02 0.  1.
       -2    1    3    3    0  502 -0.25538669027E+03 -0.33221614903E+02 -0.12001369619E+03  0.28412906319E+03  0.25500000920E-02 0. -1.
</event>
<event>
 5   0  0.2008643E-02  0.9512489E+03  0.7818609E-02  0.9363692E-01
        2   -1    0    0  501    0  0.00000000000E+00  0.00000000000E+00  0.22831486153E+03  0.22831486154E+03  0.25500000920E-02 0. -1.
       -2   -1    0    0    0  501  0.00000000000E+00  0.00000000000E+00 -0.99081871511E+03  0.99081871511E+03  0.25500000920E-02 0.  1.
    10030    2    1    2    0    0  0.00000000000E+00  0.00000000000E+00 -0.76250385358E+03  0.12191335767E+04  0.95124894270E+03 0.  0.
        3    1    3    3  502    0  0.39113700515E+03 -0.27046585568E+03 -0.39262090580E+03  0.61667748601E+03  0.10100000352E+00 0. -1.
       -3    1    3    3    0  502 -0.39113700515E+03  0.27046585568E+03 -0.36988294779E+03  0.60245609064E+03  0.10100000352E+00 0.  1.
</event>
<event>
 5   0  0.2008643E-02  0.9038126E+03  0.7818609E-02  0.9420828E-01
       -2   -1    0    0    0  501  0.00000000000E+00  0.00000000000E+00  0.52479841777E+03  0.52479841778E+03  0.25500000920E-02 0.  1.
        2   -1    0    0  501    0  0.00000000000E+00  0.00000000000E+00 -0.38913852740E+03  0.38913852741E+03  0.25500000920E-02 0. -1.
    10030    2    1    2    0    0  0.00000000000E+00  0.00000000000E+00  0.13565989037E+03  0.91393694519E+03  0.90381255464E+03 0.  0.
        3    1    3    3  502    0 -0.20521199482E+03 -0.19732755995E+03  0.42271591205E+03  0.50964583903E+03  0.10100000352E+00 0.  1.
       -3    1    3    3    0  502  0.20521199482E+03  0.19732755995E+03 -0.28705602168E+03  0.40429110616E+03  0.10100000352E+00 0. -1.
</event>
<event>
 5   0  0.1924218E-02  0.9585662E+03  0.7818609E-02  0.9355194E-01
        2   -1    0    0  501    0  0.00000000000E+00  0.00000000000E+00  0.14188605303E+04  0.14188605303E+04  0.25500000920E-02 0. -1.
       -2   -1    0    0    0  501  0.00000000000E+00  0.00000000000E+00 -0.16189914452E+03  0.16189914454E+03  0.25500000920E-02 0.  1.
    10030    2    1    2    0    0  0.00000000000E+00  0.00000000000E+00  0.12569613858E+04  0.15807596749E+04  0.95856623366E+03 0.  0.
        4    1    3    3  502    0  0.75294118916E+02  0.18574121309E+03 -0.89472443380E+02  0.21949016745E+03  0.12699999809E+01 0.  1.
       -4    1    3    3    0  502 -0.75294118916E+02 -0.18574121309E+03  0.13464338292E+04  0.13612695074E+04  0.12699999809E+01 0. -1.
</event>
<event>
 5   0  0.1206541E-02  0.8925819E+03  0.7818609E-02  0.9434902E-01
       -1   -1    0    0    0  501  0.00000000000E+00  0.00000000000E+00  0.25933708520E+03  0.25933708525E+03  0.50400001928E-02 0. -1.
        1   -1    0    0  501    0  0.00000000000E+00  0.00000000000E+00 -0.76801828669E+03  0.76801828671E+03  0.50400001928E-02 0.  1.
    10030    2    1    2    0    0  0.00000000000E+00  0.00000000000E+00 -0.50868120150E+03  0.10273553720E+04  0.89258192651E+03 0.  0.
        3    1    3    3  502    0 -0.37572280419E+03 -0.40580599730E+02  0.18911012492E+02  0.37838082306E+03  0.10100000352E+00 0. -1.
       -3    1    3    3    0  502  0.37572280419E+03  0.40580599730E+02 -0.52759221399E+03  0.64897454890E+03  0.10100000352E+00 0.  1.
</event>
<event>
 5   0  0.1162839E-02  0.7672055E+03  0.7818609E-02  0.9608738E-01
       -1   -1    0    0    0  501  0.00000000000E+00  0.00000000000E+00  0.18105329671E+03  0.18105329678E+03  0.50400001928E-02 0. -1.
        1   -1    0    0  501    0  0.00000000000E+00  0.00000000000E+00 -0.81274992245E+03  0.81274992247E+03  0.50400001928E-02 0.  1.
    10030    2    1    2    0    0  0.00000000000E+00  0.00000000000E+00 -0.63169662574E+03  0.99380321925E+03  0.76720545593E+03 0.  0.
        2    1    3    3  502    0 -0.35966417255E+03 -0.12090746962E+03 -0.38882772569E+03  0.54328991662E+03  0.25500000920E-02 0. -1.
       -2    1    3    3    0  502  0.35966417255E+03  0.12090746962E+03 -0.24286890005E+03  0.45051330263E+03  0.25500000920E-02 0.  1.
</event>
<event>
 5   0  0.1162839E-02  0.8905660E+03  0.7818609E-02  0.9437452E-01
       -1   -1    0    0    0  501  0.00000000000E+00  0.00000000000E+00  0.28527724287E+03  0.28527724292E+03  0.50400001928E-02 0.  1.
        1   -1    0    0  501    0  0.00000000000E+00  0.00000000000E+00 -0.69503248452E+03  0.69503248454E+03  0.50400001928E-02 0. -1.
    10030    2    1    2    0    0  0.00000000000E+00  0.00000000000E+00 -0.40975524165E+03  0.98030972745E+03  0.89056600187E+03 0.  0.
        2    1    3    3  502    0  0.43724982670E+02 -0.24548980752E+03  0.20121583774E+03  0.32041369052E+03  0.25500000920E-02 0.  1.
       -2    1    3    3    0  502 -0.43724982670E+02  0.24548980752E+03 -0.61097107939E+03  0.65989603694E+03  0.25500000920E-02 0. -1.
</event>
<event>
 5   0  0.1206541E-02  0.8921786E+03  0.7818609E-02  0.9435412E-01
        1   -1    0    0  501    0  0.00000000000E+00  0.00000000000E+00  0.45881598461E+03  0.45881598464E+03  0.50400001928E-02 0.  1.
       -1   -1    0    0    0  501  0.00000000000E+00  0.00000000000E+00 -0.43371566965E+03  0.43371566968E+03  0.50400001928E-02 0. -1.
    10030    2    1    2    0    0  0.00000000000E+00  0.00000000000E+00  0.25100314960E+02  0.89253165432E+03  0.89217864139E+03 0.  0.
        3    1    3    3  502    0 -0.14415818258E+03 -0.28433971730E+03 -0.29960698320E+03  0.43748715527E+03  0.10100000352E+00 0. -1.
       -3    1    3    3    0  502  0.14415818258E+03  0.28433971730E+03  0.32470729816E+03  0.45504449905E+03  0.10100000352E+00 0.  1.
</event>
<event>
 5   0  0.2008770E-02  0.9024233E+03  0.7818609E-02  0.9422557E-01
       -2   -1    0    0    0  501  0.00000000000E+00  0.00000000000E+00  0.45776836259E+03  0.45776836259E+03  0.25500000920E-02 0.  1.
        2   -1    0    0  501    0  0.00000000000E+00  0.00000000000E+00 -0.44474886912E+03  0.44474886913E+03  0.25500000920E-02 0. -1.
    10030    2    1    2    0    0  0.00000000000E+00  0.00000000000E+00  0.13019493468E+02  0.90251723172E+03  0.90242331882E+03 0.  0.
        1    1    3    3  502    0 -0.28612976704E+03 -0.17930951731E+03  0.30582305842E+03  0.45557643670E+03  0.50400001928E-02 0.  1.
       -1    1    3    3    0  502  0.28612976704E+03  0.17930951731E+03 -0.29280356495E+03  0.44694079503E+03  0.50400001928E-02 0. -1.
</event>
<event>
 5   0  0.1206541E-02  0.9009055E+03  0.7818609E-02  0.9424450E-01
        1   -1    0    0  501    0  0.00000000000E+00  0.00000000000E+00  0.13326619694E+04  0.13326619694E+04  0.50400001928E-02 0. -1.
       -1   -1    0    0    0  501  0.00000000000E+00  0.00000000000E+00 -0.15225744052E+03  0.15225744060E+03  0.50400001928E-02 0.  1.
    10030    2    1    2    0    0  0.00000000000E+00  0.00000000000E+00  0.11804045289E+04  0.14849194100E+04  0.90090554579E+03 0.  0.
        3    1    3    3  502    0 -0.12245748837E+03 -0.36340420668E+02  0.13021846265E+04  0.13084346657E+04  0.10100000352E+00 0. -1.
       -3    1    3    3    0  502  0.12245748837E+03  0.36340420668E+02 -0.12178009758E+03  0.17648474438E+03  0.10100000352E+00 0.  1.
</event>
<event>
 5   0  0.2008643E-02  0.8719015E+03  0.7818609E-02  0.9461404E-01
        2   -1    0    0  501    0  0.00000000000E+00  0.00000000000E+00  0.52678736296E+03  0.52678736296E+03  0.25500000920E-02 0.  1.
       -2   -1    0    0    0  501  0.00000000000E+00  0.00000000000E+00 -0.36077753200E+03  0.36077753201E+03  0.25500000920E-02 0. -1.
    10030    2    1    2    0    0  0.00000000000E+00  0.00000000000E+00  0.16600983095E+03  0.88756489497E+03  0.87190147311E+03 0.  0.
        3    1    3    3  502    0  0.63923095909E+02 -0.31153511731E+03  0.38654406261E+03  0.50055630458E+03  0.10100000352E+00 0.  1.
       -3    1    3    3    0  502 -0.63923095909E+02  0.31153511731E+03 -0.22053423166E+03  0.38700859040E+03  0.10100000352E+00 0. -1.
</event>
<event>
 5   0  0.1226424E-02  0.8823847E+03  0.7818609E-02  0.9447873E-01
        1   -1    0    0  501    0  0.00000000000E+00  0.00000000000E+00  0.87270086675E+03  0.87270086676E+03  0.50400001928E-02 0. -1.
       -1   -1    0    0    0  501  0.00000000000E+00  0.00000000000E+00 -0.22304399190E+03  0.22304399196E+03  0.50400001928E-02 0.  1.
    10030    2    1    2    0    0  0.00000000000E+00  0.00000000000E+00  0.64965687485E+03  0.10957448587E+04  0.88238468957E+03 0.  0.
        1    1    3    3  502    0  0.10736489026E+03  0.10536178682E+03 -0.19021508260E+03  0.24250794514E+03  0.50400001928E-02 0.  1.
       -1    1    3    3    0  502 -0.10736489026E+03 -0.10536178682E+03  0.83987195744E+03  0.85323691359E+03  0.50400001928E-02 0. -1.
</event>
<event>
 5   0  0.1924218E-02  0.9432899E+03  0.7818609E-02  0.9373028E-01
        2   -1    0    0  501    0  0.00000000000E+00  0.00000000000E+00  0.13174203597E+04  0.13174203597E+04  0.25500000920E-02 0. -1.
       -2   -1    0    0    0  501  0.00000000000E+00  0.00000000000E+00 -0.16885192667E+03  0.16885192669E+03  0.25500000920E-02 0.  1.
    10030    2    1    2    0    0  0.00000000000E+00  0.00000000000E+00  0.11485684331E+04  0.14862722864E+04  0.94328991512E+03 0.  0.
        4    1    3    3  502    0  0.68288376385E+02  0.13075789482E+03 -0.13156540368E+03  0.19766637992E+03  0.12699999809E+01 0.  1.
       -4    1    3    3    0  502 -0.68288376385E+02 -0.13075789482E+03  0.12801338367E+04  0.12886059065E+04  0.12699999809E+01 0. -1.
</event>
<event>
 5   0  0.1924218E-02  0.9127740E+03  0.7818609E-02  0.9409753E-01
       -2   -1    0    0    0  501  0.00000000000E+00  0.00000000000E+00  0.78674069763E+03  0.78674069763E+03  0.25500000920E-02 0. -1.
        2   -1    0    0  501    0  0.00000000000E+00  0.00000000000E+00 -0.26474933894E+03  0.26474933896E+03  0.25500000920E-02 0.  1.
    10030    2    1    2    0    0  0.00000000000E+00  0.00000000000E+00  0.52199135869E+03  0.10514900366E+04  0.91277396901E+03 0.  0.
        4    1    3    3  502    0 -0.29295293664E+03 -0.26023321282E+03 -0.85379936448E+01  0.39194037604E+03  0.12699999809E+01 0.  1.
       -4    1    3    3    0  502  0.29295293664E+03  0.26023321282E+03  0.53052935233E+03  0.65954966054E+03  0.12699999809E+01 0. -1.
</event>
<event>
 5   0  0.1177712E-02  0.8505284E+03  0.7818609E-02  0.9489628E-01
       -1   -1    0    0    0  501  0.00000000000E+00  0.00000000000E+00  0.86601661918E+03  0.86601661920E+03  0.50400001928E-02 0. -1.
        1   -1    0    0  501    0  0.00000000000E+00  0.00000000000E+00 -0.20882931339E+03  0.20882931345E+03  0.50400001928E-02 0.  1.
    10030    2    1    2    0    0  0.00000000000E+00  0.00000000000E+00  0.65718730580E+03  0.10748459326E+04  0.85052843810E+03 0.  0.
        5    1    3    3  502    0  0.21708202924E+03  0.10024316190E+03  0.77298125285E+03  0.80913250224E+03  0.46999998093E+01 0. -1.
       -5    1    3    3    0  502 -0.21708202924E+03 -0.10024316190E+03 -0.11579394705E+03  0.26571343041E+03  0.46999998093E+01 0.  1.
</event>
<event>
 5   0  0.1206541E-02  0.9189645E+03  0.7818609E-02  0.9402181E-01
       -1   -1    0    0    0  501  0.00000000000E+00  0.00000000000E+00  0.44171909103E+03  0.44171909106E+03  0.50400001928E-02 0.  1.
        1   -1    0    0  501    0  0.00000000000E+00  0.00000000000E+00 -0.47795970823E+03  0.47795970826E+03  0.50400001928E-02 0. -1.
    10030    2    1    2    0    0  0.00000000000E+00  0.00000000000E+00 -0.36240617203E+02  0.91967879931E+03  0.91896447786E+03 0.  0.
        3    1    3    3  502    0  0.35144270798E+03  0.27987872649E+03  0.78286493091E+02  0.45604041897E+03  0.10100000352E+00 0.  1.
       -3    1    3    3    0  502 -0.35144270798E+03 -0.27987872649E+03 -0.11452711029E+03  0.46363838034E+03  0.10100000352E+00 0. -1.
</event>
<event>
 5   0  0.1162839E-02  0.8741871E+03  0.7818609E-02  0.9458437E-01
        1   -1    0    0  501    0  0.00000000000E+00  0.00000000000E+00  0.24476040191E+04  0.24476040191E+04  0.50400001928E-02 0.  1.
       -1   -1    0    0    0  501  0.00000000000E+00  0.00000000000E+00 -0.78056247366E+02  0.78056247528E+02  0.50400001928E-02 0. -1.
    10030    2    1    2    0    0  0.00000000000E+00  0.00000000000E+00  0.23695477718E+04  0.25256602667E+04  0.87418713096E+03 0.  0.
        2    1    3    3  502    0  0.14467406178E+03  0.39820019797E+03  0.87418251808E+03  0.97143659429E+03  0.25500000920E-02 0.  1.
       -2    1    3    3    0  502 -0.14467406178E+03 -0.39820019797E+03  0.14953652537E+04  0.15542236724E+04  0.25500000920E-02 0. -1.
</event>
<event>
 5   0  0.1924218E-02  0.9077385E+03  0.7818609E-02  0.9415959E-01
       -2   -1    0    0    0  501  0.00000000000E+00  0.00000000000E+00  0.84788145568E+03  0.84788145568E+03  0.25500000920E-02 0. -1.
        2   -1    0    0  501    0  0.00000000000E+00  0.00000000000E+00 -0.24295527765E+03  0.24295527766E+03  0.25500000920E-02 0.  1.
    10030    2    1    2    0    0  0.00000000000E+00  0.00000000000E+00  0.60492617803E+03  0.10908367333E+04  0.90773845238E+03 0.  0.
        4    1    3    3  502    0 -0.13610456027E+03  0.73835568736E+02  0.81515681466E+03  0.82973392598E+03  0.12699999809E+01 0. -1.
       -4    1    3    3    0  502  0.13610456027E+03 -0.73835568736E+02 -0.21023063663E+03  0.26110280736E+03  0.12699999809E+01 0.  1.
</event>
<event>
 5   0  0.1206541E-02  0.8876785E+03  0.7818609E-02  0.9441116E-01
        1   -1    0    0  501    0  0.00000000000E+00  0.00000000000E+00  0.11020922591E+04  0.11020922591E+04  0.50400001928E-02 0. -1.
       -1   -1    0    0    0  501  0.00000000000E+00  0.00000000000E+00 -0.17874482172E+03  0.17874482179E+03  0.50400001928E-02 0.  1.
    10030    2    1    2    0    0  0.00000000000E+00  0.00000000000E+00  0.92334743737E+03  0.12808370809E+04  0.88767851032E+03 0.  0.
        3    1    3    3  502    0  0.12201788436E+03  0.42133994089E+03  0.36404998488E+03  0.57004220158E+03  0.10100000352E+00 0.  1.
       -3    1    3    3    0  502 -0.12201788436E+03 -0.42133994089E+03  0.55929745249E+03  0.71079487931E+03  0.10100000352E+00 0. -1.
</event>
<event>
 5   0  0.1968763E-02  0.8734698E+03  0.7818609E-02  0.9459367E-01
        2   -1    0    0  501    0  0.00000000000E+00  0.00000000000E+00  0.91483977016E+03  0.91483977017E+03  0.25500000920E-02 0. -1.
       -2   -1    0    0    0  501  0.00000000000E+00  0.00000000000E+00 -0.20849265234E+03  0.20849265235E+03  0.25500000920E-02 0.  1.
    10030    2    1    2    0    0  0.00000000000E+00  0.00000000000E+00  0.70634711783E+03  0.11233324225E+04  0.87346979377E+03 0.  0.
        2    1    3    3  502    0  0.27168806601E+03  0.34185392683E+03  0.34330708802E+03  0.55546221221E+03  0.25500000920E-02 0. -1.
       -2    1    3    3    0  502 -0.27168806601E+03 -0.34185392683E+03  0.36304002981E+03  0.56787021031E+03  0.25500000920E-02 0.  1.
</event>
<event>
 5   0  0.1924218E-02  0.9087778E+03  0.7818609E-02  0.9414675E-01
       -2   -1    0    0    0  501  0.00000000000E+00  0.00000000000E+00  0.37867299904E+03  0.37867299905E+03  0.25500000920E-02 0.  1.
        2   -1    0    0  501    0  0.00000000000E+00  0.00000000000E+00 -0.54524422656E+03  0.54524422656E+03  0.25500000920E-02 0. -1.
    10030    2    1    2    0    0  0.00000000000E+00  0.00000000000E+00 -0.16657122751E+03  0.92391722562E+03  0.90877778690E+03 0.  0.
        4    1    3    3  502    0  0.73730084958E+02  0.39963868106E+03  0.12337508663E+03  0.42470015979E+03  0.12699999809E+01 0.  1.
       -4    1    3    3    0  502 -0.73730084958E+02 -0.39963868106E+03 -0.28994631415E+03  0.49921706583E+03  0.12699999809E+01 0. -1.
</event>
<event>
 5   0  0.1177712E-02  0.8821699E+03  0.7818609E-02  0.9448149E-01
       -1   -1    0    0    0  501  0.00000000000E+00  0.00000000000E+00  0.21727785806E+03  0.21727785812E+03  0.50400001928E-02 0. -1.
        1   -1    0    0  501    0  0.00000000000E+00  0.00000000000E+00 -0.89542453420E+03  0.89542453422E+03  0.50400001928E-02 0.  1.
    10030    2    1    2    0    0  0.00000000000E+00  0.00000000000E+00 -0.67814667614E+03  0.11127023923E+04  0.88216988135E+03 0.  0.
        5    1    3    3  502    0 -0.35952598303E+03 -0.25548952794E+03 -0.33899837033E+03  0.55630550639E+03  0.46999998093E+01 0.  1.
       -5    1    3    3    0  502  0.35952598303E+03  0.25548952794E+03 -0.33914830581E+03  0.55639688595E+03  0.46999998093E+01 0. -1.
</event>
<event>
 5   0  0.7893875E-03  0.9297803E+03  0.7818609E-02  0.9389102E-01
       -4   -1    0    0    0  501  0.00000000000E+00  0.00000000000E+00  0.44481722505E+03  0.44481903803E+03  0.12699999809E+01 0. -1.
        4   -1    0    0  501    0  0.00000000000E+00  0.00000000000E+00 -0.48586527893E+03  0.48586693875E+03  0.12699999809E+01 0.  1.
    10030    2    1    2    0    0  0.00000000000E+00  0.00000000000E+00 -0.41048053883E+02  0.93068597678E+03  0.92978032064E+03 0.  0.
        4    1    3    3  502    0  0.10766107434E+03  0.38421513092E+03 -0.25931262281E+03  0.47587479761E+03  0.12699999809E+01 0.  1.
       -4    1    3    3    0  502 -0.10766107434E+03 -0.38421513092E+03  0.21826456892E+03  0.45481117917E+03  0.12699999809E+01 0. -1.
</event>
<event>
 5   0  0.1968763E-02  0.8610843E+03  0.7818609E-02  0.9475580E-01
       -2   -1    0    0    0  501  0.00000000000E+00  0.00000000000E+00  0.10221437147E+03  0.10221437150E+03  0.25500000920E-02 0.  1.
        2   -1    0    0  501    0  0.00000000000E+00  0.00000000000E+00 -0.18135075530E+04  0.18135075530E+04  0.25500000920E-02 0. -1.
    10030    2    1    2    0    0  0.00000000000E+00  0.00000000000E+00 -0.17112931815E+04  0.19157219245E+04  0.86108428092E+03 0.  0.
        2    1    3    3  502    0  0.40582974649E+03 -0.83373430564E+02 -0.11162176835E+04  0.11906262340E+04  0.25500000920E-02 0. -1.
       -2    1    3    3    0  502 -0.40582974649E+03  0.83373430564E+02 -0.59507549802E+03  0.72509569052E+03  0.25500000920E-02 0.  1.
</event>
<event>
 5   0  0.2008643E-02  0.8909266E+03  0.7818609E-02  0.9436995E-01
        2   -1    0    0  501    0  0.00000000000E+00  0.00000000000E+00  0.25928913623E+03  0.25928913624E+03  0.25500000920E-02 0. -1.
       -2   -1    0    0    0  501  0.00000000000E+00  0.00000000000E+00 -0.76531378005E+03  0.76531378005E+03  0.25500000920E-02 0.  1.
    10030    2    1    2    0    0  0.00000000000E+00  0.00000000000E+00 -0.50602464382E+03  0.10246029163E+04  0.89092659401E+03 0.  0.
        3    1    3    3  502    0  0.24350108725E+03  0.27715976240E+03  0.34100482935E+02  0.37050393591E+03  0.10100000352E+00 0. -1.
       -3    1    3    3    0  502 -0.24350108725E+03 -0.27715976240E+03 -0.54012512676E+03  0.65409898038E+03  0.10100000352E+00 0.  1.
</event>
<event>
 5   0  0.2041861E-02  0.8693277E+03  0.7818609E-02  0.9464757E-01
        2   -1    0    0  501    0  0.00000000000E+00  0.00000000000E+00  0.23328317761E+04  0.23328317761E+04  0.25500000920E-02 0.  1.
       -2   -1    0    0    0  501  0.00000000000E+00  0.00000000000E+00 -0.80988547430E+02  0.80988547470E+02  0.25500000920E-02 0. -1.
    10030    2    1    2    0    0  0.00000000000E+00  0.00000000000E+00  0.22518432286E+04  0.24138203235E+04  0.86932768734E+03 0.  0.
        5    1    3    3  502    0 -0.36958719384E+03  0.22209485473E+03  0.97409819560E+03  0.10652747078E+04  0.46999998093E+01 0. -1.
       -5    1    3    3    0  502  0.36958719384E+03 -0.22209485473E+03  0.12777450330E+04  0.13485456158E+04  0.46999998093E+01 0.  1.
</event>
<event>
 5   0  0.1162839E-02  0.9698326E+03  0.7818609E-02  0.9342265E-01
       -1   -1    0    0    0  501  0.00000000000E+00  0.00000000000E+00  0.85789075812E+03  0.85789075813E+03  0.50400001928E-02 0. -1.
        1   -1    0    0  501    0  0.00000000000E+00  0.00000000000E+00 -0.27409530991E+03  0.27409530996E+03  0.50400001928E-02 0.  1.
    10030    2    1    2    0    0  0.00000000000E+00  0.00000000000E+00  0.58379544820E+03  0.11319860681E+04  0.96983263144E+03 0.  0.
        2    1    3    3  502    0  0.32482017161E+03  0.19317616607E+03  0.64653879620E+03  0.74889090662E+03  0.25500000920E-02 0. -1.
       -2    1    3    3    0  502 -0.32482017161E+03 -0.19317616607E+03 -0.62743347993E+02  0.38309516147E+03  0.25500000920E-02 0.  1.
</event>
<event>
 5   0  0.1968763E-02  0.8932962E+03  0.7818609E-02  0.9434001E-01
        2   -1    0    0  501    0  0.00000000000E+00  0.00000000000E+00  0.52722041504E+03  0.52722041504E+03  0.25500000920E-02 0.  1.
       -2   -1    0    0    0  501  0.00000000000E+00  0.00000000000E+00 -0.37838921303E+03  0.37838921304E+03  0.25500000920E-02 0. -1.
    10030    2    1    2    0    0  0.00000000000E+00  0.00000000000E+00  0.14883120200E+03  0.90560962808E+03  0.89329618369E+03 0.  0.
        2    1    3    3  502    0 -0.20277283985E+03  0.37145414962E+03 -0.70380010724E+02  0.42900857307E+03  0.25500000920E-02 0. -1.
       -2    1    3    3    0  502  0.20277283985E+03 -0.37145414962E+03  0.21921121273E+03  0.47660105502E+03  0.25500000920E-02 0.  1.
</event>
<event>
 5   0  0.7893875E-03  0.8627182E+03  0.7818609E-02  0.9473424E-01
        4   -1    0    0  501    0  0.00000000000E+00  0.00000000000E+00  0.33896296609E+03  0.33896534525E+03  0.12699999809E+01 0.  1.
       -4   -1    0    0    0  501  0.00000000000E+00  0.00000000000E+00 -0.54893597722E+03  0.54893744633E+03  0.12699999809E+01 0. -1.
    10030    2    1    2    0    0  0.00000000000E+00  0.00000000000E+00 -0.20997301113E+03  0.88790279158E+03  0.86271820538E+03 0.  0.
        3    1    3    3  502    0  0.42336174576E+03  0.29098121644E+02 -0.18463292346E+03  0.46278633848E+03  0.10100000352E+00 0. -1.
       -3    1    3    3    0  502 -0.42336174576E+03 -0.29098121644E+02 -0.25340087669E+02  0.42511645310E+03  0.10100000352E+00 0.  1.
</event>
<event>
 5   0  0.2041861E-02  0.8986691E+03  0.7818609E-02  0.9427247E-01
        2   -1    0    0  501    0  0.00000000000E+00  0.00000000000E+00  0.26941743565E+03  0.26941743566E+03  0.25500000920E-02 0. -1.
       -2   -1    0    0    0  501  0.00000000000E+00  0.00000000000E+00 -0.74940036903E+03  0.74940036904E+03  0.25500000920E-02 0.  1.
    10030    2    1    2    0    0  0.00000000000E+00  0.00000000000E+00 -0.47998293338E+03  0.10188178047E+04  0.89866907304E+03 0.  0.
        5    1    3    3  502    0  0.20961792590E+03  0.35347869107E+03 -0.44591445956E+03  0.60642283527E+03  0.46999998093E+01 0.  1.
       -5    1    3    3    0  502 -0.20961792590E+03 -0.35347869107E+03 -0.34068473825E+02  0.41239496943E+03  0.46999998093E+01 0. -1.
</event>
<event>
 5   0  0.1175993E-02  0.8885356E+03  0.7818609E-02  0.9440027E-01
       -1   -1    0    0    0  501  0.00000000000E+00  0.00000000000E+00  0.11281161721E+04  0.11281161721E+04  0.50400001928E-02 0. -1.
        1   -1    0    0  501    0  0.00000000000E+00  0.00000000000E+00 -0.17495883917E+03  0.17495883925E+03  0.50400001928E-02 0.  1.
    10030    2    1    2    0    0  0.00000000000E+00  0.00000000000E+00  0.95315733288E+03  0.13030750113E+04  0.88853564019E+03 0.  0.
        4    1    3    3  502    0 -0.39965576248E+03  0.19402143706E+03  0.47921703653E+03  0.65346738827E+03  0.12699999809E+01 0. -1.
       -4    1    3    3    0  502  0.39965576248E+03 -0.19402143706E+03  0.47394029635E+03  0.64960762305E+03  0.12699999809E+01 0.  1.
</event>
<event>
 5   0  0.1162839E-02  0.7780420E+03  0.7818609E-02  0.9592356E-01
        1   -1    0    0  501    0  0.00000000000E+00  0.00000000000E+00  0.47001456382E+03  0.47001456385E+03  0.50400001928E-02 0. -1.
       -1   -1    0    0    0  501  0.00000000000E+00  0.00000000000E+00 -0.32198433998E+03  0.32198434002E+03  0.50400001928E-02 0.  1.
    10030    2    1    2    0    0  0.00000000000E+00  0.00000000000E+00  0.14803022384E+03  0.79199890386E+03  0.77804197608E+03 0.  0.
        2    1    3    3  502    0 -0.19253886530E+03  0.13440440319E+03 -0.24171255049E+03  0.33698770796E+03  0.25500000920E-02 0.  1.
       -2    1    3    3    0  502  0.19253886530E+03 -0.13440440319E+03  0.38974277433E+03  0.45501119590E+03  0.25500000920E-02 0. -1.
</event>
<event>
 5   0  0.1226424E-02  0.8547382E+03  0.7818609E-02  0.9484000E-01
       -1   -1    0    0    0  501  0.00000000000E+00  0.00000000000E+00  0.43171339858E+03  0.43171339860E+03  0.50400001928E-02 0.  1.
        1   -1    0    0  501    0  0.00000000000E+00  0.00000000000E+00 -0.42306848259E+03  0.42306848262E+03  0.50400001928E-02 0. -1.
    10030    2    1    2    0    0  0.00000000000E+00  0.00000000000E+00  0.86449159843E+01  0.85478188123E+03  0.85473816453E+03 0.  0.
        1    1    3    3  502    0  0.31352652524E+03 -0.28690743734E+03  0.49375542642E+02  0.42784658917E+03  0.50400001928E-02 0.  1.
       -1    1    3    3    0  502 -0.31352652524E+03  0.28690743734E+03 -0.40730626658E+02  0.42693529205E+03  0.50400001928E-02 0. -1.
</event>
<event>
 5   0  0.2041861E-02  0.9684641E+03  0.7818609E-02  0.9343826E-01
        2   -1    0    0  501    0  0.00000000000E+00  0.00000000000E+00  0.14041970060E+04  0.14041970060E+04  0.25500000920E-02 0. -1.
       -2   -1    0    0    0  501  0.00000000000E+00  0.00000000000E+00 -0.16698558321E+03  0.16698558323E+03  0.25500000920E-02 0.  1.
    10030    2    1    2    0    0  0.00000000000E+00  0.00000000000E+00  0.12372114228E+04  0.15711825892E+04  0.96846405406E+03 0.  0.
        5    1    3    3  502    0  0.24172092143E+03  0.14647635148E+02  0.12988597449E+04  0.13212502730E+04  0.46999998093E+01 0. -1.
       -5    1    3    3    0  502 -0.24172092143E+03 -0.14647635148E+02 -0.61648322085E+02  0.24993231621E+03  0.46999998093E+01 0.  1.
</event>
<event>
 5   0  0.1177712E-02  0.8542461E+03  0.7818609E-02  0.9484656E-01
       -1   -1    0    0    0  501  0.00000000000E+00  0.00000000000E+00  0.11571290531E+03  0.11571290542E+03  0.50400001928E-02 0. -1.
        1   -1    0    0  501    0  0.00000000000E+00  0.00000000000E+00 -0.15766096528E+04  0.15766096529E+04  0.50400001928E-02 0.  1.
    10030    2    1    2    0    0  0.00000000000E+00  0.00000000000E+00 -0.14608967475E+04  0.16923225583E+04  0.85424606190E+03 0.  0.
        5    1    3    3  502    0  0.13388150294E+03  0.39679410420E+03 -0.56420146315E+03  0.70264870240E+03  0.46999998093E+01 0.  1.
       -5    1    3    3    0  502 -0.13388150294E+03 -0.39679410420E+03 -0.89669528439E+03  0.98967385588E+03  0.46999998093E+01 0. -1.
</event>
<event>
 5   0  0.1206541E-02  0.8936878E+03  0.7818609E-02  0.9433507E-01
       -1   -1    0    0    0  501  0.00000000000E+00  0.00000000000E+00  0.47013717380E+03  0.47013717383E+03  0.50400001928E-02 0.  1.
        1   -1    0    0  501    0  0.00000000000E+00  0.00000000000E+00 -0.42470471003E+03  0.42470471006E+03  0.50400001928E-02 0. -1.
    10030    2    1    2    0    0  0.00000000000E+00  0.00000000000E+00  0.45432463774E+02  0.89484188388E+03  0.89368780253E+03 0.  0.
        3    1    3    3  502    0 -0.43503391431E+03 -0.95020125940E+02  0.59995090326E+02  0.44931364546E+03  0.10100000352E+00 0.  1.
       -3    1    3    3    0  502  0.43503391431E+03  0.95020125940E+02 -0.14562626552E+02  0.44552823842E+03  0.10100000352E+00 0. -1.
</event>
<event>
 5   0  0.2008770E-02  0.8989345E+03  0.7818609E-02  0.9426914E-01
       -2   -1    0    0    0  501  0.00000000000E+00  0.00000000000E+00  0.27985642442E+03  0.27985642443E+03  0.25500000920E-02 0.  1.
        2   -1    0    0  501    0  0.00000000000E+00  0.00000000000E+00 -0.72187308141E+03  0.72187308142E+03  0.25500000920E-02 0. -1.
    10030    2    1    2    0    0  0.00000000000E+00  0.00000000000E+00 -0.44201665700E+03  0.10017295058E+04  0.89893452366E+03 0.  0.
        1    1    3    3  502    0 -0.18644086602E+03  0.32879953078E+03  0.50014114676E+02  0.38127514954E+03  0.50400001928E-02 0.  1.
       -1    1    3    3    0  502  0.18644086602E+03 -0.32879953078E+03 -0.49203077167E+03  0.62045435631E+03  0.50400001928E-02 0. -1.
</event>
<event>
 5   0  0.1226424E-02  0.8618871E+03  0.7818609E-02  0.9474520E-01
        1   -1    0    0  501    0  0.00000000000E+00  0.00000000000E+00  0.81374741523E+03  0.81374741525E+03  0.50400001928E-02 0. -1.
       -1   -1    0    0    0  501  0.00000000000E+00  0.00000000000E+00 -0.22821864348E+03  0.22821864354E+03  0.50400001928E-02 0.  1.
    10030    2    1    2    0    0  0.00000000000E+00  0.00000000000E+00  0.58552877175E+03  0.10419660588E+04  0.86188707214E+03 0.  0.
        1    1    3    3  502    0  0.16168858910E+03 -0.81713035802E+02  0.76547542523E+03  0.78662115832E+03  0.50400001928E-02 0. -1.
       -1    1    3    3    0  502 -0.16168858910E+03  0.81713035802E+02 -0.17994665349E+03  0.25534490046E+03  0.50400001928E-02 0.  1.
</event>
<event>
 5   0  0.2008643E-02  0.8503052E+03  0.7818609E-02  0.9489927E-01
       -2   -1    0    0    0  501  0.00000000000E+00  0.00000000000E+00  0.12699788873E+03  0.12699788876E+03  0.25500000920E-02 0.  1.
        2   -1    0    0  501    0  0.00000000000E+00  0.00000000000E+00 -0.14232892662E+04  0.14232892662E+04  0.25500000920E-02 0. -1.
    10030    2    1    2    0    0  0.00000000000E+00  0.00000000000E+00 -0.12962913775E+04  0.15502871550E+04  0.85030519672E+03 0.  0.
        3    1    3    3  502    0 -0.21995710735E+03 -0.19095652435E+03 -0.12127802347E+04  0.12472695904E+04  0.10100000352E+00 0. -1.
       -3    1    3    3    0  502  0.21995710735E+03  0.19095652435E+03 -0.83511142772E+02  0.30301756456E+03  0.10100000352E+00 0.  1.
</event>
<event>
 5   0  0.1226424E-02  0.9035298E+03  0.7818609E-02  0.9421180E-01
       -1   -1    0    0    0  501  0.00000000000E+00  0.00000000000E+00  0.62321895695E+03  0.62321895697E+03  0.50400001928E-02 0. -1.
        1   -1    0    0  501    0  0.00000000000E+00  0.00000000000E+00 -0.32747961968E+03  0.32747961972E+03  0.50400001928E-02 0.  1.
    10030    2    1    2    0    0  0.00000000000E+00  0.00000000000E+00  0.29573933726E+03  0.95069857669E+03  0.90352976050E+03 0.  0.
        1    1    3    3  502    0  0.37320743697E+03  0.12267225166E+03 -0.86843376393E+02  0.40233573590E+03  0.50400001928E-02 0.  1.
       -1    1    3    3    0  502 -0.37320743697E+03 -0.12267225166E+03  0.38258271366E+03  0.54836284078E+03  0.50400001928E-02 0. -1.
</event>
<event>
 5   0  0.1175993E-02  0.8914135E+03  0.7818609E-02  0.9436379E-01
       -1   -1    0    0    0  501  0.00000000000E+00  0.00000000000E+00  0.15481279455E+03  0.15481279463E+03  0.50400001928E-02 0.  1.
        1   -1    0    0  501    0  0.00000000000E+00  0.00000000000E+00 -0.12831918979E+04  0.12831918979E+04  0.50400001928E-02 0. -1.
    10030    2    1    2    0    0  0.00000000000E+00  0.00000000000E+00 -0.11283791034E+04  0.14380046926E+04  0.89141353753E+03 0.  0.
        4    1    3    3  502    0  0.35586748145E+03  0.21847025816E+03 -0.31281388194E+03  0.52175191010E+03  0.12699999809E+01 0. -1.
       -4    1    3    3    0  502 -0.35586748145E+03 -0.21847025816E+03 -0.81556522144E+03  0.91625278247E+03  0.12699999809E+01 0.  1.
</event>
<event>
 5   0  0.2008770E-02  0.9020174E+03  0.7818609E-02  0.9423063E-01
       -2   -1    0    0    0  501  0.00000000000E+00  0.00000000000E+00  0.27368832377E+03  0.27368832378E+03  0.25500000920E-02 0.  1.
        2   -1    0    0  501    0  0.00000000000E+00  0.00000000000E+00 -0.74321352895E+03  0.74321352896E+03  0.25500000920E-02 0. -1.
    10030    2    1    2    0    0  0.00000000000E+00  0.00000000000E+00 -0.46952520518E+03  0.10169018527E+04  0.90201743874E+03 0.  0.
        1    1    3    3  502    0  0.12605915490E+03  0.14540449040E+03  0.22507954700E+03  0.29613202946E+03  0.50400001928E-02 0.  1.
       -1    1    3    3    0  502 -0.12605915490E+03 -0.14540449040E+03 -0.69460475219E+03  0.72076982328E+03  0.50400001928E-02 0. -1.
</event>
<event>
 5   0  0.1226424E-02  0.8851805E+03  0.7818609E-02  0.9444299E-01
        1   -1    0    0  501    0  0.00000000000E+00  0.00000000000E+00  0.10178737690E+04  0.10178737691E+04  0.50400001928E-02 0. -1.
       -1   -1    0    0    0  501  0.00000000000E+00  0.00000000000E+00 -0.19244637475E+03  0.19244637481E+03  0.50400001928E-02 0.  1.
    10030    2    1    2    0    0  0.00000000000E+00  0.00000000000E+00  0.82542739430E+03  0.12103201439E+04  0.88518047165E+03 0.  0.
        1    1    3    3  502    0  0.15662324739E+03  0.19468930423E+03  0.91220729148E+03  0.94581018681E+03  0.50400001928E-02 0. -1.
       -1    1    3    3    0  502 -0.15662324739E+03 -0.19468930423E+03 -0.86779897181E+02  0.26450995707E+03  0.50400001928E-02 0.  1.
</event>
<event>
 5   0  0.1226424E-02  0.8770416E+03  0.7818609E-02  0.9454745E-01
       -1   -1    0    0    0  501  0.00000000000E+00  0.00000000000E+00  0.21232286981E+03  0.21232286987E+03  0.50400001928E-02 0.  1.
        1   -1    0    0  501    0  0.00000000000E+00  0.00000000000E+00 -0.90569842716E+03  0.90569842717E+03  0.50400001928E-02 0. -1.
    10030    2    1    2    0    0  0.00000000000E+00  0.00000000000E+00 -0.69337555734E+03  0.11180212970E+04  0.87704159372E+03 0.  0.
        1    1    3    3  502    0  0.33572050750E+03  0.27793007006E+03 -0.40844621076E+03  0.59731205421E+03  0.50400001928E-02 0. -1.
       -1    1    3    3    0  502 -0.33572050750E+03 -0.27793007006E+03 -0.28492934658E+03  0.52070924283E+03  0.50400001928E-02 0.  1.
</event>
<event>
 5   0  0.2008643E-02  0.9065485E+03  0.7818609E-02  0.9417432E-01
        2   -1    0    0  501    0  0.00000000000E+00  0.00000000000E+00  0.13085497498E+04  0.13085497498E+04  0.25500000920E-02 0. -1.
       -2   -1    0    0    0  501  0.00000000000E+00  0.00000000000E+00 -0.15701163505E+03  0.15701163507E+03  0.25500000920E-02 0.  1.
    10030    2    1    2    0    0  0.00000000000E+00  0.00000000000E+00  0.11515381148E+04  0.14655613849E+04  0.90654847809E+03 0.  0.
        3    1    3    3  502    0  0.22837715915E+03 -0.18367604058E+00 -0.57205117525E+02  0.23543278495E+03  0.10100000352E+00 0.  1.
       -3    1    3    3    0  502 -0.22837715915E+03  0.18367604058E+00  0.12087432323E+04  0.12301286000E+04  0.10100000352E+00 0. -1.
</event>
<event>
 5   0  0.2041861E-02  0.8697429E+03  0.7818609E-02  0.9464215E-01
       -2   -1    0    0    0  501  0.00000000000E+00  0.00000000000E+00  0.61193561513E+03  0.61193561513E+03  0.25500000920E-02 0. -1.
        2   -1    0    0  501    0  0.00000000000E+00  0.00000000000E+00 -0.30904098143E+03  0.30904098144E+03  0.25500000920E-02 0.  1.
    10030    2    1    2    0    0  0.00000000000E+00  0.00000000000E+00  0.30289463370E+03  0.92097659657E+03  0.86974291162E+03 0.  0.
        5    1    3    3  502    0 -0.41560339626E+01  0.26424187564E+03 -0.21422070649E+03  0.34022586990E+03  0.46999998093E+01 0.  1.
       -5    1    3    3    0  502  0.41560339626E+01 -0.26424187564E+03  0.51711534019E+03  0.58075072667E+03  0.46999998093E+01 0. -1.
</event>
<event>
 5   0  0.1968763E-02  0.8933171E+03  0.7818609E-02  0.9433974E-01
       -2   -1    0    0    0  501  0.00000000000E+00  0.00000000000E+00  0.48871474005E+03  0.48871474006E+03  0.25500000920E-02 0. -1.
        2   -1    0    0  501    0  0.00000000000E+00  0.00000000000E+00 -0.40822153083E+03  0.40822153084E+03  0.25500000920E-02 0.  1.
    10030    2    1    2    0    0  0.00000000000E+00  0.00000000000E+00  0.80493209221E+02  0.89693627090E+03  0.89331714264E+03 0.  0.
        2    1    3    3  502    0  0.34644127223E+03  0.80863768337E+02 -0.23092789408E+03  0.42413228644E+03  0.25500000920E-02 0.  1.
       -2    1    3    3    0  502 -0.34644127223E+03 -0.80863768337E+02  0.31142110330E+03  0.47280398446E+03  0.25500000920E-02 0. -1.
</event>
<event>
 5   0  0.1968763E-02  0.7396719E+03  0.7818609E-02  0.9651694E-01
        2   -1    0    0  501    0  0.00000000000E+00  0.00000000000E+00  0.48691563346E+03  0.48691563347E+03  0.25500000920E-02 0.  1.
       -2   -1    0    0    0  501  0.00000000000E+00  0.00000000000E+00 -0.28090826703E+03  0.28090826704E+03  0.25500000920E-02 0. -1.
    10030    2    1    2    0    0  0.00000000000E+00  0.00000000000E+00  0.20600736644E+03  0.76782390051E+03  0.73967189156E+03 0.  0.
        2    1    3    3  502    0 -0.25098903204E+03 -0.12682631509E+03 -0.14634306726E+03  0.31701214763E+03  0.25500000920E-02 0. -1.
       -2    1    3    3    0  502  0.25098903204E+03  0.12682631509E+03  0.35235043370E+03  0.45081175288E+03  0.25500000920E-02 0.  1.
</event>
<event>
 5   0  0.2008643E-02  0.8945723E+03  0.7818609E-02  0.9432392E-01
       -2   -1    0    0    0  501  0.00000000000E+00  0.00000000000E+00  0.50533998835E+03  0.50533998836E+03  0.25500000920E-02 0. -1.
        2   -1    0    0  501    0  0.00000000000E+00  0.00000000000E+00 -0.39590158463E+03  0.39590158464E+03  0.25500000920E-02 0.  1.
    10030    2    1    2    0    0  0.00000000000E+00  0.00000000000E+00  0.10943840372E+03  0.90124157300E+03  0.89457230490E+03 0.  0.
        3    1    3    3  502    0 -0.68787732375E+02  0.15241725574E+03  0.47266395574E+03  0.50137211453E+03  0.10100000352E+00 0. -1.
       -3    1    3    3    0  502  0.68787732375E+02 -0.15241725574E+03 -0.36322555202E+03  0.39986945847E+03  0.10100000352E+00 0.  1.
</event>
<event>
 5   0  0.1162839E-02  0.8895976E+03  0.7818609E-02  0.9438679E-01
       -1   -1    0    0    0  501  0.00000000000E+00  0.00000000000E+00  0.55851943602E+03  0.55851943604E+03  0.50400001928E-02 0. -1.
        1   -1    0    0  501    0  0.00000000000E+00  0.00000000000E+00 -0.35423291737E+03  0.35423291741E+03  0.50400001928E-02 0.  1.
    10030    2    1    2    0    0  0.00000000000E+00  0.00000000000E+00  0.20428651864E+03  0.91275235344E+03  0.88959759275E+03 0.  0.
        2    1    3    3  502    0 -0.87273348569E+02 -0.18024377533E+03  0.50964771704E+03  0.54758127380E+03  0.25500000920E-02 0. -1.
       -2    1    3    3    0  502  0.87273348569E+02  0.18024377533E+03 -0.30536119840E+03  0.36517107965E+03  0.25500000920E-02 0.  1.
</event>
<event>
 5   0  0.2008770E-02  0.9275706E+03  0.7818609E-02  0.9391758E-01
       -2   -1    0    0    0  501  0.00000000000E+00  0.00000000000E+00  0.50074803025E+03  0.50074803025E+03  0.25500000920E-02 0. -1.
        2   -1    0    0  501    0  0.00000000000E+00  0.00000000000E+00 -0.42955096208E+03  0.42955096208E+03  0.25500000920E-02 0.  1.
    10030    2    1    2    0    0  0.00000000000E+00  0.00000000000E+00  0.71197068172E+02  0.93029899234E+03  0.92757058633E+03 0.  0.
        1    1    3    3  502    0  0.22677434853E+03  0.16361150647E+03 -0.33549179333E+03  0.43674944032E+03  0.50400001928E-02 0.  1.
       -1    1    3    3    0  502 -0.22677434853E+03 -0.16361150647E+03  0.40668886150E+03  0.49354955202E+03  0.50400001928E-02 0. -1.
</event>
<event>
 5   0  0.1226424E-02  0.8964559E+03  0.7818609E-02  0.9430023E-01
        1   -1    0    0  501    0  0.00000000000E+00  0.00000000000E+00  0.58118510169E+03  0.58118510171E+03  0.50400001928E-02 0.  1.
       -1   -1    0    0    0  501  0.00000000000E+00  0.00000000000E+00 -0.34568727532E+03  0.34568727535E+03  0.50400001928E-02 0. -1.
    10030    2    1    2    0    0  0.00000000000E+00  0.00000000000E+00  0.23549782637E+03  0.92687237706E+03  0.89645589804E+03 0.  0.
        1    1    3    3  502    0 -0.21648480891E+03 -0.33179868964E+03  0.33451012643E+03  0.51851043157E+03  0.50400001928E-02 0.  1.
       -1    1    3    3    0  502  0.21648480891E+03  0.33179868964E+03 -0.99012300063E+02  0.40836194549E+03  0.50400001928E-02 0. -1.
</event>
<event>
 5   0  0.1206541E-02  0.9008061E+03  0.7818609E-02  0.9424574E-01
        1   -1    0    0  501    0  0.00000000000E+00  0.00000000000E+00  0.82683557513E+03  0.82683557514E+03  0.50400001928E-02 0. -1.
       -1   -1    0    0    0  501  0.00000000000E+00  0.00000000000E+00 -0.24534856689E+03  0.24534856694E+03  0.50400001928E-02 0.  1.
    10030    2    1    2    0    0  0.00000000000E+00  0.00000000000E+00  0.58148700824E+03  0.10721841421E+04  0.90080613551E+03 0.  0.
        3    1    3    3  502    0 -0.19929263818E+03  0.19145346396E+03  0.71406247798E+03  0.76567435451E+03  0.10100000352E+00 0. -1.
       -3    1    3    3    0  502  0.19929263818E+03 -0.19145346396E+03 -0.13257546974E+03  0.30650978757E+03  0.10100000352E+00 0.  1.
</event>
<event>
 5   0  0.1175993E-02  0.8629758E+03  0.7818609E-02  0.9473085E-01
        1   -1    0    0  501    0  0.00000000000E+00  0.00000000000E+00  0.21203620993E+04  0.21203620993E+04  0.50400001928E-02 0.  1.
       -1   -1    0    0    0  501  0.00000000000E+00  0.00000000000E+00 -0.87806608426E+02  0.87806608570E+02  0.50400001928E-02 0. -1.
    10030    2    1    2    0    0  0.00000000000E+00  0.00000000000E+00  0.20325554909E+04  0.22081687079E+04  0.86297579281E+03 0.  0.
        4    1    3    3  502    0 -0.29516071714E+03 -0.24392574584E+02  0.21335207779E+03  0.36501447729E+03  0.12699999809E+01 0. -1.
       -4    1    3    3    0  502  0.29516071714E+03  0.24392574584E+02  0.18192034131E+04  0.18431542306E+04  0.12699999809E+01 0.  1.
</event>
<event>
 5   0  0.1924218E-02  0.9035071E+03  0.7818609E-02  0.9421208E-01
        2   -1    0    0  501    0  0.00000000000E+00  0.00000000000E+00  0.89668059057E+03  0.89668059058E+03  0.25500000920E-02 0. -1.
       -2   -1    0    0    0  501  0.00000000000E+00  0.00000000000E+00 -0.22759638068E+03  0.22759638069E+03  0.25500000920E-02 0.  1.
    10030    2    1    2    0    0  0.00000000000E+00  0.00000000000E+00  0.66908420990E+03  0.11242769713E+04  0.90350707147E+03 0.  0.
        4    1    3    3  502    0  0.11741789261E+03 -0.40356324872E+03  0.54062873110E+03  0.68478558324E+03  0.12699999809E+01 0.  1.
       -4    1    3    3    0  502 -0.11741789261E+03  0.40356324872E+03  0.12845547880E+03  0.43949138803E+03  0.12699999809E+01 0. -1.
</event>
<event>
 5   0  0.1206541E-02  0.8661375E+03  0.7818609E-02  0.9468930E-01
        1   -1    0    0  501    0  0.00000000000E+00  0.00000000000E+00  0.39574500906E+03  0.39574500909E+03  0.50400001928E-02 0. -1.
       -1   -1    0    0    0  501  0.00000000000E+00  0.00000000000E+00 -0.47391255842E+03  0.47391255844E+03  0.50400001928E-02 0.  1.
    10030    2    1    2    0    0  0.00000000000E+00  0.00000000000E+00 -0.78167549356E+02  0.86965756754E+03  0.86613747119E+03 0.  0.
        3    1    3    3  502    0 -0.27811153584E+03  0.25421702091E+03 -0.25343723875E+03  0.45409554532E+03  0.10100000352E+00 0.  1.
       -3    1    3    3    0  502  0.27811153584E+03 -0.25421702091E+03  0.17526968939E+03  0.41556202222E+03  0.10100000352E+00 0. -1.
</event>
<event>
 5   0  0.2041861E-02  0.1049609E+04  0.7818609E-02  0.9255748E-01
       -2   -1    0    0    0  501  0.00000000000E+00  0.00000000000E+00  0.22883488081E+03  0.22883488082E+03  0.25500000920E-02 0. -1.
        2   -1    0    0  501    0  0.00000000000E+00  0.00000000000E+00 -0.12035738519E+04  0.12035738519E+04  0.25500000920E-02 0.  1.
    10030    2    1    2    0    0  0.00000000000E+00  0.00000000000E+00 -0.97473897110E+03  0.14324087327E+04  0.10496088394E+04 0.  0.
        5    1    3    3  502    0  0.39374267364E+03  0.52256120028E+02 -0.19305568003E+02  0.39769182803E+03  0.46999998093E+01 0. -1.
       -5    1    3    3    0  502 -0.39374267364E+03 -0.52256120028E+02 -0.95543340310E+03  0.10347169047E+04  0.46999998093E+01 0.  1.
</event>
<event>
 5   0  0.1206541E-02  0.8822415E+03  0.7818609E-02  0.9448057E-01
        1   -1    0    0  501    0  0.00000000000E+00  0.00000000000E+00  0.22454007101E+04  0.22454007101E+04  0.50400001928E-02 0.  1.
       -1   -1    0    0    0  501  0.00000000000E+00  0.00000000000E+00 -0.86660479151E+02  0.86660479297E+02  0.50400001928E-02 0. -1.
    10030    2    1    2    0    0  0.00000000000E+00  0.00000000000E+00  0.21587402309E+04  0.23320611894E+04  0.88224146716E+03 0.  0.
        3    1    3    3  502    0 -0.18525166029E+03 -0.29594560663E+03  0.17920202980E+04  0.18257159523E+04  0.10100000352E+00 0.  1.
       -3    1    3    3    0  502  0.18525166029E+03  0.29594560663E+03  0.36671993288E+03  0.50634523707E+03  0.10100000352E+00 0. -1.
</event>
<event>
 5   0  0.2008770E-02  0.9166815E+03  0.7818609E-02  0.9404966E-01
        2   -1    0    0  501    0  0.00000000000E+00  0.00000000000E+00  0.96029434016E+03  0.96029434016E+03  0.25500000920E-02 0. -1.
       -2   -1    0    0    0  501  0.00000000000E+00  0.00000000000E+00 -0.21876233914E+03  0.21876233916E+03  0.25500000920E-02 0.  1.
    10030    2    1    2    0    0  0.00000000000E+00  0.00000000000E+00  0.74153200102E+03  0.11790566793E+04  0.91668148477E+03 0.  0.
        1    1    3    3  502    0 -0.19137478264E+03 -0.35716582629E+03  0.95248473992E+02  0.41624993300E+03  0.50400001928E-02 0.  1.
       -1    1    3    3    0  502  0.19137478264E+03  0.35716582629E+03  0.64628352702E+03  0.76280674632E+03  0.50400001928E-02 0. -1.
</event>
<event>
 5   0  0.1206541E-02  0.9191586E+03  0.7818609E-02  0.9401944E-01
        1   -1    0    0  501    0  0.00000000000E+00  0.00000000000E+00  0.14017344085E+04  0.14017344085E+04  0.50400001928E-02 0. -1.
       -1   -1    0    0    0  501  0.00000000000E+00  0.00000000000E+00 -0.15067986406E+03  0.15067986414E+03  0.50400001928E-02 0.  1.
    10030    2    1    2    0    0  0.00000000000E+00  0.00000000000E+00  0.12510545444E+04  0.15524142726E+04  0.91915863742E+03 0.  0.
        3    1    3    3  502    0 -0.16895012451E+03  0.38737015504E+03  0.32051668402E+03  0.53040619955E+03  0.10100000352E+00 0. -1.
       -3    1    3    3    0  502  0.16895012451E+03 -0.38737015504E+03  0.93053786040E+03  0.10220080731E+04  0.10100000352E+00 0.  1.
</event>
<event>
 5   0  0.2041861E-02  0.9188662E+03  0.7818609E-02  0.9402300E-01
        2   -1    0    0  501    0  0.00000000000E+00  0.00000000000E+00  0.52478584446E+03  0.52478584446E+03  0.25500000920E-02 0.  1.
       -2   -1    0    0    0  501  0.00000000000E+00  0.00000000000E+00 -0.40221886650E+03  0.40221886650E+03  0.25500000920E-02 0. -1.
    10030    2    1    2    0    0  0.00000000000E+00  0.00000000000E+00  0.12256697796E+03  0.92700471097E+03  0.91886618725E+03 0.  0.
        5    1    3    3  502    0 -0.28378415903E+03  0.14096255812E+03 -0.27430792952E+03  0.41913103190E+03  0.46999998093E+01 0. -1.
       -5    1    3    3    0  502  0.28378415903E+03 -0.14096255812E+03  0.39687490747E+03  0.50787367907E+03  0.46999998093E+01 0.  1.
</event>
<event>
 5   0  0.2008643E-02  0.9084995E+03  0.7818609E-02  0.9415019E-01
       -2   -1    0    0    0  501  0.00000000000E+00  0.00000000000E+00  0.11486633699E+03  0.11486633702E+03  0.25500000920E-02 0. -1.
        2   -1    0    0  501    0  0.00000000000E+00  0.00000000000E+00 -0.17963733545E+04  0.17963733545E+04  0.25500000920E-02 0.  1.
    10030    2    1    2    0    0  0.00000000000E+00  0.00000000000E+00 -0.16815070175E+04  0.19112396915E+04  0.90849948184E+03 0.  0.
        3    1    3    3  502    0  0.23874983834E+03  0.38612531708E+03 -0.80758577361E+03  0.92643890124E+03  0.10100000352E+00 0. -1.
       -3    1    3    3    0  502 -0.23874983834E+03 -0.38612531708E+03 -0.87392124386E+03  0.98480079024E+03  0.10100000352E+00 0.  1.
</event>
<event>
 5   0  0.7893875E-03  0.8357470E+03  0.7818609E-02  0.9509669E-01
       -3   -1    0    0    0  501  0.00000000000E+00  0.00000000000E+00  0.26553898033E+03  0.26553899954E+03  0.10100000352E+00 0. -1.
        3   -1    0    0  501    0  0.00000000000E+00  0.00000000000E+00 -0.65759932753E+03  0.65759933529E+03  0.10100000352E+00 0.  1.
    10030    2    1    2    0    0  0.00000000000E+00  0.00000000000E+00 -0.39206034720E+03  0.92313833482E+03  0.83574701278E+03 0.  0.
        3    1    3    3  502    0 -0.35522842293E+02  0.40845660329E+03 -0.28521727112E+03  0.49944726552E+03  0.10100000352E+00 0. -1.
       -3    1    3    3    0  502  0.35522842293E+02 -0.40845660329E+03 -0.10684307609E+03  0.42369106930E+03  0.10100000352E+00 0.  1.
</event>
<event>
 5   0  0.2008643E-02  0.8846677E+03  0.7818609E-02  0.9444953E-01
       -2   -1    0    0    0  501  0.00000000000E+00  0.00000000000E+00  0.46572182734E+03  0.46572182735E+03  0.25500000920E-02 0. -1.
        2   -1    0    0  501    0  0.00000000000E+00  0.00000000000E+00 -0.42012039498E+03  0.42012039498E+03  0.25500000920E-02 0.  1.
    10030    2    1    2    0    0  0.00000000000E+00  0.00000000000E+00  0.45601432366E+02  0.88584222233E+03  0.88466770724E+03 0.  0.
        3    1    3    3  502    0 -0.45564696367E+02  0.28444952290E+03  0.35891219626E+03  0.46022347556E+03  0.10100000352E+00 0. -1.
       -3    1    3    3    0  502  0.45564696367E+02 -0.28444952290E+03 -0.31331076389E+03  0.42561874677E+03  0.10100000352E+00 0.  1.
</event>
<event>
 5   0  0.1175993E-02  0.8990333E+03  0.7818609E-02  0.9426791E-01
        1   -1    0    0  501    0  0.00000000000E+00  0.00000000000E+00  0.47425017321E+03  0.47425017324E+03  0.50400001928E-02 0. -1.
       -1   -1    0    0    0  501  0.00000000000E+00  0.00000000000E+00 -0.42607308971E+03  0.42607308974E+03  0.50400001928E-02 0.  1.
    10030    2    1    2    0    0  0.00000000000E+00  0.00000000000E+00  0.48177083509E+02  0.90032326298E+03  0.89903334003E+03 0.  0.
        4    1    3    3  502    0  0.15911206377E+03  0.81824504582E+02 -0.38887641078E+03  0.42806351649E+03  0.12699999809E+01 0.  1.
       -4    1    3    3    0  502 -0.15911206377E+03 -0.81824504582E+02  0.43705349429E+03  0.47225974649E+03  0.12699999809E+01 0. -1.
</event>
<event>
 5   0  0.1175993E-02  0.8940591E+03  0.7818609E-02  0.9433038E-01
       -1   -1    0    0    0  501  0.00000000000E+00  0.00000000000E+00  0.22368353724E+03  0.22368353730E+03  0.50400001928E-02 0.  1.
        1   -1    0    0  501    0  0.00000000000E+00  0.00000000000E+00 -0.89338460208E+03  0.89338460209E+03  0.50400001928E-02 0. -1.
    10030    2    1    2    0    0  0.00000000000E+00  0.00000000000E+00 -0.66970106483E+03  0.11170681394E+04  0.89405912097E+03 0.  0.
        4    1    3    3  502    0  0.12119765559E+03  0.29065750482E+03  0.61563211226E+02  0.32087738890E+03  0.12699999809E+01 0.  1.
       -4    1    3    3    0  502 -0.12119765559E+03 -0.29065750482E+03 -0.73126427606E+03  0.79619075049E+03  0.12699999809E+01 0. -1.
</event>
<event>
 5   0  0.1226424E-02  0.9278934E+03  0.7818609E-02  0.9391370E-01
        1   -1    0    0  501    0  0.00000000000E+00  0.00000000000E+00  0.14801182933E+04  0.14801182933E+04  0.50400001928E-02 0.  1.
       -1   -1    0    0    0  501  0.00000000000E+00  0.00000000000E+00 -0.14542523945E+03  0.14542523953E+03  0.50400001928E-02 0. -1.
    10030    2    1    2    0    0  0.00000000000E+00  0.00000000000E+00  0.13346930538E+04  0.16255435328E+04  0.92789343631E+03 0.  0.
        1    1    3    3  502    0 -0.35179929336E+03 -0.25941147451E+03  0.93981355818E+03  0.10364876169E+04  0.50400001928E-02 0.  1.
       -1    1    3    3    0  502  0.35179929336E+03  0.25941147451E+03  0.39487949566E+03  0.58905591589E+03  0.50400001928E-02 0. -1.
</event>
<event>
 5   0  0.1177712E-02  0.9007218E+03  0.7818609E-02  0.9424680E-01
        1   -1    0    0  501    0  0.00000000000E+00  0.00000000000E+00  0.97918474207E+03  0.97918474208E+03  0.50400001928E-02 0.  1.
       -1   -1    0    0    0  501  0.00000000000E+00  0.00000000000E+00 -0.20713652901E+03  0.20713652907E+03  0.50400001928E-02 0. -1.
    10030    2    1    2    0    0  0.00000000000E+00  0.00000000000E+00  0.77204821306E+03  0.11863212712E+04  0.90072177453E+03 0.  0.
        5    1    3    3  502    0  0.18972137164E+03  0.14302329833E+03  0.88988706793E+03  0.92107054366E+03  0.46999998093E+01 0.  1.
       -5    1    3    3    0  502 -0.18972137164E+03 -0.14302329833E+03 -0.11783885487E+03  0.26525072750E+03  0.46999998093E+01 0. -1.
</event>
<event>
 5   0  0.1206541E-02  0.8917118E+03  0.7818609E-02  0.9436002E-01
       -1   -1    0    0    0  501  0.00000000000E+00  0.00000000000E+00  0.10244567281E+04  0.10244567281E+04  0.50400001928E-02 0.  1.
        1   -1    0    0  501    0  0.00000000000E+00  0.00000000000E+00 -0.19404184048E+03  0.19404184055E+03  0.50400001928E-02 0. -1.
    10030    2    1    2    0    0  0.00000000000E+00  0.00000000000E+00  0.83041488759E+03  0.12184985686E+04  0.89171176747E+03 0.  0.
        3    1    3    3  502    0 -0.19222839889E+03 -0.38143889216E+02  0.96244593786E+03  0.98219596167E+03  0.10100000352E+00 0.  1.
       -3    1    3    3    0  502  0.19222839889E+03  0.38143889216E+02 -0.13203105027E+03  0.23630260697E+03  0.10100000352E+00 0. -1.
</event>
<event>
 5   0  0.1162839E-02  0.8944810E+03  0.7818609E-02  0.9432507E-01
       -1   -1    0    0    0  501  0.00000000000E+00  0.00000000000E+00  0.72383343892E+03  0.72383343894E+03  0.50400001928E-02 0. -1.
        1   -1    0    0  501    0  0.00000000000E+00  0.00000000000E+00 -0.27633988989E+03  0.27633988994E+03  0.50400001928E-02 0.  1.
    10030    2    1    2    0    0  0.00000000000E+00  0.00000000000E+00  0.44749354903E+03  0.10001733289E+04  0.89448097318E+03 0.  0.
        2    1    3    3  502    0  0.63981762281E+02  0.44247461978E+03  0.21020835824E+03  0.49402936040E+03  0.25500000920E-02 0.  1.
       -2    1    3    3    0  502 -0.63981762281E+02 -0.44247461978E+03  0.23728519079E+03  0.50614396848E+03  0.25500000920E-02 0. -1.
</event>
<event>
 5   0  0.1162839E-02  0.8916202E+03  0.7818609E-02  0.9436118E-01
       -1   -1    0    0    0  501  0.00000000000E+00  0.00000000000E+00  0.69450131963E+03  0.69450131965E+03  0.50400001928E-02 0.  1.
        1   -1    0    0  501    0  0.00000000000E+00  0.00000000000E+00 -0.28617174268E+03  0.28617174272E+03  0.50400001928E-02 0. -1.
    10030    2    1    2    0    0  0.00000000000E+00  0.00000000000E+00  0.40832957695E+03  0.98067306237E+03  0.89162021727E+03 0.  0.
        2    1    3    3  502    0  0.14725929900E+03 -0.40212383401E+03  0.34046874861E+03  0.54709034703E+03  0.25500000920E-02 0.  1.
       -2    1    3    3    0  502 -0.14725929900E+03  0.40212383401E+03  0.67860828336E+02  0.43358271535E+03  0.25500000920E-02 0. -1.
</event>
<event>
 5   0  0.1968763E-02  0.8965520E+03  0.7818609E-02  0.9429902E-01
        2   -1    0    0  501    0  0.00000000000E+00  0.00000000000E+00  0.60745936434E+03  0.60745936434E+03  0.25500000920E-02 0.  1.
       -2   -1    0    0    0  501  0.00000000000E+00  0.00000000000E+00 -0.33080626804E+03  0.33080626805E+03  0.25500000920E-02 0. -1.
    10030    2    1    2    0    0  0.00000000000E+00  0.00000000000E+00  0.27665309630E+03  0.93826563239E+03  0.89655198468E+03 0.  0.
        2    1    3    3  502    0  0.33302888737E+03 -0.66426863462E+02 -0.16791549902E+03  0.37883556173E+03  0.25500000920E-02 0. -1.
       -2    1    3    3    0  502 -0.33302888737E+03  0.66426863462E+02  0.44456859532E+03  0.55943007066E+03  0.25500000920E-02 0.  1.
</event>
<event>
 5   0  0.1206541E-02  0.8917601E+03  0.7818609E-02  0.9435941E-01
       -1   -1    0    0    0  501  0.00000000000E+00  0.00000000000E+00  0.13237126887E+03  0.13237126897E+03  0.50400001928E-02 0. -1.
        1   -1    0    0  501    0  0.00000000000E+00  0.00000000000E+00 -0.15019045801E+04  0.15019045801E+04  0.50400001928E-02 0.  1.
    10030    2    1    2    0    0  0.00000000000E+00  0.00000000000E+00 -0.13695333113E+04  0.16342758491E+04  0.89176009125E+03 0.  0.
        3    1    3    3  502    0  0.30596398672E+03 -0.14825491617E+03 -0.12134303728E+04  0.12601614028E+04  0.10100000352E+00 0.  1.
       -3    1    3    3    0  502 -0.30596398672E+03  0.14825491617E+03 -0.15610293849E+03  0.37411444632E+03  0.10100000352E+00 0. -1.
</event>
<event>
 5   0  0.1226424E-02  0.9082137E+03  0.7818609E-02  0.9415372E-01
       -1   -1    0    0    0  501  0.00000000000E+00  0.00000000000E+00  0.16419167442E+03  0.16419167450E+03  0.50400001928E-02 0. -1.
        1   -1    0    0  501    0  0.00000000000E+00  0.00000000000E+00 -0.12559285526E+04  0.12559285526E+04  0.50400001928E-02 0.  1.
    10030    2    1    2    0    0  0.00000000000E+00  0.00000000000E+00 -0.10917368782E+04  0.14201202271E+04  0.90821365782E+03 0.  0.
        1    1    3    3  502    0  0.13683206891E+03 -0.29571305192E+03 -0.10404434258E+04  0.10902714096E+04  0.50400001928E-02 0.  1.
       -1    1    3    3    0  502 -0.13683206891E+03  0.29571305192E+03 -0.51293452368E+02  0.32984881755E+03  0.50400001928E-02 0. -1.
</event>
<event>
 5   0  0.1968763E-02  0.7690618E+03  0.7818609E-02  0.9605911E-01
        2   -1    0    0  501    0  0.00000000000E+00  0.00000000000E+00  0.10202331614E+04  0.10202331614E+04  0.25500000920E-02 0. -1.
       -2   -1    0    0    0  501  0.00000000000E+00  0.00000000000E+00 -0.14493160756E+03  0.14493160758E+03  0.25500000920E-02 0.  1.
    10030    2    1    2    0    0  0.00000000000E+00  0.00000000000E+00  0.87530155382E+03  0.11651647690E+04  0.76906184973E+03 0.  0.
        2    1    3    3  502    0 -0.25596332138E+03 -0.26115692371E+03  0.61783228884E+03  0.71793934133E+03  0.25500000920E-02 0. -1.
       -2    1    3    3    0  502  0.25596332138E+03  0.26115692371E+03  0.25746926498E+03  0.44722542763E+03  0.25500000920E-02 0.  1.
</event>
<event>
 5   0  0.1162839E-02  0.8973651E+03  0.7818609E-02  0.9428881E-01
       -1   -1    0    0    0  501  0.00000000000E+00  0.00000000000E+00  0.46060452822E+03  0.46060452825E+03  0.50400001928E-02 0. -1.
        1   -1    0    0  501    0  0.00000000000E+00  0.00000000000E+00 -0.43706917391E+03  0.43706917394E+03  0.50400001928E-02 0.  1.
    10030    2    1    2    0    0  0.00000000000E+00  0.00000000000E+00  0.23535354312E+02  0.89767370219E+03  0.89736512229E+03 0.  0.
        2    1    3    3  502    0 -0.18852563938E+03  0.39819524266E+03 -0.73200760528E+02  0.44660913485E+03  0.25500000920E-02 0. -1.
       -2    1    3    3    0  502  0.18852563938E+03 -0.39819524266E+03  0.96736114841E+02  0.45106456734E+03  0.25500000920E-02 0.  1.
</event>
<event>
 5   0  0.1206541E-02  0.9041313E+03  0.7818609E-02  0.9420432E-01
        1   -1    0    0  501    0  0.00000000000E+00  0.00000000000E+00  0.34616354199E+03  0.34616354203E+03  0.50400001928E-02 0.  1.
       -1   -1    0    0    0  501  0.00000000000E+00  0.00000000000E+00 -0.59036648065E+03  0.59036648067E+03  0.50400001928E-02 0. -1.
    10030    2    1    2    0    0  0.00000000000E+00  0.00000000000E+00 -0.24420293865E+03  0.93653002270E+03  0.90413130029E+03 0.  0.
        3    1    3    3  502    0 -0.43562501076E+03  0.11605840626E+03 -0.87364125198E+02  0.45920714741E+03  0.10100000352E+00 0.  1.
       -3    1    3    3    0  502  0.43562501076E+03 -0.11605840626E+03 -0.15683881346E+03  0.47732287528E+03  0.10100000352E+00 0. -1.
</event>
<event>
 5   0  0.2008770E-02  0.9096726E+03  0.7818609E-02  0.9413570E-01
       -2   -1    0    0    0  501  0.00000000000E+00  0.00000000000E+00  0.18544368630E+03  0.18544368631E+03  0.25500000920E-02 0.  1.
        2   -1    0    0  501    0  0.00000000000E+00  0.00000000000E+00 -0.11155733931E+04  0.11155733931E+04  0.25500000920E-02 0. -1.
    10030    2    1    2    0    0  0.00000000000E+00  0.00000000000E+00 -0.93012970683E+03  0.13010170794E+04  0.90967256168E+03 0.  0.
        1    1    3    3  502    0 -0.17640352815E+03  0.31222186304E+03 -0.86520340902E+03  0.93657761852E+03  0.50400001928E-02 0. -1.
       -1    1    3    3    0  502  0.17640352815E+03 -0.31222186304E+03 -0.64926297801E+02  0.36443946092E+03  0.50400001928E-02 0.  1.
</event>
<event>
 5   0  0.1968763E-02  0.9022742E+03  0.7818609E-02  0.9422743E-01
        2   -1    0    0  501    0  0.00000000000E+00  0.00000000000E+00  0.17146995875E+04  0.17146995875E+04  0.25500000920E-02 0.  1.
       -2   -1    0    0    0  501  0.00000000000E+00  0.00000000000E+00 -0.11869406834E+03  0.11869406836E+03  0.25500000920E-02 0. -1.
    10030    2    1    2    0    0  0.00000000000E+00  0.00000000000E+00  0.15960055192E+04  0.18333936559E+04  0.90227417130E+03 0.  0.
        2    1    3    3  502    0  0.34619253454E+03  0.20818676669E+03  0.38991735228E+03  0.56145039177E+03  0.25500000920E-02 0. -1.
       -2    1    3    3    0  502 -0.34619253454E+03 -0.20818676669E+03  0.12060881669E+04  0.12719432641E+04  0.25500000920E-02 0.  1.
</event>
<event>
 5   0  0.1924218E-02  0.9020327E+03  0.7818609E-02  0.9423044E-01
        2   -1    0    0  501    0  0.00000000000E+00  0.00000000000E+00  0.12743097113E+04  0.12743097113E+04  0.25500000920E-02 0.  1.
       -2   -1    0    0    0  501  0.00000000000E+00  0.00000000000E+00 -0.15962817940E+03  0.15962817942E+03  0.25500000920E-02 0. -1.
    10030    2    1    2    0    0  0.00000000000E+00  0.00000000000E+00  0.11146815319E+04  0.14339378907E+04  0.90203268060E+03 0.  0.
        4    1    3    3  502    0 -0.43242480564E+03 -0.11316906334E+03  0.46175287597E+03  0.64266303830E+03  0.12699999809E+01 0. -1.
       -4    1    3    3    0  502  0.43242480564E+03  0.11316906334E+03  0.65292865590E+03  0.79127485239E+03  0.12699999809E+01 0.  1.
</event>
<event>
 5   0  0.2041861E-02  0.8858115E+03  0.7818609E-02  0.9443494E-01
       -2   -1    0    0    0  501  0.00000000000E+00  0.00000000000E+00  0.14653045644E+03  0.14653045646E+03  0.25500000920E-02 0.  1.
        2   -1    0    0  501    0  0.00000000000E+00  0.00000000000E+00 -0.13387353164E+04  0.13387353164E+04  0.25500000920E-02 0. -1.
    10030    2    1    2    0    0  0.00000000000E+00  0.00000000000E+00 -0.11922048600E+04  0.14852657729E+04  0.88581148557E+03 0.  0.
        5    1    3    3  502    0 -0.36658031620E+03  0.17344773957E+03 -0.89453268002E+03  0.98217923630E+03  0.46999998093E+01 0. -1.
       -5    1    3    3    0  502  0.36658031620E+03 -0.17344773957E+03 -0.29767217998E+03  0.50308653661E+03  0.46999998093E+01 0.  1.
</event>
<event>
 5   0  0.1924218E-02  0.8953667E+03  0.7818609E-02  0.9431392E-01
       -2   -1    0    0    0  501  0.00000000000E+00  0.00000000000E+00  0.19504475870E+03  0.19504475872E+03  0.25500000920E-02 0.  1.
        2   -1    0    0  501    0  0.00000000000E+00  0.00000000000E+00 -0.10275608682E+04  0.10275608682E+04  0.25500000920E-02 0. -1.
    10030    2    1    2    0    0  0.00000000000E+00  0.00000000000E+00 -0.83251610948E+03  0.12226056269E+04  0.89536665472E+03 0.  0.
        4    1    3    3  502    0  0.90325727276E+02  0.43152702124E+03 -0.52241870451E+03  0.68359141509E+03  0.12699999809E+01 0. -1.
       -4    1    3    3    0  502 -0.90325727276E+02 -0.43152702124E+03 -0.31009740497E+03  0.53901421181E+03  0.12699999809E+01 0.  1.
</event>
<event>
 5   0  0.2008770E-02  0.9012579E+03  0.7818609E-02  0.9424010E-01
       -2   -1    0    0    0  501  0.00000000000E+00  0.00000000000E+00  0.19219213768E+03  0.19219213770E+03  0.25500000920E-02 0.  1.
        2   -1    0    0  501    0  0.00000000000E+00  0.00000000000E+00 -0.10565805190E+04  0.10565805190E+04  0.25500000920E-02 0. -1.
    10030    2    1    2    0    0  0.00000000000E+00  0.00000000000E+00 -0.86438838132E+03  0.12487726567E+04  0.90125793997E+03 0.  0.
        1    1    3    3  502    0  0.28540276205E+03 -0.16147804198E+03 -0.39227558868E+01  0.32794097436E+03  0.50400001928E-02 0.  1.
       -1    1    3    3    0  502 -0.28540276205E+03  0.16147804198E+03 -0.86046562544E+03  0.92083168234E+03  0.50400001928E-02 0. -1.
</event>
<event>
 5   0  0.1162839E-02  0.8851634E+03  0.7818609E-02  0.9444320E-01
        1   -1    0    0  501    0  0.00000000000E+00  0.00000000000E+00  0.10862756147E+04  0.10862756147E+04  0.50400001928E-02 0.  1.
       -1   -1    0    0    0  501  0.00000000000E+00  0.00000000000E+00 -0.18032123390E+03  0.18032123397E+03  0.50400001928E-02 0. -1.
    10030    2    1    2    0    0  0.00000000000E+00  0.00000000000E+00  0.90595438075E+03  0.12665968486E+04  0.88516339563E+03 0.  0.
        2    1    3    3  502    0  0.40092119608E+03 -0.10912355054E+03  0.23487211301E+03  0.47729515420E+03  0.25500000920E-02 0. -1.
       -2    1    3    3    0  502 -0.40092119608E+03  0.10912355054E+03  0.67108226774E+03  0.78930169443E+03  0.25500000920E-02 0.  1.
</event>
<event>
 5   0  0.1968763E-02  0.9375142E+03  0.7818609E-02  0.9379865E-01
        2   -1    0    0  501    0  0.00000000000E+00  0.00000000000E+00  0.11268449869E+04  0.11268449869E+04  0.25500000920E-02 0. -1.
       -2   -1    0    0    0  501  0.00000000000E+00  0.00000000000E+00 -0.19499862342E+03  0.19499862344E+03  0.25500000920E-02 0.  1.
    10030    2    1    2    0    0  0.00000000000E+00  0.00000000000E+00  0.93184636352E+03  0.13218436104E+04  0.93751420528E+03 0.  0.
        2    1    3    3  502    0 -0.27832662841E+02 -0.35191121090E+03  0.31081229531E+02  0.35437578968E+03  0.25500000920E-02 0.  1.
       -2    1    3    3    0  502  0.27832662841E+02  0.35191121090E+03  0.90076513399E+03  0.96746782070E+03  0.25500000920E-02 0. -1.
</event>
<event>
 5   0  0.2008643E-02  0.8793586E+03  0.7818609E-02  0.9451759E-01
       -2   -1    0    0    0  501  0.00000000000E+00  0.00000000000E+00  0.45737002870E+03  0.45737002871E+03  0.25500000920E-02 0. -1.
        2   -1    0    0  501    0  0.00000000000E+00  0.00000000000E+00 -0.42267279798E+03  0.42267279798E+03  0.25500000920E-02 0.  1.
    10030    2    1    2    0    0  0.00000000000E+00  0.00000000000E+00  0.34697230724E+02  0.88004282669E+03  0.87935856111E+03 0.  0.
        3    1    3    3  502    0  0.94624926180E+02 -0.40686363907E+03 -0.11996588508E+03  0.43460754852E+03  0.10100000352E+00 0.  1.
       -3    1    3    3    0  502 -0.94624926180E+02  0.40686363907E+03  0.15466311580E+03  0.44543527817E+03  0.10100000352E+00 0. -1.
</event>
<event>
 5   0  0.2041861E-02  0.9841101E+03  0.7818609E-02  0.9326146E-01
        2   -1    0    0  501    0  0.00000000000E+00  0.00000000000E+00  0.21412526824E+03  0.21412526825E+03  0.25500000920E-02 0. -1.
       -2   -1    0    0    0  501  0.00000000000E+00  0.00000000000E+00 -0.11307315395E+04  0.11307315395E+04  0.25500000920E-02 0.  1.
    10030    2    1    2    0    0  0.00000000000E+00  0.00000000000E+00 -0.91660627122E+03  0.13448568077E+04  0.98411014465E+03 0.  0.
        5    1    3    3  502    0 -0.23697949275E+03  0.33656931838E+03 -0.89941992547E+02  0.42136663143E+03  0.46999998093E+01 0. -1.
       -5    1    3    3    0  502  0.23697949275E+03 -0.33656931838E+03 -0.82666427867E+03  0.92349017628E+03  0.46999998093E+01 0.  1.
</event>
<event>
 5   0  0.2008770E-02  0.8978400E+03  0.7818609E-02  0.9428286E-01
       -2   -1    0    0    0  501  0.00000000000E+00  0.00000000000E+00  0.31969169831E+03  0.31969169832E+03  0.25500000920E-02 0. -1.
        2   -1    0    0  501    0  0.00000000000E+00  0.00000000000E+00 -0.63038600590E+03  0.63038600590E+03  0.25500000920E-02 0.  1.
    10030    2    1    2    0    0  0.00000000000E+00  0.00000000000E+00 -0.31069430759E+03  0.95007770422E+03  0.89784001431E+03 0.  0.
        1    1    3    3  502    0  0.17191316025E+03  0.34178450486E+03 -0.40386979569E+03  0.55631069946E+03  0.50400001928E-02 0.  1.
       -1    1    3    3    0  502 -0.17191316025E+03 -0.34178450486E+03  0.93175488108E+02  0.39376700476E+03  0.50400001928E-02 0. -1.
</event>
<event>
 5   0  0.1226424E-02  0.9031105E+03  0.7818609E-02  0.9421701E-01
       -1   -1    0    0    0  501  0.00000000000E+00  0.00000000000E+00  0.36783775402E+03  0.36783775406E+03  0.50400001928E-02 0.  1.
        1   -1    0    0  501    0  0.00000000000E+00  0.00000000000E+00 -0.55432632633E+03  0.55432632635E+03  0.50400001928E-02 0. -1.
    10030    2    1    2    0    0  0.00000000000E+00  0.00000000000E+00 -0.18648857231E+03  0.92216408041E+03  0.90311051571E+03 0.  0.
        1    1    3    3  502    0 -0.33434453697E+03 -0.27793225673E+03  0.31269116274E+02  0.43590178525E+03  0.50400001928E-02 0. -1.
       -1    1    3    3    0  502  0.33434453697E+03  0.27793225673E+03 -0.21775768858E+03  0.48626229516E+03  0.50400001928E-02 0.  1.
</event>
<event>
 5   0  0.1968763E-02  0.8817716E+03  0.7818609E-02  0.9448659E-01
       -2   -1    0    0    0  501  0.00000000000E+00  0.00000000000E+00  0.18640236403E+03  0.18640236405E+03  0.25500000920E-02 0.  1.
        2   -1    0    0  501    0  0.00000000000E+00  0.00000000000E+00 -0.10427994221E+04  0.10427994221E+04  0.25500000920E-02 0. -1.
    10030    2    1    2    0    0  0.00000000000E+00  0.00000000000E+00 -0.85639705811E+03  0.12292017862E+04  0.88177157475E+03 0.  0.
        2    1    3    3  502    0 -0.10929407821E+03  0.33336142212E+03 -0.55954428260E+02  0.35525474147E+03  0.25500000920E-02 0.  1.
       -2    1    3    3    0  502  0.10929407821E+03 -0.33336142212E+03 -0.80044262985E+03  0.87394704472E+03  0.25500000920E-02 0. -1.
</event>
<event>
 5   0  0.1206541E-02  0.8937300E+03  0.7818609E-02  0.9433453E-01
        1   -1    0    0  501    0  0.00000000000E+00  0.00000000000E+00  0.87850787824E+03  0.87850787825E+03  0.50400001928E-02 0. -1.
       -1   -1    0    0    0  501  0.00000000000E+00  0.00000000000E+00 -0.22730398070E+03  0.22730398075E+03  0.50400001928E-02 0.  1.
    10030    2    1    2    0    0  0.00000000000E+00  0.00000000000E+00  0.65120389754E+03  0.11058118590E+04  0.89373002151E+03 0.  0.
        3    1    3    3  502    0 -0.38710807783E+03 -0.83009468115E+02  0.58201000403E+03  0.70390261451E+03  0.10100000352E+00 0. -1.
       -3    1    3    3    0  502  0.38710807783E+03  0.83009468115E+02  0.69193893507E+02  0.40190924450E+03  0.10100000352E+00 0.  1.
</event>
<event>
 5   0  0.2041861E-02  0.8953736E+03  0.7818609E-02  0.9431383E-01
        2   -1    0    0  501    0  0.00000000000E+00  0.00000000000E+00  0.13588303919E+04  0.13588303919E+04  0.25500000920E-02 0.  1.
       -2   -1    0    0    0  501  0.00000000000E+00  0.00000000000E+00 -0.14749706364E+03  0.14749706366E+03  0.25500000920E-02 0. -1.
    10030    2    1    2    0    0  0.00000000000E+00  0.00000000000E+00  0.12113333283E+04  0.15063274556E+04  0.89537364894E+03 0.  0.
        5    1    3    3  502    0 -0.13717212413E+01  0.29683877697E+03  0.41927256605E+02  0.29982515902E+03  0.46999998093E+01 0. -1.
       -5    1    3    3    0  502  0.13717212413E+01 -0.29683877697E+03  0.11694060717E+04  0.12065022965E+04  0.46999998093E+01 0.  1.
</event>
<event>
 5   0  0.1162839E-02  0.8238698E+03  0.7818609E-02  0.9526095E-01
       -1   -1    0    0    0  501  0.00000000000E+00  0.00000000000E+00  0.33422605538E+03  0.33422605542E+03  0.50400001928E-02 0.  1.
        1   -1    0    0  501    0  0.00000000000E+00  0.00000000000E+00 -0.50771132184E+03  0.50771132186E+03  0.50400001928E-02 0. -1.
    10030    2    1    2    0    0  0.00000000000E+00  0.00000000000E+00 -0.17348526645E+03  0.84193737729E+03  0.82386977709E+03 0.  0.
        2    1    3    3  502    0  0.35168707852E+03  0.46788994496E+02 -0.30065910618E+03  0.46504721195E+03  0.25500000920E-02 0. -1.
       -2    1    3    3    0  502 -0.35168707852E+03 -0.46788994496E+02  0.12717383973E+03  0.37689016533E+03  0.25500000920E-02 0.  1.
</event>
<event>
 5   0  0.1924218E-02  0.8847248E+03  0.7818609E-02  0.9444880E-01
        2   -1    0    0  501    0  0.00000000000E+00  0.00000000000E+00  0.33902149570E+03  0.33902149571E+03  0.25500000920E-02 0.  1.
       -2   -1    0    0    0  501  0.00000000000E+00  0.00000000000E+00 -0.57720380001E+03  0.57720380001E+03  0.25500000920E-02 0. -1.
    10030    2    1    2    0    0  0.00000000000E+00  0.00000000000E+00 -0.23818230430E+03  0.91622529573E+03  0.88472480605E+03 0.  0.
        4    1    3    3  502    0 -0.42631872160E+01 -0.28692813073E+03  0.22955096102E+03  0.36747950089E+03  0.12699999809E+01 0.  1.
       -4    1    3    3    0  502  0.42631872160E+01  0.28692813073E+03 -0.46773326532E+03  0.54874579484E+03  0.12699999809E+01 0. -1.
</event>
<event>
 5   0  0.1226424E-02  0.8914552E+03  0.7818609E-02  0.9436326E-01
        1   -1    0    0  501    0  0.00000000000E+00  0.00000000000E+00  0.13690486376E+04  0.13690486376E+04  0.50400001928E-02 0. -1.
       -1   -1    0    0    0  501  0.00000000000E+00  0.00000000000E+00 -0.14511763864E+03  0.14511763873E+03  0.50400001928E-02 0.  1.
    10030    2    1    2    0    0  0.00000000000E+00  0.00000000000E+00  0.12239309990E+04  0.15141662764E+04  0.89145522724E+03 0.  0.
        1    1    3    3  502    0 -0.37520272026E+03  0.12993995296E+03  0.26798995734E+03  0.47904080194E+03  0.50400001928E-02 0.  1.
       -1    1    3    3    0  502  0.37520272026E+03 -0.12993995296E+03  0.95594104164E+03  0.10351254744E+04  0.50400001928E-02 0. -1.
</event>
<event>
 5   0  0.2008770E-02  0.8824788E+03  0.7818609E-02  0.9447753E-01
       -2   -1    0    0    0  501  0.00000000000E+00  0.00000000000E+00  0.32674744204E+03  0.32674744205E+03  0.25500000920E-02 0.  1.
        2   -1    0    0  501    0  0.00000000000E+00  0.00000000000E+00 -0.59584915758E+03  0.59584915759E+03  0.25500000920E-02 0. -1.
    10030    2    1    2    0    0  0.00000000000E+00  0.00000000000E+00 -0.26910171555E+03  0.92259659963E+03  0.88247875461E+03 0.  0.
        1    1    3    3  502    0 -0.35823059860E+03 -0.11187006692E+03  0.10805028434E+03  0.39053673018E+03  0.50400001928E-02 0. -1.
       -1    1    3    3    0  502  0.35823059860E+03  0.11187006692E+03 -0.37715199988E+03  0.53205986946E+03  0.50400001928E-02 0.  1.
</event>
<event>
 5   0  0.1175993E-02  0.8830948E+03  0.7818609E-02  0.9446964E-01
       -1   -1    0    0    0  501  0.00000000000E+00  0.00000000000E+00  0.31728395212E+03  0.31728395216E+03  0.50400001928E-02 0. -1.
        1   -1    0    0  501    0  0.00000000000E+00  0.00000000000E+00 -0.61447828867E+03  0.61447828869E+03  0.50400001928E-02 0.  1.
    10030    2    1    2    0    0  0.00000000000E+00  0.00000000000E+00 -0.29719433654E+03  0.93176224085E+03  0.88309478529E+03 0.  0.
        4    1    3    3  502    0 -0.30858926034E+03  0.30897746758E+03 -0.21752808610E+03  0.48786728545E+03  0.12699999809E+01 0.  1.
       -4    1    3    3    0  502  0.30858926034E+03 -0.30897746758E+03 -0.79666250441E+02  0.44389495540E+03  0.12699999809E+01 0. -1.
</event>
<event>
 5   0  0.7893875E-03  0.9002096E+03  0.7818609E-02  0.9425319E-01
        3   -1    0    0  501    0  0.00000000000E+00  0.00000000000E+00  0.22060938717E+03  0.22060941029E+03  0.10100000352E+00 0. -1.
       -3   -1    0    0    0  501  0.00000000000E+00  0.00000000000E+00 -0.91833956684E+03  0.91833957240E+03  0.10100000352E+00 0.  1.
    10030    2    1    2    0    0  0.00000000000E+00  0.00000000000E+00 -0.69773017968E+03  0.11389489827E+04  0.90020963199E+03 0.  0.
        4    1    3    3  502    0  0.21236753417E+02  0.34342800864E+03  0.18259873730E+02  0.34457050469E+03  0.12699999809E+01 0. -1.
       -4    1    3    3    0  502 -0.21236753417E+02 -0.34342800864E+03 -0.71599005341E+03  0.79437847799E+03  0.12699999809E+01 0.  1.
</event>
<event>
 5   0  0.2008643E-02  0.9733293E+03  0.7818609E-02  0.9338290E-01
       -2   -1    0    0    0  501  0.00000000000E+00  0.00000000000E+00  0.29378125927E+03  0.29378125929E+03  0.25500000920E-02 0. -1.
        2   -1    0    0  501    0  0.00000000000E+00  0.00000000000E+00 -0.80618646612E+03  0.80618646613E+03  0.25500000920E-02 0.  1.
    10030    2    1    2    0    0  0.00000000000E+00  0.00000000000E+00 -0.51240520685E+03  0.10999677254E+04  0.97332928701E+03 0.  0.
        3    1    3    3  502    0  0.27864540991E+03  0.12131473651E+02  0.19449967819E+03  0.34003025179E+03  0.10100000352E+00 0. -1.
       -3    1    3    3    0  502 -0.27864540991E+03 -0.12131473651E+02 -0.70690488504E+03  0.75993747362E+03  0.10100000352E+00 0.  1.
</event>
<event>
 5   0  0.1206541E-02  0.9859703E+03  0.7818609E-02  0.9324068E-01
       -1   -1    0    0    0  501  0.00000000000E+00  0.00000000000E+00  0.77271229891E+03  0.77271229892E+03  0.50400001928E-02 0.  1.
        1   -1    0    0  501    0  0.00000000000E+00  0.00000000000E+00 -0.31452112926E+03  0.31452112930E+03  0.50400001928E-02 0. -1.
    10030    2    1    2    0    0  0.00000000000E+00  0.00000000000E+00  0.45819116965E+03  0.10872334282E+04  0.98597027313E+03 0.  0.
        3    1    3    3  502    0  0.19345565889E+03 -0.17305451188E+03 -0.23306948540E+03  0.34884717465E+03  0.10100000352E+00 0. -1.
       -3    1    3    3    0  502 -0.19345565889E+03  0.17305451188E+03  0.69126065505E+03  0.73838625357E+03  0.10100000352E+00 0.  1.
</event>
<event>
 5   0  0.2008770E-02  0.9258711E+03  0.7818609E-02  0.9393807E-01
        2   -1    0    0  501    0  0.00000000000E+00  0.00000000000E+00  0.78802018897E+03  0.78802018897E+03  0.25500000920E-02 0.  1.
       -2   -1    0    0    0  501  0.00000000000E+00  0.00000000000E+00 -0.27195914946E+03  0.27195914948E+03  0.25500000920E-02 0. -1.
    10030    2    1    2    0    0  0.00000000000E+00  0.00000000000E+00  0.51606103950E+03  0.10599793384E+04  0.92587105011E+03 0.  0.
        1    1    3    3  502    0  0.39857483371E+03 -0.22945079719E+03  0.31860717303E+03  0.55948199000E+03  0.50400001928E-02 0. -1.
       -1    1    3    3    0  502 -0.39857483371E+03  0.22945079719E+03  0.19745386647E+03  0.50049734845E+03  0.50400001928E-02 0.  1.
</event>
<event>
 5   0  0.1175993E-02  0.8657061E+03  0.7818609E-02  0.9469496E-01
        1   -1    0    0  501    0  0.00000000000E+00  0.00000000000E+00  0.16348065462E+04  0.16348065462E+04  0.50400001928E-02 0. -1.
       -1   -1    0    0    0  501  0.00000000000E+00  0.00000000000E+00 -0.11460790987E+03  0.11460790998E+03  0.50400001928E-02 0.  1.
    10030    2    1    2    0    0  0.00000000000E+00  0.00000000000E+00  0.15201986364E+04  0.17494144562E+04  0.86570609657E+03 0.  0.
        4    1    3    3  502    0 -0.35600807195E+03 -0.24585068028E+03  0.78689632499E+03  0.89799317562E+03  0.12699999809E+01 0.  1.
       -4    1    3    3    0  502  0.35600807195E+03  0.24585068028E+03  0.73330231138E+03  0.85142128060E+03  0.12699999809E+01 0. -1.
</event>
<event>
 5   0  0.2008643E-02  0.8510849E+03  0.7818609E-02  0.9488882E-01
        2   -1    0    0  501    0  0.00000000000E+00  0.00000000000E+00  0.89103428295E+03  0.89103428295E+03  0.25500000920E-02 0.  1.
       -2   -1    0    0    0  501  0.00000000000E+00  0.00000000000E+00 -0.20323163953E+03  0.20323163955E+03  0.25500000920E-02 0. -1.
    10030    2    1    2    0    0  0.00000000000E+00  0.00000000000E+00  0.68780264341E+03  0.10942659225E+04  0.85108485644E+03 0.  0.
        3    1    3    3  502    0 -0.22545163882E+03  0.17367022761E+03  0.75068131498E+03  0.80281519434E+03  0.10100000352E+00 0.  1.
       -3    1    3    3    0  502  0.22545163882E+03 -0.17367022761E+03 -0.62878671568E+02  0.29145072816E+03  0.10100000352E+00 0. -1.
</event>
<event>
 5   0  0.1175993E-02  0.7815720E+03  0.7818609E-02  0.9587081E-01
        1   -1    0    0  501    0  0.00000000000E+00  0.00000000000E+00  0.11287900961E+04  0.11287900962E+04  0.50400001928E-02 0. -1.
       -1   -1    0    0    0  501  0.00000000000E+00  0.00000000000E+00 -0.13528971965E+03  0.13528971975E+03  0.50400001928E-02 0.  1.
    10030    2    1    2    0    0  0.00000000000E+00  0.00000000000E+00  0.99350037649E+03  0.12640798159E+04  0.78157199469E+03 0.  0.
        4    1    3    3  502    0  0.14381815992E+03 -0.24020912420E+03  0.55807931641E+02  0.28548244185E+03  0.12699999809E+01 0.  1.
       -4    1    3    3    0  502 -0.14381815992E+03  0.24020912420E+03  0.93769244485E+03  0.97859737405E+03  0.12699999809E+01 0. -1.
</event>
<event>
 5   0  0.1177712E-02  0.9128175E+03  0.7818609E-02  0.9409699E-01
       -1   -1    0    0    0  501  0.00000000000E+00  0.00000000000E+00  0.26935899892E+03  0.26935899897E+03  0.50400001928E-02 0.  1.
        1   -1    0    0  501    0  0.00000000000E+00  0.00000000000E+00 -0.77335059234E+03  0.77335059236E+03  0.50400001928E-02 0. -1.
    10030    2    1    2    0    0  0.00000000000E+00  0.00000000000E+00 -0.50399159342E+03  0.10427095913E+04  0.91281748756E+03 0.  0.
        5    1    3    3  502    0  0.45592736436E+03  0.19917095137E+02 -0.25715503292E+03  0.52384850215E+03  0.46999998093E+01 0. -1.
       -5    1    3    3    0  502 -0.45592736436E+03 -0.19917095137E+02 -0.24683656050E+03  0.51886108917E+03  0.46999998093E+01 0.  1.
</event>
<event>
 5   0  0.1175993E-02  0.9025700E+03  0.7818609E-02  0.9422374E-01
       -1   -1    0    0    0  501  0.00000000000E+00  0.00000000000E+00  0.63986172189E+03  0.63986172191E+03  0.50400001928E-02 0.  1.
        1   -1    0    0  501    0  0.00000000000E+00  0.00000000000E+00 -0.31828464698E+03  0.31828464702E+03  0.50400001928E-02 0. -1.
    10030    2    1    2    0    0  0.00000000000E+00  0.00000000000E+00  0.32157707491E+03  0.95814636892E+03  0.90257002453E+03 0.  0.
        4    1    3    3  502    0  0.21267220572E+03 -0.35354765248E+03 -0.33311913108E+02  0.41392838284E+03  0.12699999809E+01 0. -1.
       -4    1    3    3    0  502 -0.21267220572E+03  0.35354765248E+03  0.35488898802E+03  0.54421798609E+03  0.12699999809E+01 0.  1.
</event>
<event>
 5   0  0.1206541E-02  0.9258661E+03  0.7818609E-02  0.9393813E-01
        1   -1    0    0  501    0  0.00000000000E+00  0.00000000000E+00  0.16997527499E+04  0.16997527499E+04  0.50400001928E-02 0. -1.
       -1   -1    0    0    0  501  0.00000000000E+00  0.00000000000E+00 -0.12608127501E+03  0.12608127511E+03  0.50400001928E-02 0.  1.
    10030    2    1    2    0    0  0.00000000000E+00  0.00000000000E+00  0.15736714749E+04  0.18258340250E+04  0.92586606809E+03 0.  0.
        3    1    3    3  502    0  0.85530490074E+02 -0.12826051315E+03  0.16476452833E+04  0.16548417489E+04  0.10100000352E+00 0. -1.
       -3    1    3    3    0  502 -0.85530490074E+02  0.12826051315E+03 -0.73973808435E+02  0.17099227614E+03  0.10100000352E+00 0.  1.
</event>
<event>
 5   0  0.1968763E-02  0.9062368E+03  0.7818609E-02  0.9417819E-01
        2   -1    0    0  501    0  0.00000000000E+00  0.00000000000E+00  0.92515653407E+03  0.92515653408E+03  0.25500000920E-02 0.  1.
       -2   -1    0    0    0  501  0.00000000000E+00  0.00000000000E+00 -0.22192598123E+03  0.22192598124E+03  0.25500000920E-02 0. -1.
    10030    2    1    2    0    0  0.00000000000E+00  0.00000000000E+00  0.70323055284E+03  0.11470825153E+04  0.90623677177E+03 0.  0.
        2    1    3    3  502    0  0.69950781815E+02  0.38052956466E+03  0.53097585745E+02  0.39053196422E+03  0.25500000920E-02 0. -1.
       -2    1    3    3    0  502 -0.69950781815E+02 -0.38052956466E+03  0.65013296710E+03  0.75655055110E+03  0.25500000920E-02 0.  1.
</event>
<event>
 5   0  0.1924218E-02  0.9103561E+03  0.7818609E-02  0.9412728E-01
       -2   -1    0    0    0  501  0.00000000000E+00  0.00000000000E+00  0.93797454216E+02  0.93797454251E+02  0.25500000920E-02 0. -1.
        2   -1    0    0  501    0  0.00000000000E+00  0.00000000000E+00 -0.22088771505E+04  0.22088771505E+04  0.25500000920E-02 0.  1.
    10030    2    1    2    0    0  0.00000000000E+00  0.00000000000E+00 -0.21150796963E+04  0.23026746048E+04  0.91035609173E+03 0.  0.
        4    1    3    3  502    0  0.38524333766E+03  0.23419222933E+03 -0.89903143065E+03  0.10057422909E+04  0.12699999809E+01 0. -1.
       -4    1    3    3    0  502 -0.38524333766E+03 -0.23419222933E+03 -0.12160482657E+04  0.12969323139E+04  0.12699999809E+01 0.  1.
</event>
<event>
 5   0  0.2008643E-02  0.9507302E+03  0.7818609E-02  0.9364297E-01
        2   -1    0    0  501    0  0.00000000000E+00  0.00000000000E+00  0.27535645223E+03  0.27535645224E+03  0.25500000920E-02 0. -1.
       -2   -1    0    0    0  501  0.00000000000E+00  0.00000000000E+00 -0.82065263847E+03  0.82065263847E+03  0.25500000920E-02 0.  1.
    10030    2    1    2    0    0  0.00000000000E+00  0.00000000000E+00 -0.54529618624E+03  0.10960090907E+04  0.95073024365E+03 0.  0.
        3    1    3    3  502    0  0.34458887907E+03  0.31836824537E+03 -0.18430846825E+03  0.50405302986E+03  0.10100000352E+00 0. -1.
       -3    1    3    3    0  502 -0.34458887907E+03 -0.31836824537E+03 -0.36098771799E+03  0.59195606085E+03  0.10100000352E+00 0.  1.
</event>
<event>
 5   0  0.2041861E-02  0.8998389E+03  0.7818609E-02  0.9425783E-01
        2   -1    0    0  501    0  0.00000000000E+00  0.00000000000E+00  0.98274500328E+03  0.98274500328E+03  0.25500000920E-02 0. -1.
       -2   -1    0    0    0  501  0.00000000000E+00  0.00000000000E+00 -0.20598171864E+03  0.20598171866E+03  0.25500000920E-02 0.  1.
    10030    2    1    2    0    0  0.00000000000E+00  0.00000000000E+00  0.77676328464E+03  0.11887267219E+04  0.89983888507E+03 0.  0.
        5    1    3    3  502    0 -0.30211382813E+03 -0.32808906922E+03  0.46642630188E+03  0.64536097463E+03  0.46999998093E+01 0.  1.
       -5    1    3    3    0  502  0.30211382813E+03  0.32808906922E+03  0.31033698276E+03  0.54336574731E+03  0.46999998093E+01 0. -1.
</event>
<event>
 5   0  0.1162839E-02  0.8973277E+03  0.7818609E-02  0.9428928E-01
        1   -1    0    0  501    0  0.00000000000E+00  0.00000000000E+00  0.67376334603E+03  0.67376334605E+03  0.50400001928E-02 0. -1.
       -1   -1    0    0    0  501  0.00000000000E+00  0.00000000000E+00 -0.29876850784E+03  0.29876850788E+03  0.50400001928E-02 0.  1.
    10030    2    1    2    0    0  0.00000000000E+00  0.00000000000E+00  0.37499483819E+03  0.97253185393E+03  0.89732774294E+03 0.  0.
        2    1    3    3  502    0  0.17998875888E+03 -0.35160880765E+03 -0.43113502553E+02  0.39734554364E+03  0.25500000920E-02 0. -1.
       -2    1    3    3    0  502 -0.17998875888E+03  0.35160880765E+03  0.41810834074E+03  0.57518631029E+03  0.25500000920E-02 0.  1.
</event>
<event>
 5   0  0.1175993E-02  0.8880765E+03  0.7818609E-02  0.9440610E-01
       -1   -1    0    0    0  501  0.00000000000E+00  0.00000000000E+00  0.37201574960E+03  0.37201574964E+03  0.50400001928E-02 0. -1.
        1   -1    0    0  501    0  0.00000000000E+00  0.00000000000E+00 -0.53000439005E+03  0.53000439008E+03  0.50400001928E-02 0.  1.
    10030    2    1    2    0    0  0.00000000000E+00  0.00000000000E+00 -0.15798864045E+03  0.90202013971E+03  0.88807652933E+03 0.  0.
        4    1    3    3  502    0 -0.23699637229E+03 -0.58125197614E+02 -0.45579409961E+03  0.51700647309E+03  0.12699999809E+01 0.  1.
       -4    1    3    3    0  502  0.23699637229E+03  0.58125197614E+02  0.29780545917E+03  0.38501366662E+03  0.12699999809E+01 0. -1.
</event>
<event>
 5   0  0.2008643E-02  0.8706745E+03  0.7818609E-02  0.9463001E-01
       -2   -1    0    0    0  501  0.00000000000E+00  0.00000000000E+00  0.20417450742E+03  0.20417450743E+03  0.25500000920E-02 0.  1.
        2   -1    0    0  501    0  0.00000000000E+00  0.00000000000E+00 -0.92821844023E+03  0.92821844024E+03  0.25500000920E-02 0. -1.
    10030    2    1    2    0    0  0.00000000000E+00  0.00000000000E+00 -0.72404393282E+03  0.11323929477E+04  0.87067454957E+03 0.  0.
        3    1    3    3  502    0 -0.20485434092E+03  0.13561873094E+03  0.10539734884E+03  0.26733191451E+03  0.10100000352E+00 0.  1.
       -3    1    3    3    0  502  0.20485434092E+03 -0.13561873094E+03 -0.82944128165E+03  0.86506103316E+03  0.10100000352E+00 0. -1.
</event>
<event>
 5   0  0.2008770E-02  0.8957761E+03  0.7818609E-02  0.9430877E-01
       -2   -1    0    0    0  501  0.00000000000E+00  0.00000000000E+00  0.56904618570E+03  0.56904618570E+03  0.25500000920E-02 0. -1.
        2   -1    0    0  501    0  0.00000000000E+00  0.00000000000E+00 -0.35252621263E+03  0.35252621264E+03  0.25500000920E-02 0.  1.
    10030    2    1    2    0    0  0.00000000000E+00  0.00000000000E+00  0.21651997306E+03  0.92157239834E+03  0.89577608064E+03 0.  0.
        1    1    3    3  502    0  0.22456082100E+03 -0.17306495455E+03 -0.24845944606E+03  0.37697630852E+03  0.50400001928E-02 0.  1.
       -1    1    3    3    0  502 -0.22456082100E+03  0.17306495455E+03  0.46497941912E+03  0.54459608983E+03  0.50400001928E-02 0. -1.
</event>
<event>
 5   0  0.7893875E-03  0.9150416E+03  0.7818609E-02  0.9406972E-01
       -3   -1    0    0    0  501  0.00000000000E+00  0.00000000000E+00  0.24402316428E+03  0.24402318518E+03  0.10100000352E+00 0. -1.
        3   -1    0    0  501    0  0.00000000000E+00  0.00000000000E+00 -0.85780895823E+03  0.85780896418E+03  0.10100000352E+00 0.  1.
    10030    2    1    2    0    0  0.00000000000E+00  0.00000000000E+00 -0.61378579395E+03  0.11018321494E+04  0.91504157529E+03 0.  0.
        2    1    3    3  502    0  0.27690830788E+03  0.89479290396E+02  0.11821995397E+03  0.31410302753E+03  0.25500000920E-02 0. -1.
       -2    1    3    3    0  502 -0.27690830788E+03 -0.89479290396E+02 -0.73200574792E+03  0.78772912183E+03  0.25500000920E-02 0.  1.
</event>
<event>
 5   0  0.2008643E-02  0.9059977E+03  0.7818609E-02  0.9418115E-01
        2   -1    0    0  501    0  0.00000000000E+00  0.00000000000E+00  0.72880030762E+03  0.72880030762E+03  0.25500000920E-02 0. -1.
       -2   -1    0    0    0  501  0.00000000000E+00  0.00000000000E+00 -0.28156950747E+03  0.28156950748E+03  0.25500000920E-02 0.  1.
    10030    2    1    2    0    0  0.00000000000E+00  0.00000000000E+00  0.44723080015E+03  0.10103698151E+04  0.90599766814E+03 0.  0.
        3    1    3    3  502    0 -0.47553770949E+02 -0.71698074695E+02  0.71960545439E+03  0.72473029137E+03  0.10100000352E+00 0. -1.
       -3    1    3    3    0  502  0.47553770949E+02  0.71698074695E+02 -0.27237465424E+03  0.28563952373E+03  0.10100000352E+00 0.  1.
</event>
<event>
 5   0  0.1206541E-02  0.8353575E+03  0.7818609E-02  0.9510203E-01
       -1   -1    0    0    0  501  0.00000000000E+00  0.00000000000E+00  0.21921629694E+03  0.21921629700E+03  0.50400001928E-02 0.  1.
        1   -1    0    0  501    0  0.00000000000E+00  0.00000000000E+00 -0.79581468284E+03  0.79581468286E+03  0.50400001928E-02 0. -1.
    10030    2    1    2    0    0  0.00000000000E+00  0.00000000000E+00 -0.57659838590E+03  0.10150309799E+04  0.83535752313E+03 0.  0.
        3    1    3    3  502    0 -0.28880611351E+03 -0.23942448373E+03 -0.51143367134E+03  0.63426923699E+03  0.10100000352E+00 0. -1.
       -3    1    3    3    0  502  0.28880611351E+03  0.23942448373E+03 -0.65164714563E+02  0.38076174287E+03  0.10100000352E+00 0.  1.
</event>
<event>
 5   0  0.7893875E-03  0.9094475E+03  0.7818609E-02  0.9413848E-01
       -3   -1    0    0    0  501  0.00000000000E+00  0.00000000000E+00  0.54747906309E+03  0.54747907240E+03  0.10100000352E+00 0. -1.
        3   -1    0    0  501    0  0.00000000000E+00  0.00000000000E+00 -0.37768326508E+03  0.37768327858E+03  0.10100000352E+00 0.  1.
    10030    2    1    2    0    0  0.00000000000E+00  0.00000000000E+00  0.16979579801E+03  0.92516235098E+03  0.90944750407E+03 0.  0.
        4    1    3    3  502    0  0.35806256712E+03 -0.32544964838E+02 -0.19830823617E+03  0.41060412338E+03  0.12699999809E+01 0.  1.
       -4    1    3    3    0  502 -0.35806256712E+03  0.32544964838E+02  0.36810403418E+03  0.51455822760E+03  0.12699999809E+01 0. -1.
</event>
<event>
 5   0  0.1968763E-02  0.8838702E+03  0.7818609E-02  0.9445972E-01
       -2   -1    0    0    0  501  0.00000000000E+00  0.00000000000E+00  0.22989766358E+03  0.22989766359E+03  0.25500000920E-02 0.  1.
        2   -1    0    0  501    0  0.00000000000E+00  0.00000000000E+00 -0.84953735031E+03  0.84953735031E+03  0.25500000920E-02 0. -1.
    10030    2    1    2    0    0  0.00000000000E+00  0.00000000000E+00 -0.61963968673E+03  0.10794350139E+04  0.88387024380E+03 0.  0.
        2    1    3    3  502    0 -0.13147768100E+03 -0.18193183267E+03 -0.77473506807E+03  0.80659779199E+03  0.25500000920E-02 0. -1.
       -2    1    3    3    0  502  0.13147768100E+03  0.18193183267E+03  0.15509538135E+03  0.27283722191E+03  0.25500000920E-02 0.  1.
</event>
<event>
 5   0  0.1226424E-02  0.6128794E+03  0.7818609E-02  0.9879040E-01
        1   -1    0    0  501    0  0.00000000000E+00  0.00000000000E+00  0.53617840598E+03  0.53617840600E+03  0.50400001928E-02 0.  1.
       -1   -1    0    0    0  501  0.00000000000E+00  0.00000000000E+00 -0.17513816657E+03  0.17513816665E+03  0.50400001928E-02 0. -1.
    10030    2    1    2    0    0  0.00000000000E+00  0.00000000000E+00  0.36104023940E+03  0.71131657265E+03  0.61287944333E+03 0.  0.
        1    1    3    3  502    0 -0.37900376909E+00  0.16729428104E+03 -0.11746128847E+03  0.20441299965E+03  0.50400001928E-02 0. -1.
       -1    1    3    3    0  502  0.37900376909E+00 -0.16729428104E+03  0.47850152787E+03  0.50690357299E+03  0.50400001928E-02 0.  1.
</event>
<event>
 5   0  0.2008643E-02  0.9017468E+03  0.7818609E-02  0.9423400E-01
        2   -1    0    0  501    0  0.00000000000E+00  0.00000000000E+00  0.14554903267E+04  0.14554903267E+04  0.25500000920E-02 0.  1.
       -2   -1    0    0    0  501  0.00000000000E+00  0.00000000000E+00 -0.13966896883E+03  0.13966896885E+03  0.25500000920E-02 0. -1.
    10030    2    1    2    0    0  0.00000000000E+00  0.00000000000E+00  0.13158213579E+04  0.15951592956E+04  0.90174682278E+03 0.  0.
        3    1    3    3  502    0 -0.23366781448E+03  0.32371362231E+03  0.28728947710E+03  0.49186015354E+03  0.10100000352E+00 0. -1.
       -3    1    3    3    0  502  0.23366781448E+03 -0.32371362231E+03  0.10285318808E+04  0.11032991421E+04  0.10100000352E+00 0.  1.
</event>
<event>
 5   0  0.1968763E-02  0.8438393E+03  0.7818609E-02  0.9498643E-01
       -2   -1    0    0    0  501  0.00000000000E+00  0.00000000000E+00  0.10791932200E+03  0.10791932203E+03  0.25500000920E-02 0. -1.
        2   -1    0    0  501    0  0.00000000000E+00  0.00000000000E+00 -0.16495303525E+04  0.16495303525E+04  0.25500000920E-02 0.  1.
    10030    2    1    2    0    0  0.00000000000E+00  0.00000000000E+00 -0.15416110305E+04  0.17574496745E+04  0.84383931478E+03 0.  0.
        2    1    3    3  502    0  0.35763718732E+02  0.28500621612E+03 -0.12716347098E+03  0.31413076125E+03  0.25500000920E-02 0. -1.
       -2    1    3    3    0  502 -0.35763718732E+02 -0.28500621612E+03 -0.14144475595E+04  0.14433189133E+04  0.25500000920E-02 0.  1.
</event>
<event>
 5   0  0.1226424E-02  0.9207966E+03  0.7818609E-02  0.9399952E-01
        1   -1    0    0  501    0  0.00000000000E+00  0.00000000000E+00  0.15340124293E+04  0.15340124293E+04  0.50400001928E-02 0.  1.
       -1   -1    0    0    0  501  0.00000000000E+00  0.00000000000E+00 -0.13817789254E+03  0.13817789263E+03  0.50400001928E-02 0. -1.
    10030    2    1    2    0    0  0.00000000000E+00  0.00000000000E+00  0.13958345368E+04  0.16721903220E+04  0.92079662184E+03 0.  0.
        1    1    3    3  502    0  0.22979304502E+03 -0.29995511768E+03  0.22023454137E+03  0.43735702738E+03  0.50400001928E-02 0. -1.
       -1    1    3    3    0  502 -0.22979304502E+03  0.29995511768E+03  0.11755999954E+04  0.12348332946E+04  0.50400001928E-02 0.  1.
</event>
<event>
 5   0  0.2041861E-02  0.9053458E+03  0.7818609E-02  0.9418923E-01
       -2   -1    0    0    0  501  0.00000000000E+00  0.00000000000E+00  0.47239758671E+03  0.47239758672E+03  0.25500000920E-02 0.  1.
        2   -1    0    0  501    0  0.00000000000E+00  0.00000000000E+00 -0.43377183349E+03  0.43377183350E+03  0.25500000920E-02 0. -1.
    10030    2    1    2    0    0  0.00000000000E+00  0.00000000000E+00  0.38625753216E+02  0.90616942022E+03  0.90534582858E+03 0.  0.
        5    1    3    3  502    0  0.12621349732E+03  0.42434043691E+03 -0.75091661382E+02  0.44906068733E+03  0.46999998093E+01 0. -1.
       -5    1    3    3    0  502 -0.12621349732E+03 -0.42434043691E+03  0.11371741460E+03  0.45710873289E+03  0.46999998093E+01 0.  1.
</event>
<event>
 5   0  0.1968763E-02  0.9796006E+03  0.7818609E-02  0.9331206E-01
       -2   -1    0    0    0  501  0.00000000000E+00  0.00000000000E+00  0.20370776564E+04  0.20370776564E+04  0.25500000920E-02 0. -1.
        2   -1    0    0  501    0  0.00000000000E+00  0.00000000000E+00 -0.11776887825E+03  0.11776887828E+03  0.25500000920E-02 0.  1.
    10030    2    1    2    0    0  0.00000000000E+00  0.00000000000E+00  0.19193087782E+04  0.21548465347E+04  0.97960063401E+03 0.  0.
        2    1    3    3  502    0 -0.25570624159E+03 -0.41729022211E+03  0.10029580924E+04  0.11159936141E+04  0.25500000920E-02 0. -1.
       -2    1    3    3    0  502  0.25570624159E+03  0.41729022211E+03  0.91635068575E+03  0.10388529206E+04  0.25500000920E-02 0.  1.
</event>
<event>
 5   0  0.2041861E-02  0.9040108E+03  0.7818609E-02  0.9420582E-01
        2   -1    0    0  501    0  0.00000000000E+00  0.00000000000E+00  0.12998077798E+04  0.12998077798E+04  0.25500000920E-02 0.  1.
       -2   -1    0    0    0  501  0.00000000000E+00  0.00000000000E+00 -0.15718391242E+03  0.15718391244E+03  0.25500000920E-02 0. -1.
    10030    2    1    2    0    0  0.00000000000E+00  0.00000000000E+00  0.11426238674E+04  0.14569916922E+04  0.90401077923E+03 0.  0.
        5    1    3    3  502    0  0.23310180942E+03 -0.24307452857E+03  0.85484509602E+02  0.34749298032E+03  0.46999998093E+01 0. -1.
       -5    1    3    3    0  502 -0.23310180942E+03  0.24307452857E+03  0.10571393578E+04  0.11094987119E+04  0.46999998093E+01 0.  1.
</event>
<event>
 5   0  0.1175993E-02  0.9012407E+03  0.7818609E-02  0.9424032E-01
        1   -1    0    0  501    0  0.00000000000E+00  0.00000000000E+00  0.49647065533E+03  0.49647065535E+03  0.50400001928E-02 0. -1.
       -1   -1    0    0    0  501  0.00000000000E+00  0.00000000000E+00 -0.40900442136E+03  0.40900442139E+03  0.50400001928E-02 0.  1.
    10030    2    1    2    0    0  0.00000000000E+00  0.00000000000E+00  0.87466233973E+02  0.90547507674E+03  0.90124068512E+03 0.  0.
        4    1    3    3  502    0  0.26874548708E+02 -0.15858527523E+03  0.46664497402E+03  0.49358958211E+03  0.12699999809E+01 0. -1.
       -4    1    3    3    0  502 -0.26874548708E+02  0.15858527523E+03 -0.37917874004E+03  0.41188549463E+03  0.12699999809E+01 0.  1.
</event>
<event>
 5   0  0.1924218E-02  0.8815138E+03  0.7818609E-02  0.9448990E-01
       -2   -1    0    0    0  501  0.00000000000E+00  0.00000000000E+00  0.95743328766E+03  0.95743328766E+03  0.25500000920E-02 0.  1.
        2   -1    0    0  501    0  0.00000000000E+00  0.00000000000E+00 -0.20290356230E+03  0.20290356232E+03  0.25500000920E-02 0. -1.
    10030    2    1    2    0    0  0.00000000000E+00  0.00000000000E+00  0.75452972536E+03  0.11603368500E+04  0.88151375427E+03 0.  0.
        4    1    3    3  502    0  0.31912901086E+03  0.17152373506E+03  0.46872706206E+02  0.36532503439E+03  0.12699999809E+01 0. -1.
       -4    1    3    3    0  502 -0.31912901086E+03 -0.17152373506E+03  0.70765701916E+03  0.79501181559E+03  0.12699999809E+01 0.  1.
</event>
<event>
 5   0  0.2008643E-02  0.8685407E+03  0.7818609E-02  0.9465785E-01
       -2   -1    0    0    0  501  0.00000000000E+00  0.00000000000E+00  0.37718504200E+03  0.37718504201E+03  0.25500000920E-02 0.  1.
        2   -1    0    0  501    0  0.00000000000E+00  0.00000000000E+00 -0.49999524135E+03  0.49999524136E+03  0.25500000920E-02 0. -1.
    10030    2    1    2    0    0  0.00000000000E+00  0.00000000000E+00 -0.12281019935E+03  0.87718028337E+03  0.86854067520E+03 0.  0.
        3    1    3    3  502    0  0.35348443762E+03 -0.20595139100E+03  0.85726897027E+02  0.41799083025E+03  0.10100000352E+00 0.  1.
       -3    1    3    3    0  502 -0.35348443762E+03  0.20595139100E+03 -0.20853709637E+03  0.45918945312E+03  0.10100000352E+00 0. -1.
</event>
<event>
 5   0  0.2041861E-02  0.9122137E+03  0.7818609E-02  0.9410441E-01
        2   -1    0    0  501    0  0.00000000000E+00  0.00000000000E+00  0.70503295209E+03  0.70503295209E+03  0.25500000920E-02 0. -1.
       -2   -1    0    0    0  501  0.00000000000E+00  0.00000000000E+00 -0.29506910064E+03  0.29506910065E+03  0.25500000920E-02 0.  1.
    10030    2    1    2    0    0  0.00000000000E+00  0.00000000000E+00  0.40996385145E+03  0.10001020527E+04  0.91221365721E+03 0.  0.
        5    1    3    3  502    0 -0.91626156976E+02  0.17582805985E+03 -0.24532219425E+03  0.31546145289E+03  0.46999998093E+01 0.  1.
       -5    1    3    3    0  502  0.91626156976E+02 -0.17582805985E+03  0.65528604570E+03  0.68464059985E+03  0.46999998093E+01 0. -1.
</event>
<event>
 5   0  0.2008643E-02  0.9195408E+03  0.7818609E-02  0.9401479E-01
       -2   -1    0    0    0  501  0.00000000000E+00  0.00000000000E+00  0.83084312076E+03  0.83084312076E+03  0.25500000920E-02 0.  1.
        2   -1    0    0  501    0  0.00000000000E+00  0.00000000000E+00 -0.25442687293E+03  0.25442687294E+03  0.25500000920E-02 0. -1.
    10030    2    1    2    0    0  0.00000000000E+00  0.00000000000E+00  0.57641624783E+03  0.10852699937E+04  0.91954079218E+03 0.  0.
        3    1    3    3  502    0  0.25673851469E+03 -0.31466106821E+03  0.33807404170E+02  0.40751589362E+03  0.10100000352E+00 0. -1.
       -3    1    3    3    0  502 -0.25673851469E+03  0.31466106821E+03  0.54260884366E+03  0.67775410009E+03  0.10100000352E+00 0.  1.
</event>
<event>
 5   0  0.1206541E-02  0.8598952E+03  0.7818609E-02  0.9477151E-01
        1   -1    0    0  501    0  0.00000000000E+00  0.00000000000E+00  0.72264161547E+03  0.72264161548E+03  0.50400001928E-02 0. -1.
       -1   -1    0    0    0  501  0.00000000000E+00  0.00000000000E+00 -0.25580443432E+03  0.25580443437E+03  0.50400001928E-02 0.  1.
    10030    2    1    2    0    0  0.00000000000E+00  0.00000000000E+00  0.46683718114E+03  0.97844604986E+03  0.85989517895E+03 0.  0.
        3    1    3    3  502    0 -0.31825316197E+03  0.28596483681E+03  0.28161307332E+03  0.51221762589E+03  0.10100000352E+00 0.  1.
       -3    1    3    3    0  502  0.31825316197E+03 -0.28596483681E+03  0.18522410782E+03  0.46622842397E+03  0.10100000352E+00 0. -1.
</event>
<event>
 5   0  0.1206541E-02  0.8861522E+03  0.7818609E-02  0.9443059E-01
       -1   -1    0    0    0  501  0.00000000000E+00  0.00000000000E+00  0.42207735676E+03  0.42207735679E+03  0.50400001928E-02 0.  1.
        1   -1    0    0  501    0  0.00000000000E+00  0.00000000000E+00 -0.46511950974E+03  0.46511950977E+03  0.50400001928E-02 0. -1.
    10030    2    1    2    0    0  0.00000000000E+00  0.00000000000E+00 -0.43042152974E+02  0.88719686656E+03  0.88615216137E+03 0.  0.
        3    1    3    3  502    0 -0.31985683733E+03 -0.23461301451E+02  0.28454764535E+03  0.42874957927E+03  0.10100000352E+00 0.  1.
       -3    1    3    3    0  502  0.31985683733E+03  0.23461301451E+02 -0.32758979833E+03  0.45844728729E+03  0.10100000352E+00 0. -1.
</event>
<event>
 5   0  0.1924218E-02  0.8172105E+03  0.7818609E-02  0.9535434E-01
       -2   -1    0    0    0  501  0.00000000000E+00  0.00000000000E+00  0.44205974951E+03  0.44205974952E+03  0.25500000920E-02 0.  1.
        2   -1    0    0  501    0  0.00000000000E+00  0.00000000000E+00 -0.37768256419E+03  0.37768256420E+03  0.25500000920E-02 0. -1.
    10030    2    1    2    0    0  0.00000000000E+00  0.00000000000E+00  0.64377185317E+02  0.81974231371E+03  0.81721052300E+03 0.  0.
        4    1    3    3  502    0 -0.30661094132E+03  0.16666308575E+03 -0.18100171420E+03  0.39312858829E+03  0.12699999809E+01 0. -1.
       -4    1    3    3    0  502  0.30661094132E+03 -0.16666308575E+03  0.24537889952E+03  0.42661372542E+03  0.12699999809E+01 0.  1.
</event>
<event>
 5   0  0.1177712E-02  0.8777029E+03  0.7818609E-02  0.9453891E-01
        1   -1    0    0  501    0  0.00000000000E+00  0.00000000000E+00  0.76064911324E+03  0.76064911326E+03  0.50400001928E-02 0. -1.
       -1   -1    0    0    0  501  0.00000000000E+00  0.00000000000E+00 -0.25319242702E+03  0.25319242707E+03  0.50400001928E-02 0.  1.
    10030    2    1    2    0    0  0.00000000000E+00  0.00000000000E+00  0.50745668623E+03  0.10138415403E+04  0.87770289990E+03 0.  0.
        5    1    3    3  502    0  0.35867860384E+03  0.15942320592E+03  0.27072728695E+02  0.39347315293E+03  0.46999998093E+01 0.  1.
       -5    1    3    3    0  502 -0.35867860384E+03 -0.15942320592E+03  0.48038395753E+03  0.62036838740E+03  0.46999998093E+01 0. -1.
</event>
<event>
 5   0  0.1177712E-02  0.9025957E+03  0.7818609E-02  0.9422342E-01
        1   -1    0    0  501    0  0.00000000000E+00  0.00000000000E+00  0.13760527603E+04  0.13760527603E+04  0.50400001928E-02 0. -1.
       -1   -1    0    0    0  501  0.00000000000E+00  0.00000000000E+00 -0.14801012847E+03  0.14801012855E+03  0.50400001928E-02 0.  1.
    10030    2    1    2    0    0  0.00000000000E+00  0.00000000000E+00  0.12280426318E+04  0.15240628888E+04  0.90259569221E+03 0.  0.
        5    1    3    3  502    0  0.11480092425E+02  0.26140062054E+03 -0.68117137946E+01  0.26178343412E+03  0.46999998093E+01 0.  1.
       -5    1    3    3    0  502 -0.11480092425E+02 -0.26140062054E+03  0.12348543456E+04  0.12622794547E+04  0.46999998093E+01 0. -1.
</event>
<event>
 5   0  0.1206541E-02  0.9059821E+03  0.7818609E-02  0.9418134E-01
       -1   -1    0    0    0  501  0.00000000000E+00  0.00000000000E+00  0.30595264585E+03  0.30595264589E+03  0.50400001928E-02 0. -1.
        1   -1    0    0  501    0  0.00000000000E+00  0.00000000000E+00 -0.67069489007E+03  0.67069489009E+03  0.50400001928E-02 0.  1.
    10030    2    1    2    0    0  0.00000000000E+00  0.00000000000E+00 -0.36474224423E+03  0.97664753598E+03  0.90598206650E+03 0.  0.
        3    1    3    3  502    0 -0.38339637075E+03  0.17439880545E+03 -0.36208727306E+03  0.55544119757E+03  0.10100000352E+00 0.  1.
       -3    1    3    3    0  502  0.38339637075E+03 -0.17439880545E+03 -0.26549711634E+01  0.42120633841E+03  0.10100000352E+00 0. -1.
</event>
<event>
 5   0  0.1177712E-02  0.9037249E+03  0.7818609E-02  0.9420937E-01
       -1   -1    0    0    0  501  0.00000000000E+00  0.00000000000E+00  0.14932600333E+03  0.14932600342E+03  0.50400001928E-02 0.  1.
        1   -1    0    0  501    0  0.00000000000E+00  0.00000000000E+00 -0.13673418163E+04  0.13673418163E+04  0.50400001928E-02 0. -1.
    10030    2    1    2    0    0  0.00000000000E+00  0.00000000000E+00 -0.12180158129E+04  0.15166678197E+04  0.90372493311E+03 0.  0.
        5    1    3    3  502    0  0.90818485438E+02  0.83654495400E+01 -0.13516926240E+04  0.13547741575E+04  0.46999998093E+01 0. -1.
       -5    1    3    3    0  502 -0.90818485438E+02 -0.83654495400E+01  0.13367681107E+03  0.16189366219E+03  0.46999998093E+01 0.  1.
</event>
<event>
 5   0  0.1206541E-02  0.9399868E+03  0.7818609E-02  0.9376932E-01
       -1   -1    0    0    0  501  0.00000000000E+00  0.00000000000E+00  0.16658078000E+03  0.16658078007E+03  0.50400001928E-02 0.  1.
        1   -1    0    0  501    0  0.00000000000E+00  0.00000000000E+00 -0.13260461898E+04  0.13260461898E+04  0.50400001928E-02 0. -1.
    10030    2    1    2    0    0  0.00000000000E+00  0.00000000000E+00 -0.11594654098E+04  0.14926269699E+04  0.93998682686E+03 0.  0.
        3    1    3    3  502    0 -0.11390555299E+03 -0.43474659979E+03 -0.79812104430E+03  0.91595649055E+03  0.10100000352E+00 0. -1.
       -3    1    3    3    0  502  0.11390555299E+03  0.43474659979E+03 -0.36134436548E+03  0.57667047930E+03  0.10100000352E+00 0.  1.
</event>
<event>
 5   0  0.2008770E-02  0.8793639E+03  0.7818609E-02  0.9451752E-01
        2   -1    0    0  501    0  0.00000000000E+00  0.00000000000E+00  0.19668978148E+04  0.19668978148E+04  0.25500000920E-02 0.  1.
       -2   -1    0    0    0  501  0.00000000000E+00  0.00000000000E+00 -0.98286855035E+02  0.98286855068E+02  0.25500000920E-02 0. -1.
    10030    2    1    2    0    0  0.00000000000E+00  0.00000000000E+00  0.18686109597E+04  0.20651846698E+04  0.87936386194E+03 0.  0.
        1    1    3    3  502    0  0.20092035976E+03  0.31355892433E+03  0.38537939390E+03  0.53591554117E+03  0.50400001928E-02 0. -1.
       -1    1    3    3    0  502 -0.20092035976E+03 -0.31355892433E+03  0.14832315658E+04  0.15292691287E+04  0.50400001928E-02 0.  1.
</event>
<event>
 5   0  0.1162839E-02  0.9021471E+03  0.7818609E-02  0.9422901E-01
       -1   -1    0    0    0  501  0.00000000000E+00  0.00000000000E+00  0.30321971050E+03  0.30321971054E+03  0.50400001928E-02 0. -1.
        1   -1    0    0  501    0  0.00000000000E+00  0.00000000000E+00 -0.67102286504E+03  0.67102286506E+03  0.50400001928E-02 0.  1.
    10030    2    1    2    0    0  0.00000000000E+00  0.00000000000E+00 -0.36780315454E+03  0.97424257560E+03  0.90214712526E+03 0.  0.
        2    1    3    3  502    0 -0.21350620370E+03  0.28857902145E+03  0.11106483270E+03  0.37576341987E+03  0.25500000920E-02 0. -1.
       -2    1    3    3    0  502  0.21350620370E+03 -0.28857902145E+03 -0.47886798724E+03  0.59847915573E+03  0.25500000920E-02 0.  1.
</event>
<event>
 5   0  0.1206541E-02  0.9018328E+03  0.7818609E-02  0.9423293E-01
        1   -1    0    0  501    0  0.00000000000E+00  0.00000000000E+00  0.70571651874E+03  0.70571651876E+03  0.50400001928E-02 0. -1.
       -1   -1    0    0    0  501  0.00000000000E+00  0.00000000000E+00 -0.28811225502E+03  0.28811225506E+03  0.50400001928E-02 0.  1.
    10030    2    1    2    0    0  0.00000000000E+00  0.00000000000E+00  0.41760426372E+03  0.99382877382E+03  0.90183275090E+03 0.  0.
        3    1    3    3  502    0 -0.35736389761E+03  0.10057080704E+01  0.51183606782E+03  0.62424845797E+03  0.10100000352E+00 0. -1.
       -3    1    3    3    0  502  0.35736389761E+03 -0.10057080704E+01 -0.94231804091E+02  0.36958031585E+03  0.10100000352E+00 0.  1.
</event>
<event>
 5   0  0.1162839E-02  0.8159138E+03  0.7818609E-02  0.9537264E-01
       -1   -1    0    0    0  501  0.00000000000E+00  0.00000000000E+00  0.23573554081E+03  0.23573554087E+03  0.50400001928E-02 0.  1.
        1   -1    0    0  501    0  0.00000000000E+00  0.00000000000E+00 -0.70599806412E+03  0.70599806413E+03  0.50400001928E-02 0. -1.
    10030    2    1    2    0    0  0.00000000000E+00  0.00000000000E+00 -0.47026252330E+03  0.94173360500E+03  0.81591380792E+03 0.  0.
        2    1    3    3  502    0  0.51411856912E+02  0.12303154407E+02  0.23176558626E+03  0.23771797075E+03  0.25500000920E-02 0.  1.
       -2    1    3    3    0  502 -0.51411856912E+02 -0.12303154407E+02 -0.70202810956E+03  0.70401563424E+03  0.25500000920E-02 0. -1.
</event>
<event>
 5   0  0.1206541E-02  0.8509999E+03  0.7818609E-02  0.9488996E-01
       -1   -1    0    0    0  501  0.00000000000E+00  0.00000000000E+00  0.20221966177E+03  0.20221966183E+03  0.50400001928E-02 0. -1.
        1   -1    0    0  501    0  0.00000000000E+00  0.00000000000E+00 -0.89531450420E+03  0.89531450421E+03  0.50400001928E-02 0.  1.
    10030    2    1    2    0    0  0.00000000000E+00  0.00000000000E+00 -0.69309484243E+03  0.10975341660E+04  0.85099987369E+03 0.  0.
        3    1    3    3  502    0  0.39484743022E+03 -0.15181059748E+03 -0.40563811972E+03  0.58608296770E+03  0.10100000352E+00 0.  1.
       -3    1    3    3    0  502 -0.39484743022E+03  0.15181059748E+03 -0.28745672272E+03  0.51145119835E+03  0.10100000352E+00 0. -1.
</event>
<event>
 5   0  0.2041861E-02  0.9195817E+03  0.7818609E-02  0.9401429E-01
        2   -1    0    0  501    0  0.00000000000E+00  0.00000000000E+00  0.30545996297E+03  0.30545996298E+03  0.25500000920E-02 0.  1.
       -2   -1    0    0    0  501  0.00000000000E+00  0.00000000000E+00 -0.69209609573E+03  0.69209609574E+03  0.25500000920E-02 0. -1.
    10030    2    1    2    0    0  0.00000000000E+00  0.00000000000E+00 -0.38663613276E+03  0.99755605872E+03  0.91958174793E+03 0.  0.
        5    1    3    3  502    0 -0.21058462958E+03  0.28368461799E+03 -0.51248095559E+03  0.62248025554E+03  0.46999998093E+01 0. -1.
       -5    1    3    3    0  502  0.21058462958E+03 -0.28368461799E+03  0.12584482282E+03  0.37507580318E+03  0.46999998093E+01 0.  1.
</event>
<event>
 5   0  0.2008770E-02  0.9007709E+03  0.7818609E-02  0.9424618E-01
       -2   -1    0    0    0  501  0.00000000000E+00  0.00000000000E+00  0.46722793415E+03  0.46722793415E+03  0.25500000920E-02 0. -1.
        2   -1    0    0  501    0  0.00000000000E+00  0.00000000000E+00 -0.43415006363E+03  0.43415006363E+03  0.25500000920E-02 0.  1.
    10030    2    1    2    0    0  0.00000000000E+00  0.00000000000E+00  0.33077870519E+02  0.90137799779E+03  0.90077086397E+03 0.  0.
        1    1    3    3  502    0 -0.15893405100E+02 -0.38290567748E+03  0.25329442994E+03  0.45937721584E+03  0.50400001928E-02 0. -1.
       -1    1    3    3    0  502  0.15893405100E+02  0.38290567748E+03 -0.22021655943E+03  0.44200078194E+03  0.50400001928E-02 0.  1.
</event>
<event>
 5   0  0.1226424E-02  0.8904599E+03  0.7818609E-02  0.9437586E-01
        1   -1    0    0  501    0  0.00000000000E+00  0.00000000000E+00  0.66078753717E+03  0.66078753718E+03  0.50400001928E-02 0. -1.
       -1   -1    0    0    0  501  0.00000000000E+00  0.00000000000E+00 -0.29999004975E+03  0.29999004979E+03  0.50400001928E-02 0.  1.
    10030    2    1    2    0    0  0.00000000000E+00  0.00000000000E+00  0.36079748741E+03  0.96077758698E+03  0.89045985014E+03 0.  0.
        1    1    3    3  502    0  0.64926104143E+02  0.43954805348E+03  0.14965675690E+03  0.46884436141E+03  0.50400001928E-02 0.  1.
       -1    1    3    3    0  502 -0.64926104143E+02 -0.43954805348E+03  0.21114073051E+03  0.49193322557E+03  0.50400001928E-02 0. -1.
</event>
<event>
 5   0  0.1968763E-02  0.9050242E+03  0.7818609E-02  0.9419323E-01
        2   -1    0    0  501    0  0.00000000000E+00  0.00000000000E+00  0.63900040529E+03  0.63900040529E+03  0.25500000920E-02 0. -1.
       -2   -1    0    0    0  501  0.00000000000E+00  0.00000000000E+00 -0.32044922586E+03  0.32044922587E+03  0.25500000920E-02 0.  1.
    10030    2    1    2    0    0  0.00000000000E+00  0.00000000000E+00  0.31855117943E+03  0.95944963116E+03  0.90502416587E+03 0.  0.
        2    1    3    3  502    0 -0.14926615134E+03 -0.24400668381E+02 -0.29285937931E+03  0.32960945468E+03  0.25500000920E-02 0.  1.
       -2    1    3    3    0  502  0.14926615134E+03  0.24400668381E+02  0.61141055875E+03  0.62984017648E+03  0.25500000920E-02 0. -1.
</event>
<event>
 5   0  0.2041861E-02  0.8868223E+03  0.7818609E-02  0.9442206E-01
       -2   -1    0    0    0  501  0.00000000000E+00  0.00000000000E+00  0.18792735821E+03  0.18792735823E+03  0.25500000920E-02 0. -1.
        2   -1    0    0  501    0  0.00000000000E+00  0.00000000000E+00 -0.10462204281E+04  0.10462204281E+04  0.25500000920E-02 0.  1.
    10030    2    1    2    0    0  0.00000000000E+00  0.00000000000E+00 -0.85829306985E+03  0.12341477863E+04  0.88682228471E+03 0.  0.
        5    1    3    3  502    0  0.49318435678E+02 -0.43319262464E+03 -0.31692042919E+03  0.53902579398E+03  0.46999998093E+01 0. -1.
       -5    1    3    3    0  502 -0.49318435678E+02  0.43319262464E+03 -0.54137264066E+03  0.69512199231E+03  0.46999998093E+01 0.  1.
</event>
<event>
 5   0  0.1162839E-02  0.9153154E+03  0.7818609E-02  0.9406636E-01
        1   -1    0    0  501    0  0.00000000000E+00  0.00000000000E+00  0.70687274157E+03  0.70687274159E+03  0.50400001928E-02 0.  1.
       -1   -1    0    0    0  501  0.00000000000E+00  0.00000000000E+00 -0.29630588189E+03  0.29630588193E+03  0.50400001928E-02 0. -1.
    10030    2    1    2    0    0  0.00000000000E+00  0.00000000000E+00  0.41056685968E+03  0.10031786235E+04  0.91531535791E+03 0.  0.
        2    1    3    3  502    0 -0.23426043488E+02 -0.43855852982E+03  0.34635679316E+03  0.55932583685E+03  0.25500000920E-02 0. -1.
       -2    1    3    3    0  502  0.23426043488E+02  0.43855852982E+03  0.64210066520E+02  0.44385278668E+03  0.25500000920E-02 0.  1.
</event>
<event>
 5   0  0.1968763E-02  0.8809954E+03  0.7818609E-02  0.9449655E-01
       -2   -1    0    0    0  501  0.00000000000E+00  0.00000000000E+00  0.11795288182E+03  0.11795288185E+03  0.25500000920E-02 0. -1.
        2   -1    0    0  501    0  0.00000000000E+00  0.00000000000E+00 -0.16450486995E+04  0.16450486995E+04  0.25500000920E-02 0.  1.
    10030    2    1    2    0    0  0.00000000000E+00  0.00000000000E+00 -0.15270958177E+04  0.17630015814E+04  0.88099542535E+03 0.  0.
        2    1    3    3  502    0 -0.33006807060E+03 -0.99154296729E+02 -0.13125400713E+04  0.13570327721E+04  0.25500000920E-02 0.  1.
       -2    1    3    3    0  502  0.33006807060E+03  0.99154296729E+02 -0.21455574644E+03  0.40596880930E+03  0.25500000920E-02 0. -1.
</event>
<event>
 5   0  0.2008643E-02  0.9019977E+03  0.7818609E-02  0.9423088E-01
        2   -1    0    0  501    0  0.00000000000E+00  0.00000000000E+00  0.52724628463E+03  0.52724628464E+03  0.25500000920E-02 0. -1.
       -2   -1    0    0    0  501  0.00000000000E+00  0.00000000000E+00 -0.38577785855E+03  0.38577785856E+03  0.25500000920E-02 0.  1.
    10030    2    1    2    0    0  0.00000000000E+00  0.00000000000E+00  0.14146842608E+03  0.91302414319E+03  0.90199765547E+03 0.  0.
        3    1    3    3  502    0  0.20024424044E+02  0.31040090084E+03 -0.25983146731E+03  0.40529260838E+03  0.10100000352E+00 0.  1.
       -3    1    3    3    0  502 -0.20024424044E+02 -0.31040090084E+03  0.40129989340E+03  0.50773153481E+03  0.10100000352E+00 0. -1.
</event>
<event>
 5   0  0.1177712E-02  0.8921838E+03  0.7818609E-02  0.9435405E-01
       -1   -1    0    0    0  501  0.00000000000E+00  0.00000000000E+00  0.23264809425E+03  0.23264809431E+03  0.50400001928E-02 0. -1.
        1   -1    0    0  501    0  0.00000000000E+00  0.00000000000E+00 -0.85536050929E+03  0.85536050931E+03  0.50400001928E-02 0.  1.
    10030    2    1    2    0    0  0.00000000000E+00  0.00000000000E+00 -0.62271241504E+03  0.10880086036E+04  0.89218382057E+03 0.  0.
        5    1    3    3  502    0  0.27417841640E+03 -0.17261774438E+03 -0.68525490713E+03  0.75800202337E+03  0.46999998093E+01 0.  1.
       -5    1    3    3    0  502 -0.27417841640E+03  0.17261774438E+03  0.62542492083E+02  0.33000658025E+03  0.46999998093E+01 0. -1.
</event>
<event>
 5   0  0.1177712E-02  0.8898881E+03  0.7818609E-02  0.9438311E-01
        1   -1    0    0  501    0  0.00000000000E+00  0.00000000000E+00  0.23111148034E+04  0.23111148034E+04  0.50400001928E-02 0. -1.
       -1   -1    0    0    0  501  0.00000000000E+00  0.00000000000E+00 -0.85662203124E+02  0.85662203272E+02  0.50400001928E-02 0.  1.
    10030    2    1    2    0    0  0.00000000000E+00  0.00000000000E+00  0.22254526003E+04  0.23967770067E+04  0.88988805120E+03 0.  0.
        5    1    3    3  502    0  0.36574199469E+02 -0.26890554605E+03  0.20623181030E+04  0.20801023804E+04  0.46999998093E+01 0. -1.
       -5    1    3    3    0  502 -0.36574199469E+02  0.26890554605E+03  0.16313449727E+03  0.31667462633E+03  0.46999998093E+01 0.  1.
</event>
<event>
 5   0  0.2008770E-02  0.8983894E+03  0.7818609E-02  0.9427597E-01
       -2   -1    0    0    0  501  0.00000000000E+00  0.00000000000E+00  0.62507428100E+03  0.62507428101E+03  0.25500000920E-02 0.  1.
        2   -1    0    0  501    0  0.00000000000E+00  0.00000000000E+00 -0.32280304617E+03  0.32280304618E+03  0.25500000920E-02 0. -1.
    10030    2    1    2    0    0  0.00000000000E+00  0.00000000000E+00  0.30227123483E+03  0.94787732719E+03  0.89838940777E+03 0.  0.
        1    1    3    3  502    0  0.93543470554E+02  0.95163824489E+02 -0.30140779416E+03  0.32962583755E+03  0.50400001928E-02 0. -1.
       -1    1    3    3    0  502 -0.93543470554E+02 -0.95163824489E+02  0.60367902899E+03  0.61825148964E+03  0.50400001928E-02 0.  1.
</event>
<event>
 5   0  0.1175993E-02  0.9041561E+03  0.7818609E-02  0.9420401E-01
       -1   -1    0    0    0  501  0.00000000000E+00  0.00000000000E+00  0.42431098381E+03  0.42431098384E+03  0.50400001928E-02 0. -1.
        1   -1    0    0  501    0  0.00000000000E+00  0.00000000000E+00 -0.48166218949E+03  0.48166218952E+03  0.50400001928E-02 0.  1.
    10030    2    1    2    0    0  0.00000000000E+00  0.00000000000E+00 -0.57351205683E+02  0.90597317336E+03  0.90415608722E+03 0.  0.
        4    1    3    3  502    0  0.33220668172E+03 -0.21477166628E+03  0.19059012303E+03  0.43910631504E+03  0.12699999809E+01 0.  1.
       -4    1    3    3    0  502 -0.33220668172E+03  0.21477166628E+03 -0.24794132871E+03  0.46686685832E+03  0.12699999809E+01 0. -1.
</event>
<event>
 5   0  0.1162839E-02  0.8974978E+03  0.7818609E-02  0.9428715E-01
       -1   -1    0    0    0  501  0.00000000000E+00  0.00000000000E+00  0.63259645216E+03  0.63259645218E+03  0.50400001928E-02 0.  1.
        1   -1    0    0  501    0  0.00000000000E+00  0.00000000000E+00 -0.31833179090E+03  0.31833179094E+03  0.50400001928E-02 0. -1.
    10030    2    1    2    0    0  0.00000000000E+00  0.00000000000E+00  0.31426466126E+03  0.95092824312E+03  0.89749776949E+03 0.  0.
        2    1    3    3  502    0 -0.85841908098E+02  0.31011699451E+03 -0.17427313670E+03  0.36594058213E+03  0.25500000920E-02 0. -1.
       -2    1    3    3    0  502  0.85841908098E+02 -0.31011699451E+03  0.48853779795E+03  0.58498766099E+03  0.25500000920E-02 0.  1.
</event>
<event>
 5   0  0.1924218E-02  0.9911785E+03  0.7818609E-02  0.9318273E-01
       -2   -1    0    0    0  501  0.00000000000E+00  0.00000000000E+00  0.45671406371E+03  0.45671406372E+03  0.25500000920E-02 0.  1.
        2   -1    0    0  501    0  0.00000000000E+00  0.00000000000E+00 -0.53777345090E+03  0.53777345090E+03  0.25500000920E-02 0. -1.
    10030    2    1    2    0    0  0.00000000000E+00  0.00000000000E+00 -0.81059387187E+02  0.99448751462E+03  0.99117848670E+03 0.  0.
        4    1    3    3  502    0  0.23402757087E+01  0.30434572030E+03  0.35189661190E+03  0.46525759824E+03  0.12699999809E+01 0.  1.
       -4    1    3    3    0  502 -0.23402757087E+01 -0.30434572030E+03 -0.43295599909E+03  0.52922991638E+03  0.12699999809E+01 0. -1.
</event>
<event>
 5   0  0.1968763E-02  0.8963387E+03  0.7818609E-02  0.9430170E-01
       -2   -1    0    0    0  501  0.00000000000E+00  0.00000000000E+00  0.93894575970E+03  0.93894575970E+03  0.25500000920E-02 0.  1.
        2   -1    0    0  501    0  0.00000000000E+00  0.00000000000E+00 -0.21391626928E+03  0.21391626930E+03  0.25500000920E-02 0. -1.
    10030    2    1    2    0    0  0.00000000000E+00  0.00000000000E+00  0.72502949041E+03  0.11528620290E+04  0.89633871719E+03 0.  0.
        2    1    3    3  502    0  0.30441984503E+03 -0.32804635135E+03  0.39322004793E+03  0.59574143451E+03  0.25500000920E-02 0.  1.
       -2    1    3    3    0  502 -0.30441984503E+03  0.32804635135E+03  0.33180944248E+03  0.55712059449E+03  0.25500000920E-02 0. -1.
</event>
<event>
 5   0  0.2008643E-02  0.8932195E+03  0.7818609E-02  0.9434097E-01
       -2   -1    0    0    0  501  0.00000000000E+00  0.00000000000E+00  0.13072348109E+03  0.13072348111E+03  0.25500000920E-02 0.  1.
        2   -1    0    0  501    0  0.00000000000E+00  0.00000000000E+00 -0.15258181559E+04  0.15258181559E+04  0.25500000920E-02 0. -1.
    10030    2    1    2    0    0  0.00000000000E+00  0.00000000000E+00 -0.13950946748E+04  0.16565416370E+04  0.89321948225E+03 0.  0.
        3    1    3    3  502    0 -0.19943739727E+03  0.21725333016E+03 -0.13195515700E+04  0.13521060022E+04  0.10100000352E+00 0. -1.
       -3    1    3    3    0  502  0.19943739727E+03 -0.21725333016E+03 -0.75543104797E+02  0.30443563487E+03  0.10100000352E+00 0.  1.
</event>
<event>
 5   0  0.7893875E-03  0.8975586E+03  0.7818609E-02  0.9428638E-01
       -4   -1    0    0    0  501  0.00000000000E+00  0.00000000000E+00  0.16662454210E+04  0.16662459050E+04  0.12699999809E+01 0. -1.
        4   -1    0    0  501    0  0.00000000000E+00  0.00000000000E+00 -0.12086843667E+03  0.12087510862E+03  0.12699999809E+01 0.  1.
    10030    2    1    2    0    0  0.00000000000E+00  0.00000000000E+00  0.15453769844E+04  0.17871210136E+04  0.89755862961E+03 0.  0.
        2    1    3    3  502    0  0.29994980512E+03 -0.10620873610E+03  0.14028073086E+04  0.14384430911E+04  0.25500000920E-02 0. -1.
       -2    1    3    3    0  502 -0.29994980512E+03  0.10620873610E+03  0.14256967573E+03  0.34867792253E+03  0.25500000920E-02 0.  1.
</event>
<event>
 5   0  0.1924218E-02  0.9036673E+03  0.7818609E-02  0.9421009E-01
        2   -1    0    0  501    0  0.00000000000E+00  0.00000000000E+00  0.68742043384E+03  0.68742043385E+03  0.25500000920E-02 0. -1.
       -2   -1    0    0    0  501  0.00000000000E+00  0.00000000000E+00 -0.29698510325E+03  0.29698510326E+03  0.25500000920E-02 0.  1.
    10030    2    1    2    0    0  0.00000000000E+00  0.00000000000E+00  0.39043533059E+03  0.98440553711E+03  0.90366725851E+03 0.  0.
        4    1    3    3  502    0 -0.39423614007E+03  0.22037920393E+03  0.18131461798E+03  0.48668853619E+03  0.12699999809E+01 0. -1.
       -4    1    3    3    0  502  0.39423614007E+03 -0.22037920393E+03  0.20912071261E+03  0.49771700092E+03  0.12699999809E+01 0.  1.
</event>
<event>
 5   0  0.2008643E-02  0.9289760E+03  0.7818609E-02  0.9390068E-01
        2   -1    0    0  501    0  0.00000000000E+00  0.00000000000E+00  0.26950688589E+03  0.26950688590E+03  0.25500000920E-02 0.  1.
       -2   -1    0    0    0  501  0.00000000000E+00  0.00000000000E+00 -0.80053276353E+03  0.80053276354E+03  0.25500000920E-02 0. -1.
    10030    2    1    2    0    0  0.00000000000E+00  0.00000000000E+00 -0.53102587764E+03  0.10700396494E+04  0.92897597851E+03 0.  0.
        3    1    3    3  502    0  0.18681051339E+03 -0.33422609770E+03  0.37368110570E+02  0.38470981036E+03  0.10100000352E+00 0.  1.
       -3    1    3    3    0  502 -0.18681051339E+03  0.33422609770E+03 -0.56839398821E+03  0.68532983908E+03  0.10100000352E+00 0. -1.
</event>
<event>
 5   0  0.1206541E-02  0.1048990E+04  0.7818609E-02  0.9256387E-01
       -1   -1    0    0    0  501  0.00000000000E+00  0.00000000000E+00  0.17020582425E+03  0.17020582432E+03  0.50400001928E-02 0.  1.
        1   -1    0    0  501    0  0.00000000000E+00  0.00000000000E+00 -0.16162495348E+04  0.16162495348E+04  0.50400001928E-02 0. -1.
    10030    2    1    2    0    0  0.00000000000E+00  0.00000000000E+00 -0.14460437105E+04  0.17864553591E+04  0.10489901512E+04 0.  0.
        3    1    3    3  502    0 -0.32122046091E+02  0.47773089433E+03 -0.10876298622E+04  0.11883591042E+04  0.10100000352E+00 0. -1.
       -3    1    3    3    0  502  0.32122046091E+02 -0.47773089433E+03 -0.35841384835E+03  0.59809625490E+03  0.10100000352E+00 0.  1.
</event>
<event>
 5   0  0.2008770E-02  0.9569016E+03  0.7818609E-02  0.9357120E-01
        2   -1    0    0  501    0  0.00000000000E+00  0.00000000000E+00  0.74070952307E+03  0.74070952308E+03  0.25500000920E-02 0.  1.
       -2   -1    0    0    0  501  0.00000000000E+00  0.00000000000E+00 -0.30904851275E+03  0.30904851276E+03  0.25500000920E-02 0. -1.
    10030    2    1    2    0    0  0.00000000000E+00  0.00000000000E+00  0.43166101032E+03  0.10497580358E+04  0.95690161771E+03 0.  0.
        1    1    3    3  502    0 -0.23544354188E+03 -0.45617914450E+02  0.67001048616E+03  0.71163804502E+03  0.50400001928E-02 0.  1.
       -1    1    3    3    0  502  0.23544354188E+03  0.45617914450E+02 -0.23834947584E+03  0.33811999082E+03  0.50400001928E-02 0. -1.
</event>
<event>
 5   0  0.1162839E-02  0.8919802E+03  0.7818609E-02  0.9435662E-01
       -1   -1    0    0    0  501  0.00000000000E+00  0.00000000000E+00  0.54626165280E+03  0.54626165283E+03  0.50400001928E-02 0.  1.
        1   -1    0    0  501    0  0.00000000000E+00  0.00000000000E+00 -0.36412434412E+03  0.36412434416E+03  0.50400001928E-02 0. -1.
    10030    2    1    2    0    0  0.00000000000E+00  0.00000000000E+00  0.18213730868E+03  0.91038599698E+03  0.89198019277E+03 0.  0.
        2    1    3    3  502    0 -0.90601823024E+02  0.10389113487E+03 -0.34183585078E+03  0.36858351445E+03  0.25500000920E-02 0. -1.
       -2    1    3    3    0  502  0.90601823024E+02 -0.10389113487E+03  0.52397315946E+03  0.54180248253E+03  0.25500000920E-02 0.  1.
</event>
<event>
 5   0  0.1226424E-02  0.8980527E+03  0.7818609E-02  0.9428019E-01
       -1   -1    0    0    0  501  0.00000000000E+00  0.00000000000E+00  0.48066600739E+03  0.48066600742E+03  0.50400001928E-02 0.  1.
        1   -1    0    0  501    0  0.00000000000E+00  0.00000000000E+00 -0.41946935670E+03  0.41946935673E+03  0.50400001928E-02 0. -1.
    10030    2    1    2    0    0  0.00000000000E+00  0.00000000000E+00  0.61196650695E+02  0.90013536415E+03  0.89805269541E+03 0.  0.
        1    1    3    3  502    0  0.17233473473E+03  0.14377363553E+02  0.44594887451E+03  0.47830572658E+03  0.50400001928E-02 0.  1.
       -1    1    3    3    0  502 -0.17233473473E+03 -0.14377363553E+02 -0.38475222381E+03  0.42182963757E+03  0.50400001928E-02 0. -1.
</event>
<event>
 5   0  0.1924218E-02  0.9546667E+03  0.7818609E-02  0.9359713E-01
        2   -1    0    0  501    0  0.00000000000E+00  0.00000000000E+00  0.96450085656E+03  0.96450085656E+03  0.25500000920E-02 0.  1.
       -2   -1    0    0    0  501  0.00000000000E+00  0.00000000000E+00 -0.23623319217E+03  0.23623319218E+03  0.25500000920E-02 0. -1.
    10030    2    1    2    0    0  0.00000000000E+00  0.00000000000E+00  0.72826766439E+03  0.12007340487E+04  0.95466667734E+03 0.  0.
        4    1    3    3  502    0  0.37085866732E+03 -0.26974475492E+03  0.19752501646E+03  0.49931566064E+03  0.12699999809E+01 0. -1.
       -4    1    3    3    0  502 -0.37085866732E+03  0.26974475492E+03  0.53074264792E+03  0.70141838810E+03  0.12699999809E+01 0.  1.
</event>
<event>
 5   0  0.1924218E-02  0.8944757E+03  0.7818609E-02  0.9432514E-01
        2   -1    0    0  501    0  0.00000000000E+00  0.00000000000E+00  0.20614099577E+03  0.20614099579E+03  0.25500000920E-02 0.  1.
       -2   -1    0    0    0  501  0.00000000000E+00  0.00000000000E+00 -0.97031489932E+03  0.97031489932E+03  0.25500000920E-02 0. -1.
    10030    2    1    2    0    0  0.00000000000E+00  0.00000000000E+00 -0.76417390354E+03  0.11764558951E+04  0.89447566668E+03 0.  0.
        4    1    3    3  502    0  0.32604544207E+03 -0.16443530517E+03 -0.72170452330E+03  0.80882855522E+03  0.12699999809E+01 0. -1.
       -4    1    3    3    0  502 -0.32604544207E+03  0.16443530517E+03 -0.42469380239E+02  0.36762733989E+03  0.12699999809E+01 0.  1.
</event>
<event>
 5   0  0.1924218E-02  0.9248593E+03  0.7818609E-02  0.9395029E-01
        2   -1    0    0  501    0  0.00000000000E+00  0.00000000000E+00  0.24464801696E+04  0.24464801696E+04  0.25500000920E-02 0. -1.
       -2   -1    0    0    0  501  0.00000000000E+00  0.00000000000E+00 -0.87407694454E+02  0.87407694491E+02  0.25500000920E-02 0.  1.
    10030    2    1    2    0    0  0.00000000000E+00  0.00000000000E+00  0.23590724751E+04  0.25338878641E+04  0.92485932162E+03 0.  0.
        4    1    3    3  502    0 -0.32471779976E+03 -0.29530916512E+03  0.15783604858E+04  0.16382529073E+04  0.12699999809E+01 0.  1.
       -4    1    3    3    0  502  0.32471779976E+03  0.29530916512E+03  0.78071198935E+03  0.89563495672E+03  0.12699999809E+01 0. -1.
</event>
<event>
 5   0  0.7893875E-03  0.9040175E+03  0.7818609E-02  0.9420573E-01
        3   -1    0    0  501    0  0.00000000000E+00  0.00000000000E+00  0.23546734759E+03  0.23546736925E+03  0.10100000352E+00 0.  1.
       -3   -1    0    0    0  501  0.00000000000E+00  0.00000000000E+00 -0.86768666024E+03  0.86768666611E+03  0.10100000352E+00 0. -1.
    10030    2    1    2    0    0  0.00000000000E+00  0.00000000000E+00 -0.63221931265E+03  0.11031540354E+04  0.90401745915E+03 0.  0.
        2    1    3    3  502    0  0.37786493766E+03  0.89248649596E+01 -0.61860691277E+03  0.72493867110E+03  0.25500000920E-02 0. -1.
       -2    1    3    3    0  502 -0.37786493766E+03 -0.89248649596E+01 -0.13612399881E+02  0.37821536426E+03  0.25500000920E-02 0.  1.
</event>
<event>
 5   0  0.1226424E-02  0.8926587E+03  0.7818609E-02  0.9434805E-01
        1   -1    0    0  501    0  0.00000000000E+00  0.00000000000E+00  0.15664790762E+04  0.15664790762E+04  0.50400001928E-02 0.  1.
       -1   -1    0    0    0  501  0.00000000000E+00  0.00000000000E+00 -0.12717048085E+03  0.12717048095E+03  0.50400001928E-02 0. -1.
    10030    2    1    2    0    0  0.00000000000E+00  0.00000000000E+00  0.14393085953E+04  0.16936495571E+04  0.89265871967E+03 0.  0.
        1    1    3    3  502    0 -0.85052985059E+02  0.24980717011E+03  0.36696093521E+02  0.26642866927E+03  0.50400001928E-02 0. -1.
       -1    1    3    3    0  502  0.85052985059E+02 -0.24980717011E+03  0.14026125018E+04  0.14272208878E+04  0.50400001928E-02 0.  1.
</event>
<event>
 5   0  0.7893875E-03  0.8880900E+03  0.7818609E-02  0.9440593E-01
        3   -1    0    0  501    0  0.00000000000E+00  0.00000000000E+00  0.11891402043E+03  0.11891406332E+03  0.10100000352E+00 0. -1.
       -3   -1    0    0    0  501  0.00000000000E+00  0.00000000000E+00 -0.16581386768E+04  0.16581386799E+04  0.10100000352E+00 0.  1.
    10030    2    1    2    0    0  0.00000000000E+00  0.00000000000E+00 -0.15392246564E+04  0.17770527432E+04  0.88809003447E+03 0.  0.
        2    1    3    3  502    0  0.30818734128E+03  0.15918655988E+03 -0.21488097055E+03  0.40803630928E+03  0.25500000920E-02 0. -1.
       -2    1    3    3    0  502 -0.30818734128E+03 -0.15918655988E+03 -0.13243436858E+04  0.13690164339E+04  0.25500000920E-02 0.  1.
</event>
<event>
 5   0  0.2008643E-02  0.9068134E+03  0.7818609E-02  0.9417104E-01
       -2   -1    0    0    0  501  0.00000000000E+00  0.00000000000E+00  0.23475426003E+03  0.23475426005E+03  0.25500000920E-02 0. -1.
        2   -1    0    0  501    0  0.00000000000E+00  0.00000000000E+00 -0.87571426895E+03  0.87571426895E+03  0.25500000920E-02 0.  1.
    10030    2    1    2    0    0  0.00000000000E+00  0.00000000000E+00 -0.64096000891E+03  0.11104685290E+04  0.90681344325E+03 0.  0.
        3    1    3    3  502    0 -0.21927962000E+03 -0.39354579540E+03 -0.25784882526E+03  0.51908368470E+03  0.10100000352E+00 0. -1.
       -3    1    3    3    0  502  0.21927962000E+03  0.39354579540E+03 -0.38311118365E+03  0.59138484430E+03  0.10100000352E+00 0.  1.
</event>
<event>
 5   0  0.7893875E-03  0.9109649E+03  0.7818609E-02  0.9411978E-01
        3   -1    0    0  501    0  0.00000000000E+00  0.00000000000E+00  0.22341152589E+03  0.22341154872E+03  0.10100000352E+00 0. -1.
       -3   -1    0    0    0  501  0.00000000000E+00  0.00000000000E+00 -0.92861933119E+03  0.92861933668E+03  0.10100000352E+00 0.  1.
    10030    2    1    2    0    0  0.00000000000E+00  0.00000000000E+00 -0.70520780530E+03  0.11520308854E+04  0.91096493470E+03 0.  0.
        1    1    3    3  502    0  0.31435152000E+03  0.92465380741E+02 -0.75270910033E+03  0.82093709534E+03  0.50400001928E-02 0.  1.
       -1    1    3    3    0  502 -0.31435152000E+03 -0.92465380741E+02  0.47501295034E+02  0.33109379006E+03  0.50400001928E-02 0. -1.
</event>
<event>
 5   0  0.2008770E-02  0.8887016E+03  0.7818609E-02  0.9439816E-01
        2   -1    0    0  501    0  0.00000000000E+00  0.00000000000E+00  0.18668805913E+04  0.18668805913E+04  0.25500000920E-02 0. -1.
       -2   -1    0    0    0  501  0.00000000000E+00  0.00000000000E+00 -0.10576339981E+03  0.10576339984E+03  0.25500000920E-02 0.  1.
    10030    2    1    2    0    0  0.00000000000E+00  0.00000000000E+00  0.17611171915E+04  0.19726439911E+04  0.88870161114E+03 0.  0.
        1    1    3    3  502    0  0.79131722231E+02 -0.31737556647E+03  0.21295667369E+03  0.39030709006E+03  0.50400001928E-02 0.  1.
       -1    1    3    3    0  502 -0.79131722231E+02  0.31737556647E+03  0.15481605178E+04  0.15823369011E+04  0.50400001928E-02 0. -1.
</event>
<event>
 5   0  0.7893875E-03  0.9038201E+03  0.7818609E-02  0.9420819E-01
       -4   -1    0    0    0  501  0.00000000000E+00  0.00000000000E+00  0.20025247187E+03  0.20025649900E+03  0.12699999809E+01 0.  1.
        4   -1    0    0  501    0  0.00000000000E+00  0.00000000000E+00 -0.10198113251E+04  0.10198121159E+04  0.12699999809E+01 0. -1.
    10030    2    1    2    0    0  0.00000000000E+00  0.00000000000E+00 -0.81955885325E+03  0.12200686149E+04  0.90382006568E+03 0.  0.
        4    1    3    3  502    0  0.24492435623E+03 -0.36811164593E+03 -0.28367414103E+03  0.52532538043E+03  0.12699999809E+01 0.  1.
       -4    1    3    3    0  502 -0.24492435623E+03  0.36811164593E+03 -0.53588471223E+03  0.69474323447E+03  0.12699999809E+01 0. -1.
</event>
<event>
 5   0  0.1226424E-02  0.9382563E+03  0.7818609E-02  0.9378983E-01
        1   -1    0    0  501    0  0.00000000000E+00  0.00000000000E+00  0.39586200573E+03  0.39586200576E+03  0.50400001928E-02 0.  1.
       -1   -1    0    0    0  501  0.00000000000E+00  0.00000000000E+00 -0.55595439508E+03  0.55595439510E+03  0.50400001928E-02 0. -1.
    10030    2    1    2    0    0  0.00000000000E+00  0.00000000000E+00 -0.16009238935E+03  0.95181640086E+03  0.93825630178E+03 0.  0.
        1    1    3    3  502    0  0.24461626282E+03 -0.11968268624E+03  0.30746954175E+03  0.41072932760E+03  0.50400001928E-02 0.  1.
       -1    1    3    3    0  502 -0.24461626282E+03  0.11968268624E+03 -0.46756193110E+03  0.54108707327E+03  0.50400001928E-02 0. -1.
</event>
<event>
 5   0  0.1162839E-02  0.8501375E+03  0.7818609E-02  0.9490152E-01
        1   -1    0    0  501    0  0.00000000000E+00  0.00000000000E+00  0.66936737139E+03  0.66936737141E+03  0.50400001928E-02 0. -1.
       -1   -1    0    0    0  501  0.00000000000E+00  0.00000000000E+00 -0.26993168217E+03  0.26993168222E+03  0.50400001928E-02 0.  1.
    10030    2    1    2    0    0  0.00000000000E+00  0.00000000000E+00  0.39943568922E+03  0.93929905362E+03  0.85013754317E+03 0.  0.
        2    1    3    3  502    0 -0.50517156085E+02  0.16857258975E+03  0.62722855314E+03  0.65144789428E+03  0.25500000920E-02 0. -1.
       -2    1    3    3    0  502  0.50517156085E+02 -0.16857258975E+03 -0.22779286392E+03  0.28785115935E+03  0.25500000920E-02 0.  1.
</event>
<event>
 5   0  0.2008643E-02  0.8973879E+03  0.7818609E-02  0.9428853E-01
        2   -1    0    0  501    0  0.00000000000E+00  0.00000000000E+00  0.34942365067E+03  0.34942365068E+03  0.25500000920E-02 0. -1.
       -2   -1    0    0    0  501  0.00000000000E+00  0.00000000000E+00 -0.57616668065E+03  0.57616668066E+03  0.25500000920E-02 0.  1.
    10030    2    1    2    0    0  0.00000000000E+00  0.00000000000E+00 -0.22674302998E+03  0.92559033133E+03  0.89738790933E+03 0.  0.
        3    1    3    3  502    0 -0.12114241020E+03  0.42302445692E+03 -0.22857794986E+02  0.44062190560E+03  0.10100000352E+00 0. -1.
       -3    1    3    3    0  502  0.12114241020E+03 -0.42302445692E+03 -0.20388523500E+03  0.48496842573E+03  0.10100000352E+00 0.  1.
</event>
<event>
 5   0  0.1162839E-02  0.8658982E+03  0.7818609E-02  0.9469244E-01
       -1   -1    0    0    0  501  0.00000000000E+00  0.00000000000E+00  0.68845952137E+03  0.68845952139E+03  0.50400001928E-02 0.  1.
        1   -1    0    0  501    0  0.00000000000E+00  0.00000000000E+00 -0.27226713798E+03  0.27226713802E+03  0.50400001928E-02 0. -1.
    10030    2    1    2    0    0  0.00000000000E+00  0.00000000000E+00  0.41619238340E+03  0.96072665941E+03  0.86589815458E+03 0.  0.
        2    1    3    3  502    0 -0.38282991636E+03  0.13189217398E+03  0.38044794690E+02  0.40669607427E+03  0.25500000920E-02 0. -1.
       -2    1    3    3    0  502  0.38282991636E+03 -0.13189217398E+03  0.37814758871E+03  0.55403058514E+03  0.25500000920E-02 0.  1.
</event>
<event>
 5   0  0.1968763E-02  0.8852459E+03  0.7818609E-02  0.9444215E-01
        2   -1    0    0  501    0  0.00000000000E+00  0.00000000000E+00  0.74554024519E+03  0.74554024519E+03  0.25500000920E-02 0.  1.
       -2   -1    0    0    0  501  0.00000000000E+00  0.00000000000E+00 -0.26278272312E+03  0.26278272313E+03  0.25500000920E-02 0. -1.
    10030    2    1    2    0    0  0.00000000000E+00  0.00000000000E+00  0.48275752207E+03  0.10083229683E+04  0.88524594511E+03 0.  0.
        2    1    3    3  502    0 -0.22903276402E+03  0.22575570280E+02 -0.18927369818E+03  0.29797683836E+03  0.25500000920E-02 0. -1.
       -2    1    3    3    0  502  0.22903276402E+03 -0.22575570280E+02  0.67203122024E+03  0.71034612997E+03  0.25500000920E-02 0.  1.
</event>
<event>
 5   0  0.1206541E-02  0.8846058E+03  0.7818609E-02  0.9445032E-01
       -1   -1    0    0    0  501  0.00000000000E+00  0.00000000000E+00  0.42213006884E+03  0.42213006887E+03  0.50400001928E-02 0.  1.
        1   -1    0    0  501    0  0.00000000000E+00  0.00000000000E+00 -0.46343978432E+03  0.46343978434E+03  0.50400001928E-02 0. -1.
    10030    2    1    2    0    0  0.00000000000E+00  0.00000000000E+00 -0.41309715475E+02  0.88556985322E+03  0.88460582879E+03 0.  0.
        3    1    3    3  502    0 -0.34803362431E+03 -0.39162971427E+02  0.24977044877E+03  0.43017023289E+03  0.10100000352E+00 0.  1.
       -3    1    3    3    0  502  0.34803362431E+03  0.39162971427E+02 -0.29108016424E+03  0.45539962033E+03  0.10100000352E+00 0. -1.
</event>
<event>
 5   0  0.1226424E-02  0.8859918E+03  0.7818609E-02  0.9443264E-01
        1   -1    0    0  501    0  0.00000000000E+00  0.00000000000E+00  0.55418390937E+03  0.55418390940E+03  0.50400001928E-02 0.  1.
       -1   -1    0    0    0  501  0.00000000000E+00  0.00000000000E+00 -0.35411593230E+03  0.35411593233E+03  0.50400001928E-02 0. -1.
    10030    2    1    2    0    0  0.00000000000E+00  0.00000000000E+00  0.20006797708E+03  0.90829984173E+03  0.88599176466E+03 0.  0.
        1    1    3    3  502    0 -0.19077278216E+02 -0.14718649835E+03  0.52793715159E+03  0.54840262937E+03  0.50400001928E-02 0.  1.
       -1    1    3    3    0  502  0.19077278216E+02  0.14718649835E+03 -0.32786917452E+03  0.35989721236E+03  0.50400001928E-02 0. -1.
</event>
<event>
 5   0  0.1924218E-02  0.8197352E+03  0.7818609E-02  0.9531883E-01
        2   -1    0    0  501    0  0.00000000000E+00  0.00000000000E+00  0.12744053832E+04  0.12744053832E+04  0.25500000920E-02 0. -1.
       -2   -1    0    0    0  501  0.00000000000E+00  0.00000000000E+00 -0.13181946217E+03  0.13181946220E+03  0.25500000920E-02 0.  1.
    10030    2    1    2    0    0  0.00000000000E+00  0.00000000000E+00  0.11425859211E+04  0.14062248454E+04  0.81973515779E+03 0.  0.
        4    1    3    3  502    0  0.24639642266E+03  0.12403403352E+03  0.10913191428E+04  0.11256441369E+04  0.12699999809E+01 0. -1.
       -4    1    3    3    0  502 -0.24639642266E+03 -0.12403403352E+03  0.51266778299E+02  0.28058070858E+03  0.12699999809E+01 0.  1.
</event>
<event>
 5   0  0.2041861E-02  0.8882366E+03  0.7818609E-02  0.9440407E-01
       -2   -1    0    0    0  501  0.00000000000E+00  0.00000000000E+00  0.24791394306E+03  0.24791394307E+03  0.25500000920E-02 0. -1.
        2   -1    0    0  501    0  0.00000000000E+00  0.00000000000E+00 -0.79560290503E+03  0.79560290504E+03  0.25500000920E-02 0.  1.
    10030    2    1    2    0    0  0.00000000000E+00  0.00000000000E+00 -0.54768896198E+03  0.10435168481E+04  0.88823657502E+03 0.  0.
        5    1    3    3  502    0  0.41386686260E+03 -0.11465656228E+03 -0.40669281053E+03  0.59148376087E+03  0.46999998093E+01 0. -1.
       -5    1    3    3    0  502 -0.41386686260E+03  0.11465656228E+03 -0.14099615145E+03  0.45203308724E+03  0.46999998093E+01 0.  1.
</event>
<event>
 5   0  0.7893875E-03  0.1051594E+04  0.7818609E-02  0.9253700E-01
        4   -1    0    0  501    0  0.00000000000E+00  0.00000000000E+00  0.33558616819E+03  0.33558857129E+03  0.12699999809E+01 0.  1.
       -4   -1    0    0    0  501  0.00000000000E+00  0.00000000000E+00 -0.82381382768E+03  0.82381480660E+03  0.12699999809E+01 0. -1.
    10030    2    1    2    0    0  0.00000000000E+00  0.00000000000E+00 -0.48822765950E+03  0.11594033779E+04  0.10515940021E+04 0.  0.
        5    1    3    3  502    0  0.43187222184E+03 -0.22856159584E+03 -0.45814580341E+03  0.66983108787E+03  0.46999998093E+01 0. -1.
       -5    1    3    3    0  502 -0.43187222184E+03  0.22856159584E+03 -0.30081856082E+02  0.48957229002E+03  0.46999998093E+01 0.  1.
</event>
<event>
 5   0  0.1162839E-02  0.8971688E+03  0.7818609E-02  0.9429128E-01
        1   -1    0    0  501    0  0.00000000000E+00  0.00000000000E+00  0.73150567061E+03  0.73150567063E+03  0.50400001928E-02 0.  1.
       -1   -1    0    0    0  501  0.00000000000E+00  0.00000000000E+00 -0.27508734187E+03  0.27508734192E+03  0.50400001928E-02 0. -1.
    10030    2    1    2    0    0  0.00000000000E+00  0.00000000000E+00  0.45641832874E+03  0.10065930125E+04  0.89716877013E+03 0.  0.
        2    1    3    3  502    0  0.39269620297E+03 -0.14730418991E+03  0.40673622430E+03  0.58424582870E+03  0.25500000920E-02 0.  1.
       -2    1    3    3    0  502 -0.39269620297E+03  0.14730418991E+03  0.49682104434E+02  0.42234718384E+03  0.25500000920E-02 0. -1.
</event>
<event>
 5   0  0.1226424E-02  0.8623971E+03  0.7818609E-02  0.9473847E-01
       -1   -1    0    0    0  501  0.00000000000E+00  0.00000000000E+00  0.12619364013E+03  0.12619364023E+03  0.50400001928E-02 0.  1.
        1   -1    0    0  501    0  0.00000000000E+00  0.00000000000E+00 -0.14733879418E+04  0.14733879418E+04  0.50400001928E-02 0. -1.
    10030    2    1    2    0    0  0.00000000000E+00  0.00000000000E+00 -0.13471943016E+04  0.15995815820E+04  0.86239709597E+03 0.  0.
        1    1    3    3  502    0  0.38187760487E+03  0.18733864274E+03 -0.54236481144E+03  0.68926472482E+03  0.50400001928E-02 0.  1.
       -1    1    3    3    0  502 -0.38187760487E+03 -0.18733864274E+03 -0.80482949020E+03  0.91031685719E+03  0.50400001928E-02 0. -1.
</event>
<event>
 5   0  0.1177712E-02  0.9077022E+03  0.7818609E-02  0.9416004E-01
       -1   -1    0    0    0  501  0.00000000000E+00  0.00000000000E+00  0.15656759210E+03  0.15656759219E+03  0.50400001928E-02 0.  1.
        1   -1    0    0  501    0  0.00000000000E+00  0.00000000000E+00 -0.13156032235E+04  0.13156032235E+04  0.50400001928E-02 0. -1.
    10030    2    1    2    0    0  0.00000000000E+00  0.00000000000E+00 -0.11590356314E+04  0.14721708157E+04  0.90770221755E+03 0.  0.
        5    1    3    3  502    0 -0.63747910795E+02 -0.37689625037E+02  0.14666222271E+03  0.16436605956E+03  0.46999998093E+01 0.  1.
       -5    1    3    3    0  502  0.63747910795E+02  0.37689625037E+02 -0.13056978541E+04  0.13078047561E+04  0.46999998093E+01 0. -1.
</event>
<event>
 5   0  0.1206541E-02  0.8966467E+03  0.7818609E-02  0.9429783E-01
       -1   -1    0    0    0  501  0.00000000000E+00  0.00000000000E+00  0.26582932192E+03  0.26582932196E+03  0.50400001928E-02 0. -1.
        1   -1    0    0  501    0  0.00000000000E+00  0.00000000000E+00 -0.75610104309E+03  0.75610104311E+03  0.50400001928E-02 0.  1.
    10030    2    1    2    0    0  0.00000000000E+00  0.00000000000E+00 -0.49027172117E+03  0.10219303651E+04  0.89664670326E+03 0.  0.
        3    1    3    3  502    0  0.62067147462E+01  0.35906118024E+03  0.60748835649E+02  0.36421681138E+03  0.10100000352E+00 0. -1.
       -3    1    3    3    0  502 -0.62067147462E+01 -0.35906118024E+03 -0.55102055682E+03  0.65771355369E+03  0.10100000352E+00 0.  1.
</event>
<event>
 5   0  0.2008770E-02  0.9002829E+03  0.7818609E-02  0.9425228E-01
        2   -1    0    0  501    0  0.00000000000E+00  0.00000000000E+00  0.35644905627E+03  0.35644905628E+03  0.25500000920E-02 0. -1.
       -2   -1    0    0    0  501  0.00000000000E+00  0.00000000000E+00 -0.56846087092E+03  0.56846087092E+03  0.25500000920E-02 0.  1.
    10030    2    1    2    0    0  0.00000000000E+00  0.00000000000E+00 -0.21201181465E+03  0.92490992721E+03  0.90028293547E+03 0.  0.
        1    1    3    3  502    0  0.26299706991E+03  0.30108478794E+03 -0.31856615260E+03  0.51117893336E+03  0.50400001928E-02 0.  1.
       -1    1    3    3    0  502 -0.26299706991E+03 -0.30108478794E+03  0.10655433795E+03  0.41373099385E+03  0.50400001928E-02 0. -1.
</event>
<event>
 5   0  0.1206541E-02  0.7175098E+03  0.7818609E-02  0.9687748E-01
       -1   -1    0    0    0  501  0.00000000000E+00  0.00000000000E+00  0.80658253643E+02  0.80658253800E+02  0.50400001928E-02 0. -1.
        1   -1    0    0  501    0  0.00000000000E+00  0.00000000000E+00 -0.15956838000E+04  0.15956838000E+04  0.50400001928E-02 0.  1.
    10030    2    1    2    0    0  0.00000000000E+00  0.00000000000E+00 -0.15150255464E+04  0.16763420538E+04  0.71750977363E+03 0.  0.
        3    1    3    3  502    0 -0.13536996307E+02 -0.24373282282E+03 -0.13717335347E+04  0.13932845508E+04  0.10100000352E+00 0.  1.
       -3    1    3    3    0  502  0.13536996307E+02  0.24373282282E+03 -0.14329201169E+03  0.28305750300E+03  0.10100000352E+00 0. -1.
</event>
<event>
 5   0  0.1226424E-02  0.9019949E+03  0.7818609E-02  0.9423091E-01
        1   -1    0    0  501    0  0.00000000000E+00  0.00000000000E+00  0.70782666984E+03  0.70782666985E+03  0.50400001928E-02 0. -1.
       -1   -1    0    0    0  501  0.00000000000E+00  0.00000000000E+00 -0.28735667087E+03  0.28735667091E+03  0.50400001928E-02 0.  1.
    10030    2    1    2    0    0  0.00000000000E+00  0.00000000000E+00  0.42046999897E+03  0.99518334076E+03  0.90199493441E+03 0.  0.
        1    1    3    3  502    0 -0.13956665119E+03 -0.31303051711E+03 -0.11319168879E+03  0.36094225744E+03  0.50400001928E-02 0.  1.
       -1    1    3    3    0  502  0.13956665119E+03  0.31303051711E+03  0.53366168776E+03  0.63424108332E+03  0.50400001928E-02 0. -1.
</event>
<event>
 5   0  0.1226424E-02  0.9073212E+03  0.7818609E-02  0.9416476E-01
       -1   -1    0    0    0  501  0.00000000000E+00  0.00000000000E+00  0.43819521318E+03  0.43819521320E+03  0.50400001928E-02 0. -1.
        1   -1    0    0  501    0  0.00000000000E+00  0.00000000000E+00 -0.46967181739E+03  0.46967181742E+03  0.50400001928E-02 0.  1.
    10030    2    1    2    0    0  0.00000000000E+00  0.00000000000E+00 -0.31476604217E+02  0.90786703062E+03  0.90732120480E+03 0.  0.
        1    1    3    3  502    0  0.18969354198E+02  0.43075819741E+03  0.12539789358E+03  0.44904019060E+03  0.50400001928E-02 0.  1.
       -1    1    3    3    0  502 -0.18969354198E+02 -0.43075819741E+03 -0.15687449780E+03  0.45882684002E+03  0.50400001928E-02 0. -1.
</event>
<event>
 5   0  0.1162839E-02  0.8941299E+03  0.7818609E-02  0.9432949E-01
        1   -1    0    0  501    0  0.00000000000E+00  0.00000000000E+00  0.15768514350E+04  0.15768514350E+04  0.50400001928E-02 0.  1.
       -1   -1    0    0    0  501  0.00000000000E+00  0.00000000000E+00 -0.12675073186E+03  0.12675073196E+03  0.50400001928E-02 0. -1.
    10030    2    1    2    0    0  0.00000000000E+00  0.00000000000E+00  0.14501007032E+04  0.17036021670E+04  0.89412990896E+03 0.  0.
        2    1    3    3  502    0  0.31286314341E+03  0.23139694382E+03  0.30571067201E+03  0.49486049257E+03  0.25500000920E-02 0.  1.
       -2    1    3    3    0  502 -0.31286314341E+03 -0.23139694382E+03  0.11443900312E+04  0.12087416744E+04  0.25500000920E-02 0. -1.
</event>
<event>
 5   0  0.1206541E-02  0.8991143E+03  0.7818609E-02  0.9426689E-01
       -1   -1    0    0    0  501  0.00000000000E+00  0.00000000000E+00  0.67832550503E+03  0.67832550505E+03  0.50400001928E-02 0.  1.
        1   -1    0    0  501    0  0.00000000000E+00  0.00000000000E+00 -0.29794199160E+03  0.29794199164E+03  0.50400001928E-02 0. -1.
    10030    2    1    2    0    0  0.00000000000E+00  0.00000000000E+00  0.38038351343E+03  0.97626749670E+03  0.89911434635E+03 0.  0.
        3    1    3    3  502    0  0.33113802880E+03  0.27264583355E+03  0.33632702990E+03  0.54507249602E+03  0.10100000352E+00 0.  1.
       -3    1    3    3    0  502 -0.33113802880E+03 -0.27264583355E+03  0.44056483529E+02  0.43119500068E+03  0.10100000352E+00 0. -1.
</event>
<event>
 5   0  0.2008770E-02  0.9933513E+03  0.7818609E-02  0.9315867E-01
       -2   -1    0    0    0  501  0.00000000000E+00  0.00000000000E+00  0.12346245956E+03  0.12346245958E+03  0.25500000920E-02 0. -1.
        2   -1    0    0  501    0  0.00000000000E+00  0.00000000000E+00 -0.19980705892E+04  0.19980705892E+04  0.25500000920E-02 0.  1.
    10030    2    1    2    0    0  0.00000000000E+00  0.00000000000E+00 -0.18746081297E+04  0.21215330488E+04  0.99335131619E+03 0.  0.
        1    1    3    3  502    0 -0.20997260496E+03 -0.23327009154E+03 -0.17594454873E+04  0.17872190278E+04  0.50400001928E-02 0.  1.
       -1    1    3    3    0  502  0.20997260496E+03  0.23327009154E+03 -0.11516264237E+03  0.33431402104E+03  0.50400001928E-02 0. -1.
</event>
<event>
 5   0  0.2008643E-02  0.9007025E+03  0.7818609E-02  0.9424704E-01
       -2   -1    0    0    0  501  0.00000000000E+00  0.00000000000E+00  0.13316300044E+03  0.13316300046E+03  0.25500000920E-02 0.  1.
        2   -1    0    0  501    0  0.00000000000E+00  0.00000000000E+00 -0.15230674419E+04  0.15230674419E+04  0.25500000920E-02 0. -1.
    10030    2    1    2    0    0  0.00000000000E+00  0.00000000000E+00 -0.13899044415E+04  0.16562304424E+04  0.90070246020E+03 0.  0.
        3    1    3    3  502    0 -0.29228012335E+03  0.91918736582E+01 -0.13247424728E+04  0.13566336243E+04  0.10100000352E+00 0. -1.
       -3    1    3    3    0  502  0.29228012335E+03 -0.91918736582E+01 -0.65161968649E+02  0.29959681808E+03  0.10100000352E+00 0.  1.
</event>
<event>
 5   0  0.1206541E-02  0.8577061E+03  0.7818609E-02  0.9480052E-01
        1   -1    0    0  501    0  0.00000000000E+00  0.00000000000E+00  0.63476324616E+03  0.63476324618E+03  0.50400001928E-02 0.  1.
       -1   -1    0    0    0  501  0.00000000000E+00  0.00000000000E+00 -0.28973785128E+03  0.28973785132E+03  0.50400001928E-02 0. -1.
    10030    2    1    2    0    0  0.00000000000E+00  0.00000000000E+00  0.34502539488E+03  0.92450109750E+03  0.85770610128E+03 0.  0.
        3    1    3    3  502    0  0.41659345690E+03 -0.62073766497E+02  0.25949182703E+03  0.49471130906E+03  0.10100000352E+00 0.  1.
       -3    1    3    3    0  502 -0.41659345690E+03  0.62073766497E+02  0.85533567846E+02  0.42978978844E+03  0.10100000352E+00 0. -1.
</event>
<event>
 5   0  0.2041861E-02  0.8328186E+03  0.7818609E-02  0.9513692E-01
        2   -1    0    0  501    0  0.00000000000E+00  0.00000000000E+00  0.43454581903E+03  0.43454581904E+03  0.25500000920E-02 0. -1.
       -2   -1    0    0    0  501  0.00000000000E+00  0.00000000000E+00 -0.39902973549E+03  0.39902973550E+03  0.25500000920E-02 0.  1.
    10030    2    1    2    0    0  0.00000000000E+00  0.00000000000E+00  0.35516083542E+02  0.83357555454E+03  0.83281859546E+03 0.  0.
        5    1    3    3  502    0  0.89244506073E+02  0.31681499255E+03 -0.23749981571E+03  0.40591202721E+03  0.46999998093E+01 0.  1.
       -5    1    3    3    0  502 -0.89244506073E+02 -0.31681499255E+03  0.27301589925E+03  0.42766352734E+03  0.46999998093E+01 0. -1.
</event>
<event>
 5   0  0.1162839E-02  0.9036359E+03  0.7818609E-02  0.9421048E-01
        1   -1    0    0  501    0  0.00000000000E+00  0.00000000000E+00  0.11607819947E+04  0.11607819947E+04  0.50400001928E-02 0.  1.
       -1   -1    0    0    0  501  0.00000000000E+00  0.00000000000E+00 -0.17586372940E+03  0.17586372947E+03  0.50400001928E-02 0. -1.
    10030    2    1    2    0    0  0.00000000000E+00  0.00000000000E+00  0.98491826534E+03  0.13366457242E+04  0.90363587948E+03 0.  0.
        2    1    3    3  502    0  0.25109463624E+03 -0.36728589398E+03  0.37606300152E+03  0.58255542688E+03  0.25500000920E-02 0.  1.
       -2    1    3    3    0  502 -0.25109463624E+03  0.36728589398E+03  0.60885526381E+03  0.75409029734E+03  0.25500000920E-02 0. -1.
</event>
<event>
 5   0  0.1162839E-02  0.1101979E+04  0.7818609E-02  0.9203265E-01
        1   -1    0    0  501    0  0.00000000000E+00  0.00000000000E+00  0.63876034141E+03  0.63876034143E+03  0.50400001928E-02 0. -1.
       -1   -1    0    0    0  501  0.00000000000E+00  0.00000000000E+00 -0.47527905788E+03  0.47527905790E+03  0.50400001928E-02 0.  1.
    10030    2    1    2    0    0  0.00000000000E+00  0.00000000000E+00  0.16348128353E+03  0.11140393993E+04  0.11019789713E+04 0.  0.
        2    1    3    3  502    0 -0.39886810309E+03 -0.13236600961E+03 -0.27849173553E+03  0.50415689118E+03  0.25500000920E-02 0.  1.
       -2    1    3    3    0  502  0.39886810309E+03  0.13236600961E+03  0.44197301906E+03  0.60988250815E+03  0.25500000920E-02 0. -1.
</event>
<event>
 5   0  0.1226424E-02  0.8895837E+03  0.7818609E-02  0.9438697E-01
        1   -1    0    0  501    0  0.00000000000E+00  0.00000000000E+00  0.12421049770E+04  0.12421049770E+04  0.50400001928E-02 0.  1.
       -1   -1    0    0    0  501  0.00000000000E+00  0.00000000000E+00 -0.15927782478E+03  0.15927782485E+03  0.50400001928E-02 0. -1.
    10030    2    1    2    0    0  0.00000000000E+00  0.00000000000E+00  0.10828271522E+04  0.14013828018E+04  0.88958367552E+03 0.  0.
        1    1    3    3  502    0 -0.28177822108E+03 -0.95187727936E+01  0.10833576701E+04  0.11194433502E+04  0.50400001928E-02 0.  1.
       -1    1    3    3    0  502  0.28177822108E+03  0.95187727936E+01 -0.53051791364E+00  0.28193945163E+03  0.50400001928E-02 0. -1.
</event>
<event>
 5   0  0.1206541E-02  0.1010782E+04  0.7818609E-02  0.9296798E-01
       -1   -1    0    0    0  501  0.00000000000E+00  0.00000000000E+00  0.10557852849E+04  0.10557852849E+04  0.50400001928E-02 0.  1.
        1   -1    0    0  501    0  0.00000000000E+00  0.00000000000E+00 -0.24192416043E+03  0.24192416048E+03  0.50400001928E-02 0. -1.
    10030    2    1    2    0    0  0.00000000000E+00  0.00000000000E+00  0.81386112447E+03  0.12977094454E+04  0.10107818136E+04 0.  0.
        3    1    3    3  502    0  0.18497432903E+03 -0.27802338249E+03  0.89396726718E+03  0.95430078518E+03  0.10100000352E+00 0.  1.
       -3    1    3    3    0  502 -0.18497432903E+03  0.27802338249E+03 -0.80106142708E+02  0.34340866022E+03  0.10100000352E+00 0. -1.
</event>
<event>
 5   0  0.2041861E-02  0.9065886E+03  0.7818609E-02  0.9417383E-01
       -2   -1    0    0    0  501  0.00000000000E+00  0.00000000000E+00  0.16380506576E+03  0.16380506578E+03  0.25500000920E-02 0.  1.
        2   -1    0    0  501    0  0.00000000000E+00  0.00000000000E+00 -0.12543916818E+04  0.12543916818E+04  0.25500000920E-02 0. -1.
    10030    2    1    2    0    0  0.00000000000E+00  0.00000000000E+00 -0.10905866160E+04  0.14181967476E+04  0.90658857689E+03 0.  0.
        5    1    3    3  502    0  0.21529214887E+03  0.32942097823E+03 -0.19346079709E+03  0.43854083079E+03  0.46999998093E+01 0.  1.
       -5    1    3    3    0  502 -0.21529214887E+03 -0.32942097823E+03 -0.89712581892E+03  0.97965591676E+03  0.46999998093E+01 0. -1.
</event>
<event>
 5   0  0.1924218E-02  0.1009571E+04  0.7818609E-02  0.9298109E-01
        2   -1    0    0  501    0  0.00000000000E+00  0.00000000000E+00  0.12465274843E+04  0.12465274843E+04  0.25500000920E-02 0. -1.
       -2   -1    0    0    0  501  0.00000000000E+00  0.00000000000E+00 -0.20441478376E+03  0.20441478377E+03  0.25500000920E-02 0.  1.
    10030    2    1    2    0    0  0.00000000000E+00  0.00000000000E+00  0.10421127005E+04  0.14509422681E+04  0.10095714856E+04 0.  0.
        4    1    3    3  502    0  0.15270165165E+03 -0.36976729472E+03  0.96347024691E+03  0.10432268096E+04  0.12699999809E+01 0. -1.
       -4    1    3    3    0  502 -0.15270165165E+03  0.36976729472E+03  0.78642453614E+02  0.40771545847E+03  0.12699999809E+01 0.  1.
</event>
<event>
 5   0  0.1177712E-02  0.8908869E+03  0.7818609E-02  0.9437046E-01
        1   -1    0    0  501    0  0.00000000000E+00  0.00000000000E+00  0.13667293093E+04  0.13667293093E+04  0.50400001928E-02 0. -1.
       -1   -1    0    0    0  501  0.00000000000E+00  0.00000000000E+00 -0.14517860429E+03  0.14517860438E+03  0.50400001928E-02 0.  1.
    10030    2    1    2    0    0  0.00000000000E+00  0.00000000000E+00  0.12215507050E+04  0.15119079136E+04  0.89088686965E+03 0.  0.
        5    1    3    3  502    0 -0.97053929321E+02 -0.43018929717E+03  0.50458267576E+03  0.67015525311E+03  0.46999998093E+01 0.  1.
       -5    1    3    3    0  502  0.97053929321E+02  0.43018929717E+03  0.71696802921E+03  0.84175266053E+03  0.46999998093E+01 0. -1.
</event>
<event>
 5   0  0.1177712E-02  0.9168818E+03  0.7818609E-02  0.9404721E-01
       -1   -1    0    0    0  501  0.00000000000E+00  0.00000000000E+00  0.67231108567E+03  0.67231108569E+03  0.50400001928E-02 0.  1.
        1   -1    0    0  501    0  0.00000000000E+00  0.00000000000E+00 -0.31260539396E+03  0.31260539400E+03  0.50400001928E-02 0. -1.
    10030    2    1    2    0    0  0.00000000000E+00  0.00000000000E+00  0.35970569171E+03  0.98491647969E+03  0.91688182844E+03 0.  0.
        5    1    3    3  502    0  0.39596546508E+03 -0.13500926845E+03 -0.21484371021E+02  0.41892698683E+03  0.46999998093E+01 0. -1.
       -5    1    3    3    0  502 -0.39596546508E+03  0.13500926845E+03  0.38119006274E+03  0.56598949286E+03  0.46999998093E+01 0.  1.
</event>
<event>
 5   0  0.2008770E-02  0.8974068E+03  0.7818609E-02  0.9428829E-01
       -2   -1    0    0    0  501  0.00000000000E+00  0.00000000000E+00  0.90499362544E+03  0.90499362544E+03  0.25500000920E-02 0.  1.
        2   -1    0    0  501    0  0.00000000000E+00  0.00000000000E+00 -0.22247087352E+03  0.22247087353E+03  0.25500000920E-02 0. -1.
    10030    2    1    2    0    0  0.00000000000E+00  0.00000000000E+00  0.68252275192E+03  0.11274644990E+04  0.89740675814E+03 0.  0.
        1    1    3    3  502    0 -0.17087445945E+03  0.18425976545E+03  0.80829049627E+03  0.84645334688E+03  0.50400001928E-02 0.  1.
       -1    1    3    3    0  502  0.17087445945E+03 -0.18425976545E+03 -0.12576774435E+03  0.28101115209E+03  0.50400001928E-02 0. -1.
</event>
<event>
 5   0  0.1924218E-02  0.8644779E+03  0.7818609E-02  0.9471109E-01
        2   -1    0    0  501    0  0.00000000000E+00  0.00000000000E+00  0.68766050995E+03  0.68766050996E+03  0.25500000920E-02 0. -1.
       -2   -1    0    0    0  501  0.00000000000E+00  0.00000000000E+00 -0.27169002725E+03  0.27169002726E+03  0.25500000920E-02 0.  1.
    10030    2    1    2    0    0  0.00000000000E+00  0.00000000000E+00  0.41597048270E+03  0.95935053722E+03  0.86447788334E+03 0.  0.
        4    1    3    3  502    0  0.59145204775E+02 -0.33140556890E+02  0.68172112164E+03  0.68508521539E+03  0.12699999809E+01 0. -1.
       -4    1    3    3    0  502 -0.59145204775E+02  0.33140556890E+02 -0.26575063894E+03  0.27426532182E+03  0.12699999809E+01 0.  1.
</event>
<event>
 5   0  0.1924218E-02  0.9078053E+03  0.7818609E-02  0.9415877E-01
        2   -1    0    0  501    0  0.00000000000E+00  0.00000000000E+00  0.15382612542E+04  0.15382612542E+04  0.25500000920E-02 0. -1.
       -2   -1    0    0    0  501  0.00000000000E+00  0.00000000000E+00 -0.13393537842E+03  0.13393537845E+03  0.25500000920E-02 0.  1.
    10030    2    1    2    0    0  0.00000000000E+00  0.00000000000E+00  0.14043258758E+04  0.16721966327E+04  0.90780527255E+03 0.  0.
        4    1    3    3  502    0  0.66520245183E+02  0.90602239938E+02 -0.10789151206E+03  0.15580725328E+03  0.12699999809E+01 0.  1.
       -4    1    3    3    0  502 -0.66520245183E+02 -0.90602239938E+02  0.15122173878E+04  0.15163893794E+04  0.12699999809E+01 0. -1.
</event>
<event>
 5   0  0.1175993E-02  0.8840595E+03  0.7818609E-02  0.9445730E-01
       -1   -1    0    0    0  501  0.00000000000E+00  0.00000000000E+00  0.19790607816E+03  0.19790607823E+03  0.50400001928E-02 0. -1.
        1   -1    0    0  501    0  0.00000000000E+00  0.00000000000E+00 -0.98728792106E+03  0.98728792108E+03  0.50400001928E-02 0.  1.
    10030    2    1    2    0    0  0.00000000000E+00  0.00000000000E+00 -0.78938184290E+03  0.11851939993E+04  0.88405945620E+03 0.  0.
        4    1    3    3  502    0 -0.23030710554E+03  0.22174828069E+03 -0.80391170437E+03  0.86515276349E+03  0.12699999809E+01 0.  1.
       -4    1    3    3    0  502  0.23030710554E+03 -0.22174828069E+03  0.14529861466E+02  0.32004123582E+03  0.12699999809E+01 0. -1.
</event>
<event>
 5   0  0.1206541E-02  0.8945169E+03  0.7818609E-02  0.9432462E-01
        1   -1    0    0  501    0  0.00000000000E+00  0.00000000000E+00  0.10709126737E+04  0.10709126737E+04  0.50400001928E-02 0. -1.
       -1   -1    0    0    0  501  0.00000000000E+00  0.00000000000E+00 -0.18679404829E+03  0.18679404836E+03  0.50400001928E-02 0.  1.
    10030    2    1    2    0    0  0.00000000000E+00  0.00000000000E+00  0.88411862544E+03  0.12577067221E+04  0.89451688355E+03 0.  0.
        3    1    3    3  502    0 -0.36989170413E+03 -0.17129513057E+03  0.18326718488E+03  0.44693261886E+03  0.10100000352E+00 0.  1.
       -3    1    3    3    0  502  0.36989170413E+03  0.17129513057E+03  0.70085144057E+03  0.81077410324E+03  0.10100000352E+00 0. -1.
</event>
<event>
 5   0  0.1226424E-02  0.8879355E+03  0.7818609E-02  0.9440790E-01
        1   -1    0    0  501    0  0.00000000000E+00  0.00000000000E+00  0.62930277423E+03  0.62930277425E+03  0.50400001928E-02 0. -1.
       -1   -1    0    0    0  501  0.00000000000E+00  0.00000000000E+00 -0.31321543420E+03  0.31321543424E+03  0.50400001928E-02 0.  1.
    10030    2    1    2    0    0  0.00000000000E+00  0.00000000000E+00  0.31608734003E+03  0.94251820849E+03  0.88793545194E+03 0.  0.
        1    1    3    3  502    0  0.12596735262E+03 -0.33097223272E+03  0.44226632390E+03  0.56657735044E+03  0.50400001928E-02 0. -1.
       -1    1    3    3    0  502 -0.12596735262E+03  0.33097223272E+03 -0.12617898387E+03  0.37594085805E+03  0.50400001928E-02 0.  1.
</event>
<event>
 5   0  0.1924218E-02  0.8489437E+03  0.7818609E-02  0.9491756E-01
       -2   -1    0    0    0  501  0.00000000000E+00  0.00000000000E+00  0.10593746435E+03  0.10593746438E+03  0.25500000920E-02 0.  1.
        2   -1    0    0  501    0  0.00000000000E+00  0.00000000000E+00 -0.17007801653E+04  0.17007801653E+04  0.25500000920E-02 0. -1.
    10030    2    1    2    0    0  0.00000000000E+00  0.00000000000E+00 -0.15948427010E+04  0.18067176297E+04  0.84894366869E+03 0.  0.
        4    1    3    3  502    0  0.37653895310E+02  0.32434606987E+03 -0.22022703655E+03  0.39385244623E+03  0.12699999809E+01 0.  1.
       -4    1    3    3    0  502 -0.37653895310E+02 -0.32434606987E+03 -0.13746156644E+04  0.14128651835E+04  0.12699999809E+01 0. -1.
</event>
<event>
 5   0  0.1175993E-02  0.9053975E+03  0.7818609E-02  0.9418859E-01
       -1   -1    0    0    0  501  0.00000000000E+00  0.00000000000E+00  0.15522866497E+03  0.15522866505E+03  0.50400001928E-02 0.  1.
        1   -1    0    0  501    0  0.00000000000E+00  0.00000000000E+00 -0.13202211378E+04  0.13202211378E+04  0.50400001928E-02 0. -1.
    10030    2    1    2    0    0  0.00000000000E+00  0.00000000000E+00 -0.11649924728E+04  0.14754498029E+04  0.90539751435E+03 0.  0.
        4    1    3    3  502    0  0.24445369294E+03  0.31277666884E+03 -0.93709284791E+03  0.10177089324E+04  0.12699999809E+01 0. -1.
       -4    1    3    3    0  502 -0.24445369294E+03 -0.31277666884E+03 -0.22789962493E+03  0.45774087047E+03  0.12699999809E+01 0.  1.
</event>
<event>
 5   0  0.7893875E-03  0.8372004E+03  0.7818609E-02  0.9507679E-01
        3   -1    0    0  501    0  0.00000000000E+00  0.00000000000E+00  0.11507355476E+04  0.11507355520E+04  0.10100000352E+00 0. -1.
       -3   -1    0    0    0  501  0.00000000000E+00  0.00000000000E+00 -0.15227311774E+03  0.15227315124E+03  0.10100000352E+00 0.  1.
    10030    2    1    2    0    0  0.00000000000E+00  0.00000000000E+00  0.99846242984E+03  0.13030087033E+04  0.83720036845E+03 0.  0.
        5    1    3    3  502    0  0.38254477604E+03 -0.10250412083E+03  0.28836260102E+03  0.48992109582E+03  0.46999998093E+01 0.  1.
       -5    1    3    3    0  502 -0.38254477604E+03  0.10250412083E+03  0.71009982883E+03  0.81308760743E+03  0.46999998093E+01 0. -1.
</event>
<event>
 5   0  0.2008770E-02  0.8961709E+03  0.7818609E-02  0.9430381E-01
        2   -1    0    0  501    0  0.00000000000E+00  0.00000000000E+00  0.81001298532E+03  0.81001298532E+03  0.25500000920E-02 0. -1.
       -2   -1    0    0    0  501  0.00000000000E+00  0.00000000000E+00 -0.24787327848E+03  0.24787327849E+03  0.25500000920E-02 0.  1.
    10030    2    1    2    0    0  0.00000000000E+00  0.00000000000E+00  0.56213970684E+03  0.10578862638E+04  0.89617090846E+03 0.  0.
        1    1    3    3  502    0 -0.11578842170E+03  0.32252672835E+03  0.62187117050E+03  0.71003816927E+03  0.50400001928E-02 0. -1.
       -1    1    3    3    0  502  0.11578842170E+03 -0.32252672835E+03 -0.59731463661E+02  0.34784809454E+03  0.50400001928E-02 0.  1.
</event>
<event>
 5   0  0.1206541E-02  0.8754257E+03  0.7818609E-02  0.9456833E-01
       -1   -1    0    0    0  501  0.00000000000E+00  0.00000000000E+00  0.18449495800E+03  0.18449495807E+03  0.50400001928E-02 0.  1.
        1   -1    0    0  501    0  0.00000000000E+00  0.00000000000E+00 -0.10384702868E+04  0.10384702868E+04  0.50400001928E-02 0. -1.
    10030    2    1    2    0    0  0.00000000000E+00  0.00000000000E+00 -0.85397532877E+03  0.12229652449E+04  0.87542568387E+03 0.  0.
        3    1    3    3  502    0  0.30580909181E+03 -0.17734728408E+03 -0.78756735235E+03  0.86326913793E+03  0.10100000352E+00 0. -1.
       -3    1    3    3    0  502 -0.30580909181E+03  0.17734728408E+03 -0.66407976418E+02  0.35969610693E+03  0.10100000352E+00 0.  1.
</event>
<event>
 5   0  0.2008643E-02  0.9150676E+03  0.7818609E-02  0.9406940E-01
        2   -1    0    0  501    0  0.00000000000E+00  0.00000000000E+00  0.75036687726E+03  0.75036687726E+03  0.25500000920E-02 0.  1.
       -2   -1    0    0    0  501  0.00000000000E+00  0.00000000000E+00 -0.27897977254E+03  0.27897977255E+03  0.25500000920E-02 0. -1.
    10030    2    1    2    0    0  0.00000000000E+00  0.00000000000E+00  0.47138710471E+03  0.10293466498E+04  0.91506760570E+03 0.  0.
        3    1    3    3  502    0 -0.24856710355E+03  0.11495145263E+03 -0.17660088513E+03  0.32586396587E+03  0.10100000352E+00 0. -1.
       -3    1    3    3    0  502  0.24856710355E+03 -0.11495145263E+03  0.64798798984E+03  0.70348268394E+03  0.10100000352E+00 0.  1.
</event>
<event>
 5   0  0.2008770E-02  0.8923605E+03  0.7818609E-02  0.9435182E-01
        2   -1    0    0  501    0  0.00000000000E+00  0.00000000000E+00  0.25760827835E+03  0.25760827836E+03  0.25500000920E-02 0.  1.
       -2   -1    0    0    0  501  0.00000000000E+00  0.00000000000E+00 -0.77278891604E+03  0.77278891604E+03  0.25500000920E-02 0. -1.
    10030    2    1    2    0    0  0.00000000000E+00  0.00000000000E+00 -0.51518063768E+03  0.10303971944E+04  0.89236051503E+03 0.  0.
        1    1    3    3  502    0  0.25286434896E+03  0.26140452864E+03  0.40855797261E+02  0.36598074098E+03  0.50400001928E-02 0.  1.
       -1    1    3    3    0  502 -0.25286434896E+03 -0.26140452864E+03 -0.55603643495E+03  0.66441645343E+03  0.50400001928E-02 0. -1.
</event>
<event>
 5   0  0.1177712E-02  0.6413103E+03  0.7818609E-02  0.9823223E-01
       -1   -1    0    0    0  501  0.00000000000E+00  0.00000000000E+00  0.85690480537E+03  0.85690480539E+03  0.50400001928E-02 0. -1.
        1   -1    0    0  501    0  0.00000000000E+00  0.00000000000E+00 -0.11998967409E+03  0.11998967419E+03  0.50400001928E-02 0.  1.
    10030    2    1    2    0    0  0.00000000000E+00  0.00000000000E+00  0.73691513129E+03  0.97689447958E+03  0.64131030985E+03 0.  0.
        5    1    3    3  502    0  0.24760587292E+02  0.12748753878E+03 -0.78077508616E+02  0.15160589229E+03  0.46999998093E+01 0.  1.
       -5    1    3    3    0  502 -0.24760587292E+02 -0.12748753878E+03  0.81499263990E+03  0.82528858729E+03  0.46999998093E+01 0. -1.
</event>
<event>
 5   0  0.1162839E-02  0.8885858E+03  0.7818609E-02  0.9439963E-01
       -1   -1    0    0    0  501  0.00000000000E+00  0.00000000000E+00  0.16472642045E+03  0.16472642053E+03  0.50400001928E-02 0. -1.
        1   -1    0    0  501    0  0.00000000000E+00  0.00000000000E+00 -0.11983274696E+04  0.11983274696E+04  0.50400001928E-02 0.  1.
    10030    2    1    2    0    0  0.00000000000E+00  0.00000000000E+00 -0.10336010492E+04  0.13630538902E+04  0.88858583076E+03 0.  0.
        2    1    3    3  502    0  0.27253169838E+03 -0.29374508070E+03 -0.81121068672E+03  0.90477758445E+03  0.25500000920E-02 0. -1.
       -2    1    3    3    0  502 -0.27253169838E+03  0.29374508070E+03 -0.22239036244E+03  0.45827630571E+03  0.25500000920E-02 0.  1.
</event>
<event>
 5   0  0.1968763E-02  0.8975297E+03  0.7818609E-02  0.9428675E-01
       -2   -1    0    0    0  501  0.00000000000E+00  0.00000000000E+00  0.19775186405E+03  0.19775186407E+03  0.25500000920E-02 0.  1.
        2   -1    0    0  501    0  0.00000000000E+00  0.00000000000E+00 -0.10183970355E+04  0.10183970355E+04  0.25500000920E-02 0. -1.
    10030    2    1    2    0    0  0.00000000000E+00  0.00000000000E+00 -0.82064517146E+03  0.12161488996E+04  0.89752974798E+03 0.  0.
        2    1    3    3  502    0 -0.17886479836E+03  0.10695734733E+03 -0.94885012560E+03  0.97146747300E+03  0.25500000920E-02 0. -1.
       -2    1    3    3    0  502  0.17886479836E+03 -0.10695734733E+03  0.12820495414E+03  0.24468142658E+03  0.25500000920E-02 0.  1.
</event>
<event>
 5   0  0.1968763E-02  0.9057679E+03  0.7818609E-02  0.9418400E-01
        2   -1    0    0  501    0  0.00000000000E+00  0.00000000000E+00  0.30179915697E+03  0.30179915698E+03  0.25500000920E-02 0. -1.
       -2   -1    0    0    0  501  0.00000000000E+00  0.00000000000E+00 -0.67960383276E+03  0.67960383277E+03  0.25500000920E-02 0.  1.
    10030    2    1    2    0    0  0.00000000000E+00  0.00000000000E+00 -0.37780467579E+03  0.98140298975E+03  0.90576788154E+03 0.  0.
        2    1    3    3  502    0 -0.18682665863E+01  0.39283604770E+03  0.55259462818E+02  0.39670802744E+03  0.25500000920E-02 0. -1.
       -2    1    3    3    0  502  0.18682665863E+01 -0.39283604770E+03 -0.43306413861E+03  0.58469496231E+03  0.25500000920E-02 0.  1.
</event>
<event>
 5   0  0.1226424E-02  0.8792408E+03  0.7818609E-02  0.9451910E-01
       -1   -1    0    0    0  501  0.00000000000E+00  0.00000000000E+00  0.49761481748E+03  0.49761481751E+03  0.50400001928E-02 0.  1.
        1   -1    0    0  501    0  0.00000000000E+00  0.00000000000E+00 -0.38838492738E+03  0.38838492741E+03  0.50400001928E-02 0. -1.
    10030    2    1    2    0    0  0.00000000000E+00  0.00000000000E+00  0.10922989010E+03  0.88599974492E+03  0.87924079700E+03 0.  0.
        1    1    3    3  502    0  0.17111001045E+03  0.33804071169E+03  0.27929968496E+03  0.47069998139E+03  0.50400001928E-02 0.  1.
       -1    1    3    3    0  502 -0.17111001045E+03 -0.33804071169E+03 -0.17006979486E+03  0.41529976353E+03  0.50400001928E-02 0. -1.
</event>
<event>
 5   0  0.1162839E-02  0.9004638E+03  0.7818609E-02  0.9425002E-01
       -1   -1    0    0    0  501  0.00000000000E+00  0.00000000000E+00  0.16217623334E+03  0.16217623342E+03  0.50400001928E-02 0. -1.
        1   -1    0    0  501    0  0.00000000000E+00  0.00000000000E+00 -0.12499288059E+04  0.12499288059E+04  0.50400001928E-02 0.  1.
    10030    2    1    2    0    0  0.00000000000E+00  0.00000000000E+00 -0.10877525725E+04  0.14121050393E+04  0.90046375994E+03 0.  0.
        2    1    3    3  502    0  0.20264703626E+03 -0.12835070855E+02  0.86293670124E+02  0.22062900503E+03  0.25500000920E-02 0. -1.
       -2    1    3    3    0  502 -0.20264703626E+03  0.12835070855E+02 -0.11740462426E+04  0.11914760343E+04  0.25500000920E-02 0.  1.
</event>
<event>
 5   0  0.2008770E-02  0.8851401E+03  0.7818609E-02  0.9444350E-01
        2   -1    0    0  501    0  0.00000000000E+00  0.00000000000E+00  0.21727174339E+04  0.21727174339E+04  0.25500000920E-02 0.  1.
       -2   -1    0    0    0  501  0.00000000000E+00  0.00000000000E+00 -0.90148974495E+02  0.90148974531E+02  0.25500000920E-02 0. -1.
    10030    2    1    2    0    0  0.00000000000E+00  0.00000000000E+00  0.20825684594E+04  0.22628664085E+04  0.88514009869E+03 0.  0.
        1    1    3    3  502    0 -0.22287447810E+03  0.44079868463E+02  0.20122593313E+04  0.20250441191E+04  0.50400001928E-02 0.  1.
       -1    1    3    3    0  502  0.22287447810E+03 -0.44079868463E+02  0.70309128106E+02  0.23782228935E+03  0.50400001928E-02 0. -1.
</event>
<event>
 5   0  0.1175993E-02  0.8670203E+03  0.7818609E-02  0.9467773E-01
       -1   -1    0    0    0  501  0.00000000000E+00  0.00000000000E+00  0.15110155803E+03  0.15110155811E+03  0.50400001928E-02 0.  1.
        1   -1    0    0  501    0  0.00000000000E+00  0.00000000000E+00 -0.12437399934E+04  0.12437399934E+04  0.50400001928E-02 0. -1.
    10030    2    1    2    0    0  0.00000000000E+00  0.00000000000E+00 -0.10926384353E+04  0.13948415515E+04  0.86702030160E+03 0.  0.
        4    1    3    3  502    0  0.13825143475E+03  0.10588381555E+02 -0.12071010982E+04  0.12150391958E+04  0.12699999809E+01 0. -1.
       -4    1    3    3    0  502 -0.13825143475E+03 -0.10588381555E+02  0.11446266287E+03  0.17980235573E+03  0.12699999809E+01 0.  1.
</event>
<event>
 5   0  0.2008770E-02  0.8850933E+03  0.7818609E-02  0.9444410E-01
        2   -1    0    0  501    0  0.00000000000E+00  0.00000000000E+00  0.72171099025E+03  0.72171099026E+03  0.25500000920E-02 0. -1.
       -2   -1    0    0    0  501  0.00000000000E+00  0.00000000000E+00 -0.27136559453E+03  0.27136559454E+03  0.25500000920E-02 0.  1.
    10030    2    1    2    0    0  0.00000000000E+00  0.00000000000E+00  0.45034539572E+03  0.99307658480E+03  0.88509328764E+03 0.  0.
        1    1    3    3  502    0  0.68457210442E+02  0.23563807907E+03 -0.18804691099E+03  0.30914937284E+03  0.50400001928E-02 0.  1.
       -1    1    3    3    0  502 -0.68457210442E+02 -0.23563807907E+03  0.63839230671E+03  0.68392721196E+03  0.50400001928E-02 0. -1.
</event>
<event>
 5   0  0.1226424E-02  0.8961269E+03  0.7818609E-02  0.9430436E-01
       -1   -1    0    0    0  501  0.00000000000E+00  0.00000000000E+00  0.18243206599E+03  0.18243206606E+03  0.50400001928E-02 0. -1.
        1   -1    0    0  501    0  0.00000000000E+00  0.00000000000E+00 -0.11004691418E+04  0.11004691418E+04  0.50400001928E-02 0.  1.
    10030    2    1    2    0    0  0.00000000000E+00  0.00000000000E+00 -0.91803707578E+03  0.12829012078E+04  0.89612690874E+03 0.  0.
        1    1    3    3  502    0 -0.17341127047E+03  0.87844944051E+02  0.11891921837E+03  0.22788151185E+03  0.50400001928E-02 0. -1.
       -1    1    3    3    0  502  0.17341127047E+03 -0.87844944051E+02 -0.10369562941E+04  0.10550196960E+04  0.50400001928E-02 0.  1.
</event>
<event>
 5   0  0.1924218E-02  0.9199940E+03  0.7818609E-02  0.9400927E-01
        2   -1    0    0  501    0  0.00000000000E+00  0.00000000000E+00  0.81228092139E+03  0.81228092139E+03  0.25500000920E-02 0. -1.
       -2   -1    0    0    0  501  0.00000000000E+00  0.00000000000E+00 -0.26049759339E+03  0.26049759340E+03  0.25500000920E-02 0.  1.
    10030    2    1    2    0    0  0.00000000000E+00  0.00000000000E+00  0.55178332800E+03  0.10727785148E+04  0.91999396778E+03 0.  0.
        4    1    3    3  502    0  0.25800709076E+03 -0.32032629007E+03  0.51605428209E+03  0.65991683261E+03  0.12699999809E+01 0. -1.
       -4    1    3    3    0  502 -0.25800709076E+03  0.32032629007E+03  0.35729045906E+02  0.41286168218E+03  0.12699999809E+01 0.  1.
</event>
<event>
 5   0  0.1177712E-02  0.8947754E+03  0.7818609E-02  0.9432136E-01
       -1   -1    0    0    0  501  0.00000000000E+00  0.00000000000E+00  0.48571759988E+03  0.48571759991E+03  0.50400001928E-02 0.  1.
        1   -1    0    0  501    0  0.00000000000E+00  0.00000000000E+00 -0.41208257965E+03  0.41208257968E+03  0.50400001928E-02 0. -1.
    10030    2    1    2    0    0  0.00000000000E+00  0.00000000000E+00  0.73635020235E+02  0.89780017959E+03  0.89477541666E+03 0.  0.
        5    1    3    3  502    0 -0.98572242398E+02  0.18654387619E+03  0.43263624831E+03  0.48136401825E+03  0.46999998093E+01 0.  1.
       -5    1    3    3    0  502  0.98572242398E+02 -0.18654387619E+03 -0.35900122807E+03  0.41643616134E+03  0.46999998093E+01 0. -1.
</event>
<event>
 5   0  0.2008643E-02  0.9169117E+03  0.7818609E-02  0.9404684E-01
       -2   -1    0    0    0  501  0.00000000000E+00  0.00000000000E+00  0.14530641021E+03  0.14530641023E+03  0.25500000920E-02 0. -1.
        2   -1    0    0  501    0  0.00000000000E+00  0.00000000000E+00 -0.14464728608E+04  0.14464728608E+04  0.25500000920E-02 0.  1.
    10030    2    1    2    0    0  0.00000000000E+00  0.00000000000E+00 -0.13011664506E+04  0.15917792711E+04  0.91691172724E+03 0.  0.
        3    1    3    3  502    0 -0.31373056817E+03 -0.29313695575E+03 -0.92956814804E+03  0.10239399867E+04  0.10100000352E+00 0. -1.
       -3    1    3    3    0  502  0.31373056817E+03  0.29313695575E+03 -0.37159830258E+03  0.56783928440E+03  0.10100000352E+00 0.  1.
</event>
<event>
 5   0  0.1968763E-02  0.9191899E+03  0.7818609E-02  0.9401906E-01
        2   -1    0    0  501    0  0.00000000000E+00  0.00000000000E+00  0.12399519589E+04  0.12399519589E+04  0.25500000920E-02 0. -1.
       -2   -1    0    0    0  501  0.00000000000E+00  0.00000000000E+00 -0.17035137789E+03  0.17035137790E+03  0.25500000920E-02 0.  1.
    10030    2    1    2    0    0  0.00000000000E+00  0.00000000000E+00  0.10696005810E+04  0.14103033368E+04  0.91918991450E+03 0.  0.
        2    1    3    3  502    0  0.33715564370E+03 -0.84075310854E+02  0.73275077643E+02  0.35512226484E+03  0.25500000920E-02 0.  1.
       -2    1    3    3    0  502 -0.33715564370E+03  0.84075310854E+02  0.99632550341E+03  0.10551810720E+04  0.25500000920E-02 0. -1.
</event>
<event>
 5   0  0.2008770E-02  0.9612763E+03  0.7818609E-02  0.9352067E-01
        2   -1    0    0  501    0  0.00000000000E+00  0.00000000000E+00  0.11242153062E+04  0.11242153062E+04  0.25500000920E-02 0.  1.
       -2   -1    0    0    0  501  0.00000000000E+00  0.00000000000E+00 -0.20548822620E+03  0.20548822622E+03  0.25500000920E-02 0. -1.
    10030    2    1    2    0    0  0.00000000000E+00  0.00000000000E+00  0.91872707999E+03  0.13297035324E+04  0.96127625405E+03 0.  0.
        1    1    3    3  502    0  0.32676519500E+03 -0.30955846397E+03  0.69252159977E+03  0.82594679093E+03  0.50400001928E-02 0.  1.
       -1    1    3    3    0  502 -0.32676519500E+03  0.30955846397E+03  0.22620548022E+03  0.50375674148E+03  0.50400001928E-02 0. -1.
</event>
<event>
 5   0  0.1162839E-02  0.8858317E+03  0.7818609E-02  0.9443468E-01
        1   -1    0    0  501    0  0.00000000000E+00  0.00000000000E+00  0.69754436734E+03  0.69754436735E+03  0.50400001928E-02 0.  1.
       -1   -1    0    0    0  501  0.00000000000E+00  0.00000000000E+00 -0.28123580813E+03  0.28123580817E+03  0.50400001928E-02 0. -1.
    10030    2    1    2    0    0  0.00000000000E+00  0.00000000000E+00  0.41630855921E+03  0.97878017553E+03  0.88583170836E+03 0.  0.
        2    1    3    3  502    0  0.40274922035E+03 -0.17157878360E+03  0.13380124809E+03  0.45776520998E+03  0.25500000920E-02 0. -1.
       -2    1    3    3    0  502 -0.40274922035E+03  0.17157878360E+03  0.28250731112E+03  0.52101496554E+03  0.25500000920E-02 0.  1.
</event>
<event>
 5   0  0.1968763E-02  0.9031680E+03  0.7818609E-02  0.9421630E-01
       -2   -1    0    0    0  501  0.00000000000E+00  0.00000000000E+00  0.21556340269E+03  0.21556340270E+03  0.25500000920E-02 0. -1.
        2   -1    0    0  501    0  0.00000000000E+00  0.00000000000E+00 -0.94602378277E+03  0.94602378278E+03  0.25500000920E-02 0.  1.
    10030    2    1    2    0    0  0.00000000000E+00  0.00000000000E+00 -0.73046038008E+03  0.11615871855E+04  0.90316799246E+03 0.  0.
        2    1    3    3  502    0 -0.27542249400E+03 -0.26486994587E+03 -0.55718678044E+02  0.38615827004E+03  0.25500000920E-02 0. -1.
       -2    1    3    3    0  502  0.27542249400E+03  0.26486994587E+03 -0.67474170204E+03  0.77542891544E+03  0.25500000920E-02 0.  1.
</event>
<event>
 5   0  0.1206541E-02  0.9059537E+03  0.7818609E-02  0.9418169E-01
       -1   -1    0    0    0  501  0.00000000000E+00  0.00000000000E+00  0.15488061433E+03  0.15488061441E+03  0.50400001928E-02 0.  1.
        1   -1    0    0  501    0  0.00000000000E+00  0.00000000000E+00 -0.13248141420E+04  0.13248141420E+04  0.50400001928E-02 0. -1.
    10030    2    1    2    0    0  0.00000000000E+00  0.00000000000E+00 -0.11699335277E+04  0.14796947565E+04  0.90595370357E+03 0.  0.
        3    1    3    3  502    0  0.34756570924E+03  0.24464123354E+03 -0.32912304387E+03  0.53756231601E+03  0.10100000352E+00 0.  1.
       -3    1    3    3    0  502 -0.34756570924E+03 -0.24464123354E+03 -0.84081048384E+03  0.94213244044E+03  0.10100000352E+00 0. -1.
</event>
<event>
 5   0  0.1162839E-02  0.8639373E+03  0.7818609E-02  0.9471819E-01
       -1   -1    0    0    0  501  0.00000000000E+00  0.00000000000E+00  0.15948524015E+03  0.15948524023E+03  0.50400001928E-02 0. -1.
        1   -1    0    0  501    0  0.00000000000E+00  0.00000000000E+00 -0.11699949584E+04  0.11699949584E+04  0.50400001928E-02 0.  1.
    10030    2    1    2    0    0  0.00000000000E+00  0.00000000000E+00 -0.10105097182E+04  0.13294801986E+04  0.86393732868E+03 0.  0.
        2    1    3    3  502    0 -0.17111129897E+03 -0.37089920275E+03 -0.28898244708E+03  0.50035602321E+03  0.25500000920E-02 0. -1.
       -2    1    3    3    0  502  0.17111129897E+03  0.37089920275E+03 -0.72152727114E+03  0.82912417540E+03  0.25500000920E-02 0.  1.
</event>
<event>
 5   0  0.1162839E-02  0.8911956E+03  0.7818609E-02  0.9436655E-01
        1   -1    0    0  501    0  0.00000000000E+00  0.00000000000E+00  0.75718873008E+03  0.75718873009E+03  0.50400001928E-02 0. -1.
       -1   -1    0    0    0  501  0.00000000000E+00  0.00000000000E+00 -0.26222971052E+03  0.26222971057E+03  0.50400001928E-02 0.  1.
    10030    2    1    2    0    0  0.00000000000E+00  0.00000000000E+00  0.49495901955E+03  0.10194184407E+04  0.89119555998E+03 0.  0.
        2    1    3    3  502    0 -0.40235835122E+02 -0.44356520071E+03  0.23177995159E+03  0.50208660177E+03  0.25500000920E-02 0. -1.
       -2    1    3    3    0  502  0.40235835122E+02  0.44356520071E+03  0.26317906796E+03  0.51733183889E+03  0.25500000920E-02 0.  1.
</event>
<event>
 5   0  0.1177712E-02  0.9412171E+03  0.7818609E-02  0.9375476E-01
        1   -1    0    0  501    0  0.00000000000E+00  0.00000000000E+00  0.80048405296E+03  0.80048405298E+03  0.50400001928E-02 0.  1.
       -1   -1    0    0    0  501  0.00000000000E+00  0.00000000000E+00 -0.27667310198E+03  0.27667310202E+03  0.50400001928E-02 0. -1.
    10030    2    1    2    0    0  0.00000000000E+00  0.00000000000E+00  0.52381095098E+03  0.10771571550E+04  0.94121709728E+03 0.  0.
        5    1    3    3  502    0  0.14354489673E+03 -0.12137107953E+03  0.75562359289E+03  0.77866885160E+03  0.46999998093E+01 0.  1.
       -5    1    3    3    0  502 -0.14354489673E+03  0.12137107953E+03 -0.23181264190E+03  0.29848830340E+03  0.46999998093E+01 0. -1.
</event>
<event>
 5   0  0.2008770E-02  0.1043362E+04  0.7818609E-02  0.9262224E-01
       -2   -1    0    0    0  501  0.00000000000E+00  0.00000000000E+00  0.23807195703E+03  0.23807195705E+03  0.25500000920E-02 0.  1.
        2   -1    0    0  501    0  0.00000000000E+00  0.00000000000E+00 -0.11431469813E+04  0.11431469813E+04  0.25500000920E-02 0. -1.
    10030    2    1    2    0    0  0.00000000000E+00  0.00000000000E+00 -0.90507502429E+03  0.13812189384E+04  0.10433623321E+04 0.  0.
        1    1    3    3  502    0 -0.10959264810E+03 -0.74347240010E+02  0.21544917944E+03  0.25289604497E+03  0.50400001928E-02 0.  1.
       -1    1    3    3    0  502  0.10959264810E+03  0.74347240010E+02 -0.11205242037E+04  0.11283228934E+04  0.50400001928E-02 0. -1.
</event>
<event>
 5   0  0.1924218E-02  0.8842915E+03  0.7818609E-02  0.9445434E-01
        2   -1    0    0  501    0  0.00000000000E+00  0.00000000000E+00  0.16428774688E+04  0.16428774688E+04  0.25500000920E-02 0. -1.
       -2   -1    0    0    0  501  0.00000000000E+00  0.00000000000E+00 -0.11899417491E+03  0.11899417494E+03  0.25500000920E-02 0.  1.
    10030    2    1    2    0    0  0.00000000000E+00  0.00000000000E+00  0.15238832939E+04  0.17618716437E+04  0.88429146532E+03 0.  0.
        4    1    3    3  502    0  0.36240080248E+03  0.43044059002E+02  0.12592630584E+04  0.13110805452E+04  0.12699999809E+01 0. -1.
       -4    1    3    3    0  502 -0.36240080248E+03 -0.43044059002E+02  0.26462023547E+03  0.45079109860E+03  0.12699999809E+01 0.  1.
</event>
<event>
 5   0  0.2008643E-02  0.8769794E+03  0.7818609E-02  0.9454825E-01
        2   -1    0    0  501    0  0.00000000000E+00  0.00000000000E+00  0.16317297517E+03  0.16317297519E+03  0.25500000920E-02 0. -1.
       -2   -1    0    0    0  501  0.00000000000E+00  0.00000000000E+00 -0.11783397532E+04  0.11783397532E+04  0.25500000920E-02 0.  1.
    10030    2    1    2    0    0  0.00000000000E+00  0.00000000000E+00 -0.10151667781E+04  0.13415127284E+04  0.87697936877E+03 0.  0.
        3    1    3    3  502    0  0.32503792970E+03 -0.16832535050E+03 -0.13826335024E+03  0.39127975105E+03  0.10100000352E+00 0. -1.
       -3    1    3    3    0  502 -0.32503792970E+03  0.16832535050E+03 -0.87690342781E+03  0.95023297737E+03  0.10100000352E+00 0.  1.
</event>
<event>
 5   0  0.1162839E-02  0.9593414E+03  0.7818609E-02  0.9354298E-01
        1   -1    0    0  501    0  0.00000000000E+00  0.00000000000E+00  0.11453959987E+04  0.11453959987E+04  0.50400001928E-02 0.  1.
       -1   -1    0    0    0  501  0.00000000000E+00  0.00000000000E+00 -0.20087725060E+03  0.20087725066E+03  0.50400001928E-02 0. -1.
    10030    2    1    2    0    0  0.00000000000E+00  0.00000000000E+00  0.94451874810E+03  0.13462732494E+04  0.95934143894E+03 0.  0.
        2    1    3    3  502    0  0.25271275159E+03 -0.40145482483E+03  0.37249166478E+03  0.60314156840E+03  0.25500000920E-02 0. -1.
       -2    1    3    3    0  502 -0.25271275159E+03  0.40145482483E+03  0.57202708333E+03  0.74313168097E+03  0.25500000920E-02 0.  1.
</event>
<event>
 5   0  0.7893875E-03  0.8708587E+03  0.7818609E-02  0.9462761E-01
        4   -1    0    0  501    0  0.00000000000E+00  0.00000000000E+00  0.29079020330E+03  0.29079297659E+03  0.12699999809E+01 0.  1.
       -4   -1    0    0    0  501  0.00000000000E+00  0.00000000000E+00 -0.65200562275E+03  0.65200685962E+03  0.12699999809E+01 0. -1.
    10030    2    1    2    0    0  0.00000000000E+00  0.00000000000E+00 -0.36121541946E+03  0.94279983621E+03  0.87085874395E+03 0.  0.
        4    1    3    3  502    0  0.29175481506E+03  0.11603606241E+03 -0.50721121144E+03  0.59653169723E+03  0.12699999809E+01 0. -1.
       -4    1    3    3    0  502 -0.29175481506E+03 -0.11603606241E+03  0.14599579199E+03  0.34626813898E+03  0.12699999809E+01 0.  1.
</event>
<event>
 5   0  0.1177712E-02  0.8244424E+03  0.7818609E-02  0.9525296E-01
       -1   -1    0    0    0  501  0.00000000000E+00  0.00000000000E+00  0.14309075798E+03  0.14309075807E+03  0.50400001928E-02 0. -1.
        1   -1    0    0  501    0  0.00000000000E+00  0.00000000000E+00 -0.11875421170E+04  0.11875421170E+04  0.50400001928E-02 0.  1.
    10030    2    1    2    0    0  0.00000000000E+00  0.00000000000E+00 -0.10444513590E+04  0.13306328751E+04  0.82444236117E+03 0.  0.
        5    1    3    3  502    0  0.10326661134E+03 -0.39068780792E+03 -0.65337830832E+03  0.76826184342E+03  0.46999998093E+01 0.  1.
       -5    1    3    3    0  502 -0.10326661134E+03  0.39068780792E+03 -0.39107305071E+03  0.56237103167E+03  0.46999998093E+01 0. -1.
</event>
<event>
 5   0  0.1177712E-02  0.8935203E+03  0.7818609E-02  0.9433718E-01
        1   -1    0    0  501    0  0.00000000000E+00  0.00000000000E+00  0.17058385593E+04  0.17058385593E+04  0.50400001928E-02 0.  1.
       -1   -1    0    0    0  501  0.00000000000E+00  0.00000000000E+00 -0.11700674166E+03  0.11700674177E+03  0.50400001928E-02 0. -1.
    10030    2    1    2    0    0  0.00000000000E+00  0.00000000000E+00  0.15888318176E+04  0.18228453011E+04  0.89352025547E+03 0.  0.
        5    1    3    3  502    0 -0.39797765559E+03  0.53220751418E+02  0.39488540342E+03  0.56318312702E+03  0.46999998093E+01 0. -1.
       -5    1    3    3    0  502  0.39797765559E+03 -0.53220751418E+02  0.11939464142E+04  0.12596621741E+04  0.46999998093E+01 0.  1.
</event>
<event>
 5   0  0.1175993E-02  0.9150288E+03  0.7818609E-02  0.9406987E-01
        1   -1    0    0  501    0  0.00000000000E+00  0.00000000000E+00  0.10812212599E+04  0.10812212599E+04  0.50400001928E-02 0. -1.
       -1   -1    0    0    0  501  0.00000000000E+00  0.00000000000E+00 -0.19359534830E+03  0.19359534837E+03  0.50400001928E-02 0.  1.
    10030    2    1    2    0    0  0.00000000000E+00  0.00000000000E+00  0.88762591156E+03  0.12748166082E+04  0.91502875681E+03 0.  0.
        4    1    3    3  502    0  0.31130011842E+03 -0.62577725297E+02 -0.15084813726E+02  0.31788818779E+03  0.12699999809E+01 0.  1.
       -4    1    3    3    0  502 -0.31130011842E+03  0.62577725297E+02  0.90271072529E+03  0.95692842046E+03  0.12699999809E+01 0. -1.
</event>
<event>
 5   0  0.1226424E-02  0.9013083E+03  0.7818609E-02  0.9423947E-01
       -1   -1    0    0    0  501  0.00000000000E+00  0.00000000000E+00  0.36653162533E+03  0.36653162537E+03  0.50400001928E-02 0.  1.
        1   -1    0    0  501    0  0.00000000000E+00  0.00000000000E+00 -0.55408364031E+03  0.55408364033E+03  0.50400001928E-02 0. -1.
    10030    2    1    2    0    0  0.00000000000E+00  0.00000000000E+00 -0.18755201497E+03  0.92061526569E+03  0.90130833187E+03 0.  0.
        1    1    3    3  502    0  0.30621749088E+03 -0.25525756989E+03  0.12087701744E+03  0.41657752229E+03  0.50400001928E-02 0.  1.
       -1    1    3    3    0  502 -0.30621749088E+03  0.25525756989E+03 -0.30842903241E+03  0.50403774340E+03  0.50400001928E-02 0. -1.
</event>
<event>
 5   0  0.1924218E-02  0.9093642E+03  0.7818609E-02  0.9413951E-01
        2   -1    0    0  501    0  0.00000000000E+00  0.00000000000E+00  0.12625569315E+04  0.12625569315E+04  0.25500000920E-02 0.  1.
       -2   -1    0    0    0  501  0.00000000000E+00  0.00000000000E+00 -0.16374374408E+03  0.16374374410E+03  0.25500000920E-02 0. -1.
    10030    2    1    2    0    0  0.00000000000E+00  0.00000000000E+00  0.10988131874E+04  0.14263006756E+04  0.90936417147E+03 0.  0.
        4    1    3    3  502    0  0.19144648816E+03 -0.11799838912E+03  0.11692136155E+04  0.11906458203E+04  0.12699999809E+01 0.  1.
       -4    1    3    3    0  502 -0.19144648816E+03  0.11799838912E+03 -0.70400428112E+02  0.23565485533E+03  0.12699999809E+01 0. -1.
</event>
<event>
 5   0  0.2041861E-02  0.9098693E+03  0.7818609E-02  0.9413328E-01
        2   -1    0    0  501    0  0.00000000000E+00  0.00000000000E+00  0.20163749498E+04  0.20163749498E+04  0.25500000920E-02 0.  1.
       -2   -1    0    0    0  501  0.00000000000E+00  0.00000000000E+00 -0.10264239680E+03  0.10264239683E+03  0.25500000920E-02 0. -1.
    10030    2    1    2    0    0  0.00000000000E+00  0.00000000000E+00  0.19137325530E+04  0.21190173467E+04  0.90986934829E+03 0.  0.
        5    1    3    3  502    0  0.43084226617E+03  0.29288524180E+02  0.12899969113E+04  0.13603664937E+04  0.46999998093E+01 0. -1.
       -5    1    3    3    0  502 -0.43084226617E+03 -0.29288524180E+02  0.62373564172E+03  0.75865085298E+03  0.46999998093E+01 0.  1.
</event>
<event>
 5   0  0.1177712E-02  0.9336041E+03  0.7818609E-02  0.9384523E-01
       -1   -1    0    0    0  501  0.00000000000E+00  0.00000000000E+00  0.20777776979E+03  0.20777776985E+03  0.50400001928E-02 0.  1.
        1   -1    0    0  501    0  0.00000000000E+00  0.00000000000E+00 -0.10487366702E+04  0.10487366702E+04  0.50400001928E-02 0. -1.
    10030    2    1    2    0    0  0.00000000000E+00  0.00000000000E+00 -0.84095890040E+03  0.12565144401E+04  0.93360412698E+03 0.  0.
        5    1    3    3  502    0  0.42953861877E+03 -0.96632445357E+02 -0.62915875311E+03  0.76792192384E+03  0.46999998093E+01 0. -1.
       -5    1    3    3    0  502 -0.42953861877E+03  0.96632445357E+02 -0.21180014730E+03  0.48859251622E+03  0.46999998093E+01 0.  1.
</event>
<event>
 5   0  0.2008770E-02  0.8459123E+03  0.7818609E-02  0.9495840E-01
        2   -1    0    0  501    0  0.00000000000E+00  0.00000000000E+00  0.54703154289E+03  0.54703154289E+03  0.25500000920E-02 0. -1.
       -2   -1    0    0    0  501  0.00000000000E+00  0.00000000000E+00 -0.32702301190E+03  0.32702301191E+03  0.25500000920E-02 0.  1.
    10030    2    1    2    0    0  0.00000000000E+00  0.00000000000E+00  0.22000853099E+03  0.87405455480E+03  0.84591229513E+03 0.  0.
        1    1    3    3  502    0  0.29535356006E+02  0.41751499749E+03  0.17286226597E+03  0.45284928333E+03  0.50400001928E-02 0. -1.
       -1    1    3    3    0  502 -0.29535356006E+02 -0.41751499749E+03  0.47146265015E+02  0.42120527147E+03  0.50400001928E-02 0.  1.
</event>
<event>
 5   0  0.1968763E-02  0.8956841E+03  0.7818609E-02  0.9430993E-01
        2   -1    0    0  501    0  0.00000000000E+00  0.00000000000E+00  0.12240541327E+04  0.12240541327E+04  0.25500000920E-02 0.  1.
       -2   -1    0    0    0  501  0.00000000000E+00  0.00000000000E+00 -0.16385099966E+03  0.16385099968E+03  0.25500000920E-02 0. -1.
    10030    2    1    2    0    0  0.00000000000E+00  0.00000000000E+00  0.10602031331E+04  0.13879051324E+04  0.89568408116E+03 0.  0.
        2    1    3    3  502    0  0.15111503118E+03 -0.13570725478E+03 -0.88380097658E+02  0.22150226481E+03  0.25500000920E-02 0. -1.
       -2    1    3    3    0  502 -0.15111503118E+03  0.13570725478E+03  0.11485832307E+04  0.11664028676E+04  0.25500000920E-02 0.  1.
</event>
<event>
 5   0  0.1968763E-02  0.8974240E+03  0.7818609E-02  0.9428807E-01
        2   -1    0    0  501    0  0.00000000000E+00  0.00000000000E+00  0.46001252891E+03  0.46001252892E+03  0.25500000920E-02 0. -1.
       -2   -1    0    0    0  501  0.00000000000E+00  0.00000000000E+00 -0.43768907769E+03  0.43768907770E+03  0.25500000920E-02 0.  1.
    10030    2    1    2    0    0  0.00000000000E+00  0.00000000000E+00  0.22323451219E+02  0.89770160662E+03  0.89742400127E+03 0.  0.
        2    1    3    3  502    0 -0.22097767927E+03  0.26096556900E+03 -0.27945920560E+03  0.44162383376E+03  0.25500000920E-02 0.  1.
       -2    1    3    3    0  502  0.22097767927E+03 -0.26096556900E+03  0.30178265682E+03  0.45607777287E+03  0.25500000920E-02 0. -1.
</event>
<event>
 5   0  0.1175993E-02  0.9077851E+03  0.7818609E-02  0.9415902E-01
       -1   -1    0    0    0  501  0.00000000000E+00  0.00000000000E+00  0.19085255603E+03  0.19085255610E+03  0.50400001928E-02 0.  1.
        1   -1    0    0  501    0  0.00000000000E+00  0.00000000000E+00 -0.10794638370E+04  0.10794638370E+04  0.50400001928E-02 0. -1.
    10030    2    1    2    0    0  0.00000000000E+00  0.00000000000E+00 -0.88861128100E+03  0.12703163931E+04  0.90778506815E+03 0.  0.
        4    1    3    3  502    0 -0.11231573912E+03 -0.42747552641E+03 -0.29978054337E+03  0.53406005095E+03  0.12699999809E+01 0.  1.
       -4    1    3    3    0  502  0.11231573912E+03  0.42747552641E+03 -0.58883073764E+03  0.73625634219E+03  0.12699999809E+01 0. -1.
</event>
<event>
 5   0  0.1226424E-02  0.9110628E+03  0.7818609E-02  0.9411857E-01
       -1   -1    0    0    0  501  0.00000000000E+00  0.00000000000E+00  0.26059751086E+03  0.26059751091E+03  0.50400001928E-02 0. -1.
        1   -1    0    0  501    0  0.00000000000E+00  0.00000000000E+00 -0.79628097686E+03  0.79628097688E+03  0.50400001928E-02 0.  1.
    10030    2    1    2    0    0  0.00000000000E+00  0.00000000000E+00 -0.53568346600E+03  0.10568784878E+04  0.91106276524E+03 0.  0.
        1    1    3    3  502    0 -0.20966747812E+03  0.37152205750E+03 -0.45315860790E+03  0.62236790930E+03  0.50400001928E-02 0. -1.
       -1    1    3    3    0  502  0.20966747812E+03 -0.37152205750E+03 -0.82524858104E+02  0.43451057849E+03  0.50400001928E-02 0.  1.
</event>
<event>
 5   0  0.2041861E-02  0.8758467E+03  0.7818609E-02  0.9456288E-01
       -2   -1    0    0    0  501  0.00000000000E+00  0.00000000000E+00  0.15017122783E+03  0.15017122785E+03  0.25500000920E-02 0. -1.
        2   -1    0    0  501    0  0.00000000000E+00  0.00000000000E+00 -0.12770546856E+04  0.12770546856E+04  0.25500000920E-02 0.  1.
    10030    2    1    2    0    0  0.00000000000E+00  0.00000000000E+00 -0.11268834578E+04  0.14272259135E+04  0.87584672212E+03 0.  0.
        5    1    3    3  502    0 -0.12326432628E+02  0.91953569596E+02 -0.12608144719E+04  0.12642320288E+04  0.46999998093E+01 0.  1.
       -5    1    3    3    0  502  0.12326432628E+02 -0.91953569596E+02  0.13393101415E+03  0.16299388471E+03  0.46999998093E+01 0. -1.
</event>
<event>
 5   0  0.1177712E-02  0.9021389E+03  0.7818609E-02  0.9422912E-01
        1   -1    0    0  501    0  0.00000000000E+00  0.00000000000E+00  0.34915829129E+03  0.34915829132E+03  0.50400001928E-02 0.  1.
       -1   -1    0    0    0  501  0.00000000000E+00  0.00000000000E+00 -0.58272616234E+03  0.58272616236E+03  0.50400001928E-02 0. -1.
    10030    2    1    2    0    0  0.00000000000E+00  0.00000000000E+00 -0.23356787105E+03  0.93188445368E+03  0.90213894973E+03 0.  0.
        5    1    3    3  502    0  0.20319929341E+03  0.32400275323E+03 -0.36377846233E+03  0.52784902822E+03  0.46999998093E+01 0. -1.
       -5    1    3    3    0  502 -0.20319929341E+03 -0.32400275323E+03  0.13021059129E+03  0.40403542546E+03  0.46999998093E+01 0.  1.
</event>
<event>
 5   0  0.1968763E-02  0.8780104E+03  0.7818609E-02  0.9453495E-01
       -2   -1    0    0    0  501  0.00000000000E+00  0.00000000000E+00  0.15498707521E+03  0.15498707523E+03  0.25500000920E-02 0.  1.
        2   -1    0    0  501    0  0.00000000000E+00  0.00000000000E+00 -0.12434944580E+04  0.12434944580E+04  0.25500000920E-02 0. -1.
    10030    2    1    2    0    0  0.00000000000E+00  0.00000000000E+00 -0.10885073828E+04  0.13984815332E+04  0.87801040791E+03 0.  0.
        2    1    3    3  502    0 -0.95928755473E+02  0.10423884839E+03  0.11758141913E+03  0.18410174842E+03  0.25500000920E-02 0.  1.
       -2    1    3    3    0  502  0.95928755473E+02 -0.10423884839E+03 -0.12060888019E+04  0.12143797848E+04  0.25500000920E-02 0. -1.
</event>
<event>
 5   0  0.1924218E-02  0.8756670E+03  0.7818609E-02  0.9456521E-01
        2   -1    0    0  501    0  0.00000000000E+00  0.00000000000E+00  0.12979936731E+04  0.12979936731E+04  0.25500000920E-02 0.  1.
       -2   -1    0    0    0  501  0.00000000000E+00  0.00000000000E+00 -0.14768805148E+03  0.14768805150E+03  0.25500000920E-02 0. -1.
    10030    2    1    2    0    0  0.00000000000E+00  0.00000000000E+00  0.11503056216E+04  0.14456817246E+04  0.87566696051E+03 0.  0.
        4    1    3    3  502    0 -0.18626880981E+03 -0.37460109854E+03  0.36196615354E+03  0.55321167897E+03  0.12699999809E+01 0. -1.
       -4    1    3    3    0  502  0.18626880981E+03  0.37460109854E+03  0.78833946809E+03  0.89247004565E+03  0.12699999809E+01 0.  1.
</event>
<event>
 5   0  0.1175993E-02  0.9127206E+03  0.7818609E-02  0.9409818E-01
        1   -1    0    0  501    0  0.00000000000E+00  0.00000000000E+00  0.25833154989E+03  0.25833154994E+03  0.50400001928E-02 0. -1.
       -1   -1    0    0    0  501  0.00000000000E+00  0.00000000000E+00 -0.80619161371E+03  0.80619161372E+03  0.50400001928E-02 0.  1.
    10030    2    1    2    0    0  0.00000000000E+00  0.00000000000E+00 -0.54786006381E+03  0.10645231637E+04  0.91272061249E+03 0.  0.
        4    1    3    3  502    0 -0.13228056757E+03 -0.10314303177E+03 -0.76893099250E+03  0.78701532239E+03  0.12699999809E+01 0.  1.
       -4    1    3    3    0  502  0.13228056757E+03  0.10314303177E+03  0.22107092868E+03  0.27750784127E+03  0.12699999809E+01 0. -1.
</event>
<event>
 5   0  0.2041861E-02  0.8926193E+03  0.7818609E-02  0.9434855E-01
       -2   -1    0    0    0  501  0.00000000000E+00  0.00000000000E+00  0.10438270949E+03  0.10438270952E+03  0.25500000920E-02 0. -1.
        2   -1    0    0  501    0  0.00000000000E+00  0.00000000000E+00 -0.19082884380E+04  0.19082884380E+04  0.25500000920E-02 0.  1.
    10030    2    1    2    0    0  0.00000000000E+00  0.00000000000E+00 -0.18039057285E+04  0.20126711475E+04  0.89261933134E+03 0.  0.
        5    1    3    3  502    0  0.58802206543E+02  0.31374905777E+03 -0.19871046446E+03  0.37603737771E+03  0.46999998093E+01 0. -1.
       -5    1    3    3    0  502 -0.58802206543E+02 -0.31374905777E+03 -0.16051952640E+04  0.16366337698E+04  0.46999998093E+01 0.  1.
</event>
<event>
 5   0  0.2008643E-02  0.5701059E+03  0.7818609E-02  0.9969444E-01
       -2   -1    0    0    0  501  0.00000000000E+00  0.00000000000E+00  0.10198493455E+03  0.10198493458E+03  0.25500000920E-02 0.  1.
        2   -1    0    0  501    0  0.00000000000E+00  0.00000000000E+00 -0.79673708838E+03  0.79673708838E+03  0.25500000920E-02 0. -1.
    10030    2    1    2    0    0  0.00000000000E+00  0.00000000000E+00 -0.69475215383E+03  0.89872202297E+03  0.57010588431E+03 0.  0.
        3    1    3    3  502    0  0.22325610983E+03 -0.17185243916E+03 -0.41570256896E+03  0.50218043318E+03  0.10100000352E+00 0. -1.
       -3    1    3    3    0  502 -0.22325610983E+03  0.17185243916E+03 -0.27904958486E+03  0.39654158979E+03  0.10100000352E+00 0.  1.
</event>
<event>
 5   0  0.1924218E-02  0.8905535E+03  0.7818609E-02  0.9437468E-01
        2   -1    0    0  501    0  0.00000000000E+00  0.00000000000E+00  0.21367837069E+04  0.21367837069E+04  0.25500000920E-02 0.  1.
       -2   -1    0    0    0  501  0.00000000000E+00  0.00000000000E+00 -0.92789643634E+02  0.92789643669E+02  0.25500000920E-02 0. -1.
    10030    2    1    2    0    0  0.00000000000E+00  0.00000000000E+00  0.20439940633E+04  0.22295733506E+04  0.89055353287E+03 0.  0.
        4    1    3    3  502    0 -0.17966593774E+03  0.37726915912E+02  0.63738528279E+01  0.18369923317E+03  0.12699999809E+01 0. -1.
       -4    1    3    3    0  502  0.17966593774E+03 -0.37726915912E+02  0.20376202104E+04  0.20458741174E+04  0.12699999809E+01 0.  1.
</event>
<event>
 5   0  0.1162839E-02  0.8955791E+03  0.7818609E-02  0.9431125E-01
       -1   -1    0    0    0  501  0.00000000000E+00  0.00000000000E+00  0.54148903316E+03  0.54148903319E+03  0.50400001928E-02 0.  1.
        1   -1    0    0  501    0  0.00000000000E+00  0.00000000000E+00 -0.37030388023E+03  0.37030388027E+03  0.50400001928E-02 0. -1.
    10030    2    1    2    0    0  0.00000000000E+00  0.00000000000E+00  0.17118515293E+03  0.91179291345E+03  0.89557912015E+03 0.  0.
        2    1    3    3  502    0 -0.27602807627E+03  0.28778705258E+03 -0.12181753451E+03  0.41695611069E+03  0.25500000920E-02 0. -1.
       -2    1    3    3    0  502  0.27602807627E+03 -0.28778705258E+03  0.29300268744E+03  0.49483680277E+03  0.25500000920E-02 0.  1.
</event>
<event>
 5   0  0.2008643E-02  0.8981679E+03  0.7818609E-02  0.9427875E-01
        2   -1    0    0  501    0  0.00000000000E+00  0.00000000000E+00  0.10791151856E+04  0.10791151856E+04  0.25500000920E-02 0. -1.
       -2   -1    0    0    0  501  0.00000000000E+00  0.00000000000E+00 -0.18689051525E+03  0.18689051527E+03  0.25500000920E-02 0.  1.
    10030    2    1    2    0    0  0.00000000000E+00  0.00000000000E+00  0.89222467036E+03  0.12660057009E+04  0.89816789759E+03 0.  0.
        3    1    3    3  502    0  0.44183558159E+02  0.37780128347E+03  0.78260758139E+03  0.87014977633E+03  0.10100000352E+00 0. -1.
       -3    1    3    3    0  502 -0.44183558159E+02 -0.37780128347E+03  0.10961708897E+03  0.39585592454E+03  0.10100000352E+00 0.  1.
</event>
<event>
 5   0  0.1206541E-02  0.8841341E+03  0.7818609E-02  0.9445635E-01
        1   -1    0    0  501    0  0.00000000000E+00  0.00000000000E+00  0.66432342663E+03  0.66432342665E+03  0.50400001928E-02 0.  1.
       -1   -1    0    0    0  501  0.00000000000E+00  0.00000000000E+00 -0.29416885885E+03  0.29416885889E+03  0.50400001928E-02 0. -1.
    10030    2    1    2    0    0  0.00000000000E+00  0.00000000000E+00  0.37015456779E+03  0.95849228554E+03  0.88413407207E+03 0.  0.
        3    1    3    3  502    0 -0.36525849442E+03 -0.24514999373E+03  0.13768615160E+03  0.46094443669E+03  0.10100000352E+00 0.  1.
       -3    1    3    3    0  502  0.36525849442E+03  0.24514999373E+03  0.23246841618E+03  0.49754784885E+03  0.10100000352E+00 0. -1.
</event>
<event>
 5   0  0.1924218E-02  0.8352176E+03  0.7818609E-02  0.9510395E-01
       -2   -1    0    0    0  501  0.00000000000E+00  0.00000000000E+00  0.23498520587E+03  0.23498520588E+03  0.25500000920E-02 0. -1.
        2   -1    0    0  501    0  0.00000000000E+00  0.00000000000E+00 -0.74216209462E+03  0.74216209462E+03  0.25500000920E-02 0.  1.
    10030    2    1    2    0    0  0.00000000000E+00  0.00000000000E+00 -0.50717688875E+03  0.97714730051E+03  0.83521760662E+03 0.  0.
        4    1    3    3  502    0 -0.26368135042E+03  0.21456550347E+03  0.30175491163E+02  0.34128929518E+03  0.12699999809E+01 0. -1.
       -4    1    3    3    0  502  0.26368135042E+03 -0.21456550347E+03 -0.53735237991E+03  0.63585800533E+03  0.12699999809E+01 0.  1.
</event>
<event>
 5   0  0.1226424E-02  0.8699555E+03  0.7818609E-02  0.9463938E-01
        1   -1    0    0  501    0  0.00000000000E+00  0.00000000000E+00  0.49908151758E+03  0.49908151760E+03  0.50400001928E-02 0. -1.
       -1   -1    0    0    0  501  0.00000000000E+00  0.00000000000E+00 -0.37910769978E+03  0.37910769982E+03  0.50400001928E-02 0.  1.
    10030    2    1    2    0    0  0.00000000000E+00  0.00000000000E+00  0.11997381779E+03  0.87818921742E+03  0.86995550727E+03 0.  0.
        1    1    3    3  502    0 -0.74417728690E+02  0.20899063714E+01  0.49260255956E+03  0.49819639477E+03  0.50400001928E-02 0. -1.
       -1    1    3    3    0  502  0.74417728690E+02 -0.20899063714E+01 -0.37262874176E+03  0.37999282265E+03  0.50400001928E-02 0.  1.
</event>
<event>
 5   0  0.2041861E-02  0.8646243E+03  0.7818609E-02  0.9470916E-01
       -2   -1    0    0    0  501  0.00000000000E+00  0.00000000000E+00  0.71469735595E+03  0.71469735595E+03  0.25500000920E-02 0.  1.
        2   -1    0    0  501    0  0.00000000000E+00  0.00000000000E+00 -0.26150062024E+03  0.26150062025E+03  0.25500000920E-02 0. -1.
    10030    2    1    2    0    0  0.00000000000E+00  0.00000000000E+00  0.45319673571E+03  0.97619797620E+03  0.86462431581E+03 0.  0.
        5    1    3    3  502    0  0.73457233034E+01  0.22618040225E+03 -0.18925157774E+03  0.29504200326E+03  0.46999998093E+01 0. -1.
       -5    1    3    3    0  502 -0.73457233034E+01 -0.22618040225E+03  0.64244831345E+03  0.68115597294E+03  0.46999998093E+01 0.  1.
</event>
<event>
 5   0  0.1177712E-02  0.9043363E+03  0.7818609E-02  0.9420177E-01
        1   -1    0    0  501    0  0.00000000000E+00  0.00000000000E+00  0.99613467034E+03  0.99613467035E+03  0.50400001928E-02 0. -1.
       -1   -1    0    0    0  501  0.00000000000E+00  0.00000000000E+00 -0.20524937560E+03  0.20524937566E+03  0.50400001928E-02 0.  1.
    10030    2    1    2    0    0  0.00000000000E+00  0.00000000000E+00  0.79088529474E+03  0.12013840460E+04  0.90433626299E+03 0.  0.
        5    1    3    3  502    0 -0.15565849726E+03  0.92592983549E+02 -0.15492089246E+03  0.23838121002E+03  0.46999998093E+01 0.  1.
       -5    1    3    3    0  502  0.15565849726E+03 -0.92592983549E+02  0.94580618721E+03  0.96300283599E+03  0.46999998093E+01 0. -1.
</event>
<event>
 5   0  0.1177712E-02  0.7761545E+03  0.7818609E-02  0.9595189E-01
       -1   -1    0    0    0  501  0.00000000000E+00  0.00000000000E+00  0.21293414585E+03  0.21293414591E+03  0.50400001928E-02 0. -1.
        1   -1    0    0  501    0  0.00000000000E+00  0.00000000000E+00 -0.70727946946E+03  0.70727946948E+03  0.50400001928E-02 0.  1.
    10030    2    1    2    0    0  0.00000000000E+00  0.00000000000E+00 -0.49434532361E+03  0.92021361539E+03  0.77615449427E+03 0.  0.
        5    1    3    3  502    0  0.26050456703E+03 -0.45341856548E+02  0.89554845677E+02  0.27921438677E+03  0.46999998093E+01 0. -1.
       -5    1    3    3    0  502 -0.26050456703E+03  0.45341856548E+02 -0.58390016929E+03  0.64099922862E+03  0.46999998093E+01 0.  1.
</event>
<event>
 5   0  0.2041861E-02  0.8969069E+03  0.7818609E-02  0.9429456E-01
       -2   -1    0    0    0  501  0.00000000000E+00  0.00000000000E+00  0.15140374700E+03  0.15140374702E+03  0.25500000920E-02 0. -1.
        2   -1    0    0  501    0  0.00000000000E+00  0.00000000000E+00 -0.13283060067E+04  0.13283060067E+04  0.25500000920E-02 0.  1.
    10030    2    1    2    0    0  0.00000000000E+00  0.00000000000E+00 -0.11769022597E+04  0.14797097537E+04  0.89690692180E+03 0.  0.
        5    1    3    3  502    0  0.20566167919E+03  0.67341249764E+02 -0.12364158868E+04  0.12552202617E+04  0.46999998093E+01 0.  1.
       -5    1    3    3    0  502 -0.20566167919E+03 -0.67341249764E+02  0.59513627135E+02  0.22448949201E+03  0.46999998093E+01 0. -1.
</event>
<event>
 5   0  0.1175993E-02  0.8736012E+03  0.7818609E-02  0.9459196E-01
        1   -1    0    0  501    0  0.00000000000E+00  0.00000000000E+00  0.14247484310E+04  0.14247484310E+04  0.50400001928E-02 0.  1.
       -1   -1    0    0    0  501  0.00000000000E+00  0.00000000000E+00 -0.13391471554E+03  0.13391471564E+03  0.50400001928E-02 0. -1.
    10030    2    1    2    0    0  0.00000000000E+00  0.00000000000E+00  0.12908337154E+04  0.15586631466E+04  0.87360123840E+03 0.  0.
        4    1    3    3  502    0  0.26371692340E+03 -0.98338536498E+02  0.49446602753E+02  0.28576854773E+03  0.12699999809E+01 0. -1.
       -4    1    3    3    0  502 -0.26371692340E+03  0.98338536498E+02  0.12413871127E+04  0.12728945989E+04  0.12699999809E+01 0.  1.
</event>
<event>
 5   0  0.1175993E-02  0.9151617E+03  0.7818609E-02  0.9406825E-01
        1   -1    0    0  501    0  0.00000000000E+00  0.00000000000E+00  0.18687743049E+04  0.18687743049E+04  0.50400001928E-02 0. -1.
       -1   -1    0    0    0  501  0.00000000000E+00  0.00000000000E+00 -0.11204146876E+03  0.11204146888E+03  0.50400001928E-02 0.  1.
    10030    2    1    2    0    0  0.00000000000E+00  0.00000000000E+00  0.17567328362E+04  0.19808157738E+04  0.91516166448E+03 0.  0.
        4    1    3    3  502    0  0.14358022078E+03 -0.10448286366E+03 -0.34419893701E+02  0.18088197970E+03  0.12699999809E+01 0.  1.
       -4    1    3    3    0  502 -0.14358022078E+03  0.10448286366E+03  0.17911527299E+04  0.17999337941E+04  0.12699999809E+01 0. -1.
</event>
<event>
 5   0  0.1177712E-02  0.8551171E+03  0.7818609E-02  0.9483495E-01
        1   -1    0    0  501    0  0.00000000000E+00  0.00000000000E+00  0.70324313445E+03  0.70324313447E+03  0.50400001928E-02 0.  1.
       -1   -1    0    0    0  501  0.00000000000E+00  0.00000000000E+00 -0.25994750329E+03  0.25994750334E+03  0.50400001928E-02 0. -1.
    10030    2    1    2    0    0  0.00000000000E+00  0.00000000000E+00  0.44329563116E+03  0.96319063781E+03  0.85511706108E+03 0.  0.
        5    1    3    3  502    0  0.42355446513E+03 -0.43218800995E+02  0.26553285222E+03  0.50179282109E+03  0.46999998093E+01 0.  1.
       -5    1    3    3    0  502 -0.42355446513E+03  0.43218800995E+02  0.17776277894E+03  0.46139781672E+03  0.46999998093E+01 0. -1.
</event>
<event>
 5   0  0.1162839E-02  0.8855334E+03  0.7818609E-02  0.9443848E-01
        1   -1    0    0  501    0  0.00000000000E+00  0.00000000000E+00  0.73771019629E+03  0.73771019631E+03  0.50400001928E-02 0.  1.
       -1   -1    0    0    0  501  0.00000000000E+00  0.00000000000E+00 -0.26574436872E+03  0.26574436877E+03  0.50400001928E-02 0. -1.
    10030    2    1    2    0    0  0.00000000000E+00  0.00000000000E+00  0.47196582758E+03  0.10034545651E+04  0.88553335441E+03 0.  0.
        2    1    3    3  502    0  0.15398290323E+03  0.15328679198E+03 -0.20118166707E+03  0.29611085468E+03  0.25500000920E-02 0. -1.
       -2    1    3    3    0  502 -0.15398290323E+03 -0.15328679198E+03  0.67314749465E+03  0.70734371040E+03  0.25500000920E-02 0.  1.
</event>
<event>
 5   0  0.1175993E-02  0.9138514E+03  0.7818609E-02  0.9408430E-01
        1   -1    0    0  501    0  0.00000000000E+00  0.00000000000E+00  0.64271720214E+03  0.64271720216E+03  0.50400001928E-02 0.  1.
       -1   -1    0    0    0  501  0.00000000000E+00  0.00000000000E+00 -0.32484128203E+03  0.32484128207E+03  0.50400001928E-02 0. -1.
    10030    2    1    2    0    0  0.00000000000E+00  0.00000000000E+00  0.31787592011E+03  0.96755848423E+03  0.91385136637E+03 0.  0.
        4    1    3    3  502    0  0.38859438339E+03 -0.31529078768E+02 -0.93351175567E+02  0.40089366731E+03  0.12699999809E+01 0. -1.
       -4    1    3    3    0  502 -0.38859438339E+03  0.31529078768E+02  0.41122709568E+03  0.56666481692E+03  0.12699999809E+01 0.  1.
</event>
<event>
 5   0  0.1175993E-02  0.8946351E+03  0.7818609E-02  0.9432313E-01
       -1   -1    0    0    0  501  0.00000000000E+00  0.00000000000E+00  0.66384579048E+03  0.66384579050E+03  0.50400001928E-02 0. -1.
        1   -1    0    0  501    0  0.00000000000E+00  0.00000000000E+00 -0.30141489843E+03  0.30141489847E+03  0.50400001928E-02 0.  1.
    10030    2    1    2    0    0  0.00000000000E+00  0.00000000000E+00  0.36243089206E+03  0.96526068897E+03  0.89463514695E+03 0.  0.
        4    1    3    3  502    0 -0.76110547725E+02  0.25196983777E+03 -0.20901286824E+03  0.33610951580E+03  0.12699999809E+01 0.  1.
       -4    1    3    3    0  502  0.76110547725E+02 -0.25196983777E+03  0.57144376030E+03  0.62915117317E+03  0.12699999809E+01 0. -1.
</event>
<event>
 5   0  0.1226424E-02  0.8906862E+03  0.7818609E-02  0.9437300E-01
        1   -1    0    0  501    0  0.00000000000E+00  0.00000000000E+00  0.29259243797E+03  0.29259243801E+03  0.50400001928E-02 0. -1.
       -1   -1    0    0    0  501  0.00000000000E+00  0.00000000000E+00 -0.67783869805E+03  0.67783869807E+03  0.50400001928E-02 0.  1.
    10030    2    1    2    0    0  0.00000000000E+00  0.00000000000E+00 -0.38524626008E+03  0.97043113608E+03  0.89068620117E+03 0.  0.
        1    1    3    3  502    0  0.40163999163E+03 -0.11325164889E+03 -0.36207901698E+03  0.55248695316E+03  0.50400001928E-02 0.  1.
       -1    1    3    3    0  502 -0.40163999163E+03  0.11325164889E+03 -0.23167243106E+02  0.41794418292E+03  0.50400001928E-02 0. -1.
</event>
<event>
 5   0  0.1968763E-02  0.8838788E+03  0.7818609E-02  0.9445961E-01
       -2   -1    0    0    0  501  0.00000000000E+00  0.00000000000E+00  0.17905092335E+03  0.17905092337E+03  0.25500000920E-02 0. -1.
        2   -1    0    0  501    0  0.00000000000E+00  0.00000000000E+00 -0.10908094594E+04  0.10908094594E+04  0.25500000920E-02 0.  1.
    10030    2    1    2    0    0  0.00000000000E+00  0.00000000000E+00 -0.91175853601E+03  0.12698603827E+04  0.88387881729E+03 0.  0.
        2    1    3    3  502    0  0.37863766388E+03 -0.47359788398E+02 -0.13558743922E+03  0.40496096571E+03  0.25500000920E-02 0. -1.
       -2    1    3    3    0  502 -0.37863766388E+03  0.47359788398E+02 -0.77617109679E+03  0.86489941702E+03  0.25500000920E-02 0.  1.
</event>
<event>
 5   0  0.1226424E-02  0.8772359E+03  0.7818609E-02  0.9454494E-01
       -1   -1    0    0    0  501  0.00000000000E+00  0.00000000000E+00  0.40463069638E+03  0.40463069641E+03  0.50400001928E-02 0.  1.
        1   -1    0    0  501    0  0.00000000000E+00  0.00000000000E+00 -0.47546002067E+03  0.47546002070E+03  0.50400001928E-02 0. -1.
    10030    2    1    2    0    0  0.00000000000E+00  0.00000000000E+00 -0.70829324293E+02  0.88009071711E+03  0.87723593016E+03 0.  0.
        1    1    3    3  502    0 -0.16130685876E+02  0.30007026286E+03 -0.35595928928E+03  0.46584265297E+03  0.50400001928E-02 0. -1.
       -1    1    3    3    0  502  0.16130685876E+02 -0.30007026286E+03  0.28512996499E+03  0.41424806413E+03  0.50400001928E-02 0.  1.
</event>
<event>
 5   0  0.1175993E-02  0.9008886E+03  0.7818609E-02  0.9424471E-01
       -1   -1    0    0    0  501  0.00000000000E+00  0.00000000000E+00  0.30151387661E+03  0.30151387666E+03  0.50400001928E-02 0.  1.
        1   -1    0    0  501    0  0.00000000000E+00  0.00000000000E+00 -0.67293778280E+03  0.67293778282E+03  0.50400001928E-02 0. -1.
    10030    2    1    2    0    0  0.00000000000E+00  0.00000000000E+00 -0.37142390618E+03  0.97445165947E+03  0.90088862717E+03 0.  0.
        4    1    3    3  502    0  0.27669235578E+03  0.68407158483E+02  0.19156786927E+03  0.34342111251E+03  0.12699999809E+01 0.  1.
       -4    1    3    3    0  502 -0.27669235578E+03 -0.68407158483E+02 -0.56299177545E+03  0.63103054697E+03  0.12699999809E+01 0. -1.
</event>
<event>
 5   0  0.2041861E-02  0.9011480E+03  0.7818609E-02  0.9424148E-01
       -2   -1    0    0    0  501  0.00000000000E+00  0.00000000000E+00  0.11087901896E+04  0.11087901896E+04  0.25500000920E-02 0.  1.
        2   -1    0    0  501    0  0.00000000000E+00  0.00000000000E+00 -0.18309768190E+03  0.18309768192E+03  0.25500000920E-02 0. -1.
    10030    2    1    2    0    0  0.00000000000E+00  0.00000000000E+00  0.92569250774E+03  0.12918878716E+04  0.90114796444E+03 0.  0.
        5    1    3    3  502    0  0.21295561577E+03 -0.31732656787E+03  0.80495971211E+03  0.89108275321E+03  0.46999998093E+01 0.  1.
       -5    1    3    3    0  502 -0.21295561577E+03  0.31732656787E+03  0.12073279564E+03  0.40080511836E+03  0.46999998093E+01 0. -1.
</event>
<event>
 5   0  0.2041861E-02  0.9088545E+03  0.7818609E-02  0.9414580E-01
       -2   -1    0    0    0  501  0.00000000000E+00  0.00000000000E+00  0.43070004099E+03  0.43070004100E+03  0.25500000920E-02 0. -1.
        2   -1    0    0  501    0  0.00000000000E+00  0.00000000000E+00 -0.47946163071E+03  0.47946163071E+03  0.25500000920E-02 0.  1.
    10030    2    1    2    0    0  0.00000000000E+00  0.00000000000E+00 -0.48761589717E+02  0.91016167171E+03  0.90885454063E+03 0.  0.
        5    1    3    3  502    0  0.38540699594E+03  0.23571683935E+03 -0.73247215483E+02  0.45769883706E+03  0.46999998093E+01 0. -1.
       -5    1    3    3    0  502 -0.38540699594E+03 -0.23571683935E+03  0.24485625766E+02  0.45246283465E+03  0.46999998093E+01 0.  1.
</event>
<event>
 5   0  0.1206541E-02  0.9059319E+03  0.7818609E-02  0.9418197E-01
       -1   -1    0    0    0  501  0.00000000000E+00  0.00000000000E+00  0.71588414627E+03  0.71588414629E+03  0.50400001928E-02 0. -1.
        1   -1    0    0  501    0  0.00000000000E+00  0.00000000000E+00 -0.28660802055E+03  0.28660802059E+03  0.50400001928E-02 0.  1.
    10030    2    1    2    0    0  0.00000000000E+00  0.00000000000E+00  0.42927612573E+03  0.10024921669E+04  0.90593186970E+03 0.  0.
        3    1    3    3  502    0 -0.98648436467E+02 -0.42815716531E+03  0.92772487979E+02  0.44906215266E+03  0.10100000352E+00 0.  1.
       -3    1    3    3    0  502  0.98648436467E+02  0.42815716531E+03  0.33650363775E+03  0.55343001422E+03  0.10100000352E+00 0. -1.
</event>
<event>
 5   0  0.1175993E-02  0.8988049E+03  0.7818609E-02  0.9427077E-01
       -1   -1    0    0    0  501  0.00000000000E+00  0.00000000000E+00  0.23254612224E+03  0.23254612229E+03  0.50400001928E-02 0. -1.
        1   -1    0    0  501    0  0.00000000000E+00  0.00000000000E+00 -0.86848380883E+03  0.86848380884E+03  0.50400001928E-02 0.  1.
    10030    2    1    2    0    0  0.00000000000E+00  0.00000000000E+00 -0.63593768659E+03  0.11010299311E+04  0.89880485537E+03 0.  0.
        4    1    3    3  502    0  0.20017288425E+03  0.23510003474E+03 -0.71796192759E+03  0.78154472188E+03  0.12699999809E+01 0.  1.
       -4    1    3    3    0  502 -0.20017288425E+03 -0.23510003474E+03  0.82024241003E+02  0.31948520926E+03  0.12699999809E+01 0. -1.
</event>
<event>
 5   0  0.1162839E-02  0.9012964E+03  0.7818609E-02  0.9423962E-01
        1   -1    0    0  501    0  0.00000000000E+00  0.00000000000E+00  0.84889546853E+03  0.84889546855E+03  0.50400001928E-02 0. -1.
       -1   -1    0    0    0  501  0.00000000000E+00  0.00000000000E+00 -0.23923296724E+03  0.23923296730E+03  0.50400001928E-02 0.  1.
    10030    2    1    2    0    0  0.00000000000E+00  0.00000000000E+00  0.60966250129E+03  0.10881284358E+04  0.90129635937E+03 0.  0.
        2    1    3    3  502    0  0.34538048868E+03  0.28681231696E+03  0.25753380437E+03  0.51756414821E+03  0.25500000920E-02 0.  1.
       -2    1    3    3    0  502 -0.34538048868E+03 -0.28681231696E+03  0.35212869692E+03  0.57056428763E+03  0.25500000920E-02 0. -1.
</event>
<event>
 5   0  0.1924218E-02  0.9056587E+03  0.7818609E-02  0.9418535E-01
        2   -1    0    0  501    0  0.00000000000E+00  0.00000000000E+00  0.12829393837E+04  0.12829393837E+04  0.25500000920E-02 0. -1.
       -2   -1    0    0    0  501  0.00000000000E+00  0.00000000000E+00 -0.15983173492E+03  0.15983173494E+03  0.25500000920E-02 0.  1.
    10030    2    1    2    0    0  0.00000000000E+00  0.00000000000E+00  0.11231076488E+04  0.14427711186E+04  0.90565871610E+03 0.  0.
        4    1    3    3  502    0  0.43096012687E+03  0.71569355939E+02  0.37169168593E+03  0.57358968431E+03  0.12699999809E+01 0.  1.
       -4    1    3    3    0  502 -0.43096012687E+03 -0.71569355939E+02  0.75141596285E+03  0.86918143433E+03  0.12699999809E+01 0. -1.
</event>
<event>
 5   0  0.1177712E-02  0.8978346E+03  0.7818609E-02  0.9428292E-01
       -1   -1    0    0    0  501  0.00000000000E+00  0.00000000000E+00  0.36208402300E+03  0.36208402304E+03  0.50400001928E-02 0. -1.
        1   -1    0    0  501    0  0.00000000000E+00  0.00000000000E+00 -0.55657446120E+03  0.55657446123E+03  0.50400001928E-02 0.  1.
    10030    2    1    2    0    0  0.00000000000E+00  0.00000000000E+00 -0.19449043820E+03  0.91865848426E+03  0.89783455055E+03 0.  0.
        5    1    3    3  502    0  0.30631515320E+03  0.95264784456E+02  0.22404451243E+03  0.39130855572E+03  0.46999998093E+01 0. -1.
       -5    1    3    3    0  502 -0.30631515320E+03 -0.95264784456E+02 -0.41853495063E+03  0.52734992854E+03  0.46999998093E+01 0.  1.
</event>
<event>
 5   0  0.1206541E-02  0.9081925E+03  0.7818609E-02  0.9415398E-01
       -1   -1    0    0    0  501  0.00000000000E+00  0.00000000000E+00  0.90056936452E+03  0.90056936453E+03  0.50400001928E-02 0. -1.
        1   -1    0    0  501    0  0.00000000000E+00  0.00000000000E+00 -0.22897005041E+03  0.22897005046E+03  0.50400001928E-02 0.  1.
    10030    2    1    2    0    0  0.00000000000E+00  0.00000000000E+00  0.67159931411E+03  0.11295394150E+04  0.90819251887E+03 0.  0.
        3    1    3    3  502    0 -0.21396710691E+03  0.33772992032E+03  0.68009201972E+02  0.40554738770E+03  0.10100000352E+00 0.  1.
       -3    1    3    3    0  502  0.21396710691E+03 -0.33772992032E+03  0.60359011214E+03  0.72399202730E+03  0.10100000352E+00 0. -1.
</event>
<event>
 5   0  0.1968763E-02  0.7832912E+03  0.7818609E-02  0.9584522E-01
        2   -1    0    0  501    0  0.00000000000E+00  0.00000000000E+00  0.39723028126E+03  0.39723028127E+03  0.25500000920E-02 0. -1.
       -2   -1    0    0    0  501  0.00000000000E+00  0.00000000000E+00 -0.38613946530E+03  0.38613946531E+03  0.25500000920E-02 0.  1.
    10030    2    1    2    0    0  0.00000000000E+00  0.00000000000E+00  0.11090815962E+02  0.78336974658E+03  0.78329123170E+03 0.  0.
        2    1    3    3  502    0  0.17023578619E+03  0.64784769201E+02 -0.34120104003E+03  0.38677569591E+03  0.25500000920E-02 0.  1.
       -2    1    3    3    0  502 -0.17023578619E+03 -0.64784769201E+02  0.35229185600E+03  0.39659405067E+03  0.25500000920E-02 0. -1.
</event>
<event>
 5   0  0.2041861E-02  0.8249593E+03  0.7818609E-02  0.9524576E-01
        2   -1    0    0  501    0  0.00000000000E+00  0.00000000000E+00  0.46597430089E+03  0.46597430089E+03  0.25500000920E-02 0.  1.
       -2   -1    0    0    0  501  0.00000000000E+00  0.00000000000E+00 -0.36512624206E+03  0.36512624207E+03  0.25500000920E-02 0. -1.
    10030    2    1    2    0    0  0.00000000000E+00  0.00000000000E+00  0.10084805882E+03  0.83110054297E+03  0.82495926054E+03 0.  0.
        5    1    3    3  502    0 -0.33693367372E+03 -0.21064631556E+02 -0.18829848337E+03  0.38658301570E+03  0.46999998093E+01 0. -1.
       -5    1    3    3    0  502  0.33693367372E+03  0.21064631556E+02  0.28914654219E+03  0.44451752727E+03  0.46999998093E+01 0.  1.
</event>
<event>
 5   0  0.2008643E-02  0.9157824E+03  0.7818609E-02  0.9406065E-01
        2   -1    0    0  501    0  0.00000000000E+00  0.00000000000E+00  0.60715062361E+03  0.60715062362E+03  0.25500000920E-02 0.  1.
       -2   -1    0    0    0  501  0.00000000000E+00  0.00000000000E+00 -0.34532513844E+03  0.34532513845E+03  0.25500000920E-02 0. -1.
    10030    2    1    2    0    0  0.00000000000E+00  0.00000000000E+00  0.26182548517E+03  0.95247576207E+03  0.91578244831E+03 0.  0.
        3    1    3    3  502    0 -0.66163343501E+01  0.18260069537E+03 -0.30576408707E+03  0.35620005189E+03  0.10100000352E+00 0. -1.
       -3    1    3    3    0  502  0.66163343501E+01 -0.18260069537E+03  0.56758957224E+03  0.59627571017E+03  0.10100000352E+00 0.  1.
</event>
<event>
 5   0  0.7893875E-03  0.8961030E+03  0.7818609E-02  0.9430466E-01
        4   -1    0    0  501    0  0.00000000000E+00  0.00000000000E+00  0.23025698525E+03  0.23026048761E+03  0.12699999809E+01 0. -1.
       -4   -1    0    0    0  501  0.00000000000E+00  0.00000000000E+00 -0.87184194336E+03  0.87184286835E+03  0.12699999809E+01 0.  1.
    10030    2    1    2    0    0  0.00000000000E+00  0.00000000000E+00 -0.64158495811E+03  0.11021033560E+04  0.89610297888E+03 0.  0.
        3    1    3    3  502    0  0.90885632451E+02 -0.42246203429E+03 -0.46639627753E+03  0.63581433335E+03  0.10100000352E+00 0.  1.
       -3    1    3    3    0  502 -0.90885632451E+02  0.42246203429E+03 -0.17518868059E+03  0.46628902261E+03  0.10100000352E+00 0. -1.
</event>
<event>
 5   0  0.2008643E-02  0.9119230E+03  0.7818609E-02  0.9410799E-01
       -2   -1    0    0    0  501  0.00000000000E+00  0.00000000000E+00  0.88165352320E+03  0.88165352320E+03  0.25500000920E-02 0. -1.
        2   -1    0    0  501    0  0.00000000000E+00  0.00000000000E+00 -0.23580791291E+03  0.23580791293E+03  0.25500000920E-02 0.  1.
    10030    2    1    2    0    0  0.00000000000E+00  0.00000000000E+00  0.64584561029E+03  0.11174614361E+04  0.91192297312E+03 0.  0.
        3    1    3    3  502    0  0.69764083116E+02 -0.37123523763E+03  0.99843611694E+01  0.37786548747E+03  0.10100000352E+00 0.  1.
       -3    1    3    3    0  502 -0.69764083116E+02  0.37123523763E+03  0.63586124912E+03  0.73959594866E+03  0.10100000352E+00 0. -1.
</event>
<event>
 5   0  0.1177712E-02  0.9017934E+03  0.7818609E-02  0.9423342E-01
       -1   -1    0    0    0  501  0.00000000000E+00  0.00000000000E+00  0.60362676999E+03  0.60362677001E+03  0.50400001928E-02 0. -1.
        1   -1    0    0  501    0  0.00000000000E+00  0.00000000000E+00 -0.33681053398E+03  0.33681053402E+03  0.50400001928E-02 0.  1.
    10030    2    1    2    0    0  0.00000000000E+00  0.00000000000E+00  0.26681623602E+03  0.94043730403E+03  0.90179344587E+03 0.  0.
        5    1    3    3  502    0 -0.18170201806E+03  0.36662246610E+03 -0.64068855710E+02  0.41419145849E+03  0.46999998093E+01 0.  1.
       -5    1    3    3    0  502  0.18170201806E+03 -0.36662246610E+03  0.33088509173E+03  0.52624584554E+03  0.46999998093E+01 0. -1.
</event>
<event>
 5   0  0.1206541E-02  0.8858513E+03  0.7818609E-02  0.9443443E-01
       -1   -1    0    0    0  501  0.00000000000E+00  0.00000000000E+00  0.16705617447E+03  0.16705617455E+03  0.50400001928E-02 0.  1.
        1   -1    0    0  501    0  0.00000000000E+00  0.00000000000E+00 -0.11743543498E+04  0.11743543498E+04  0.50400001928E-02 0. -1.
    10030    2    1    2    0    0  0.00000000000E+00  0.00000000000E+00 -0.10072981753E+04  0.13414105244E+04  0.88585133113E+03 0.  0.
        3    1    3    3  502    0  0.76630960293E+02 -0.18358114156E+03 -0.11029003283E+04  0.11206977665E+04  0.10100000352E+00 0. -1.
       -3    1    3    3    0  502 -0.76630960293E+02  0.18358114156E+03  0.95602152954E+02  0.22071275782E+03  0.10100000352E+00 0.  1.
</event>
<event>
 5   0  0.7893875E-03  0.9160946E+03  0.7818609E-02  0.9405683E-01
        3   -1    0    0  501    0  0.00000000000E+00  0.00000000000E+00  0.69179142580E+03  0.69179143318E+03  0.10100000352E+00 0.  1.
       -3   -1    0    0    0  501  0.00000000000E+00  0.00000000000E+00 -0.30328115600E+03  0.30328117282E+03  0.10100000352E+00 0. -1.
    10030    2    1    2    0    0  0.00000000000E+00  0.00000000000E+00  0.38851026980E+03  0.99507260599E+03  0.91609457015E+03 0.  0.
        1    1    3    3  502    0 -0.45200634833E+03  0.21776516148E+02  0.11726916207E+03  0.46747835457E+03  0.50400001928E-02 0.  1.
       -1    1    3    3    0  502  0.45200634833E+03 -0.21776516148E+02  0.27124110773E+03  0.52759425143E+03  0.50400001928E-02 0. -1.
</event>
<event>
 5   0  0.1175993E-02  0.8906371E+03  0.7818609E-02  0.9437362E-01
       -1   -1    0    0    0  501  0.00000000000E+00  0.00000000000E+00  0.11130868048E+04  0.11130868048E+04  0.50400001928E-02 0.  1.
        1   -1    0    0  501    0  0.00000000000E+00  0.00000000000E+00 -0.17816095873E+03  0.17816095880E+03  0.50400001928E-02 0. -1.
    10030    2    1    2    0    0  0.00000000000E+00  0.00000000000E+00  0.93492584610E+03  0.12912477636E+04  0.89063710310E+03 0.  0.
        4    1    3    3  502    0  0.32290950602E+03 -0.13585373633E+02  0.23312269261E+02  0.32403732231E+03  0.12699999809E+01 0. -1.
       -4    1    3    3    0  502 -0.32290950602E+03  0.13585373633E+02  0.91161357684E+03  0.96721044134E+03  0.12699999809E+01 0.  1.
</event>
<event>
 5   0  0.1924218E-02  0.8913341E+03  0.7818609E-02  0.9436480E-01
        2   -1    0    0  501    0  0.00000000000E+00  0.00000000000E+00  0.99823869603E+03  0.99823869604E+03  0.25500000920E-02 0.  1.
       -2   -1    0    0    0  501  0.00000000000E+00  0.00000000000E+00 -0.19896954430E+03  0.19896954432E+03  0.25500000920E-02 0. -1.
    10030    2    1    2    0    0  0.00000000000E+00  0.00000000000E+00  0.79926915173E+03  0.11972082404E+04  0.89133405290E+03 0.  0.
        4    1    3    3  502    0 -0.68346614545E+02 -0.43987300984E+03  0.42837832910E+03  0.61779376028E+03  0.12699999809E+01 0. -1.
       -4    1    3    3    0  502  0.68346614545E+02  0.43987300984E+03  0.37089082264E+03  0.57941448007E+03  0.12699999809E+01 0.  1.
</event>
<event>
 5   0  0.1175993E-02  0.8944154E+03  0.7818609E-02  0.9432590E-01
       -1   -1    0    0    0  501  0.00000000000E+00  0.00000000000E+00  0.67830976015E+03  0.67830976017E+03  0.50400001928E-02 0.  1.
        1   -1    0    0  501    0  0.00000000000E+00  0.00000000000E+00 -0.29484276110E+03  0.29484276114E+03  0.50400001928E-02 0. -1.
    10030    2    1    2    0    0  0.00000000000E+00  0.00000000000E+00  0.38346699905E+03  0.97315252131E+03  0.89441539028E+03 0.  0.
        4    1    3    3  502    0 -0.36210770978E+03  0.26235014347E+03  0.19891108299E+03  0.48940455974E+03  0.12699999809E+01 0. -1.
       -4    1    3    3    0  502  0.36210770978E+03 -0.26235014347E+03  0.18455591607E+03  0.48374796157E+03  0.12699999809E+01 0.  1.
</event>
<event>
 5   0  0.2041861E-02  0.8944663E+03  0.7818609E-02  0.9432525E-01
       -2   -1    0    0    0  501  0.00000000000E+00  0.00000000000E+00  0.17921231202E+03  0.17921231204E+03  0.25500000920E-02 0. -1.
        2   -1    0    0  501    0  0.00000000000E+00  0.00000000000E+00 -0.11160923069E+04  0.11160923069E+04  0.25500000920E-02 0.  1.
    10030    2    1    2    0    0  0.00000000000E+00  0.00000000000E+00 -0.93687999489E+03  0.12953046190E+04  0.89446628279E+03 0.  0.
        5    1    3    3  502    0 -0.10426479180E+03 -0.97967908816E+02  0.14514151271E+03  0.20385535725E+03  0.46999998093E+01 0. -1.
       -5    1    3    3    0  502  0.10426479180E+03  0.97967908816E+02 -0.10820215076E+04  0.10914492617E+04  0.46999998093E+01 0.  1.
</event>
<event>
 5   0  0.1206541E-02  0.9222164E+03  0.7818609E-02  0.9398228E-01
        1   -1    0    0  501    0  0.00000000000E+00  0.00000000000E+00  0.20859062373E+03  0.20859062379E+03  0.50400001928E-02 0. -1.
       -1   -1    0    0    0  501  0.00000000000E+00  0.00000000000E+00 -0.10193207610E+04  0.10193207610E+04  0.50400001928E-02 0.  1.
    10030    2    1    2    0    0  0.00000000000E+00  0.00000000000E+00 -0.81073013724E+03  0.12279113848E+04  0.92221635934E+03 0.  0.
        3    1    3    3  502    0  0.42148922210E+03 -0.11460576383E+03 -0.20862542371E+03  0.48405807820E+03  0.10100000352E+00 0. -1.
       -3    1    3    3    0  502 -0.42148922210E+03  0.11460576383E+03 -0.60210471353E+03  0.74385330658E+03  0.10100000352E+00 0.  1.
</event>
<event>
 5   0  0.1968763E-02  0.8697503E+03  0.7818609E-02  0.9464206E-01
       -2   -1    0    0    0  501  0.00000000000E+00  0.00000000000E+00  0.11804775971E+03  0.11804775974E+03  0.25500000920E-02 0.  1.
        2   -1    0    0  501    0  0.00000000000E+00  0.00000000000E+00 -0.16020329839E+04  0.16020329839E+04  0.25500000920E-02 0. -1.
    10030    2    1    2    0    0  0.00000000000E+00  0.00000000000E+00 -0.14839852242E+04  0.17200807437E+04  0.86975031995E+03 0.  0.
        2    1    3    3  502    0  0.20017171614E+03  0.36758149975E+03 -0.50856423975E+03  0.65865200285E+03  0.25500000920E-02 0.  1.
       -2    1    3    3    0  502 -0.20017171614E+03 -0.36758149975E+03 -0.97542098446E+03  0.10614287408E+04  0.25500000920E-02 0. -1.
</event>
<event>
 5   0  0.1924218E-02  0.5834859E+03  0.7818609E-02  0.9940272E-01
        2   -1    0    0  501    0  0.00000000000E+00  0.00000000000E+00  0.19068161129E+04  0.19068161129E+04  0.25500000920E-02 0.  1.
       -2   -1    0    0    0  501  0.00000000000E+00  0.00000000000E+00 -0.44636683965E+02  0.44636684037E+02  0.25500000920E-02 0. -1.
    10030    2    1    2    0    0  0.00000000000E+00  0.00000000000E+00  0.18621794289E+04  0.19514527969E+04  0.58348589797E+03 0.  0.
        4    1    3    3  502    0 -0.12972317350E+03  0.18563084979E+03  0.15461947656E+04  0.15626921578E+04  0.12699999809E+01 0.  1.
       -4    1    3    3    0  502  0.12972317350E+03 -0.18563084979E+03  0.31598466333E+03  0.38876063908E+03  0.12699999809E+01 0. -1.
</event>
<event>
 5   0  0.1968763E-02  0.9122862E+03  0.7818609E-02  0.9410352E-01
       -2   -1    0    0    0  501  0.00000000000E+00  0.00000000000E+00  0.16213120887E+03  0.16213120889E+03  0.25500000920E-02 0.  1.
        2   -1    0    0  501    0  0.00000000000E+00  0.00000000000E+00 -0.12833219911E+04  0.12833219911E+04  0.25500000920E-02 0. -1.
    10030    2    1    2    0    0  0.00000000000E+00  0.00000000000E+00 -0.11211907822E+04  0.14454532000E+04  0.91228623973E+03 0.  0.
        2    1    3    3  502    0  0.19312787278E+03 -0.24222874232E+03 -0.30122805061E+02  0.31125636097E+03  0.25500000920E-02 0. -1.
       -2    1    3    3    0  502 -0.19312787278E+03  0.24222874232E+03 -0.10910679771E+04  0.11341968390E+04  0.25500000920E-02 0.  1.
</event>
<event>
 5   0  0.1175993E-02  0.5596842E+03  0.7818609E-02  0.9992769E-01
       -1   -1    0    0    0  501  0.00000000000E+00  0.00000000000E+00  0.10850005463E+03  0.10850005475E+03  0.50400001928E-02 0.  1.
        1   -1    0    0  501    0  0.00000000000E+00  0.00000000000E+00 -0.72176560834E+03  0.72176560836E+03  0.50400001928E-02 0. -1.
    10030    2    1    2    0    0  0.00000000000E+00  0.00000000000E+00 -0.61326555371E+03  0.83026566311E+03  0.55968422523E+03 0.  0.
        4    1    3    3  502    0  0.10571816294E+03 -0.13771515016E+03 -0.63221016220E+03  0.65561657594E+03  0.12699999809E+01 0. -1.
       -4    1    3    3    0  502 -0.10571816294E+03  0.13771515016E+03  0.18944608485E+02  0.17464908717E+03  0.12699999809E+01 0.  1.
</event>
<event>
 5   0  0.2041861E-02  0.8847489E+03  0.7818609E-02  0.9444849E-01
        2   -1    0    0  501    0  0.00000000000E+00  0.00000000000E+00  0.59700480428E+03  0.59700480428E+03  0.25500000920E-02 0.  1.
       -2   -1    0    0    0  501  0.00000000000E+00  0.00000000000E+00 -0.32779495281E+03  0.32779495282E+03  0.25500000920E-02 0. -1.
    10030    2    1    2    0    0  0.00000000000E+00  0.00000000000E+00  0.26920985146E+03  0.92479975710E+03  0.88474891727E+03 0.  0.
        5    1    3    3  502    0 -0.99910759533E+01  0.38835618490E+03 -0.86519848893E+02  0.39803030311E+03  0.46999998093E+01 0. -1.
       -5    1    3    3    0  502  0.99910759533E+01 -0.38835618490E+03  0.35572970036E+03  0.52676945399E+03  0.46999998093E+01 0.  1.
</event>
<event>
 5   0  0.1162839E-02  0.6914467E+03  0.7818609E-02  0.9731972E-01
        1   -1    0    0  501    0  0.00000000000E+00  0.00000000000E+00  0.37476857527E+03  0.37476857530E+03  0.50400001928E-02 0. -1.
       -1   -1    0    0    0  501  0.00000000000E+00  0.00000000000E+00 -0.31892917563E+03  0.31892917567E+03  0.50400001928E-02 0.  1.
    10030    2    1    2    0    0  0.00000000000E+00  0.00000000000E+00  0.55839399635E+02  0.69369775097E+03  0.69144669437E+03 0.  0.
        2    1    3    3  502    0  0.83606399671E+02 -0.21922887163E+03 -0.22682288253E+03  0.32634329818E+03  0.25500000920E-02 0.  1.
       -2    1    3    3    0  502 -0.83606399671E+02  0.21922887163E+03  0.28266228216E+03  0.36735445279E+03  0.25500000920E-02 0. -1.
</event>
<event>
 5   0  0.1175993E-02  0.9098688E+03  0.7818609E-02  0.9413328E-01
       -1   -1    0    0    0  501  0.00000000000E+00  0.00000000000E+00  0.16398312393E+03  0.16398312400E+03  0.50400001928E-02 0. -1.
        1   -1    0    0  501    0  0.00000000000E+00  0.00000000000E+00 -0.12621134908E+04  0.12621134908E+04  0.50400001928E-02 0.  1.
    10030    2    1    2    0    0  0.00000000000E+00  0.00000000000E+00 -0.10981303669E+04  0.14260966148E+04  0.90986881040E+03 0.  0.
        4    1    3    3  502    0 -0.21571613973E+03 -0.10324317750E+03 -0.11556397147E+04  0.11801259974E+04  0.12699999809E+01 0.  1.
       -4    1    3    3    0  502  0.21571613973E+03  0.10324317750E+03  0.57509347837E+02  0.24597061741E+03  0.12699999809E+01 0. -1.
</event>
<event>
 5   0  0.1177712E-02  0.9015946E+03  0.7818609E-02  0.9423590E-01
        1   -1    0    0  501    0  0.00000000000E+00  0.00000000000E+00  0.89197107054E+03  0.89197107056E+03  0.50400001928E-02 0. -1.
       -1   -1    0    0    0  501  0.00000000000E+00  0.00000000000E+00 -0.22783051039E+03  0.22783051045E+03  0.50400001928E-02 0.  1.
    10030    2    1    2    0    0  0.00000000000E+00  0.00000000000E+00  0.66414056015E+03  0.11198015810E+04  0.90159464128E+03 0.  0.
        5    1    3    3  502    0 -0.12823309548E+03 -0.40945878897E+03  0.50370292986E+03  0.66169400646E+03  0.46999998093E+01 0. -1.
       -5    1    3    3    0  502  0.12823309548E+03  0.40945878897E+03  0.16043763030E+03  0.45810757454E+03  0.46999998093E+01 0.  1.
</event>
<event>
 5   0  0.1162839E-02  0.8295734E+03  0.7818609E-02  0.9518171E-01
        1   -1    0    0  501    0  0.00000000000E+00  0.00000000000E+00  0.16641338654E+03  0.16641338661E+03  0.50400001928E-02 0. -1.
       -1   -1    0    0    0  501  0.00000000000E+00  0.00000000000E+00 -0.10338591544E+04  0.10338591544E+04  0.50400001928E-02 0.  1.
    10030    2    1    2    0    0  0.00000000000E+00  0.00000000000E+00 -0.86744576786E+03  0.12002725410E+04  0.82957339190E+03 0.  0.
        2    1    3    3  502    0  0.13145955481E+03 -0.21930594476E+03 -0.90627404311E+03  0.94165245881E+03  0.25500000920E-02 0.  1.
       -2    1    3    3    0  502 -0.13145955481E+03  0.21930594476E+03  0.38828275247E+02  0.25862008221E+03  0.25500000920E-02 0. -1.
</event>
<event>
 5   0  0.2008770E-02  0.6914086E+03  0.7818609E-02  0.9732038E-01
        2   -1    0    0  501    0  0.00000000000E+00  0.00000000000E+00  0.77066044330E+03  0.77066044330E+03  0.25500000920E-02 0.  1.
       -2   -1    0    0    0  501  0.00000000000E+00  0.00000000000E+00 -0.15507668104E+03  0.15507668106E+03  0.25500000920E-02 0. -1.
    10030    2    1    2    0    0  0.00000000000E+00  0.00000000000E+00  0.61558376225E+03  0.92573712436E+03  0.69140860211E+03 0.  0.
        1    1    3    3  502    0 -0.28599509007E+03  0.18490612133E+03  0.22826442375E+03  0.40998550270E+03  0.50400001928E-02 0.  1.
       -1    1    3    3    0  502  0.28599509007E+03 -0.18490612133E+03  0.38731933851E+03  0.51575162167E+03  0.50400001928E-02 0. -1.
</event>
<event>
 5   0  0.1175993E-02  0.8884654E+03  0.7818609E-02  0.9440116E-01
       -1   -1    0    0    0  501  0.00000000000E+00  0.00000000000E+00  0.23236825784E+04  0.23236825784E+04  0.50400001928E-02 0.  1.
        1   -1    0    0  501    0  0.00000000000E+00  0.00000000000E+00 -0.84926703629E+02  0.84926703779E+02  0.50400001928E-02 0. -1.
    10030    2    1    2    0    0  0.00000000000E+00  0.00000000000E+00  0.22387558747E+04  0.24086092821E+04  0.88846542273E+03 0.  0.
        4    1    3    3  502    0  0.15093087117E+03 -0.19806534852E+03  0.21166751310E+04  0.21312731485E+04  0.12699999809E+01 0.  1.
       -4    1    3    3    0  502 -0.15093087117E+03  0.19806534852E+03  0.12208074368E+03  0.27733613366E+03  0.12699999809E+01 0. -1.
</event>
<event>
 5   0  0.2008643E-02  0.9261191E+03  0.7818609E-02  0.9393508E-01
       -2   -1    0    0    0  501  0.00000000000E+00  0.00000000000E+00  0.18007799347E+03  0.18007799349E+03  0.25500000920E-02 0. -1.
        2   -1    0    0  501    0  0.00000000000E+00  0.00000000000E+00 -0.11907293172E+04  0.11907293172E+04  0.25500000920E-02 0.  1.
    10030    2    1    2    0    0  0.00000000000E+00  0.00000000000E+00 -0.10106513238E+04  0.13708073107E+04  0.92611909866E+03 0.  0.
        3    1    3    3  502    0  0.33763386581E+03 -0.27902895737E+03 -0.72769695158E+03  0.84935072257E+03  0.10100000352E+00 0.  1.
       -3    1    3    3    0  502 -0.33763386581E+03  0.27902895737E+03 -0.28295437219E+03  0.52145658815E+03  0.10100000352E+00 0. -1.
</event>
<event>
 5   0  0.2008770E-02  0.8885592E+03  0.7818609E-02  0.9439997E-01
        2   -1    0    0  501    0  0.00000000000E+00  0.00000000000E+00  0.14789919614E+04  0.14789919614E+04  0.25500000920E-02 0.  1.
       -2   -1    0    0    0  501  0.00000000000E+00  0.00000000000E+00 -0.13345872162E+03  0.13345872165E+03  0.25500000920E-02 0. -1.
    10030    2    1    2    0    0  0.00000000000E+00  0.00000000000E+00  0.13455332397E+04  0.16124506830E+04  0.88855923039E+03 0.  0.
        1    1    3    3  502    0 -0.24171321811E+03 -0.31338552349E+03  0.30645013852E+03  0.50054715419E+03  0.50400001928E-02 0. -1.
       -1    1    3    3    0  502  0.24171321811E+03  0.31338552349E+03  0.10390831012E+04  0.11119035288E+04  0.50400001928E-02 0.  1.
</event>
<event>
 5   0  0.2008770E-02  0.8655752E+03  0.7818609E-02  0.9469668E-01
       -2   -1    0    0    0  501  0.00000000000E+00  0.00000000000E+00  0.11349525038E+03  0.11349525041E+03  0.25500000920E-02 0.  1.
        2   -1    0    0  501    0  0.00000000000E+00  0.00000000000E+00 -0.16503341393E+04  0.16503341393E+04  0.25500000920E-02 0. -1.
    10030    2    1    2    0    0  0.00000000000E+00  0.00000000000E+00 -0.15368388889E+04  0.17638293897E+04  0.86557515302E+03 0.  0.
        1    1    3    3  502    0 -0.54654309372E+02  0.42075061662E+03 -0.94236908637E+03  0.10334784322E+04  0.50400001928E-02 0.  1.
       -1    1    3    3    0  502  0.54654309372E+02 -0.42075061662E+03 -0.59446980250E+03  0.73035095744E+03  0.50400001928E-02 0. -1.
</event>
<event>
 5   0  0.2041861E-02  0.8847908E+03  0.7818609E-02  0.9444796E-01
        2   -1    0    0  501    0  0.00000000000E+00  0.00000000000E+00  0.17543423363E+04  0.17543423363E+04  0.25500000920E-02 0.  1.
       -2   -1    0    0    0  501  0.00000000000E+00  0.00000000000E+00 -0.11155956889E+03  0.11155956892E+03  0.25500000920E-02 0. -1.
    10030    2    1    2    0    0  0.00000000000E+00  0.00000000000E+00  0.16427827674E+04  0.18659019052E+04  0.88479076569E+03 0.  0.
        5    1    3    3  502    0 -0.95011425081E+02 -0.14546116058E+03  0.16793264038E+04  0.16882965914E+04  0.46999998093E+01 0.  1.
       -5    1    3    3    0  502  0.95011425081E+02  0.14546116058E+03 -0.36543636386E+02  0.17760531380E+03  0.46999998093E+01 0. -1.
</event>
<event>
 5   0  0.1177712E-02  0.7526852E+03  0.7818609E-02  0.9631147E-01
       -1   -1    0    0    0  501  0.00000000000E+00  0.00000000000E+00  0.50766460098E+03  0.50766460100E+03  0.50400001928E-02 0.  1.
        1   -1    0    0  501    0  0.00000000000E+00  0.00000000000E+00 -0.27899078847E+03  0.27899078851E+03  0.50400001928E-02 0. -1.
    10030    2    1    2    0    0  0.00000000000E+00  0.00000000000E+00  0.22867381251E+03  0.78665538951E+03  0.75268518607E+03 0.  0.
        5    1    3    3  502    0  0.35520859631E+02 -0.40212696505E+02  0.50361577655E+03  0.50648764330E+03  0.46999998093E+01 0.  1.
       -5    1    3    3    0  502 -0.35520859631E+02  0.40212696505E+02 -0.27494196404E+03  0.28016774621E+03  0.46999998093E+01 0. -1.
</event>
<event>
 5   0  0.2008643E-02  0.9092128E+03  0.7818609E-02  0.9414138E-01
       -2   -1    0    0    0  501  0.00000000000E+00  0.00000000000E+00  0.22851638977E+03  0.22851638978E+03  0.25500000920E-02 0.  1.
        2   -1    0    0  501    0  0.00000000000E+00  0.00000000000E+00 -0.90438583639E+03  0.90438583639E+03  0.25500000920E-02 0. -1.
    10030    2    1    2    0    0  0.00000000000E+00  0.00000000000E+00 -0.67586944662E+03  0.11329022262E+04  0.90921281622E+03 0.  0.
        3    1    3    3  502    0  0.28295010220E+03  0.78089825231E+02 -0.77048358355E+03  0.82450211877E+03  0.10100000352E+00 0. -1.
       -3    1    3    3    0  502 -0.28295010220E+03 -0.78089825231E+02  0.94614136926E+02  0.30840010740E+03  0.10100000352E+00 0.  1.
</event>
<event>
 5   0  0.1162839E-02  0.8810867E+03  0.7818609E-02  0.9449538E-01
       -1   -1    0    0    0  501  0.00000000000E+00  0.00000000000E+00  0.19668242898E+03  0.19668242905E+03  0.50400001928E-02 0.  1.
        1   -1    0    0  501    0  0.00000000000E+00  0.00000000000E+00 -0.98676043689E+03  0.98676043690E+03  0.50400001928E-02 0. -1.
    10030    2    1    2    0    0  0.00000000000E+00  0.00000000000E+00 -0.79007800791E+03  0.11834428659E+04  0.88108669175E+03 0.  0.
        2    1    3    3  502    0  0.37552243794E+03 -0.18740920187E+03 -0.57493824611E+03  0.71182392288E+03  0.25500000920E-02 0. -1.
       -2    1    3    3    0  502 -0.37552243794E+03  0.18740920187E+03 -0.21513976180E+03  0.47161894306E+03  0.25500000920E-02 0.  1.
</event>
<event>
 5   0  0.1226424E-02  0.9824367E+03  0.7818609E-02  0.9328020E-01
       -1   -1    0    0    0  501  0.00000000000E+00  0.00000000000E+00  0.43479669720E+03  0.43479669723E+03  0.50400001928E-02 0.  1.
        1   -1    0    0  501    0  0.00000000000E+00  0.00000000000E+00 -0.55496157595E+03  0.55496157597E+03  0.50400001928E-02 0. -1.
    10030    2    1    2    0    0  0.00000000000E+00  0.00000000000E+00 -0.12016487875E+03  0.98975827320E+03  0.98243668563E+03 0.  0.
        1    1    3    3  502    0  0.17612280150E+03 -0.10426606595E+01  0.40189261623E+03  0.43879152607E+03  0.50400001928E-02 0.  1.
       -1    1    3    3    0  502 -0.17612280150E+03  0.10426606595E+01 -0.52205749498E+03  0.55096674713E+03  0.50400001928E-02 0. -1.
</event>
<event>
 5   0  0.1206541E-02  0.8889126E+03  0.7818609E-02  0.9439548E-01
       -1   -1    0    0    0  501  0.00000000000E+00  0.00000000000E+00  0.14434871143E+03  0.14434871152E+03  0.50400001928E-02 0. -1.
        1   -1    0    0  501    0  0.00000000000E+00  0.00000000000E+00 -0.13685012387E+04  0.13685012387E+04  0.50400001928E-02 0.  1.
    10030    2    1    2    0    0  0.00000000000E+00  0.00000000000E+00 -0.12241525272E+04  0.15128499502E+04  0.88891257268E+03 0.  0.
        3    1    3    3  502    0  0.34874401242E+03 -0.10340009287E+03 -0.10467384796E+04  0.11081405237E+04  0.10100000352E+00 0.  1.
       -3    1    3    3    0  502 -0.34874401242E+03  0.10340009287E+03 -0.17741404768E+03  0.40470942653E+03  0.10100000352E+00 0. -1.
</event>
<event>
 5   0  0.1206541E-02  0.9168296E+03  0.7818609E-02  0.9404785E-01
        1   -1    0    0  501    0  0.00000000000E+00  0.00000000000E+00  0.51154777223E+03  0.51154777225E+03  0.50400001928E-02 0. -1.
       -1   -1    0    0    0  501  0.00000000000E+00  0.00000000000E+00 -0.41080059668E+03  0.41080059671E+03  0.50400001928E-02 0.  1.
    10030    2    1    2    0    0  0.00000000000E+00  0.00000000000E+00  0.10074717555E+03  0.92234836896E+03  0.91682960268E+03 0.  0.
        3    1    3    3  502    0 -0.46396231911E+02 -0.15934104367E+03 -0.37951810407E+03  0.41421755160E+03  0.10100000352E+00 0.  1.
       -3    1    3    3    0  502  0.46396231911E+02  0.15934104367E+03  0.48026527963E+03  0.50813081736E+03  0.10100000352E+00 0. -1.
</event>
<event>
 5   0  0.1968763E-02  0.9076200E+03  0.7818609E-02  0.9416106E-01
        2   -1    0    0  501    0  0.00000000000E+00  0.00000000000E+00  0.20766323322E+04  0.20766323322E+04  0.25500000920E-02 0. -1.
       -2   -1    0    0    0  501  0.00000000000E+00  0.00000000000E+00 -0.99171880882E+02  0.99171880914E+02  0.25500000920E-02 0.  1.
    10030    2    1    2    0    0  0.00000000000E+00  0.00000000000E+00  0.19774604513E+04  0.21758042131E+04  0.90762004014E+03 0.  0.
        2    1    3    3  502    0 -0.30449527033E+03 -0.27839923301E+03  0.14418068486E+04  0.14996767956E+04  0.25500000920E-02 0. -1.
       -2    1    3    3    0  502  0.30449527033E+03  0.27839923301E+03  0.53565360270E+03  0.67612741749E+03  0.25500000920E-02 0.  1.
</event>
<event>
 5   0  0.1177712E-02  0.9204808E+03  0.7818609E-02  0.9400335E-01
       -1   -1    0    0    0  501  0.00000000000E+00  0.00000000000E+00  0.44576401437E+03  0.44576401440E+03  0.50400001928E-02 0.  1.
        1   -1    0    0  501    0  0.00000000000E+00  0.00000000000E+00 -0.47518689480E+03  0.47518689482E+03  0.50400001928E-02 0. -1.
    10030    2    1    2    0    0  0.00000000000E+00  0.00000000000E+00 -0.29422880426E+02  0.92095090922E+03  0.92048078269E+03 0.  0.
        5    1    3    3  502    0 -0.18517080994E+03 -0.16374326336E+03  0.37368657485E+03  0.44806677111E+03  0.46999998093E+01 0.  1.
       -5    1    3    3    0  502  0.18517080994E+03  0.16374326336E+03 -0.40310945528E+03  0.47288413811E+03  0.46999998093E+01 0. -1.
</event>
<event>
 5   0  0.2041861E-02  0.9620940E+03  0.7818609E-02  0.9351125E-01
        2   -1    0    0  501    0  0.00000000000E+00  0.00000000000E+00  0.20236028289E+04  0.20236028289E+04  0.25500000920E-02 0.  1.
       -2   -1    0    0    0  501  0.00000000000E+00  0.00000000000E+00 -0.11435356793E+03  0.11435356796E+03  0.25500000920E-02 0. -1.
    10030    2    1    2    0    0  0.00000000000E+00  0.00000000000E+00  0.19092492610E+04  0.21379563969E+04  0.96209397379E+03 0.  0.
        5    1    3    3  502    0 -0.31579720151E+03  0.19867956276E+03  0.27993195333E+03  0.46646053384E+03  0.46999998093E+01 0. -1.
       -5    1    3    3    0  502  0.31579720151E+03 -0.19867956276E+03  0.16293173077E+04  0.16714958631E+04  0.46999998093E+01 0.  1.
</event>
<event>
 5   0  0.7893875E-03  0.8785271E+03  0.7818609E-02  0.9452829E-01
       -4   -1    0    0    0  501  0.00000000000E+00  0.00000000000E+00  0.27849518736E+03  0.27849808308E+03  0.12699999809E+01 0.  1.
        4   -1    0    0  501    0  0.00000000000E+00  0.00000000000E+00 -0.69283240103E+03  0.69283356502E+03  0.12699999809E+01 0. -1.
    10030    2    1    2    0    0  0.00000000000E+00  0.00000000000E+00 -0.41433721367E+03  0.97133164810E+03  0.87852708778E+03 0.  0.
        3    1    3    3  502    0 -0.19272115681E+03 -0.36716211414E+03 -0.36740196299E+03  0.55401595189E+03  0.10100000352E+00 0. -1.
       -3    1    3    3    0  502  0.19272115681E+03  0.36716211414E+03 -0.46935250679E+02  0.41731569621E+03  0.10100000352E+00 0.  1.
</event>
<event>
 5   0  0.7893875E-03  0.9181236E+03  0.7818609E-02  0.9403205E-01
        4   -1    0    0  501    0  0.00000000000E+00  0.00000000000E+00  0.69602059737E+03  0.69602175603E+03  0.12699999809E+01 0. -1.
       -4   -1    0    0    0  501  0.00000000000E+00  0.00000000000E+00 -0.30277236954E+03  0.30277503308E+03  0.12699999809E+01 0.  1.
    10030    2    1    2    0    0  0.00000000000E+00  0.00000000000E+00  0.39324822784E+03  0.99879678911E+03  0.91812355227E+03 0.  0.
        2    1    3    3  502    0  0.26098782344E+03 -0.37228198210E+03  0.12757069068E+03  0.47221054552E+03  0.25500000920E-02 0.  1.
       -2    1    3    3    0  502 -0.26098782344E+03  0.37228198210E+03  0.26567753716E+03  0.52658624359E+03  0.25500000920E-02 0. -1.
</event>
<event>
 5   0  0.1226424E-02  0.9061117E+03  0.7818609E-02  0.9417974E-01
        1   -1    0    0  501    0  0.00000000000E+00  0.00000000000E+00  0.34224075710E+03  0.34224075714E+03  0.50400001928E-02 0.  1.
       -1   -1    0    0    0  501  0.00000000000E+00  0.00000000000E+00 -0.59975211091E+03  0.59975211093E+03  0.50400001928E-02 0. -1.
    10030    2    1    2    0    0  0.00000000000E+00  0.00000000000E+00 -0.25751135380E+03  0.94199286807E+03  0.90611172940E+03 0.  0.
        1    1    3    3  502    0 -0.34136664285E+03  0.21311898832E+03 -0.34510402276E+03  0.53013929734E+03  0.50400001928E-02 0. -1.
       -1    1    3    3    0  502  0.34136664285E+03 -0.21311898832E+03  0.87592668958E+02  0.41185357072E+03  0.50400001928E-02 0.  1.
</event>
<event>
 5   0  0.1162839E-02  0.9037503E+03  0.7818609E-02  0.9420906E-01
        1   -1    0    0  501    0  0.00000000000E+00  0.00000000000E+00  0.52372601866E+03  0.52372601868E+03  0.50400001928E-02 0.  1.
       -1   -1    0    0    0  501  0.00000000000E+00  0.00000000000E+00 -0.38988159381E+03  0.38988159384E+03  0.50400001928E-02 0. -1.
    10030    2    1    2    0    0  0.00000000000E+00  0.00000000000E+00  0.13384442485E+03  0.91360761252E+03  0.90375026395E+03 0.  0.
        2    1    3    3  502    0  0.14822208470E+03 -0.28377340348E+03 -0.25545099929E+03  0.40957580978E+03  0.25500000920E-02 0. -1.
       -2    1    3    3    0  502 -0.14822208470E+03  0.28377340348E+03  0.38929542414E+03  0.50403180274E+03  0.25500000920E-02 0.  1.
</event>
<event>
 5   0  0.2008770E-02  0.9972570E+03  0.7818609E-02  0.9311558E-01
        2   -1    0    0  501    0  0.00000000000E+00  0.00000000000E+00  0.23041034337E+03  0.23041034338E+03  0.25500000920E-02 0. -1.
       -2   -1    0    0    0  501  0.00000000000E+00  0.00000000000E+00 -0.10790765669E+04  0.10790765669E+04  0.25500000920E-02 0.  1.
    10030    2    1    2    0    0  0.00000000000E+00  0.00000000000E+00 -0.84866622353E+03  0.13094869103E+04  0.99725704271E+03 0.  0.
        1    1    3    3  502    0 -0.49709901042E+03  0.53174460416E+01 -0.37356731628E+03  0.62184261772E+03  0.50400001928E-02 0. -1.
       -1    1    3    3    0  502  0.49709901042E+03 -0.53174460416E+01 -0.47509890725E+03  0.68764429256E+03  0.50400001928E-02 0.  1.
</event>
<event>
 5   0  0.2008770E-02  0.8390042E+03  0.7818609E-02  0.9505215E-01
       -2   -1    0    0    0  501  0.00000000000E+00  0.00000000000E+00  0.18279176250E+03  0.18279176252E+03  0.25500000920E-02 0. -1.
        2   -1    0    0  501    0  0.00000000000E+00  0.00000000000E+00 -0.96274587402E+03  0.96274587402E+03  0.25500000920E-02 0.  1.
    10030    2    1    2    0    0  0.00000000000E+00  0.00000000000E+00 -0.77995411152E+03  0.11455376365E+04  0.83900420777E+03 0.  0.
        1    1    3    3  502    0 -0.11946803646E+03  0.10421799768E+03 -0.92026898765E+03  0.93382493671E+03  0.50400001928E-02 0.  1.
       -1    1    3    3    0  502  0.11946803646E+03 -0.10421799768E+03  0.14031487613E+03  0.21171269983E+03  0.50400001928E-02 0. -1.
</event>
<event>
 5   0  0.1177712E-02  0.9081947E+03  0.7818609E-02  0.9415395E-01
        1   -1    0    0  501    0  0.00000000000E+00  0.00000000000E+00  0.39783504068E+03  0.39783504071E+03  0.50400001928E-02 0. -1.
       -1   -1    0    0    0  501  0.00000000000E+00  0.00000000000E+00 -0.51831636474E+03  0.51831636477E+03  0.50400001928E-02 0.  1.
    10030    2    1    2    0    0  0.00000000000E+00  0.00000000000E+00 -0.12048132407E+03  0.91615140548E+03  0.90819471938E+03 0.  0.
        5    1    3    3  502    0 -0.33364219408E+03  0.27490712658E+03 -0.20035055585E+03  0.47650128766E+03  0.46999998093E+01 0.  1.
       -5    1    3    3    0  502  0.33364219408E+03 -0.27490712658E+03  0.79869231786E+02  0.43965011782E+03  0.46999998093E+01 0. -1.
</event>
<event>
 5   0  0.1175993E-02  0.7049853E+03  0.7818609E-02  0.9708744E-01
       -1   -1    0    0    0  501  0.00000000000E+00  0.00000000000E+00  0.25115089987E+03  0.25115089992E+03  0.50400001928E-02 0. -1.
        1   -1    0    0  501    0  0.00000000000E+00  0.00000000000E+00 -0.49472675657E+03  0.49472675659E+03  0.50400001928E-02 0.  1.
    10030    2    1    2    0    0  0.00000000000E+00  0.00000000000E+00 -0.24357585670E+03  0.74587765651E+03  0.70498530517E+03 0.  0.
        4    1    3    3  502    0  0.14261368303E+02  0.12628171563E+03  0.22606716684E+03  0.25934231269E+03  0.12699999809E+01 0. -1.
       -4    1    3    3    0  502 -0.14261368303E+02 -0.12628171563E+03 -0.46964302354E+03  0.48653534382E+03  0.12699999809E+01 0.  1.
</event>
<event>
 5   0  0.2041861E-02  0.5592402E+03  0.7818609E-02  0.9993775E-01
       -2   -1    0    0    0  501  0.00000000000E+00  0.00000000000E+00  0.21233854808E+03  0.21233854810E+03  0.25500000920E-02 0. -1.
        2   -1    0    0  501    0  0.00000000000E+00  0.00000000000E+00 -0.36822049404E+03  0.36822049405E+03  0.25500000920E-02 0.  1.
    10030    2    1    2    0    0  0.00000000000E+00  0.00000000000E+00 -0.15588194595E+03  0.58055904214E+03  0.55924021703E+03 0.  0.
        5    1    3    3  502    0  0.53223033597E+02 -0.15173252777E+03  0.15949132322E+03  0.22652819575E+03  0.46999998093E+01 0.  1.
       -5    1    3    3    0  502 -0.53223033597E+02  0.15173252777E+03 -0.31537326918E+03  0.35403084639E+03  0.46999998093E+01 0. -1.
</event>
<event>
 5   0  0.1177712E-02  0.9011518E+03  0.7818609E-02  0.9424143E-01
       -1   -1    0    0    0  501  0.00000000000E+00  0.00000000000E+00  0.16670210434E+03  0.16670210442E+03  0.50400001928E-02 0.  1.
        1   -1    0    0  501    0  0.00000000000E+00  0.00000000000E+00 -0.12178529385E+04  0.12178529385E+04  0.50400001928E-02 0. -1.
    10030    2    1    2    0    0  0.00000000000E+00  0.00000000000E+00 -0.10511508342E+04  0.13845550430E+04  0.90115181339E+03 0.  0.
        5    1    3    3  502    0  0.37691662476E+03 -0.24153452068E+03 -0.60378988898E+03  0.75165775905E+03  0.46999998093E+01 0. -1.
       -5    1    3    3    0  502 -0.37691662476E+03  0.24153452068E+03 -0.44736094521E+03  0.63289728392E+03  0.46999998093E+01 0.  1.
</event>
<event>
 5   0  0.1162839E-02  0.9339178E+03  0.7818609E-02  0.9384148E-01
       -1   -1    0    0    0  501  0.00000000000E+00  0.00000000000E+00  0.23321376698E+03  0.23321376704E+03  0.50400001928E-02 0.  1.
        1   -1    0    0  501    0  0.00000000000E+00  0.00000000000E+00 -0.93498174350E+03  0.93498174351E+03  0.50400001928E-02 0. -1.
    10030    2    1    2    0    0  0.00000000000E+00  0.00000000000E+00 -0.70176797652E+03  0.11681955105E+04  0.93391780045E+03 0.  0.
        2    1    3    3  502    0  0.21856120058E+03 -0.38969326225E+03 -0.18111402383E+03  0.48211215155E+03  0.25500000920E-02 0.  1.
       -2    1    3    3    0  502 -0.21856120058E+03  0.38969326225E+03 -0.52065395268E+03  0.68608335900E+03  0.25500000920E-02 0. -1.
</event>
<event>
 5   0  0.2041861E-02  0.9152760E+03  0.7818609E-02  0.9406685E-01
        2   -1    0    0  501    0  0.00000000000E+00  0.00000000000E+00  0.18223878733E+04  0.18223878733E+04  0.25500000920E-02 0.  1.
       -2   -1    0    0    0  501  0.00000000000E+00  0.00000000000E+00 -0.11492203736E+03  0.11492203738E+03  0.25500000920E-02 0. -1.
    10030    2    1    2    0    0  0.00000000000E+00  0.00000000000E+00  0.17074658359E+04  0.19373099107E+04  0.91527597430E+03 0.  0.
        5    1    3    3  502    0 -0.31933745159E+03  0.12674963632E+03  0.21393116518E+03  0.40475981980E+03  0.46999998093E+01 0. -1.
       -5    1    3    3    0  502  0.31933745159E+03 -0.12674963632E+03  0.14935346708E+04  0.15325500909E+04  0.46999998093E+01 0.  1.
</event>
<event>
 5   0  0.2008770E-02  0.9116745E+03  0.7818609E-02  0.9411104E-01
        2   -1    0    0  501    0  0.00000000000E+00  0.00000000000E+00  0.11343416218E+04  0.11343416218E+04  0.25500000920E-02 0. -1.
       -2   -1    0    0    0  501  0.00000000000E+00  0.00000000000E+00 -0.18317901861E+03  0.18317901863E+03  0.25500000920E-02 0.  1.
    10030    2    1    2    0    0  0.00000000000E+00  0.00000000000E+00  0.95116260317E+03  0.13175206404E+04  0.91167447055E+03 0.  0.
        1    1    3    3  502    0  0.37736455891E+03  0.23696270189E+03  0.33672311983E+03  0.55851391376E+03  0.50400001928E-02 0. -1.
       -1    1    3    3    0  502 -0.37736455891E+03 -0.23696270189E+03  0.61443948334E+03  0.75900672666E+03  0.50400001928E-02 0.  1.
</event>
<event>
 5   0  0.1162839E-02  0.8982867E+03  0.7818609E-02  0.9427726E-01
        1   -1    0    0  501    0  0.00000000000E+00  0.00000000000E+00  0.10437525079E+04  0.10437525079E+04  0.50400001928E-02 0.  1.
       -1   -1    0    0    0  501  0.00000000000E+00  0.00000000000E+00 -0.19327352699E+03  0.19327352706E+03  0.50400001928E-02 0. -1.
    10030    2    1    2    0    0  0.00000000000E+00  0.00000000000E+00  0.85047898091E+03  0.12370260350E+04  0.89828665483E+03 0.  0.
        2    1    3    3  502    0  0.25741931253E+03  0.31899459193E+03  0.17241041766E+03  0.44468821017E+03  0.25500000920E-02 0. -1.
       -2    1    3    3    0  502 -0.25741931253E+03 -0.31899459193E+03  0.67806856325E+03  0.79233782481E+03  0.25500000920E-02 0.  1.
</event>
<event>
 5   0  0.1177712E-02  0.8447053E+03  0.7818609E-02  0.9497471E-01
        1   -1    0    0  501    0  0.00000000000E+00  0.00000000000E+00  0.26649162180E+03  0.26649162185E+03  0.50400001928E-02 0.  1.
       -1   -1    0    0    0  501  0.00000000000E+00  0.00000000000E+00 -0.66937099964E+03  0.66937099965E+03  0.50400001928E-02 0. -1.
    10030    2    1    2    0    0  0.00000000000E+00  0.00000000000E+00 -0.40287937784E+03  0.93586262150E+03  0.84470530556E+03 0.  0.
        5    1    3    3  502    0 -0.22862091211E+03  0.43067624596E+02  0.18907101038E+03  0.29982041076E+03  0.46999998093E+01 0.  1.
       -5    1    3    3    0  502  0.22862091211E+03 -0.43067624596E+02 -0.59195038821E+03  0.63604221074E+03  0.46999998093E+01 0. -1.
</event>
<event>
 5   0  0.1206541E-02  0.9105526E+03  0.7818609E-02  0.9412485E-01
        1   -1    0    0  501    0  0.00000000000E+00  0.00000000000E+00  0.53114287957E+03  0.53114287959E+03  0.50400001928E-02 0. -1.
       -1   -1    0    0    0  501  0.00000000000E+00  0.00000000000E+00 -0.39024622433E+03  0.39024622437E+03  0.50400001928E-02 0.  1.
    10030    2    1    2    0    0  0.00000000000E+00  0.00000000000E+00  0.14089665524E+03  0.92138910396E+03  0.91055258686E+03 0.  0.
        3    1    3    3  502    0  0.44019458207E+03  0.11545005099E+03  0.83892102196E+02  0.46275034238E+03  0.10100000352E+00 0.  1.
       -3    1    3    3    0  502 -0.44019458207E+03 -0.11545005099E+03  0.57004553039E+02  0.45863876158E+03  0.10100000352E+00 0. -1.
</event>
<event>
 5   0  0.1206541E-02  0.9007469E+03  0.7818609E-02  0.9424648E-01
        1   -1    0    0  501    0  0.00000000000E+00  0.00000000000E+00  0.12900435659E+04  0.12900435660E+04  0.50400001928E-02 0.  1.
       -1   -1    0    0    0  501  0.00000000000E+00  0.00000000000E+00 -0.15723209842E+03  0.15723209851E+03  0.50400001928E-02 0. -1.
    10030    2    1    2    0    0  0.00000000000E+00  0.00000000000E+00  0.11328114675E+04  0.14472756645E+04  0.90074692783E+03 0.  0.
        3    1    3    3  502    0  0.20842494808E+03  0.14161540958E+03  0.11661787732E+04  0.11930921274E+04  0.10100000352E+00 0.  1.
       -3    1    3    3    0  502 -0.20842494808E+03 -0.14161540958E+03 -0.33367305692E+02  0.25418353704E+03  0.10100000352E+00 0. -1.
</event>
<event>
 5   0  0.1177712E-02  0.1042185E+04  0.7818609E-02  0.9263450E-01
        1   -1    0    0  501    0  0.00000000000E+00  0.00000000000E+00  0.43538474875E+03  0.43538474878E+03  0.50400001928E-02 0. -1.
       -1   -1    0    0    0  501  0.00000000000E+00  0.00000000000E+00 -0.62367192065E+03  0.62367192067E+03  0.50400001928E-02 0.  1.
    10030    2    1    2    0    0  0.00000000000E+00  0.00000000000E+00 -0.18828717190E+03  0.10590566695E+04  0.10421847101E+04 0.  0.
        5    1    3    3  502    0 -0.33155932351E+03  0.18314517058E+03  0.26947806387E+03  0.46488090455E+03  0.46999998093E+01 0. -1.
       -5    1    3    3    0  502  0.33155932351E+03 -0.18314517058E+03 -0.45776523577E+03  0.59417576490E+03  0.46999998093E+01 0.  1.
</event>
<event>
 5   0  0.1175993E-02  0.9013670E+03  0.7818609E-02  0.9423874E-01
        1   -1    0    0  501    0  0.00000000000E+00  0.00000000000E+00  0.10855420045E+04  0.10855420045E+04  0.50400001928E-02 0. -1.
       -1   -1    0    0    0  501  0.00000000000E+00  0.00000000000E+00 -0.18710986447E+03  0.18710986453E+03  0.50400001928E-02 0.  1.
    10030    2    1    2    0    0  0.00000000000E+00  0.00000000000E+00  0.89843214004E+03  0.12726518691E+04  0.90136700047E+03 0.  0.
        4    1    3    3  502    0 -0.19163790441E+03 -0.29710424691E+03  0.54592082778E+02  0.35774002899E+03  0.12699999809E+01 0.  1.
       -4    1    3    3    0  502  0.19163790441E+03  0.29710424691E+03  0.84384005726E+03  0.91491184006E+03  0.12699999809E+01 0. -1.
</event>
<event>
 5   0  0.1206541E-02  0.8786978E+03  0.7818609E-02  0.9452609E-01
        1   -1    0    0  501    0  0.00000000000E+00  0.00000000000E+00  0.70648622225E+03  0.70648622227E+03  0.50400001928E-02 0.  1.
       -1   -1    0    0    0  501  0.00000000000E+00  0.00000000000E+00 -0.27322181925E+03  0.27322181929E+03  0.50400001928E-02 0. -1.
    10030    2    1    2    0    0  0.00000000000E+00  0.00000000000E+00  0.43326440300E+03  0.97970804156E+03  0.87869778865E+03 0.  0.
        3    1    3    3  502    0  0.19163789213E+03  0.11366116091E+03 -0.20555661731E+03  0.30314596207E+03  0.10100000352E+00 0. -1.
       -3    1    3    3    0  502 -0.19163789213E+03 -0.11366116091E+03  0.63882102032E+03  0.67656207949E+03  0.10100000352E+00 0.  1.
</event>
<event>
 5   0  0.1924218E-02  0.9066005E+03  0.7818609E-02  0.9417368E-01
        2   -1    0    0  501    0  0.00000000000E+00  0.00000000000E+00  0.13147319455E+04  0.13147319455E+04  0.25500000920E-02 0.  1.
       -2   -1    0    0    0  501  0.00000000000E+00  0.00000000000E+00 -0.15629125550E+03  0.15629125552E+03  0.25500000920E-02 0. -1.
    10030    2    1    2    0    0  0.00000000000E+00  0.00000000000E+00  0.11584406900E+04  0.14710232010E+04  0.90660047745E+03 0.  0.
        4    1    3    3  502    0 -0.18985226145E+03 -0.38281569199E+03  0.82469418053E+03  0.92882390124E+03  0.12699999809E+01 0.  1.
       -4    1    3    3    0  502  0.18985226145E+03  0.38281569199E+03  0.33374650949E+03  0.54219929981E+03  0.12699999809E+01 0. -1.
</event>
<event>
 5   0  0.1206541E-02  0.9107099E+03  0.7818609E-02  0.9412292E-01
        1   -1    0    0  501    0  0.00000000000E+00  0.00000000000E+00  0.41655030467E+03  0.41655030470E+03  0.50400001928E-02 0. -1.
       -1   -1    0    0    0  501  0.00000000000E+00  0.00000000000E+00 -0.49777453723E+03  0.49777453726E+03  0.50400001928E-02 0.  1.
    10030    2    1    2    0    0  0.00000000000E+00  0.00000000000E+00 -0.81224232561E+02  0.91432484197E+03  0.91070991028E+03 0.  0.
        3    1    3    3  502    0  0.13108031066E+03 -0.22968304632E+03 -0.41277446372E+03  0.49022353851E+03  0.10100000352E+00 0.  1.
       -3    1    3    3    0  502 -0.13108031066E+03  0.22968304632E+03  0.33155023116E+03  0.42410130345E+03  0.10100000352E+00 0. -1.
</event>
<event>
 5   0  0.2008643E-02  0.9058227E+03  0.7818609E-02  0.9418332E-01
       -2   -1    0    0    0  501  0.00000000000E+00  0.00000000000E+00  0.24164305345E+03  0.24164305346E+03  0.25500000920E-02 0.  1.
        2   -1    0    0  501    0  0.00000000000E+00  0.00000000000E+00 -0.84889141325E+03  0.84889141326E+03  0.25500000920E-02 0. -1.
    10030    2    1    2    0    0  0.00000000000E+00  0.00000000000E+00 -0.60724835981E+03  0.10905344667E+04  0.90582274900E+03 0.  0.
        3    1    3    3  502    0 -0.70567612544E+01 -0.81205826047E+02 -0.83998802092E+03  0.84393368789E+03  0.10100000352E+00 0. -1.
       -3    1    3    3    0  502  0.70567612544E+01  0.81205826047E+02  0.23273966111E+03  0.24660077883E+03  0.10100000352E+00 0.  1.
</event>
<event>
 5   0  0.2008643E-02  0.8850149E+03  0.7818609E-02  0.9444510E-01
       -2   -1    0    0    0  501  0.00000000000E+00  0.00000000000E+00  0.18249071091E+03  0.18249071093E+03  0.25500000920E-02 0. -1.
        2   -1    0    0  501    0  0.00000000000E+00  0.00000000000E+00 -0.10730017480E+04  0.10730017480E+04  0.25500000920E-02 0.  1.
    10030    2    1    2    0    0  0.00000000000E+00  0.00000000000E+00 -0.89051103708E+03  0.12554924589E+04  0.88501491923E+03 0.  0.
        3    1    3    3  502    0  0.31829563283E+03 -0.27376824036E+03 -0.24689484126E+03  0.48705054373E+03  0.10100000352E+00 0.  1.
       -3    1    3    3    0  502 -0.31829563283E+03  0.27376824036E+03 -0.64361619581E+03  0.76844191519E+03  0.10100000352E+00 0. -1.
</event>
<event>
 5   0  0.7893875E-03  0.8887209E+03  0.7818609E-02  0.9439792E-01
        4   -1    0    0  501    0  0.00000000000E+00  0.00000000000E+00  0.49614207526E+03  0.49614370070E+03  0.12699999809E+01 0.  1.
       -4   -1    0    0    0  501  0.00000000000E+00  0.00000000000E+00 -0.39797994573E+03  0.39798197208E+03  0.12699999809E+01 0. -1.
    10030    2    1    2    0    0  0.00000000000E+00  0.00000000000E+00  0.98162129531E+02  0.89412567279E+03  0.88872094330E+03 0.  0.
        2    1    3    3  502    0  0.28197457856E+03 -0.23486516931E+03 -0.20301195231E+03  0.41938665155E+03  0.25500000920E-02 0. -1.
       -2    1    3    3    0  502 -0.28197457856E+03  0.23486516931E+03  0.30117408184E+03  0.47473902124E+03  0.25500000920E-02 0.  1.
</event>
<event>
 5   0  0.2041861E-02  0.9065658E+03  0.7818609E-02  0.9417411E-01
        2   -1    0    0  501    0  0.00000000000E+00  0.00000000000E+00  0.13361283934E+04  0.13361283934E+04  0.25500000920E-02 0.  1.
       -2   -1    0    0    0  501  0.00000000000E+00  0.00000000000E+00 -0.15377668484E+03  0.15377668486E+03  0.25500000920E-02 0. -1.
    10030    2    1    2    0    0  0.00000000000E+00  0.00000000000E+00  0.11823517086E+04  0.14899050783E+04  0.90656581641E+03 0.  0.
        5    1    3    3  502    0  0.29610351228E+03 -0.57438638500E+02  0.35144776718E+02  0.30370006998E+03  0.46999998093E+01 0. -1.
       -5    1    3    3    0  502 -0.29610351228E+03  0.57438638500E+02  0.11472069318E+04  0.11862050083E+04  0.46999998093E+01 0.  1.
</event>
<event>
 5   0  0.1177712E-02  0.8903039E+03  0.7818609E-02  0.9437784E-01
        1   -1    0    0  501    0  0.00000000000E+00  0.00000000000E+00  0.41598982775E+03  0.41598982778E+03  0.50400001928E-02 0.  1.
       -1   -1    0    0    0  501  0.00000000000E+00  0.00000000000E+00 -0.47635842928E+03  0.47635842931E+03  0.50400001928E-02 0. -1.
    10030    2    1    2    0    0  0.00000000000E+00  0.00000000000E+00 -0.60368601534E+02  0.89234825709E+03  0.89030390535E+03 0.  0.
        5    1    3    3  502    0  0.11764009634E+03  0.15407459960E+02 -0.46019343867E+03  0.47526484520E+03  0.46999998093E+01 0. -1.
       -5    1    3    3    0  502 -0.11764009634E+03 -0.15407459960E+02  0.39982483713E+03  0.41708341189E+03  0.46999998093E+01 0.  1.
</event>
<event>
 5   0  0.1162839E-02  0.9089881E+03  0.7818609E-02  0.9414415E-01
        1   -1    0    0  501    0  0.00000000000E+00  0.00000000000E+00  0.10261043810E+04  0.10261043810E+04  0.50400001928E-02 0.  1.
       -1   -1    0    0    0  501  0.00000000000E+00  0.00000000000E+00 -0.20130977112E+03  0.20130977119E+03  0.50400001928E-02 0. -1.
    10030    2    1    2    0    0  0.00000000000E+00  0.00000000000E+00  0.82479460991E+03  0.12274141522E+04  0.90898809264E+03 0.  0.
        2    1    3    3  502    0 -0.24750709414E+03 -0.38118438206E+03  0.41493909969E+03  0.61541510481E+03  0.25500000920E-02 0.  1.
       -2    1    3    3    0  502  0.24750709414E+03  0.38118438206E+03  0.40985551022E+03  0.61199904742E+03  0.25500000920E-02 0. -1.
</event>
<event>
 5   0  0.2041861E-02  0.9190495E+03  0.7818609E-02  0.9402077E-01
        2   -1    0    0  501    0  0.00000000000E+00  0.00000000000E+00  0.13780007839E+04  0.13780007839E+04  0.25500000920E-02 0.  1.
       -2   -1    0    0    0  501  0.00000000000E+00  0.00000000000E+00 -0.15323864640E+03  0.15323864642E+03  0.25500000920E-02 0. -1.
    10030    2    1    2    0    0  0.00000000000E+00  0.00000000000E+00  0.12247621375E+04  0.15312394303E+04  0.91904945432E+03 0.  0.
        5    1    3    3  502    0  0.18544664669E+03  0.18584802242E+03  0.12406863698E+04  0.12681698247E+04  0.46999998093E+01 0.  1.
       -5    1    3    3    0  502 -0.18544664669E+03 -0.18584802242E+03 -0.15924232288E+02  0.26306960558E+03  0.46999998093E+01 0. -1.
</event>
<event>
 5   0  0.2008770E-02  0.9156736E+03  0.7818609E-02  0.9406198E-01
        2   -1    0    0  501    0  0.00000000000E+00  0.00000000000E+00  0.45699363619E+03  0.45699363620E+03  0.25500000920E-02 0.  1.
       -2   -1    0    0    0  501  0.00000000000E+00  0.00000000000E+00 -0.45868155161E+03  0.45868155162E+03  0.25500000920E-02 0. -1.
    10030    2    1    2    0    0  0.00000000000E+00  0.00000000000E+00 -0.16879154192E+01  0.91567518782E+03  0.91567363210E+03 0.  0.
        1    1    3    3  502    0  0.32172508693E+03 -0.31489699119E+03  0.82507269574E+02  0.45768394792E+03  0.50400001928E-02 0. -1.
       -1    1    3    3    0  502 -0.32172508693E+03  0.31489699119E+03 -0.84195184993E+02  0.45799123990E+03  0.50400001928E-02 0.  1.
</event>
<event>
 5   0  0.1162839E-02  0.9026783E+03  0.7818609E-02  0.9422240E-01
       -1   -1    0    0    0  501  0.00000000000E+00  0.00000000000E+00  0.14068999316E+03  0.14068999325E+03  0.50400001928E-02 0.  1.
        1   -1    0    0  501    0  0.00000000000E+00  0.00000000000E+00 -0.14479141668E+04  0.14479141668E+04  0.50400001928E-02 0. -1.
    10030    2    1    2    0    0  0.00000000000E+00  0.00000000000E+00 -0.13072241736E+04  0.15886041600E+04  0.90267831324E+03 0.  0.
        2    1    3    3  502    0  0.46796263281E+02  0.32556078093E+03 -0.10967773385E+03  0.34671157703E+03  0.25500000920E-02 0. -1.
       -2    1    3    3    0  502 -0.46796263281E+02 -0.32556078093E+03 -0.11975464397E+04  0.12418925830E+04  0.25500000920E-02 0.  1.
</event>
<event>
 5   0  0.2008770E-02  0.9010492E+03  0.7818609E-02  0.9424271E-01
        2   -1    0    0  501    0  0.00000000000E+00  0.00000000000E+00  0.21982940733E+03  0.21982940734E+03  0.25500000920E-02 0. -1.
       -2   -1    0    0    0  501  0.00000000000E+00  0.00000000000E+00 -0.92331782369E+03  0.92331782369E+03  0.25500000920E-02 0.  1.
    10030    2    1    2    0    0  0.00000000000E+00  0.00000000000E+00 -0.70348841636E+03  0.11431472310E+04  0.90104918837E+03 0.  0.
        1    1    3    3  502    0 -0.25109292725E+03  0.24893422918E+03 -0.70596972201E+03  0.78956263652E+03  0.50400001928E-02 0.  1.
       -1    1    3    3    0  502  0.25109292725E+03 -0.24893422918E+03  0.24813056456E+01  0.35358459451E+03  0.50400001928E-02 0. -1.
</event>
<event>
 5   0  0.1175993E-02  0.8732205E+03  0.7818609E-02  0.9459690E-01
        1   -1    0    0  501    0  0.00000000000E+00  0.00000000000E+00  0.63759168312E+03  0.63759168314E+03  0.50400001928E-02 0.  1.
       -1   -1    0    0    0  501  0.00000000000E+00  0.00000000000E+00 -0.29898209791E+03  0.29898209795E+03  0.50400001928E-02 0. -1.
    10030    2    1    2    0    0  0.00000000000E+00  0.00000000000E+00  0.33860958522E+03  0.93657378109E+03  0.87322047401E+03 0.  0.
        4    1    3    3  502    0 -0.50104653336E+02  0.31439941814E+03  0.48976154869E+03  0.58414506579E+03  0.12699999809E+01 0.  1.
       -4    1    3    3    0  502  0.50104653336E+02 -0.31439941814E+03 -0.15115196347E+03  0.35242871530E+03  0.12699999809E+01 0. -1.
</event>
<event>
 5   0  0.7893875E-03  0.9034463E+03  0.7818609E-02  0.9421284E-01
        3   -1    0    0  501    0  0.00000000000E+00  0.00000000000E+00  0.26410766417E+03  0.26410768348E+03  0.10100000352E+00 0. -1.
       -3   -1    0    0    0  501  0.00000000000E+00  0.00000000000E+00 -0.77261594281E+03  0.77261594941E+03  0.10100000352E+00 0.  1.
    10030    2    1    2    0    0  0.00000000000E+00  0.00000000000E+00 -0.50850827864E+03  0.10367236329E+04  0.90344630253E+03 0.  0.
        1    1    3    3  502    0  0.18514626968E+03  0.45807919691E+02 -0.72414445373E+03  0.74884090205E+03  0.50400001928E-02 0.  1.
       -1    1    3    3    0  502 -0.18514626968E+03 -0.45807919691E+02  0.21563617510E+03  0.28788273084E+03  0.50400001928E-02 0. -1.
</event>
<event>
 5   0  0.2008643E-02  0.8970916E+03  0.7818609E-02  0.9429224E-01
       -2   -1    0    0    0  501  0.00000000000E+00  0.00000000000E+00  0.15484985180E+03  0.15484985182E+03  0.25500000920E-02 0. -1.
        2   -1    0    0  501    0  0.00000000000E+00  0.00000000000E+00 -0.12992802384E+04  0.12992802384E+04  0.25500000920E-02 0.  1.
    10030    2    1    2    0    0  0.00000000000E+00  0.00000000000E+00 -0.11444303866E+04  0.14541300902E+04  0.89709163941E+03 0.  0.
        3    1    3    3  502    0 -0.43410077292E+03  0.10093568925E+03 -0.65425849150E+03  0.79163481374E+03  0.10100000352E+00 0. -1.
       -3    1    3    3    0  502  0.43410077292E+03 -0.10093568925E+03 -0.49017189509E+03  0.66249527648E+03  0.10100000352E+00 0.  1.
</event>
<event>
 5   0  0.1175993E-02  0.8824540E+03  0.7818609E-02  0.9447784E-01
       -1   -1    0    0    0  501  0.00000000000E+00  0.00000000000E+00  0.48064566382E+03  0.48064566384E+03  0.50400001928E-02 0. -1.
        1   -1    0    0  501    0  0.00000000000E+00  0.00000000000E+00 -0.40504116160E+03  0.40504116164E+03  0.50400001928E-02 0.  1.
    10030    2    1    2    0    0  0.00000000000E+00  0.00000000000E+00  0.75604502213E+02  0.88568682548E+03  0.88245402831E+03 0.  0.
        4    1    3    3  502    0 -0.28905488345E+03 -0.67076989381E+02 -0.28993284137E+03  0.41486710349E+03  0.12699999809E+01 0.  1.
       -4    1    3    3    0  502  0.28905488345E+03  0.67076989381E+02  0.36553734359E+03  0.47081972199E+03  0.12699999809E+01 0. -1.
</event>
<event>
 5   0  0.2008643E-02  0.9764251E+03  0.7818609E-02  0.9334786E-01
        2   -1    0    0  501    0  0.00000000000E+00  0.00000000000E+00  0.48476490547E+03  0.48476490547E+03  0.25500000920E-02 0.  1.
       -2   -1    0    0    0  501  0.00000000000E+00  0.00000000000E+00 -0.49168467656E+03  0.49168467657E+03  0.25500000920E-02 0. -1.
    10030    2    1    2    0    0  0.00000000000E+00  0.00000000000E+00 -0.69197710955E+01  0.97644958204E+03  0.97642506269E+03 0.  0.
        3    1    3    3  502    0  0.23901492891E+03  0.40347042345E+03  0.13231887782E+03  0.48726257241E+03  0.10100000352E+00 0.  1.
       -3    1    3    3    0  502 -0.23901492891E+03 -0.40347042345E+03 -0.13923864892E+03  0.48918700963E+03  0.10100000352E+00 0. -1.
</event>
<event>
 5   0  0.1924218E-02  0.9233880E+03  0.7818609E-02  0.9396809E-01
       -2   -1    0    0    0  501  0.00000000000E+00  0.00000000000E+00  0.20227046902E+03  0.20227046904E+03  0.25500000920E-02 0. -1.
        2   -1    0    0  501    0  0.00000000000E+00  0.00000000000E+00 -0.10538430443E+04  0.10538430443E+04  0.25500000920E-02 0.  1.
    10030    2    1    2    0    0  0.00000000000E+00  0.00000000000E+00 -0.85157257532E+03  0.12561135134E+04  0.92338795068E+03 0.  0.
        4    1    3    3  502    0  0.96023570262E+01  0.18623635394E+03 -0.10003286564E+04  0.10175633732E+04  0.12699999809E+01 0.  1.
       -4    1    3    3    0  502 -0.96023570262E+01 -0.18623635394E+03  0.14875608111E+03  0.23855014013E+03  0.12699999809E+01 0. -1.
</event>
<event>
 5   0  0.1968763E-02  0.8959408E+03  0.7818609E-02  0.9430670E-01
        2   -1    0    0  501    0  0.00000000000E+00  0.00000000000E+00  0.45408169732E+03  0.45408169732E+03  0.25500000920E-02 0.  1.
       -2   -1    0    0    0  501  0.00000000000E+00  0.00000000000E+00 -0.44194135295E+03  0.44194135295E+03  0.25500000920E-02 0. -1.
    10030    2    1    2    0    0  0.00000000000E+00  0.00000000000E+00  0.12140344369E+02  0.89602305028E+03  0.89594080087E+03 0.  0.
        2    1    3    3  502    0  0.11437376485E+03 -0.82196468025E+02 -0.41922157093E+03  0.44224918653E+03  0.25500000920E-02 0. -1.
       -2    1    3    3    0  502 -0.11437376485E+03  0.82196468025E+02  0.43136191530E+03  0.45377386375E+03  0.25500000920E-02 0.  1.
</event>
<event>
 5   0  0.1968763E-02  0.8862767E+03  0.7818609E-02  0.9442901E-01
       -2   -1    0    0    0  501  0.00000000000E+00  0.00000000000E+00  0.13627583564E+03  0.13627583566E+03  0.25500000920E-02 0. -1.
        2   -1    0    0  501    0  0.00000000000E+00  0.00000000000E+00 -0.14409862555E+04  0.14409862555E+04  0.25500000920E-02 0.  1.
    10030    2    1    2    0    0  0.00000000000E+00  0.00000000000E+00 -0.13047104198E+04  0.15772620911E+04  0.88627672005E+03 0.  0.
        2    1    3    3  502    0  0.68742230660E+02  0.28569877928E+03 -0.62052303439E+02  0.30033277398E+03  0.25500000920E-02 0. -1.
       -2    1    3    3    0  502 -0.68742230660E+02 -0.28569877928E+03 -0.12426581164E+04  0.12769293171E+04  0.25500000920E-02 0.  1.
</event>
<event>
 5   0  0.1162839E-02  0.9450119E+03  0.7818609E-02  0.9371000E-01
       -1   -1    0    0    0  501  0.00000000000E+00  0.00000000000E+00  0.15592589515E+03  0.15592589523E+03  0.50400001928E-02 0.  1.
        1   -1    0    0  501    0  0.00000000000E+00  0.00000000000E+00 -0.14318459124E+04  0.14318459124E+04  0.50400001928E-02 0. -1.
    10030    2    1    2    0    0  0.00000000000E+00  0.00000000000E+00 -0.12759200173E+04  0.15877718077E+04  0.94501186380E+03 0.  0.
        2    1    3    3  502    0  0.37036829072E+03 -0.11531972228E+03 -0.18465729824E+03  0.42961567350E+03  0.25500000920E-02 0.  1.
       -2    1    3    3    0  502 -0.37036829072E+03  0.11531972228E+03 -0.10912627191E+04  0.11581561342E+04  0.25500000920E-02 0. -1.
</event>
<event>
 5   0  0.1968763E-02  0.8970872E+03  0.7818609E-02  0.9429230E-01
        2   -1    0    0  501    0  0.00000000000E+00  0.00000000000E+00  0.10462611796E+04  0.10462611796E+04  0.25500000920E-02 0. -1.
       -2   -1    0    0    0  501  0.00000000000E+00  0.00000000000E+00 -0.19229554465E+03  0.19229554467E+03  0.25500000920E-02 0.  1.
    10030    2    1    2    0    0  0.00000000000E+00  0.00000000000E+00  0.85396563492E+03  0.12385567242E+04  0.89708720510E+03 0.  0.
        2    1    3    3  502    0 -0.54930008280E+02  0.29561250836E+03 -0.32560264961E+02  0.30243054040E+03  0.25500000920E-02 0.  1.
       -2    1    3    3    0  502  0.54930008280E+02 -0.29561250836E+03  0.88652589989E+03  0.93612618385E+03  0.25500000920E-02 0. -1.
</event>
<event>
 5   0  0.2041861E-02  0.9067804E+03  0.7818609E-02  0.9417145E-01
       -2   -1    0    0    0  501  0.00000000000E+00  0.00000000000E+00  0.33148433347E+03  0.33148433348E+03  0.25500000920E-02 0. -1.
        2   -1    0    0  501    0  0.00000000000E+00  0.00000000000E+00 -0.62012784126E+03  0.62012784126E+03  0.25500000920E-02 0.  1.
    10030    2    1    2    0    0  0.00000000000E+00  0.00000000000E+00 -0.28864350779E+03  0.95161217474E+03  0.90678037943E+03 0.  0.
        5    1    3    3  502    0 -0.24061148662E+03 -0.37955372160E+03 -0.81480857505E+02  0.45674515346E+03  0.46999998093E+01 0. -1.
       -5    1    3    3    0  502  0.24061148662E+03  0.37955372160E+03 -0.20716265028E+03  0.49486702127E+03  0.46999998093E+01 0.  1.
</event>
<event>
 5   0  0.2041861E-02  0.7360996E+03  0.7818609E-02  0.9657414E-01
       -2   -1    0    0    0  501  0.00000000000E+00  0.00000000000E+00  0.12538489899E+03  0.12538489902E+03  0.25500000920E-02 0. -1.
        2   -1    0    0  501    0  0.00000000000E+00  0.00000000000E+00 -0.10803585809E+04  0.10803585809E+04  0.25500000920E-02 0.  1.
    10030    2    1    2    0    0  0.00000000000E+00  0.00000000000E+00 -0.95497368188E+03  0.12057434799E+04  0.73609958987E+03 0.  0.
        5    1    3    3  502    0 -0.52172145166E+02 -0.10491498004E+03  0.93966192366E+02  0.15026916208E+03  0.46999998093E+01 0. -1.
       -5    1    3    3    0  502  0.52172145166E+02  0.10491498004E+03 -0.10489398742E+04  0.10554743178E+04  0.46999998093E+01 0.  1.
</event>
<event>
 5   0  0.2008643E-02  0.7729867E+03  0.7818609E-02  0.9599962E-01
       -2   -1    0    0    0  501  0.00000000000E+00  0.00000000000E+00  0.10372971810E+03  0.10372971813E+03  0.25500000920E-02 0. -1.
        2   -1    0    0  501    0  0.00000000000E+00  0.00000000000E+00 -0.14400608053E+04  0.14400608053E+04  0.25500000920E-02 0.  1.
    10030    2    1    2    0    0  0.00000000000E+00  0.00000000000E+00 -0.13363310872E+04  0.15437905235E+04  0.77298667882E+03 0.  0.
        3    1    3    3  502    0  0.32105762327E+03  0.19588522399E+03 -0.49033753098E+03  0.61796433791E+03  0.10100000352E+00 0. -1.
       -3    1    3    3    0  502 -0.32105762327E+03 -0.19588522399E+03 -0.84599355626E+03  0.92582618556E+03  0.10100000352E+00 0.  1.
</event>
<event>
 5   0  0.1177712E-02  0.8990539E+03  0.7818609E-02  0.9426765E-01
        1   -1    0    0  501    0  0.00000000000E+00  0.00000000000E+00  0.18369283311E+04  0.18369283311E+04  0.50400001928E-02 0. -1.
       -1   -1    0    0    0  501  0.00000000000E+00  0.00000000000E+00 -0.11000672707E+03  0.11000672719E+03  0.50400001928E-02 0.  1.
    10030    2    1    2    0    0  0.00000000000E+00  0.00000000000E+00  0.17269216040E+04  0.19469350583E+04  0.89905388868E+03 0.  0.
        5    1    3    3  502    0 -0.93891583547E+02 -0.18421139348E+03  0.17277868580E+04  0.17401203934E+04  0.46999998093E+01 0. -1.
       -5    1    3    3    0  502  0.93891583547E+02  0.18421139348E+03 -0.86525394805E+00  0.20681466489E+03  0.46999998093E+01 0.  1.
</event>
<event>
 5   0  0.1226424E-02  0.9284435E+03  0.7818609E-02  0.9390708E-01
       -1   -1    0    0    0  501  0.00000000000E+00  0.00000000000E+00  0.57648353980E+03  0.57648353982E+03  0.50400001928E-02 0. -1.
        1   -1    0    0  501    0  0.00000000000E+00  0.00000000000E+00 -0.37382128583E+03  0.37382128586E+03  0.50400001928E-02 0.  1.
    10030    2    1    2    0    0  0.00000000000E+00  0.00000000000E+00  0.20266225398E+03  0.95030482568E+03  0.92844346760E+03 0.  0.
        1    1    3    3  502    0 -0.40618327982E+03  0.24730689332E+02 -0.12732405139E+03  0.42638935011E+03  0.50400001928E-02 0.  1.
       -1    1    3    3    0  502  0.40618327982E+03 -0.24730689332E+02  0.32998630537E+03  0.52391547558E+03  0.50400001928E-02 0. -1.
</event>
<event>
 5   0  0.2008643E-02  0.8940671E+03  0.7818609E-02  0.9433028E-01
       -2   -1    0    0    0  501  0.00000000000E+00  0.00000000000E+00  0.12618264240E+03  0.12618264242E+03  0.25500000920E-02 0. -1.
        2   -1    0    0  501    0  0.00000000000E+00  0.00000000000E+00 -0.15837281738E+04  0.15837281738E+04  0.25500000920E-02 0.  1.
    10030    2    1    2    0    0  0.00000000000E+00  0.00000000000E+00 -0.14575455314E+04  0.17099108162E+04  0.89406712461E+03 0.  0.
        3    1    3    3  502    0 -0.11265894849E+03 -0.28963833681E+03 -0.11421568818E+03  0.33110064701E+03  0.10100000352E+00 0. -1.
       -3    1    3    3    0  502  0.11265894849E+03  0.28963833681E+03 -0.13433298432E+04  0.13788101692E+04  0.10100000352E+00 0.  1.
</event>
<event>
 5   0  0.7893875E-03  0.9046057E+03  0.7818609E-02  0.9419842E-01
       -4   -1    0    0    0  501  0.00000000000E+00  0.00000000000E+00  0.16377684800E+03  0.16378177200E+03  0.12699999809E+01 0.  1.
        4   -1    0    0  501    0  0.00000000000E+00  0.00000000000E+00 -0.12491015664E+04  0.12491022121E+04  0.12699999809E+01 0. -1.
    10030    2    1    2    0    0  0.00000000000E+00  0.00000000000E+00 -0.10853247184E+04  0.14128839841E+04  0.90460566434E+03 0.  0.
        4    1    3    3  502    0 -0.82492136219E+02 -0.44454042081E+03 -0.56211391024E+03  0.72138394719E+03  0.12699999809E+01 0.  1.
       -4    1    3    3    0  502  0.82492136219E+02  0.44454042081E+03 -0.52321080819E+03  0.69150003686E+03  0.12699999809E+01 0. -1.
</event>
<event>
 5   0  0.1924218E-02  0.8829564E+03  0.7818609E-02  0.9447141E-01
        2   -1    0    0  501    0  0.00000000000E+00  0.00000000000E+00  0.16142105294E+04  0.16142105294E+04  0.25500000920E-02 0. -1.
       -2   -1    0    0    0  501  0.00000000000E+00  0.00000000000E+00 -0.12074198448E+03  0.12074198451E+03  0.25500000920E-02 0.  1.
    10030    2    1    2    0    0  0.00000000000E+00  0.00000000000E+00  0.14934685449E+04  0.17349525139E+04  0.88295635841E+03 0.  0.
        4    1    3    3  502    0 -0.34918999834E+03 -0.10334779327E+03  0.12371302301E+04  0.12896151521E+04  0.12699999809E+01 0. -1.
       -4    1    3    3    0  502  0.34918999834E+03  0.10334779327E+03  0.25633831481E+03  0.44533736184E+03  0.12699999809E+01 0.  1.
</event>
<event>
 5   0  0.7893875E-03  0.9079446E+03  0.7818609E-02  0.9415704E-01
        3   -1    0    0  501    0  0.00000000000E+00  0.00000000000E+00  0.14484476621E+03  0.14484480142E+03  0.10100000352E+00 0. -1.
       -3   -1    0    0    0  501  0.00000000000E+00  0.00000000000E+00 -0.14228393221E+04  0.14228393257E+04  0.10100000352E+00 0.  1.
    10030    2    1    2    0    0  0.00000000000E+00  0.00000000000E+00 -0.12779945559E+04  0.15676841271E+04  0.90794462247E+03 0.  0.
        4    1    3    3  502    0 -0.61825576946E+02  0.29196999205E+03 -0.48347655673E+02  0.30233753808E+03  0.12699999809E+01 0. -1.
       -4    1    3    3    0  502  0.61825576946E+02 -0.29196999205E+03 -0.12296469002E+04  0.12653465890E+04  0.12699999809E+01 0.  1.
</event>
<event>
 5   0  0.1175993E-02  0.8875340E+03  0.7818609E-02  0.9441300E-01
        1   -1    0    0  501    0  0.00000000000E+00  0.00000000000E+00  0.74778876424E+03  0.74778876425E+03  0.50400001928E-02 0.  1.
       -1   -1    0    0    0  501  0.00000000000E+00  0.00000000000E+00 -0.26334862187E+03  0.26334862192E+03  0.50400001928E-02 0. -1.
    10030    2    1    2    0    0  0.00000000000E+00  0.00000000000E+00  0.48444014236E+03  0.10111373862E+04  0.88753397804E+03 0.  0.
        4    1    3    3  502    0  0.44980585810E+02 -0.94962172862E+02  0.73340955343E+03  0.74089962434E+03  0.12699999809E+01 0.  1.
       -4    1    3    3    0  502 -0.44980585810E+02  0.94962172862E+02 -0.24896941107E+03  0.27023776184E+03  0.12699999809E+01 0. -1.
</event>
<event>
 5   0  0.1924218E-02  0.9008264E+03  0.7818609E-02  0.9424549E-01
       -2   -1    0    0    0  501  0.00000000000E+00  0.00000000000E+00  0.65157685395E+03  0.65157685396E+03  0.25500000920E-02 0.  1.
        2   -1    0    0  501    0  0.00000000000E+00  0.00000000000E+00 -0.31135549556E+03  0.31135549557E+03  0.25500000920E-02 0. -1.
    10030    2    1    2    0    0  0.00000000000E+00  0.00000000000E+00  0.34022135839E+03  0.96293234953E+03  0.90082636344E+03 0.  0.
        4    1    3    3  502    0  0.26528326671E+03  0.34081744774E+03  0.30674604823E+03  0.52974191384E+03  0.12699999809E+01 0.  1.
       -4    1    3    3    0  502 -0.26528326671E+03 -0.34081744774E+03  0.33475310167E+02  0.43319043569E+03  0.12699999809E+01 0. -1.
</event>
<event>
 5   0  0.2008770E-02  0.8901974E+03  0.7818609E-02  0.9437919E-01
       -2   -1    0    0    0  501  0.00000000000E+00  0.00000000000E+00  0.12049386639E+03  0.12049386642E+03  0.25500000920E-02 0.  1.
        2   -1    0    0  501    0  0.00000000000E+00  0.00000000000E+00 -0.16441738174E+04  0.16441738174E+04  0.25500000920E-02 0. -1.
    10030    2    1    2    0    0  0.00000000000E+00  0.00000000000E+00 -0.15236799510E+04  0.17646676838E+04  0.89019741697E+03 0.  0.
        1    1    3    3  502    0  0.38901011632E+03  0.14190260992E+03 -0.10854380812E+04  0.11617405259E+04  0.50400001928E-02 0. -1.
       -1    1    3    3    0  502 -0.38901011632E+03 -0.14190260992E+03 -0.43824186978E+03  0.60292715792E+03  0.50400001928E-02 0.  1.
</event>
<event>
 5   0  0.1968763E-02  0.8683917E+03  0.7818609E-02  0.9465979E-01
       -2   -1    0    0    0  501  0.00000000000E+00  0.00000000000E+00  0.97934134944E+02  0.97934134978E+02  0.25500000920E-02 0. -1.
        2   -1    0    0  501    0  0.00000000000E+00  0.00000000000E+00 -0.19250290218E+04  0.19250290218E+04  0.25500000920E-02 0.  1.
    10030    2    1    2    0    0  0.00000000000E+00  0.00000000000E+00 -0.18270948868E+04  0.20229631568E+04  0.86839173655E+03 0.  0.
        2    1    3    3  502    0 -0.11490643258E+03 -0.11164482153E+02  0.61524727605E+02  0.13081829392E+03  0.25500000920E-02 0. -1.
       -2    1    3    3    0  502  0.11490643258E+03  0.11164482153E+02 -0.18886196144E+04  0.18921448628E+04  0.25500000920E-02 0.  1.
</event>
<event>
 5   0  0.1206541E-02  0.8996071E+03  0.7818609E-02  0.9426073E-01
       -1   -1    0    0    0  501  0.00000000000E+00  0.00000000000E+00  0.24544390337E+03  0.24544390342E+03  0.50400001928E-02 0.  1.
        1   -1    0    0  501    0  0.00000000000E+00  0.00000000000E+00 -0.82431560506E+03  0.82431560508E+03  0.50400001928E-02 0. -1.
    10030    2    1    2    0    0  0.00000000000E+00  0.00000000000E+00 -0.57887170169E+03  0.10697595085E+04  0.89960711369E+03 0.  0.
        3    1    3    3  502    0  0.21729265138E+03 -0.37881017549E+03 -0.16130636369E+03  0.46554591456E+03  0.10100000352E+00 0.  1.
       -3    1    3    3    0  502 -0.21729265138E+03  0.37881017549E+03 -0.41756533800E+03  0.60421359394E+03  0.10100000352E+00 0. -1.
</event>
<event>
 5   0  0.7893875E-03  0.8592023E+03  0.7818609E-02  0.9478068E-01
        3   -1    0    0  501    0  0.00000000000E+00  0.00000000000E+00  0.97726023459E+03  0.97726023981E+03  0.10100000352E+00 0. -1.
       -3   -1    0    0    0  501  0.00000000000E+00  0.00000000000E+00 -0.18885158160E+03  0.18885160861E+03  0.10100000352E+00 0.  1.
    10030    2    1    2    0    0  0.00000000000E+00  0.00000000000E+00  0.78840865299E+03  0.11661118484E+04  0.85920232712E+03 0.  0.
        2    1    3    3  502    0 -0.26915340750E+03 -0.32215452776E+03  0.51807511771E+03  0.66680501207E+03  0.25500000920E-02 0.  1.
       -2    1    3    3    0  502  0.26915340750E+03  0.32215452776E+03  0.27033353528E+03  0.49930683635E+03  0.25500000920E-02 0. -1.
</event>
<event>
 5   0  0.1175993E-02  0.9138876E+03  0.7818609E-02  0.9408386E-01
       -1   -1    0    0    0  501  0.00000000000E+00  0.00000000000E+00  0.78303747732E+03  0.78303747734E+03  0.50400001928E-02 0.  1.
        1   -1    0    0  501    0  0.00000000000E+00  0.00000000000E+00 -0.26665087487E+03  0.26665087491E+03  0.50400001928E-02 0. -1.
    10030    2    1    2    0    0  0.00000000000E+00  0.00000000000E+00  0.51638660245E+03  0.10496883523E+04  0.91388758261E+03 0.  0.
        4    1    3    3  502    0  0.40886747039E+03 -0.28670487081E+02  0.26184110466E+02  0.41070893065E+03  0.12699999809E+01 0.  1.
       -4    1    3    3    0  502 -0.40886747039E+03  0.28670487081E+02  0.49020249199E+03  0.63897942160E+03  0.12699999809E+01 0. -1.
</event>
<event>
 5   0  0.1162839E-02  0.9306491E+03  0.7818609E-02  0.9388059E-01
        1   -1    0    0  501    0  0.00000000000E+00  0.00000000000E+00  0.28603677774E+03  0.28603677778E+03  0.50400001928E-02 0.  1.
       -1   -1    0    0    0  501  0.00000000000E+00  0.00000000000E+00 -0.75698987970E+03  0.75698987971E+03  0.50400001928E-02 0. -1.
    10030    2    1    2    0    0  0.00000000000E+00  0.00000000000E+00 -0.47095310196E+03  0.10430266575E+04  0.93064911970E+03 0.  0.
        2    1    3    3  502    0  0.36647232923E+02  0.28472033695E+03  0.17496695258E+03  0.33618763281E+03  0.25500000920E-02 0.  1.
       -2    1    3    3    0  502 -0.36647232923E+02 -0.28472033695E+03 -0.64592005454E+03  0.70683902468E+03  0.25500000920E-02 0. -1.
</event>
<event>
 5   0  0.1968763E-02  0.7675482E+03  0.7818609E-02  0.9608215E-01
       -2   -1    0    0    0  501  0.00000000000E+00  0.00000000000E+00  0.20597131057E+03  0.20597131059E+03  0.25500000920E-02 0.  1.
        2   -1    0    0  501    0  0.00000000000E+00  0.00000000000E+00 -0.71506341671E+03  0.71506341671E+03  0.25500000920E-02 0. -1.
    10030    2    1    2    0    0  0.00000000000E+00  0.00000000000E+00 -0.50909210614E+03  0.92103472730E+03  0.76754817201E+03 0.  0.
        2    1    3    3  502    0 -0.60020756764E+02 -0.20566905896E+03  0.12752764440E+03  0.24933020905E+03  0.25500000920E-02 0.  1.
       -2    1    3    3    0  502  0.60020756764E+02  0.20566905896E+03 -0.63661975053E+03  0.67170451825E+03  0.25500000920E-02 0. -1.
</event>
<event>
 5   0  0.2041861E-02  0.9437671E+03  0.7818609E-02  0.9372466E-01
        2   -1    0    0  501    0  0.00000000000E+00  0.00000000000E+00  0.13768586565E+04  0.13768586566E+04  0.25500000920E-02 0.  1.
       -2   -1    0    0    0  501  0.00000000000E+00  0.00000000000E+00 -0.16172616351E+03  0.16172616353E+03  0.25500000920E-02 0. -1.
    10030    2    1    2    0    0  0.00000000000E+00  0.00000000000E+00  0.12151324930E+04  0.15385848201E+04  0.94376706497E+03 0.  0.
        5    1    3    3  502    0  0.38213976714E+03 -0.14642410916E+03  0.22460747057E+03  0.46684197242E+03  0.46999998093E+01 0. -1.
       -5    1    3    3    0  502 -0.38213976714E+03  0.14642410916E+03  0.99052502247E+03  0.10717428477E+04  0.46999998093E+01 0.  1.
</event>
<event>
 5   0  0.1226424E-02  0.9063292E+03  0.7818609E-02  0.9417704E-01
       -1   -1    0    0    0  501  0.00000000000E+00  0.00000000000E+00  0.25453672206E+03  0.25453672211E+03  0.50400001928E-02 0. -1.
        1   -1    0    0  501    0  0.00000000000E+00  0.00000000000E+00 -0.80679191277E+03  0.80679191279E+03  0.50400001928E-02 0.  1.
    10030    2    1    2    0    0  0.00000000000E+00  0.00000000000E+00 -0.55225519071E+03  0.10613286349E+04  0.90632923134E+03 0.  0.
        1    1    3    3  502    0  0.14384380405E+03 -0.47617622256E+02 -0.77624957726E+03  0.79089941468E+03  0.50400001928E-02 0.  1.
       -1    1    3    3    0  502 -0.14384380405E+03  0.47617622256E+02  0.22399438655E+03  0.27042922021E+03  0.50400001928E-02 0. -1.
</event>
<event>
 5   0  0.2008770E-02  0.8672186E+03  0.7818609E-02  0.9467514E-01
        2   -1    0    0  501    0  0.00000000000E+00  0.00000000000E+00  0.86713660635E+03  0.86713660636E+03  0.25500000920E-02 0.  1.
       -2   -1    0    0    0  501  0.00000000000E+00  0.00000000000E+00 -0.21682512544E+03  0.21682512546E+03  0.25500000920E-02 0. -1.
    10030    2    1    2    0    0  0.00000000000E+00  0.00000000000E+00  0.65031148091E+03  0.10839617318E+04  0.86721855021E+03 0.  0.
        1    1    3    3  502    0  0.53865507858E+02 -0.42452129211E+03  0.23768585462E+03  0.48950422460E+03  0.50400001928E-02 0. -1.
       -1    1    3    3    0  502 -0.53865507858E+02  0.42452129211E+03  0.41262562628E+03  0.59445750721E+03  0.50400001928E-02 0.  1.
</event>
<event>
 5   0  0.1175993E-02  0.9178499E+03  0.7818609E-02  0.9403539E-01
       -1   -1    0    0    0  501  0.00000000000E+00  0.00000000000E+00  0.18991191018E+03  0.18991191025E+03  0.50400001928E-02 0. -1.
        1   -1    0    0  501    0  0.00000000000E+00  0.00000000000E+00 -0.11089989320E+04  0.11089989320E+04  0.50400001928E-02 0.  1.
    10030    2    1    2    0    0  0.00000000000E+00  0.00000000000E+00 -0.91908702183E+03  0.12989108423E+04  0.91784989103E+03 0.  0.
        4    1    3    3  502    0  0.26152251004E+03  0.10479152932E+03 -0.97220755373E+03  0.10122077002E+04  0.12699999809E+01 0.  1.
       -4    1    3    3    0  502 -0.26152251004E+03 -0.10479152932E+03  0.53120531897E+02  0.28670314209E+03  0.12699999809E+01 0. -1.
</event>
<event>
 5   0  0.2041861E-02  0.8830719E+03  0.7818609E-02  0.9446993E-01
       -2   -1    0    0    0  501  0.00000000000E+00  0.00000000000E+00  0.22872139998E+03  0.22872140000E+03  0.25500000920E-02 0. -1.
        2   -1    0    0  501    0  0.00000000000E+00  0.00000000000E+00 -0.85236449733E+03  0.85236449733E+03  0.25500000920E-02 0.  1.
    10030    2    1    2    0    0  0.00000000000E+00  0.00000000000E+00 -0.62364309734E+03  0.10810858973E+04  0.88307191357E+03 0.  0.
        5    1    3    3  502    0 -0.78859688014E+02 -0.29162342247E+03  0.82352701296E+02  0.31315671530E+03  0.46999998093E+01 0. -1.
       -5    1    3    3    0  502  0.78859688014E+02  0.29162342247E+03 -0.70599579864E+03  0.76792918203E+03  0.46999998093E+01 0.  1.
</event>
<event>
 5   0  0.1924218E-02  0.8959503E+03  0.7818609E-02  0.9430658E-01
       -2   -1    0    0    0  501  0.00000000000E+00  0.00000000000E+00  0.22025316872E+03  0.22025316874E+03  0.25500000920E-02 0. -1.
        2   -1    0    0  501    0  0.00000000000E+00  0.00000000000E+00 -0.91114119545E+03  0.91114119545E+03  0.25500000920E-02 0.  1.
    10030    2    1    2    0    0  0.00000000000E+00  0.00000000000E+00 -0.69088802672E+03  0.11313943642E+04  0.89595030099E+03 0.  0.
        4    1    3    3  502    0  0.11174721665E+03 -0.42730424335E+03 -0.43997410471E+03  0.62342215434E+03  0.12699999809E+01 0. -1.
       -4    1    3    3    0  502 -0.11174721665E+03  0.42730424335E+03 -0.25091392202E+03  0.50797220985E+03  0.12699999809E+01 0.  1.
</event>
<event>
 5   0  0.2041861E-02  0.9468490E+03  0.7818609E-02  0.9368841E-01
       -2   -1    0    0    0  501  0.00000000000E+00  0.00000000000E+00  0.30839214093E+03  0.30839214094E+03  0.25500000920E-02 0.  1.
        2   -1    0    0  501    0  0.00000000000E+00  0.00000000000E+00 -0.72677189041E+03  0.72677189041E+03  0.25500000920E-02 0. -1.
    10030    2    1    2    0    0  0.00000000000E+00  0.00000000000E+00 -0.41837974947E+03  0.10351640314E+04  0.94684896210E+03 0.  0.
        5    1    3    3  502    0  0.42120050849E+03 -0.12488886955E+03 -0.16384342695E+02  0.43965626889E+03  0.46999998093E+01 0.  1.
       -5    1    3    3    0  502 -0.42120050849E+03  0.12488886955E+03 -0.40199540678E+03  0.59550776247E+03  0.46999998093E+01 0. -1.
</event>
<event>
 5   0  0.2041861E-02  0.9183138E+03  0.7818609E-02  0.9402973E-01
        2   -1    0    0  501    0  0.00000000000E+00  0.00000000000E+00  0.81476479503E+03  0.81476479503E+03  0.25500000920E-02 0. -1.
       -2   -1    0    0    0  501  0.00000000000E+00  0.00000000000E+00 -0.25875573218E+03  0.25875573219E+03  0.25500000920E-02 0.  1.
    10030    2    1    2    0    0  0.00000000000E+00  0.00000000000E+00  0.55600906285E+03  0.10735205272E+04  0.91831380497E+03 0.  0.
        5    1    3    3  502    0 -0.13589884459E+03  0.26546929046E+03 -0.13008060147E+03  0.32540051170E+03  0.46999998093E+01 0.  1.
       -5    1    3    3    0  502  0.13589884459E+03 -0.26546929046E+03  0.68608966432E+03  0.74812001552E+03  0.46999998093E+01 0. -1.
</event>
<event>
 5   0  0.7893875E-03  0.8958717E+03  0.7818609E-02  0.9430757E-01
        4   -1    0    0  501    0  0.00000000000E+00  0.00000000000E+00  0.78499009642E+03  0.78499112376E+03  0.12699999809E+01 0.  1.
       -4   -1    0    0    0  501  0.00000000000E+00  0.00000000000E+00 -0.25560113823E+03  0.25560429332E+03  0.12699999809E+01 0. -1.
    10030    2    1    2    0    0  0.00000000000E+00  0.00000000000E+00  0.52938895819E+03  0.10405954171E+04  0.89587172798E+03 0.  0.
        2    1    3    3  502    0  0.17847905413E+03  0.36405918950E+03  0.43534730006E+02  0.40778565319E+03  0.25500000920E-02 0. -1.
       -2    1    3    3    0  502 -0.17847905413E+03 -0.36405918950E+03  0.48585422819E+03  0.63280976389E+03  0.25500000920E-02 0.  1.
</event>
<event>
 5   0  0.2008770E-02  0.8952364E+03  0.7818609E-02  0.9431556E-01
       -2   -1    0    0    0  501  0.00000000000E+00  0.00000000000E+00  0.40935944819E+03  0.40935944819E+03  0.25500000920E-02 0. -1.
        2   -1    0    0  501    0  0.00000000000E+00  0.00000000000E+00 -0.48945257438E+03  0.48945257439E+03  0.25500000920E-02 0.  1.
    10030    2    1    2    0    0  0.00000000000E+00  0.00000000000E+00 -0.80093126194E+02  0.89881202258E+03  0.89523636157E+03 0.  0.
        1    1    3    3  502    0 -0.21442053934E+03 -0.19429844618E+03  0.30283466622E+03  0.41885186996E+03  0.50400001928E-02 0. -1.
       -1    1    3    3    0  502  0.21442053934E+03  0.19429844618E+03 -0.38292779241E+03  0.47996015262E+03  0.50400001928E-02 0.  1.
</event>
<event>
 5   0  0.1162839E-02  0.8986645E+03  0.7818609E-02  0.9427252E-01
        1   -1    0    0  501    0  0.00000000000E+00  0.00000000000E+00  0.82416694822E+03  0.82416694824E+03  0.50400001928E-02 0.  1.
       -1   -1    0    0    0  501  0.00000000000E+00  0.00000000000E+00 -0.24497399166E+03  0.24497399171E+03  0.50400001928E-02 0. -1.
    10030    2    1    2    0    0  0.00000000000E+00  0.00000000000E+00  0.57919295656E+03  0.10691409399E+04  0.89866449165E+03 0.  0.
        2    1    3    3  502    0 -0.44453481307E+03  0.10043965769E+02  0.21261098997E+03  0.49286460041E+03  0.25500000920E-02 0.  1.
       -2    1    3    3    0  502  0.44453481307E+03 -0.10043965769E+02  0.36658196659E+03  0.57627633954E+03  0.25500000920E-02 0. -1.
</event>
<event>
 5   0  0.1924218E-02  0.9174354E+03  0.7818609E-02  0.9404045E-01
        2   -1    0    0  501    0  0.00000000000E+00  0.00000000000E+00  0.98500009178E+03  0.98500009178E+03  0.25500000920E-02 0. -1.
       -2   -1    0    0    0  501  0.00000000000E+00  0.00000000000E+00 -0.21362632561E+03  0.21362632563E+03  0.25500000920E-02 0.  1.
    10030    2    1    2    0    0  0.00000000000E+00  0.00000000000E+00  0.77137376616E+03  0.11986264174E+04  0.91743544808E+03 0.  0.
        4    1    3    3  502    0  0.13700812280E+03  0.36365850414E+02  0.95566491214E+03  0.96612149235E+03  0.12699999809E+01 0. -1.
       -4    1    3    3    0  502 -0.13700812280E+03 -0.36365850414E+02 -0.18429114598E+03  0.23250492506E+03  0.12699999809E+01 0.  1.
</event>
<event>
 5   0  0.1206541E-02  0.9223576E+03  0.7818609E-02  0.9398057E-01
       -1   -1    0    0    0  501  0.00000000000E+00  0.00000000000E+00  0.55853110125E+03  0.55853110127E+03  0.50400001928E-02 0. -1.
        1   -1    0    0  501    0  0.00000000000E+00  0.00000000000E+00 -0.38079504479E+03  0.38079504482E+03  0.50400001928E-02 0.  1.
    10030    2    1    2    0    0  0.00000000000E+00  0.00000000000E+00  0.17773605646E+03  0.93932614610E+03  0.92235757869E+03 0.  0.
        3    1    3    3  502    0  0.81037413512E+01 -0.30820880273E+03 -0.26041024971E+03  0.40357384090E+03  0.10100000352E+00 0.  1.
       -3    1    3    3    0  502 -0.81037413512E+01  0.30820880273E+03  0.43814630617E+03  0.53575230519E+03  0.10100000352E+00 0. -1.
</event>
<event>
 5   0  0.2008643E-02  0.9099523E+03  0.7818609E-02  0.9413225E-01
        2   -1    0    0  501    0  0.00000000000E+00  0.00000000000E+00  0.21024331179E+03  0.21024331180E+03  0.25500000920E-02 0.  1.
       -2   -1    0    0    0  501  0.00000000000E+00  0.00000000000E+00 -0.98458926588E+03  0.98458926588E+03  0.25500000920E-02 0. -1.
    10030    2    1    2    0    0  0.00000000000E+00  0.00000000000E+00 -0.77434595409E+03  0.11948325777E+04  0.90995232407E+03 0.  0.
        3    1    3    3  502    0 -0.88931596906E+02 -0.42196023275E+03 -0.57765451191E+03  0.72086337976E+03  0.10100000352E+00 0. -1.
       -3    1    3    3    0  502  0.88931596906E+02  0.42196023275E+03 -0.19669144219E+03  0.47396919793E+03  0.10100000352E+00 0.  1.
</event>
<event>
 5   0  0.1175993E-02  0.9097050E+03  0.7818609E-02  0.9413530E-01
        1   -1    0    0  501    0  0.00000000000E+00  0.00000000000E+00  0.35458224512E+03  0.35458224516E+03  0.50400001928E-02 0.  1.
       -1   -1    0    0    0  501  0.00000000000E+00  0.00000000000E+00 -0.58347759393E+03  0.58347759395E+03  0.50400001928E-02 0. -1.
    10030    2    1    2    0    0  0.00000000000E+00  0.00000000000E+00 -0.22889534881E+03  0.93805983910E+03  0.90970499671E+03 0.  0.
        4    1    3    3  502    0 -0.25006508615E+03 -0.15247491872E+03  0.24440520911E+03  0.38146646942E+03  0.12699999809E+01 0.  1.
       -4    1    3    3    0  502  0.25006508615E+03  0.15247491872E+03 -0.47330055792E+03  0.55659336968E+03  0.12699999809E+01 0. -1.
</event>
<event>
 5   0  0.2008770E-02  0.8956763E+03  0.7818609E-02  0.9431002E-01
       -2   -1    0    0    0  501  0.00000000000E+00  0.00000000000E+00  0.13118723535E+03  0.13118723537E+03  0.25500000920E-02 0.  1.
        2   -1    0    0  501    0  0.00000000000E+00  0.00000000000E+00 -0.15287997020E+04  0.15287997020E+04  0.25500000920E-02 0. -1.
    10030    2    1    2    0    0  0.00000000000E+00  0.00000000000E+00 -0.13976124666E+04  0.16599869373E+04  0.89567629493E+03 0.  0.
        1    1    3    3  502    0 -0.17309332791E+03 -0.98096978505E+02 -0.14423942590E+04  0.14560513438E+04  0.50400001928E-02 0. -1.
       -1    1    3    3    0  502  0.17309332791E+03  0.98096978505E+02  0.44781792384E+02  0.20393559354E+03  0.50400001928E-02 0.  1.
</event>
<event>
 5   0  0.1177712E-02  0.8985882E+03  0.7818609E-02  0.9427348E-01
       -1   -1    0    0    0  501  0.00000000000E+00  0.00000000000E+00  0.45504985726E+03  0.45504985729E+03  0.50400001928E-02 0. -1.
        1   -1    0    0  501    0  0.00000000000E+00  0.00000000000E+00 -0.44361118968E+03  0.44361118971E+03  0.50400001928E-02 0.  1.
    10030    2    1    2    0    0  0.00000000000E+00  0.00000000000E+00  0.11438667578E+02  0.89866104700E+03  0.89858824513E+03 0.  0.
        5    1    3    3  502    0  0.13862093969E+03 -0.23983082052E+03 -0.34801616641E+03  0.44482797740E+03  0.46999998093E+01 0.  1.
       -5    1    3    3    0  502 -0.13862093969E+03  0.23983082052E+03  0.35945483399E+03  0.45383306961E+03  0.46999998093E+01 0. -1.
</event>
<event>
 5   0  0.1175993E-02  0.9073059E+03  0.7818609E-02  0.9416494E-01
       -1   -1    0    0    0  501  0.00000000000E+00  0.00000000000E+00  0.15843032725E+03  0.15843032733E+03  0.50400001928E-02 0. -1.
        1   -1    0    0  501    0  0.00000000000E+00  0.00000000000E+00 -0.12990000426E+04  0.12990000427E+04  0.50400001928E-02 0.  1.
    10030    2    1    2    0    0  0.00000000000E+00  0.00000000000E+00 -0.11405697154E+04  0.14574303700E+04  0.90730590634E+03 0.  0.
        4    1    3    3  502    0 -0.24479140446E+03  0.31180377393E+02 -0.11817543244E+04  0.12072447738E+04  0.12699999809E+01 0.  1.
       -4    1    3    3    0  502  0.24479140446E+03 -0.31180377393E+02  0.41184609018E+02  0.25018559622E+03  0.12699999809E+01 0. -1.
</event>
<event>
 5   0  0.2008643E-02  0.9237051E+03  0.7818609E-02  0.9396425E-01
       -2   -1    0    0    0  501  0.00000000000E+00  0.00000000000E+00  0.27434769146E+03  0.27434769148E+03  0.25500000920E-02 0.  1.
        2   -1    0    0  501    0  0.00000000000E+00  0.00000000000E+00 -0.77750888526E+03  0.77750888526E+03  0.25500000920E-02 0. -1.
    10030    2    1    2    0    0  0.00000000000E+00  0.00000000000E+00 -0.50316119379E+03  0.10518565767E+04  0.92370507798E+03 0.  0.
        3    1    3    3  502    0  0.45923390920E+03  0.41714453790E+02 -0.22206384356E+03  0.51180879226E+03  0.10100000352E+00 0. -1.
       -3    1    3    3    0  502 -0.45923390920E+03 -0.41714453790E+02 -0.28109735023E+03  0.54004778448E+03  0.10100000352E+00 0.  1.
</event>
<event>
 5   0  0.1177712E-02  0.8443932E+03  0.7818609E-02  0.9497893E-01
       -1   -1    0    0    0  501  0.00000000000E+00  0.00000000000E+00  0.52587875099E+03  0.52587875102E+03  0.50400001928E-02 0.  1.
        1   -1    0    0  501    0  0.00000000000E+00  0.00000000000E+00 -0.33895641468E+03  0.33895641472E+03  0.50400001928E-02 0. -1.
    10030    2    1    2    0    0  0.00000000000E+00  0.00000000000E+00  0.18692233631E+03  0.86483516574E+03  0.84439321651E+03 0.  0.
        5    1    3    3  502    0 -0.74896578731E+02  0.62588013715E+02  0.51413703602E+03  0.52334093932E+03  0.46999998093E+01 0.  1.
       -5    1    3    3    0  502  0.74896578731E+02 -0.62588013715E+02 -0.32721469971E+03  0.34149422641E+03  0.46999998093E+01 0. -1.
</event>
<event>
 5   0  0.1206541E-02  0.8968745E+03  0.7818609E-02  0.9429497E-01
       -1   -1    0    0    0  501  0.00000000000E+00  0.00000000000E+00  0.76283796702E+03  0.76283796704E+03  0.50400001928E-02 0. -1.
        1   -1    0    0  501    0  0.00000000000E+00  0.00000000000E+00 -0.26361557741E+03  0.26361557745E+03  0.50400001928E-02 0.  1.
    10030    2    1    2    0    0  0.00000000000E+00  0.00000000000E+00  0.49922238962E+03  0.10264535445E+04  0.89687450889E+03 0.  0.
        3    1    3    3  502    0  0.93132090534E+00  0.42014682656E+03  0.70209907982E+02  0.42597378394E+03  0.10100000352E+00 0.  1.
       -3    1    3    3    0  502 -0.93132090534E+00 -0.42014682656E+03  0.42901248163E+03  0.60047976055E+03  0.10100000352E+00 0. -1.
</event>
<event>
 5   0  0.1162839E-02  0.9701807E+03  0.7818609E-02  0.9341869E-01
        1   -1    0    0  501    0  0.00000000000E+00  0.00000000000E+00  0.56178855601E+03  0.56178855603E+03  0.50400001928E-02 0.  1.
       -1   -1    0    0    0  501  0.00000000000E+00  0.00000000000E+00 -0.41886340574E+03  0.41886340577E+03  0.50400001928E-02 0. -1.
    10030    2    1    2    0    0  0.00000000000E+00  0.00000000000E+00  0.14292515027E+03  0.98065196180E+03  0.97018074172E+03 0.  0.
        2    1    3    3  502    0 -0.53018665315E+02 -0.19801793537E+03 -0.37293082826E+03  0.42555785068E+03  0.25500000920E-02 0. -1.
       -2    1    3    3    0  502  0.53018665315E+02  0.19801793537E+03  0.51585597853E+03  0.55509411112E+03  0.25500000920E-02 0.  1.
</event>
<event>
 5   0  0.1968763E-02  0.9104913E+03  0.7818609E-02  0.9412561E-01
       -2   -1    0    0    0  501  0.00000000000E+00  0.00000000000E+00  0.30211606263E+03  0.30211606264E+03  0.25500000920E-02 0.  1.
        2   -1    0    0  501    0  0.00000000000E+00  0.00000000000E+00 -0.68598996448E+03  0.68598996448E+03  0.25500000920E-02 0. -1.
    10030    2    1    2    0    0  0.00000000000E+00  0.00000000000E+00 -0.38387390185E+03  0.98810602712E+03  0.91049126756E+03 0.  0.
        2    1    3    3  502    0  0.38149854613E+03 -0.21521288039E+03 -0.57301557915E+02  0.44174788413E+03  0.25500000920E-02 0.  1.
       -2    1    3    3    0  502 -0.38149854613E+03  0.21521288039E+03 -0.32657234394E+03  0.54635814299E+03  0.25500000920E-02 0. -1.
</event>
<event>
 5   0  0.1162839E-02  0.9377459E+03  0.7818609E-02  0.9379589E-01
       -1   -1    0    0    0  501  0.00000000000E+00  0.00000000000E+00  0.22441382845E+03  0.22441382850E+03  0.50400001928E-02 0.  1.
        1   -1    0    0  501    0  0.00000000000E+00  0.00000000000E+00 -0.97962704151E+03  0.97962704153E+03  0.50400001928E-02 0. -1.
    10030    2    1    2    0    0  0.00000000000E+00  0.00000000000E+00 -0.75521321307E+03  0.12040408700E+04  0.93774592482E+03 0.  0.
        2    1    3    3  502    0 -0.41853820162E+03 -0.82956748110E+02 -0.62719270492E+03  0.75856887451E+03  0.25500000920E-02 0.  1.
       -2    1    3    3    0  502  0.41853820162E+03  0.82956748110E+02 -0.12802050815E+03  0.44547199551E+03  0.25500000920E-02 0. -1.
</event>
<event>
 5   0  0.1162839E-02  0.8838896E+03  0.7818609E-02  0.9445947E-01
       -1   -1    0    0    0  501  0.00000000000E+00  0.00000000000E+00  0.12646326513E+03  0.12646326523E+03  0.50400001928E-02 0.  1.
        1   -1    0    0  501    0  0.00000000000E+00  0.00000000000E+00 -0.15444421317E+04  0.15444421317E+04  0.50400001928E-02 0. -1.
    10030    2    1    2    0    0  0.00000000000E+00  0.00000000000E+00 -0.14179788666E+04  0.16709053969E+04  0.88388957425E+03 0.  0.
        2    1    3    3  502    0 -0.15834273737E+03 -0.47575611171E+02 -0.14837754562E+04  0.14929586283E+04  0.25500000920E-02 0. -1.
       -2    1    3    3    0  502  0.15834273737E+03  0.47575611171E+02  0.65796589655E+02  0.17794676865E+03  0.25500000920E-02 0.  1.
</event>
<event>
 5   0  0.1206541E-02  0.9994326E+03  0.7818609E-02  0.9309167E-01
        1   -1    0    0  501    0  0.00000000000E+00  0.00000000000E+00  0.10622311144E+04  0.10622311144E+04  0.50400001928E-02 0.  1.
       -1   -1    0    0    0  501  0.00000000000E+00  0.00000000000E+00 -0.23508665584E+03  0.23508665589E+03  0.50400001928E-02 0. -1.
    10030    2    1    2    0    0  0.00000000000E+00  0.00000000000E+00  0.82714445853E+03  0.12973177703E+04  0.99943255990E+03 0.  0.
        3    1    3    3  502    0 -0.20120960895E+03  0.20863133246E+03  0.94196806101E+03  0.98555374170E+03  0.10100000352E+00 0. -1.
       -3    1    3    3    0  502  0.20120960895E+03 -0.20863133246E+03 -0.11482360249E+03  0.31176402857E+03  0.10100000352E+00 0.  1.
</event>
<event>
 5   0  0.2008770E-02  0.8940784E+03  0.7818609E-02  0.9433014E-01
       -2   -1    0    0    0  501  0.00000000000E+00  0.00000000000E+00  0.15664717786E+03  0.15664717788E+03  0.25500000920E-02 0. -1.
        2   -1    0    0  501    0  0.00000000000E+00  0.00000000000E+00 -0.12757590219E+04  0.12757590219E+04  0.25500000920E-02 0.  1.
    10030    2    1    2    0    0  0.00000000000E+00  0.00000000000E+00 -0.11191118440E+04  0.14324061998E+04  0.89407840914E+03 0.  0.
        1    1    3    3  502    0 -0.37867411670E+03 -0.21322585607E+03 -0.72746904778E+03  0.84739044594E+03  0.50400001928E-02 0.  1.
       -1    1    3    3    0  502  0.37867411670E+03  0.21322585607E+03 -0.39164279623E+03  0.58501575382E+03  0.50400001928E-02 0. -1.
</event>
<event>
 5   0  0.7893875E-03  0.8979784E+03  0.7818609E-02  0.9428112E-01
       -3   -1    0    0    0  501  0.00000000000E+00  0.00000000000E+00  0.79594862814E+03  0.79594863455E+03  0.10100000352E+00 0.  1.
        3   -1    0    0  501    0  0.00000000000E+00  0.00000000000E+00 -0.25327174059E+03  0.25327176073E+03  0.10100000352E+00 0. -1.
    10030    2    1    2    0    0  0.00000000000E+00  0.00000000000E+00  0.54267688755E+03  0.10492203953E+04  0.89797841488E+03 0.  0.
        3    1    3    3  502    0 -0.33674892245E+03  0.12124028480E+03  0.58809208247E+03  0.68844124738E+03  0.10100000352E+00 0.  1.
       -3    1    3    3    0  502  0.33674892245E+03 -0.12124028480E+03 -0.45415194925E+02  0.36077914790E+03  0.10100000352E+00 0. -1.
</event>
<event>
 5   0  0.1924218E-02  0.8759729E+03  0.7818609E-02  0.9456125E-01
       -2   -1    0    0    0  501  0.00000000000E+00  0.00000000000E+00  0.78802711998E+03  0.78802711998E+03  0.25500000920E-02 0.  1.
        2   -1    0    0  501    0  0.00000000000E+00  0.00000000000E+00 -0.24343340470E+03  0.24343340471E+03  0.25500000920E-02 0. -1.
    10030    2    1    2    0    0  0.00000000000E+00  0.00000000000E+00  0.54459371528E+03  0.10314605247E+04  0.87597288730E+03 0.  0.
        4    1    3    3  502    0 -0.90342547329E+02  0.28075124186E+03  0.65357414741E+03  0.71703822404E+03  0.12699999809E+01 0.  1.
       -4    1    3    3    0  502  0.90342547329E+02 -0.28075124186E+03 -0.10898043213E+03  0.31442230066E+03  0.12699999809E+01 0. -1.
</event>
<event>
 5   0  0.1226424E-02  0.9039503E+03  0.7818609E-02  0.9420657E-01
        1   -1    0    0  501    0  0.00000000000E+00  0.00000000000E+00  0.43876225463E+03  0.43876225466E+03  0.50400001928E-02 0. -1.
       -1   -1    0    0    0  501  0.00000000000E+00  0.00000000000E+00 -0.46558593800E+03  0.46558593803E+03  0.50400001928E-02 0.  1.
    10030    2    1    2    0    0  0.00000000000E+00  0.00000000000E+00 -0.26823683368E+02  0.90434819268E+03  0.90395029931E+03 0.  0.
        1    1    3    3  502    0  0.40321636122E+03 -0.43842569334E+02  0.18611498666E+03  0.44625597265E+03  0.50400001928E-02 0. -1.
       -1    1    3    3    0  502 -0.40321636122E+03  0.43842569334E+02 -0.21293867003E+03  0.45809222004E+03  0.50400001928E-02 0.  1.
</event>
<event>
 5   0  0.2008770E-02  0.9000452E+03  0.7818609E-02  0.9425525E-01
       -2   -1    0    0    0  501  0.00000000000E+00  0.00000000000E+00  0.20462932592E+03  0.20462932594E+03  0.25500000920E-02 0.  1.
        2   -1    0    0  501    0  0.00000000000E+00  0.00000000000E+00 -0.98969365473E+03  0.98969365474E+03  0.25500000920E-02 0. -1.
    10030    2    1    2    0    0  0.00000000000E+00  0.00000000000E+00 -0.78506432881E+03  0.11943229807E+04  0.90004521097E+03 0.  0.
        1    1    3    3  502    0 -0.24467674466E+03 -0.37684087442E+03 -0.42622206439E+03  0.61930687240E+03  0.50400001928E-02 0.  1.
       -1    1    3    3    0  502  0.24467674466E+03  0.37684087442E+03 -0.35884226443E+03  0.57501610827E+03  0.50400001928E-02 0. -1.
</event>
<event>
 5   0  0.1924218E-02  0.8982390E+03  0.7818609E-02  0.9427785E-01
        2   -1    0    0  501    0  0.00000000000E+00  0.00000000000E+00  0.50372944743E+03  0.50372944744E+03  0.25500000920E-02 0.  1.
       -2   -1    0    0    0  501  0.00000000000E+00  0.00000000000E+00 -0.40042992940E+03  0.40042992941E+03  0.25500000920E-02 0. -1.
    10030    2    1    2    0    0  0.00000000000E+00  0.00000000000E+00  0.10329951803E+03  0.90415937685E+03  0.89823904854E+03 0.  0.
        4    1    3    3  502    0  0.20417119567E+03 -0.37045086807E+03 -0.10029885546E+03  0.43471967531E+03  0.12699999809E+01 0. -1.
       -4    1    3    3    0  502 -0.20417119567E+03  0.37045086807E+03  0.20359837348E+03  0.46943970154E+03  0.12699999809E+01 0.  1.
</event>
<event>
 5   0  0.2041861E-02  0.8995260E+03  0.7818609E-02  0.9426174E-01
        2   -1    0    0  501    0  0.00000000000E+00  0.00000000000E+00  0.24604338676E+03  0.24604338678E+03  0.25500000920E-02 0. -1.
       -2   -1    0    0    0  501  0.00000000000E+00  0.00000000000E+00 -0.82215880331E+03  0.82215880331E+03  0.25500000920E-02 0.  1.
    10030    2    1    2    0    0  0.00000000000E+00  0.00000000000E+00 -0.57611541655E+03  0.10682021901E+04  0.89952595612E+03 0.  0.
        5    1    3    3  502    0 -0.84750164276E+02 -0.16338574076E+02  0.23608684878E+03  0.25141326439E+03  0.46999998093E+01 0. -1.
       -5    1    3    3    0  502  0.84750164276E+02  0.16338574076E+02 -0.81220226533E+03  0.81678892570E+03  0.46999998093E+01 0.  1.
</event>
<event>
 5   0  0.2008770E-02  0.8856801E+03  0.7818609E-02  0.9443661E-01
        2   -1    0    0  501    0  0.00000000000E+00  0.00000000000E+00  0.76807834953E+03  0.76807834953E+03  0.25500000920E-02 0. -1.
       -2   -1    0    0    0  501  0.00000000000E+00  0.00000000000E+00 -0.25532201194E+03  0.25532201195E+03  0.25500000920E-02 0.  1.
    10030    2    1    2    0    0  0.00000000000E+00  0.00000000000E+00  0.51275633759E+03  0.10234003615E+04  0.88568009922E+03 0.  0.
        1    1    3    3  502    0  0.16296127038E+03 -0.28753338645E+03 -0.84200388980E+02  0.34105942223E+03  0.50400001928E-02 0.  1.
       -1    1    3    3    0  502 -0.16296127038E+03  0.28753338645E+03  0.59695672657E+03  0.68234093926E+03  0.50400001928E-02 0. -1.
</event>
<event>
 5   0  0.2041861E-02  0.6507788E+03  0.7818609E-02  0.9805319E-01
       -2   -1    0    0    0  501  0.00000000000E+00  0.00000000000E+00  0.23658685593E+03  0.23658685595E+03  0.25500000920E-02 0. -1.
        2   -1    0    0  501    0  0.00000000000E+00  0.00000000000E+00 -0.44752390070E+03  0.44752390071E+03  0.25500000920E-02 0.  1.
    10030    2    1    2    0    0  0.00000000000E+00  0.00000000000E+00 -0.21093704477E+03  0.68411075666E+03  0.65077883380E+03 0.  0.
        5    1    3    3  502    0  0.26748058129E+02 -0.11140290654E+03 -0.42558158937E+03  0.44075826187E+03  0.46999998093E+01 0.  1.
       -5    1    3    3    0  502 -0.26748058129E+02  0.11140290654E+03  0.21464454459E+03  0.24335249479E+03  0.46999998093E+01 0. -1.
</event>
<event>
 5   0  0.2008770E-02  0.8896230E+03  0.7818609E-02  0.9438647E-01
        2   -1    0    0  501    0  0.00000000000E+00  0.00000000000E+00  0.25525352598E+03  0.25525352599E+03  0.25500000920E-02 0. -1.
       -2   -1    0    0    0  501  0.00000000000E+00  0.00000000000E+00 -0.77514013224E+03  0.77514013225E+03  0.25500000920E-02 0.  1.
    10030    2    1    2    0    0  0.00000000000E+00  0.00000000000E+00 -0.51988660627E+03  0.10303936582E+04  0.88962295809E+03 0.  0.
        1    1    3    3  502    0  0.45149522143E+02  0.14875864115E+03 -0.74265091973E+03  0.75874765322E+03  0.50400001928E-02 0.  1.
       -1    1    3    3    0  502 -0.45149522143E+02 -0.14875864115E+03  0.22276431346E+03  0.27164600502E+03  0.50400001928E-02 0. -1.
</event>
<event>
 5   0  0.1175993E-02  0.9043789E+03  0.7818609E-02  0.9420124E-01
       -1   -1    0    0    0  501  0.00000000000E+00  0.00000000000E+00  0.33610971588E+03  0.33610971592E+03  0.50400001928E-02 0.  1.
        1   -1    0    0  501    0  0.00000000000E+00  0.00000000000E+00 -0.60835882366E+03  0.60835882368E+03  0.50400001928E-02 0. -1.
    10030    2    1    2    0    0  0.00000000000E+00  0.00000000000E+00 -0.27224910778E+03  0.94446853960E+03  0.90437892811E+03 0.  0.
        4    1    3    3  502    0  0.42057306914E+03  0.13143728489E+03 -0.30053321495E+02  0.44165855746E+03  0.12699999809E+01 0.  1.
       -4    1    3    3    0  502 -0.42057306914E+03 -0.13143728489E+03 -0.24219578629E+03  0.50280998214E+03  0.12699999809E+01 0. -1.
</event>
<event>
 5   0  0.1206541E-02  0.8455995E+03  0.7818609E-02  0.9496262E-01
        1   -1    0    0  501    0  0.00000000000E+00  0.00000000000E+00  0.27674938989E+03  0.27674938993E+03  0.50400001928E-02 0.  1.
       -1   -1    0    0    0  501  0.00000000000E+00  0.00000000000E+00 -0.64592603323E+03  0.64592603325E+03  0.50400001928E-02 0. -1.
    10030    2    1    2    0    0  0.00000000000E+00  0.00000000000E+00 -0.36917664334E+03  0.92267542318E+03  0.84559951664E+03 0.  0.
        3    1    3    3  502    0 -0.16221835041E+03  0.16503667687E+03 -0.57068831425E+03  0.61582226344E+03  0.10100000352E+00 0. -1.
       -3    1    3    3    0  502  0.16221835041E+03 -0.16503667687E+03  0.20151167091E+03  0.30685315973E+03  0.10100000352E+00 0.  1.
</event>
<event>
 5   0  0.2008770E-02  0.6052145E+03  0.7818609E-02  0.9894646E-01
       -2   -1    0    0    0  501  0.00000000000E+00  0.00000000000E+00  0.54858646440E+02  0.54858646500E+02  0.25500000920E-02 0. -1.
        2   -1    0    0  501    0  0.00000000000E+00  0.00000000000E+00 -0.16692199570E+04  0.16692199570E+04  0.25500000920E-02 0.  1.
    10030    2    1    2    0    0  0.00000000000E+00  0.00000000000E+00 -0.16143613106E+04  0.17240786035E+04  0.60521449919E+03 0.  0.
        1    1    3    3  502    0 -0.20672164869E+03  0.17260987356E+03 -0.41406801650E+03  0.49394365145E+03  0.50400001928E-02 0.  1.
       -1    1    3    3    0  502  0.20672164869E+03 -0.17260987356E+03 -0.12002932941E+04  0.12301349521E+04  0.50400001928E-02 0. -1.
</event>
<event>
 5   0  0.1162839E-02  0.8890342E+03  0.7818609E-02  0.9439394E-01
        1   -1    0    0  501    0  0.00000000000E+00  0.00000000000E+00  0.20150118478E+04  0.20150118478E+04  0.50400001928E-02 0. -1.
       -1   -1    0    0    0  501  0.00000000000E+00  0.00000000000E+00 -0.98061691309E+02  0.98061691438E+02  0.50400001928E-02 0.  1.
    10030    2    1    2    0    0  0.00000000000E+00  0.00000000000E+00  0.19169501565E+04  0.21130735393E+04  0.88903423994E+03 0.  0.
        2    1    3    3  502    0  0.16570965701E+03  0.35698848078E+03  0.14495917237E+04  0.15020707810E+04  0.25500000920E-02 0. -1.
       -2    1    3    3    0  502 -0.16570965701E+03 -0.35698848078E+03  0.46735843286E+03  0.61100275827E+03  0.25500000920E-02 0.  1.
</event>
<event>
 5   0  0.1968763E-02  0.8816445E+03  0.7818609E-02  0.9448822E-01
       -2   -1    0    0    0  501  0.00000000000E+00  0.00000000000E+00  0.27530359714E+03  0.27530359715E+03  0.25500000920E-02 0. -1.
        2   -1    0    0  501    0  0.00000000000E+00  0.00000000000E+00 -0.70585439545E+03  0.70585439545E+03  0.25500000920E-02 0.  1.
    10030    2    1    2    0    0  0.00000000000E+00  0.00000000000E+00 -0.43055079831E+03  0.98115799260E+03  0.88164449554E+03 0.  0.
        2    1    3    3  502    0 -0.82566842497E+01  0.27734165728E+03  0.16593453187E+03  0.32329682425E+03  0.25500000920E-02 0. -1.
       -2    1    3    3    0  502  0.82566842497E+01 -0.27734165728E+03 -0.59648533018E+03  0.65786116835E+03  0.25500000920E-02 0.  1.
</event>
<event>
 5   0  0.1175993E-02  0.8948414E+03  0.7818609E-02  0.9432053E-01
       -1   -1    0    0    0  501  0.00000000000E+00  0.00000000000E+00  0.26889408008E+03  0.26889408013E+03  0.50400001928E-02 0. -1.
        1   -1    0    0  501    0  0.00000000000E+00  0.00000000000E+00 -0.74447628234E+03  0.74447628235E+03  0.50400001928E-02 0.  1.
    10030    2    1    2    0    0  0.00000000000E+00  0.00000000000E+00 -0.47558220225E+03  0.10133703625E+04  0.89484136050E+03 0.  0.
        4    1    3    3  502    0  0.22660544998E+03 -0.15958979404E+03  0.15996572140E+03  0.32001496410E+03  0.12699999809E+01 0. -1.
       -4    1    3    3    0  502 -0.22660544998E+03  0.15958979404E+03 -0.63554792365E+03  0.69335539839E+03  0.12699999809E+01 0.  1.
</event>
<event>
 5   0  0.2041861E-02  0.8904877E+03  0.7818609E-02  0.9437551E-01
        2   -1    0    0  501    0  0.00000000000E+00  0.00000000000E+00  0.34835458543E+03  0.34835458544E+03  0.25500000920E-02 0.  1.
       -2   -1    0    0    0  501  0.00000000000E+00  0.00000000000E+00 -0.56908134924E+03  0.56908134924E+03  0.25500000920E-02 0. -1.
    10030    2    1    2    0    0  0.00000000000E+00  0.00000000000E+00 -0.22072676380E+03  0.91743593468E+03  0.89048772591E+03 0.  0.
        5    1    3    3  502    0 -0.54983902687E+02 -0.26679495985E+03  0.25245461219E+03  0.37142724909E+03  0.46999998093E+01 0.  1.
       -5    1    3    3    0  502  0.54983902687E+02  0.26679495985E+03 -0.47318137599E+03  0.54600868559E+03  0.46999998093E+01 0. -1.
</event>
<event>
 5   0  0.1175993E-02  0.8910371E+03  0.7818609E-02  0.9436855E-01
        1   -1    0    0  501    0  0.00000000000E+00  0.00000000000E+00  0.72044498074E+03  0.72044498076E+03  0.50400001928E-02 0. -1.
       -1   -1    0    0    0  501  0.00000000000E+00  0.00000000000E+00 -0.27550580195E+03  0.27550580200E+03  0.50400001928E-02 0.  1.
    10030    2    1    2    0    0  0.00000000000E+00  0.00000000000E+00  0.44493917879E+03  0.99595078276E+03  0.89103708613E+03 0.  0.
        4    1    3    3  502    0  0.25059618231E+03 -0.36120973066E+03  0.14175765822E+03  0.46191748471E+03  0.12699999809E+01 0. -1.
       -4    1    3    3    0  502 -0.25059618231E+03  0.36120973066E+03  0.30318152057E+03  0.53403329805E+03  0.12699999809E+01 0.  1.
</event>
<event>
 5   0  0.2008770E-02  0.8868934E+03  0.7818609E-02  0.9442115E-01
       -2   -1    0    0    0  501  0.00000000000E+00  0.00000000000E+00  0.51788063425E+03  0.51788063425E+03  0.25500000920E-02 0. -1.
        2   -1    0    0  501    0  0.00000000000E+00  0.00000000000E+00 -0.37971097376E+03  0.37971097377E+03  0.25500000920E-02 0.  1.
    10030    2    1    2    0    0  0.00000000000E+00  0.00000000000E+00  0.13816966048E+03  0.89759160802E+03  0.88689336434E+03 0.  0.
        1    1    3    3  502    0  0.25533541052E+03  0.22147747722E+03 -0.22142564712E+03  0.40407643090E+03  0.50400001928E-02 0.  1.
       -1    1    3    3    0  502 -0.25533541052E+03 -0.22147747722E+03  0.35959530761E+03  0.49351517713E+03  0.50400001928E-02 0. -1.
</event>
<event>
 5   0  0.1162839E-02  0.8833704E+03  0.7818609E-02  0.9446611E-01
        1   -1    0    0  501    0  0.00000000000E+00  0.00000000000E+00  0.41447149441E+03  0.41447149444E+03  0.50400001928E-02 0. -1.
       -1   -1    0    0    0  501  0.00000000000E+00  0.00000000000E+00 -0.47068568720E+03  0.47068568723E+03  0.50400001928E-02 0.  1.
    10030    2    1    2    0    0  0.00000000000E+00  0.00000000000E+00 -0.56214192794E+02  0.88515718167E+03  0.88337036445E+03 0.  0.
        2    1    3    3  502    0 -0.10158369415E+03  0.17888571768E+03 -0.41975117974E+03  0.46745095979E+03  0.25500000920E-02 0.  1.
       -2    1    3    3    0  502  0.10158369415E+03 -0.17888571768E+03  0.36353698695E+03  0.41770622187E+03  0.25500000920E-02 0. -1.
</event>
<event>
 5   0  0.7893875E-03  0.8982966E+03  0.7818609E-02  0.9427713E-01
       -4   -1    0    0    0  501  0.00000000000E+00  0.00000000000E+00  0.21543033967E+03  0.21543408308E+03  0.12699999809E+01 0. -1.
        4   -1    0    0  501    0  0.00000000000E+00  0.00000000000E+00 -0.93641189158E+03  0.93641275279E+03  0.12699999809E+01 0.  1.
    10030    2    1    2    0    0  0.00000000000E+00  0.00000000000E+00 -0.72098155191E+03  0.11518468359E+04  0.89829657413E+03 0.  0.
        5    1    3    3  502    0 -0.25840057009E+03 -0.34979768109E+03 -0.21665596482E+03  0.48589213763E+03  0.46999998093E+01 0. -1.
       -5    1    3    3    0  502  0.25840057009E+03  0.34979768109E+03 -0.50432558709E+03  0.66595469824E+03  0.46999998093E+01 0.  1.
</event>
<event>
 5   0  0.1206541E-02  0.8999441E+03  0.7818609E-02  0.9425651E-01
       -1   -1    0    0    0  501  0.00000000000E+00  0.00000000000E+00  0.98338500557E+03  0.98338500558E+03  0.50400001928E-02 0.  1.
        1   -1    0    0  501    0  0.00000000000E+00  0.00000000000E+00 -0.20589579977E+03  0.20589579983E+03  0.50400001928E-02 0. -1.
    10030    2    1    2    0    0  0.00000000000E+00  0.00000000000E+00  0.77748920580E+03  0.11892808054E+04  0.89994409214E+03 0.  0.
        3    1    3    3  502    0 -0.38036367510E+03  0.79803225509E+02  0.68843725428E+03  0.79056368714E+03  0.10100000352E+00 0.  1.
       -3    1    3    3    0  502  0.38036367510E+03 -0.79803225509E+02  0.89051951517E+02  0.39871711827E+03  0.10100000352E+00 0. -1.
</event>
<event>
 5   0  0.1177712E-02  0.9862837E+03  0.7818609E-02  0.9323718E-01
        1   -1    0    0  501    0  0.00000000000E+00  0.00000000000E+00  0.97514483347E+03  0.97514483349E+03  0.50400001928E-02 0.  1.
       -1   -1    0    0    0  501  0.00000000000E+00  0.00000000000E+00 -0.24938743402E+03  0.24938743407E+03  0.50400001928E-02 0. -1.
    10030    2    1    2    0    0  0.00000000000E+00  0.00000000000E+00  0.72575739946E+03  0.12245322676E+04  0.98628366681E+03 0.  0.
        5    1    3    3  502    0  0.11940683414E+03  0.23171301335E+03  0.88258452526E+03  0.92028606793E+03  0.46999998093E+01 0.  1.
       -5    1    3    3    0  502 -0.11940683414E+03 -0.23171301335E+03 -0.15682712581E+03  0.30424619962E+03  0.46999998093E+01 0. -1.
</event>
<event>
 5   0  0.1175993E-02  0.9162299E+03  0.7818609E-02  0.9405518E-01
        1   -1    0    0  501    0  0.00000000000E+00  0.00000000000E+00  0.55527809386E+03  0.55527809389E+03  0.50400001928E-02 0. -1.
       -1   -1    0    0    0  501  0.00000000000E+00  0.00000000000E+00 -0.37795349106E+03  0.37795349110E+03  0.50400001928E-02 0.  1.
    10030    2    1    2    0    0  0.00000000000E+00  0.00000000000E+00  0.17732460280E+03  0.93323158498E+03  0.91622987097E+03 0.  0.
        4    1    3    3  502    0  0.16371251774E+03 -0.27222406371E+03 -0.24755374257E+03  0.40273092467E+03  0.12699999809E+01 0.  1.
       -4    1    3    3    0  502 -0.16371251774E+03  0.27222406371E+03  0.42487834537E+03  0.53050066031E+03  0.12699999809E+01 0. -1.
</event>
<event>
 5   0  0.1924218E-02  0.9069096E+03  0.7818609E-02  0.9416985E-01
        2   -1    0    0  501    0  0.00000000000E+00  0.00000000000E+00  0.45246165884E+03  0.45246165885E+03  0.25500000920E-02 0. -1.
       -2   -1    0    0    0  501  0.00000000000E+00  0.00000000000E+00 -0.45445008964E+03  0.45445008965E+03  0.25500000920E-02 0.  1.
    10030    2    1    2    0    0  0.00000000000E+00  0.00000000000E+00 -0.19884308055E+01  0.90691174850E+03  0.90690956865E+03 0.  0.
        4    1    3    3  502    0 -0.33944416307E+03  0.12403718717E+03 -0.27487817894E+03  0.45405637293E+03  0.12699999809E+01 0.  1.
       -4    1    3    3    0  502  0.33944416307E+03 -0.12403718717E+03  0.27288974813E+03  0.45285537557E+03  0.12699999809E+01 0. -1.
</event>
<event>
 5   0  0.2008770E-02  0.8406060E+03  0.7818609E-02  0.9503033E-01
        2   -1    0    0  501    0  0.00000000000E+00  0.00000000000E+00  0.16143948777E+04  0.16143948777E+04  0.25500000920E-02 0.  1.
       -2   -1    0    0    0  501  0.00000000000E+00  0.00000000000E+00 -0.10942467261E+03  0.10942467264E+03  0.25500000920E-02 0. -1.
    10030    2    1    2    0    0  0.00000000000E+00  0.00000000000E+00  0.15049702051E+04  0.17238195503E+04  0.84060604561E+03 0.  0.
        1    1    3    3  502    0 -0.72501146783E+02 -0.80833359850E+02  0.15851350320E+04  0.15888497468E+04  0.50400001928E-02 0.  1.
       -1    1    3    3    0  502  0.72501146783E+02  0.80833359850E+02 -0.80164826926E+02  0.13496980348E+03  0.50400001928E-02 0. -1.
</event>
<event>
 5   0  0.2041861E-02  0.9074588E+03  0.7818609E-02  0.9416305E-01
        2   -1    0    0  501    0  0.00000000000E+00  0.00000000000E+00  0.19282230731E+04  0.19282230731E+04  0.25500000920E-02 0.  1.
       -2   -1    0    0    0  501  0.00000000000E+00  0.00000000000E+00 -0.10676687973E+03  0.10676687976E+03  0.25500000920E-02 0. -1.
    10030    2    1    2    0    0  0.00000000000E+00  0.00000000000E+00  0.18214561934E+04  0.20349899529E+04  0.90745878358E+03 0.  0.
        5    1    3    3  502    0  0.42093307271E+03  0.58352366604E+02  0.12671301319E+04  0.13364993496E+04  0.46999998093E+01 0. -1.
       -5    1    3    3    0  502 -0.42093307271E+03 -0.58352366604E+02  0.55432606145E+03  0.69849060322E+03  0.46999998093E+01 0.  1.
</event>
<event>
 5   0  0.1968763E-02  0.9262282E+03  0.7818609E-02  0.9393376E-01
        2   -1    0    0  501    0  0.00000000000E+00  0.00000000000E+00  0.24292262999E+03  0.24292263000E+03  0.25500000920E-02 0.  1.
       -2   -1    0    0    0  501  0.00000000000E+00  0.00000000000E+00 -0.88289283658E+03  0.88289283658E+03  0.25500000920E-02 0. -1.
    10030    2    1    2    0    0  0.00000000000E+00  0.00000000000E+00 -0.63997020659E+03  0.11258154666E+04  0.92622815735E+03 0.  0.
        2    1    3    3  502    0 -0.56880353667E+02  0.13303635752E+03 -0.85471599717E+03  0.86687570210E+03  0.25500000920E-02 0. -1.
       -2    1    3    3    0  502  0.56880353667E+02 -0.13303635752E+03  0.21474579058E+03  0.25893976449E+03  0.25500000920E-02 0.  1.
</event>
<event>
 5   0  0.7893875E-03  0.9014881E+03  0.7818609E-02  0.9423723E-01
        4   -1    0    0  501    0  0.00000000000E+00  0.00000000000E+00  0.33198384533E+03  0.33198627450E+03  0.12699999809E+01 0.  1.
       -4   -1    0    0    0  501  0.00000000000E+00  0.00000000000E+00 -0.61198287157E+03  0.61198418933E+03  0.12699999809E+01 0. -1.
    10030    2    1    2    0    0  0.00000000000E+00  0.00000000000E+00 -0.27999902624E+03  0.94397046383E+03  0.90148809304E+03 0.  0.
        5    1    3    3  502    0 -0.41565059606E+03 -0.12060298026E+03 -0.27177760479E+03  0.51107304108E+03  0.46999998093E+01 0. -1.
       -5    1    3    3    0  502  0.41565059606E+03  0.12060298026E+03 -0.82214214468E+01  0.43289742275E+03  0.46999998093E+01 0.  1.
</event>
<event>
 5   0  0.1226424E-02  0.8525776E+03  0.7818609E-02  0.9486884E-01
       -1   -1    0    0    0  501  0.00000000000E+00  0.00000000000E+00  0.28978767711E+03  0.28978767715E+03  0.50400001928E-02 0. -1.
        1   -1    0    0  501    0  0.00000000000E+00  0.00000000000E+00 -0.62708723083E+03  0.62708723085E+03  0.50400001928E-02 0.  1.
    10030    2    1    2    0    0  0.00000000000E+00  0.00000000000E+00 -0.33729955372E+03  0.91687490800E+03  0.85257762578E+03 0.  0.
        1    1    3    3  502    0  0.22311535633E+03 -0.14897344799E+03 -0.52491682369E+03  0.58950082465E+03  0.50400001928E-02 0.  1.
       -1    1    3    3    0  502 -0.22311535633E+03  0.14897344799E+03  0.18761726997E+03  0.32737408336E+03  0.50400001928E-02 0. -1.
</event>
<event>
 5   0  0.2041861E-02  0.6703439E+03  0.7818609E-02  0.9769337E-01
        2   -1    0    0  501    0  0.00000000000E+00  0.00000000000E+00  0.15894035027E+04  0.15894035027E+04  0.25500000920E-02 0.  1.
       -2   -1    0    0    0  501  0.00000000000E+00  0.00000000000E+00 -0.70680759106E+02  0.70680759152E+02  0.25500000920E-02 0. -1.
    10030    2    1    2    0    0  0.00000000000E+00  0.00000000000E+00  0.15187227436E+04  0.16600842618E+04  0.67034393004E+03 0.  0.
        5    1    3    3  502    0 -0.71157337751E+02 -0.22792724516E+03  0.17697585333E+03  0.29724861389E+03  0.46999998093E+01 0. -1.
       -5    1    3    3    0  502  0.71157337751E+02  0.22792724516E+03  0.13417468902E+04  0.13628356479E+04  0.46999998093E+01 0.  1.
</event>
<event>
 5   0  0.2008770E-02  0.9040274E+03  0.7818609E-02  0.9420561E-01
       -2   -1    0    0    0  501  0.00000000000E+00  0.00000000000E+00  0.44288563057E+03  0.44288563058E+03  0.25500000920E-02 0. -1.
        2   -1    0    0  501    0  0.00000000000E+00  0.00000000000E+00 -0.46132991301E+03  0.46132991302E+03  0.25500000920E-02 0.  1.
    10030    2    1    2    0    0  0.00000000000E+00  0.00000000000E+00 -0.18444282441E+02  0.90421554360E+03  0.90402740983E+03 0.  0.
        1    1    3    3  502    0 -0.17623968295E+03 -0.14223160874E+03 -0.40048909747E+03  0.46008887575E+03  0.50400001928E-02 0.  1.
       -1    1    3    3    0  502  0.17623968295E+03  0.14223160874E+03  0.38204481503E+03  0.44412666784E+03  0.50400001928E-02 0. -1.
</event>
<event>
 5   0  0.1177712E-02  0.8974446E+03  0.7818609E-02  0.9428781E-01
       -1   -1    0    0    0  501  0.00000000000E+00  0.00000000000E+00  0.12043945924E+03  0.12043945935E+03  0.50400001928E-02 0. -1.
        1   -1    0    0  501    0  0.00000000000E+00  0.00000000000E+00 -0.16718084329E+04  0.16718084329E+04  0.50400001928E-02 0.  1.
    10030    2    1    2    0    0  0.00000000000E+00  0.00000000000E+00 -0.15513689736E+04  0.17922478922E+04  0.89744460267E+03 0.  0.
        5    1    3    3  502    0  0.27956049900E+03  0.30193500995E+03 -0.11329891057E+04  0.12054066644E+04  0.46999998093E+01 0. -1.
       -5    1    3    3    0  502 -0.27956049900E+03 -0.30193500995E+03 -0.41837986791E+03  0.58684122785E+03  0.46999998093E+01 0.  1.
</event>
<event>
 5   0  0.1206541E-02  0.9121496E+03  0.7818609E-02  0.9410520E-01
        1   -1    0    0  501    0  0.00000000000E+00  0.00000000000E+00  0.29004893117E+03  0.29004893121E+03  0.50400001928E-02 0. -1.
       -1   -1    0    0    0  501  0.00000000000E+00  0.00000000000E+00 -0.71713498182E+03  0.71713498184E+03  0.50400001928E-02 0.  1.
    10030    2    1    2    0    0  0.00000000000E+00  0.00000000000E+00 -0.42708605065E+03  0.10071839131E+04  0.91214962591E+03 0.  0.
        3    1    3    3  502    0 -0.29460184315E+03  0.54810043037E+02  0.16609482647E+03  0.34261040321E+03  0.10100000352E+00 0.  1.
       -3    1    3    3    0  502  0.29460184315E+03 -0.54810043037E+02 -0.59318087713E+03  0.66457350985E+03  0.10100000352E+00 0. -1.
</event>
<event>
 5   0  0.2041861E-02  0.8193735E+03  0.7818609E-02  0.9532390E-01
       -2   -1    0    0    0  501  0.00000000000E+00  0.00000000000E+00  0.35928225288E+03  0.35928225289E+03  0.25500000920E-02 0. -1.
        2   -1    0    0  501    0  0.00000000000E+00  0.00000000000E+00 -0.46716266170E+03  0.46716266170E+03  0.25500000920E-02 0.  1.
    10030    2    1    2    0    0  0.00000000000E+00  0.00000000000E+00 -0.10788040882E+03  0.82644491459E+03  0.81937354988E+03 0.  0.
        5    1    3    3  502    0  0.28372369900E+03  0.18496784841E+03  0.17850238843E+03  0.38288044478E+03  0.46999998093E+01 0. -1.
       -5    1    3    3    0  502 -0.28372369900E+03 -0.18496784841E+03 -0.28638279725E+03  0.44356446981E+03  0.46999998093E+01 0.  1.
</event>
<event>
 5   0  0.1206541E-02  0.8795510E+03  0.7818609E-02  0.9451511E-01
        1   -1    0    0  501    0  0.00000000000E+00  0.00000000000E+00  0.14703805420E+03  0.14703805428E+03  0.50400001928E-02 0. -1.
       -1   -1    0    0    0  501  0.00000000000E+00  0.00000000000E+00 -0.13153227830E+04  0.13153227830E+04  0.50400001928E-02 0.  1.
    10030    2    1    2    0    0  0.00000000000E+00  0.00000000000E+00 -0.11682847288E+04  0.14623608373E+04  0.87955102803E+03 0.  0.
        3    1    3    3  502    0  0.26346131592E+03  0.33543297511E+03 -0.40603723961E+03  0.58889166740E+03  0.10100000352E+00 0. -1.
       -3    1    3    3    0  502 -0.26346131592E+03 -0.33543297511E+03 -0.76224748920E+03  0.87346916990E+03  0.10100000352E+00 0.  1.
</event>
<event>
 5   0  0.2008643E-02  0.9072189E+03  0.7818609E-02  0.9416602E-01
        2   -1    0    0  501    0  0.00000000000E+00  0.00000000000E+00  0.95790951588E+03  0.95790951588E+03  0.25500000920E-02 0.  1.
       -2   -1    0    0    0  501  0.00000000000E+00  0.00000000000E+00 -0.21480269652E+03  0.21480269653E+03  0.25500000920E-02 0. -1.
    10030    2    1    2    0    0  0.00000000000E+00  0.00000000000E+00  0.74310681936E+03  0.11727122124E+04  0.90721893067E+03 0.  0.
        3    1    3    3  502    0 -0.22275185731E+03  0.68552229788E+02 -0.13148946885E+03  0.26759538255E+03  0.10100000352E+00 0. -1.
       -3    1    3    3    0  502  0.22275185731E+03 -0.68552229788E+02  0.87459628821E+03  0.90511682986E+03  0.10100000352E+00 0.  1.
</event>
<event>
 5   0  0.1162839E-02  0.9096280E+03  0.7818609E-02  0.9413625E-01
       -1   -1    0    0    0  501  0.00000000000E+00  0.00000000000E+00  0.34198829778E+03  0.34198829782E+03  0.50400001928E-02 0.  1.
        1   -1    0    0  501    0  0.00000000000E+00  0.00000000000E+00 -0.60486219781E+03  0.60486219783E+03  0.50400001928E-02 0. -1.
    10030    2    1    2    0    0  0.00000000000E+00  0.00000000000E+00 -0.26287390003E+03  0.94685049565E+03  0.90962804146E+03 0.  0.
        2    1    3    3  502    0 -0.24546618937E+03 -0.25651223385E+03  0.16445487880E+03  0.39127686286E+03  0.25500000920E-02 0.  1.
       -2    1    3    3    0  502  0.24546618937E+03  0.25651223385E+03 -0.42732877883E+03  0.55557363280E+03  0.25500000920E-02 0. -1.
</event>
<event>
 5   0  0.2008770E-02  0.9201555E+03  0.7818609E-02  0.9400731E-01
        2   -1    0    0  501    0  0.00000000000E+00  0.00000000000E+00  0.11352030533E+04  0.11352030533E+04  0.25500000920E-02 0.  1.
       -2   -1    0    0    0  501  0.00000000000E+00  0.00000000000E+00 -0.18646140134E+03  0.18646140135E+03  0.25500000920E-02 0. -1.
    10030    2    1    2    0    0  0.00000000000E+00  0.00000000000E+00  0.94874165196E+03  0.13216644546E+04  0.92015553496E+03 0.  0.
        1    1    3    3  502    0 -0.26906455642E+03  0.14819774055E+03  0.96633501811E+03  0.10139830734E+04  0.50400001928E-02 0.  1.
       -1    1    3    3    0  502  0.26906455642E+03 -0.14819774055E+03 -0.17593366158E+02  0.30768138128E+03  0.50400001928E-02 0. -1.
</event>
<event>
 5   0  0.1162839E-02  0.8881957E+03  0.7818609E-02  0.9440459E-01
        1   -1    0    0  501    0  0.00000000000E+00  0.00000000000E+00  0.73781870514E+03  0.73781870515E+03  0.50400001928E-02 0.  1.
       -1   -1    0    0    0  501  0.00000000000E+00  0.00000000000E+00 -0.26730535901E+03  0.26730535906E+03  0.50400001928E-02 0. -1.
    10030    2    1    2    0    0  0.00000000000E+00  0.00000000000E+00  0.47051334612E+03  0.10051240642E+04  0.88819568541E+03 0.  0.
        2    1    3    3  502    0 -0.27000705222E+03  0.28896123605E+03  0.46389557032E+03  0.60959126007E+03  0.25500000920E-02 0.  1.
       -2    1    3    3    0  502  0.27000705222E+03 -0.28896123605E+03  0.66177757989E+01  0.39553280414E+03  0.25500000920E-02 0. -1.
</event>
<event>
 5   0  0.1924218E-02  0.9138612E+03  0.7818609E-02  0.9408418E-01
       -2   -1    0    0    0  501  0.00000000000E+00  0.00000000000E+00  0.45645372938E+03  0.45645372939E+03  0.25500000920E-02 0. -1.
        2   -1    0    0  501    0  0.00000000000E+00  0.00000000000E+00 -0.45740796075E+03  0.45740796076E+03  0.25500000920E-02 0.  1.
    10030    2    1    2    0    0  0.00000000000E+00  0.00000000000E+00 -0.95423136877E+00  0.91386169015E+03  0.91386119196E+03 0.  0.
        4    1    3    3  502    0  0.30387738447E+03 -0.28238236984E+03  0.19110244760E+03  0.45673080252E+03  0.12699999809E+01 0.  1.
       -4    1    3    3    0  502 -0.30387738447E+03  0.28238236984E+03 -0.19205667897E+03  0.45713088763E+03  0.12699999809E+01 0. -1.
</event>
<event>
 5   0  0.1162839E-02  0.9573110E+03  0.7818609E-02  0.9356646E-01
       -1   -1    0    0    0  501  0.00000000000E+00  0.00000000000E+00  0.28608199691E+03  0.28608199695E+03  0.50400001928E-02 0.  1.
        1   -1    0    0  501    0  0.00000000000E+00  0.00000000000E+00 -0.80085811738E+03  0.80085811740E+03  0.50400001928E-02 0. -1.
    10030    2    1    2    0    0  0.00000000000E+00  0.00000000000E+00 -0.51477612047E+03  0.10869401144E+04  0.95731100379E+03 0.  0.
        2    1    3    3  502    0 -0.27805597651E+02 -0.45589859909E+03 -0.94844327331E+02  0.46648915351E+03  0.25500000920E-02 0.  1.
       -2    1    3    3    0  502  0.27805597651E+02  0.45589859909E+03 -0.41993179314E+03  0.62045096084E+03  0.25500000920E-02 0. -1.
</event>
<event>
 5   0  0.7893875E-03  0.9062193E+03  0.7818609E-02  0.9417840E-01
       -4   -1    0    0    0  501  0.00000000000E+00  0.00000000000E+00  0.30159894083E+03  0.30160161474E+03  0.12699999809E+01 0. -1.
        4   -1    0    0  501    0  0.00000000000E+00  0.00000000000E+00 -0.68072674861E+03  0.68072793330E+03  0.12699999809E+01 0.  1.
    10030    2    1    2    0    0  0.00000000000E+00  0.00000000000E+00 -0.37912780778E+03  0.98232954803E+03  0.90621931469E+03 0.  0.
        2    1    3    3  502    0 -0.60430409880E+02  0.44899841323E+03 -0.18138342803E+03  0.48800753836E+03  0.25500000920E-02 0.  1.
       -2    1    3    3    0  502  0.60430409880E+02 -0.44899841323E+03 -0.19774437975E+03  0.49432200968E+03  0.25500000920E-02 0. -1.
</event>
<event>
 5   0  0.1206541E-02  0.8832616E+03  0.7818609E-02  0.9446750E-01
       -1   -1    0    0    0  501  0.00000000000E+00  0.00000000000E+00  0.19083418058E+03  0.19083418065E+03  0.50400001928E-02 0. -1.
        1   -1    0    0  501    0  0.00000000000E+00  0.00000000000E+00 -0.10220275180E+04  0.10220275180E+04  0.50400001928E-02 0.  1.
    10030    2    1    2    0    0  0.00000000000E+00  0.00000000000E+00 -0.83119333744E+03  0.12128616987E+04  0.88326164635E+03 0.  0.
        3    1    3    3  502    0  0.30507358122E+03  0.25312385977E+03 -0.14828389353E+03  0.42323716947E+03  0.10100000352E+00 0. -1.
       -3    1    3    3    0  502 -0.30507358122E+03 -0.25312385977E+03 -0.68290944391E+03  0.78962452921E+03  0.10100000352E+00 0.  1.
</event>
<event>
 5   0  0.1162839E-02  0.7551964E+03  0.7818609E-02  0.9627233E-01
       -1   -1    0    0    0  501  0.00000000000E+00  0.00000000000E+00  0.28129842361E+03  0.28129842366E+03  0.50400001928E-02 0.  1.
        1   -1    0    0  501    0  0.00000000000E+00  0.00000000000E+00 -0.50686520050E+03  0.50686520052E+03  0.50400001928E-02 0. -1.
    10030    2    1    2    0    0  0.00000000000E+00  0.00000000000E+00 -0.22556677689E+03  0.78816362418E+03  0.75519635039E+03 0.  0.
        2    1    3    3  502    0  0.16422639034E+02 -0.18485605635E+03  0.23041679642E+03  0.29586038046E+03  0.25500000920E-02 0.  1.
       -2    1    3    3    0  502 -0.16422639034E+02  0.18485605635E+03 -0.45598357331E+03  0.49230324372E+03  0.25500000920E-02 0. -1.
</event>
<event>
 5   0  0.1206541E-02  0.9192901E+03  0.7818609E-02  0.9401784E-01
        1   -1    0    0  501    0  0.00000000000E+00  0.00000000000E+00  0.16687990660E+04  0.16687990660E+04  0.50400001928E-02 0.  1.
       -1   -1    0    0    0  501  0.00000000000E+00  0.00000000000E+00 -0.12660216292E+03  0.12660216302E+03  0.50400001928E-02 0. -1.
    10030    2    1    2    0    0  0.00000000000E+00  0.00000000000E+00  0.15421969031E+04  0.17954012291E+04  0.91929009857E+03 0.  0.
        3    1    3    3  502    0 -0.38340761135E+03  0.24790017534E+03  0.87476862540E+03  0.98675024782E+03  0.10100000352E+00 0.  1.
       -3    1    3    3    0  502  0.38340761135E+03 -0.24790017534E+03  0.66742827772E+03  0.80865098125E+03  0.10100000352E+00 0. -1.
</event>
<event>
 5   0  0.1177712E-02  0.8905869E+03  0.7818609E-02  0.9437425E-01
       -1   -1    0    0    0  501  0.00000000000E+00  0.00000000000E+00  0.22440690310E+03  0.22440690315E+03  0.50400001928E-02 0. -1.
        1   -1    0    0  501    0  0.00000000000E+00  0.00000000000E+00 -0.88360139903E+03  0.88360139904E+03  0.50400001928E-02 0.  1.
    10030    2    1    2    0    0  0.00000000000E+00  0.00000000000E+00 -0.65919449593E+03  0.11080083022E+04  0.89058689316E+03 0.  0.
        5    1    3    3  502    0 -0.41332310939E+02 -0.10943704334E+03  0.20491573242E+03  0.23600291052E+03  0.46999998093E+01 0. -1.
       -5    1    3    3    0  502  0.41332310939E+02  0.10943704334E+03 -0.86411022835E+03  0.87200539168E+03  0.46999998093E+01 0.  1.
</event>
<event>
 5   0  0.1177712E-02  0.8910310E+03  0.7818609E-02  0.9436863E-01
       -1   -1    0    0    0  501  0.00000000000E+00  0.00000000000E+00  0.40752732327E+03  0.40752732330E+03  0.50400001928E-02 0. -1.
        1   -1    0    0  501    0  0.00000000000E+00  0.00000000000E+00 -0.48704483698E+03  0.48704483700E+03  0.50400001928E-02 0.  1.
    10030    2    1    2    0    0  0.00000000000E+00  0.00000000000E+00 -0.79517513712E+02  0.89457216030E+03  0.89103104042E+03 0.  0.
        5    1    3    3  502    0  0.35228621146E+02  0.33308106478E+02  0.40484597346E+03  0.40776566547E+03  0.46999998093E+01 0. -1.
       -5    1    3    3    0  502 -0.35228621146E+02 -0.33308106478E+02 -0.48436348718E+03  0.48680649483E+03  0.46999998093E+01 0.  1.
</event>
<event>
 5   0  0.1177712E-02  0.8820084E+03  0.7818609E-02  0.9448356E-01
       -1   -1    0    0    0  501  0.00000000000E+00  0.00000000000E+00  0.92421433799E+02  0.92421433937E+02  0.50400001928E-02 0.  1.
        1   -1    0    0  501    0  0.00000000000E+00  0.00000000000E+00 -0.21043246531E+04  0.21043246531E+04  0.50400001928E-02 0. -1.
    10030    2    1    2    0    0  0.00000000000E+00  0.00000000000E+00 -0.20119032193E+04  0.21967460870E+04  0.88200839401E+03 0.  0.
        5    1    3    3  502    0 -0.18236799479E+03 -0.61055785953E+01 -0.20058262153E+04  0.20141142618E+04  0.46999998093E+01 0. -1.
       -5    1    3    3    0  502  0.18236799479E+03  0.61055785953E+01 -0.60770039948E+01  0.18263182523E+03  0.46999998093E+01 0.  1.
</event>
<event>
 5   0  0.1924218E-02  0.8852003E+03  0.7818609E-02  0.9444273E-01
        2   -1    0    0  501    0  0.00000000000E+00  0.00000000000E+00  0.13347277127E+04  0.13347277127E+04  0.25500000920E-02 0.  1.
       -2   -1    0    0    0  501  0.00000000000E+00  0.00000000000E+00 -0.14676769238E+03  0.14676769240E+03  0.25500000920E-02 0. -1.
    10030    2    1    2    0    0  0.00000000000E+00  0.00000000000E+00  0.11879600204E+04  0.14814954051E+04  0.88520033070E+03 0.  0.
        4    1    3    3  502    0 -0.13266084127E+03  0.11789681726E+00  0.13006677702E+04  0.13074162206E+04  0.12699999809E+01 0.  1.
       -4    1    3    3    0  502  0.13266084127E+03 -0.11789681726E+00 -0.11270774982E+03  0.17407918450E+03  0.12699999809E+01 0. -1.
</event>
<event>
 5   0  0.1175993E-02  0.9075855E+03  0.7818609E-02  0.9416149E-01
        1   -1    0    0  501    0  0.00000000000E+00  0.00000000000E+00  0.70850905562E+03  0.70850905564E+03  0.50400001928E-02 0.  1.
       -1   -1    0    0    0  501  0.00000000000E+00  0.00000000000E+00 -0.29064958825E+03  0.29064958830E+03  0.50400001928E-02 0. -1.
    10030    2    1    2    0    0  0.00000000000E+00  0.00000000000E+00  0.41785946737E+03  0.99915864394E+03  0.90758551183E+03 0.  0.
        4    1    3    3  502    0 -0.20042483137E+03  0.38146500176E+03  0.52305665967E+02  0.43407736198E+03  0.12699999809E+01 0. -1.
       -4    1    3    3    0  502  0.20042483137E+03 -0.38146500176E+03  0.36555380140E+03  0.56508128195E+03  0.12699999809E+01 0.  1.
</event>
<event>
 5   0  0.2008643E-02  0.9463215E+03  0.7818609E-02  0.9369461E-01
       -2   -1    0    0    0  501  0.00000000000E+00  0.00000000000E+00  0.46520161187E+03  0.46520161188E+03  0.25500000920E-02 0.  1.
        2   -1    0    0  501    0  0.00000000000E+00  0.00000000000E+00 -0.48125604650E+03  0.48125604651E+03  0.25500000920E-02 0. -1.
    10030    2    1    2    0    0  0.00000000000E+00  0.00000000000E+00 -0.16054434629E+02  0.94645765838E+03  0.94632148567E+03 0.  0.
        3    1    3    3  502    0 -0.40060732673E+03  0.22250337793E+03 -0.12588769348E+03  0.47522805577E+03  0.10100000352E+00 0.  1.
       -3    1    3    3    0  502  0.40060732673E+03 -0.22250337793E+03  0.10983325885E+03  0.47122960261E+03  0.10100000352E+00 0. -1.
</event>
<event>
 5   0  0.2008770E-02  0.8990592E+03  0.7818609E-02  0.9426758E-01
       -2   -1    0    0    0  501  0.00000000000E+00  0.00000000000E+00  0.10471376467E+03  0.10471376470E+03  0.25500000920E-02 0.  1.
        2   -1    0    0  501    0  0.00000000000E+00  0.00000000000E+00 -0.19298023051E+04  0.19298023051E+04  0.25500000920E-02 0. -1.
    10030    2    1    2    0    0  0.00000000000E+00  0.00000000000E+00 -0.18250885405E+04  0.20345160698E+04  0.89905920712E+03 0.  0.
        1    1    3    3  502    0  0.23627363752E+03  0.35337803790E+03 -0.12433948788E+04  0.13140517851E+04  0.50400001928E-02 0. -1.
       -1    1    3    3    0  502 -0.23627363752E+03 -0.35337803790E+03 -0.58169366170E+03  0.72046428471E+03  0.50400001928E-02 0.  1.
</event>
<event>
 5   0  0.1162839E-02  0.8939281E+03  0.7818609E-02  0.9433204E-01
       -1   -1    0    0    0  501  0.00000000000E+00  0.00000000000E+00  0.82245968643E+02  0.82245968798E+02  0.50400001928E-02 0. -1.
        1   -1    0    0  501    0  0.00000000000E+00  0.00000000000E+00 -0.24290171887E+04  0.24290171887E+04  0.50400001928E-02 0.  1.
    10030    2    1    2    0    0  0.00000000000E+00  0.00000000000E+00 -0.23467712201E+04  0.25112631575E+04  0.89392812180E+03 0.  0.
        2    1    3    3  502    0 -0.15745026033E+03  0.78434750735E+02 -0.19082311389E+02  0.17693707699E+03  0.25500000920E-02 0. -1.
       -2    1    3    3    0  502  0.15745026033E+03 -0.78434750735E+02 -0.23276889087E+04  0.23343260805E+04  0.25500000920E-02 0.  1.
</event>
<event>
 5   0  0.2008770E-02  0.9088169E+03  0.7818609E-02  0.9414627E-01
       -2   -1    0    0    0  501  0.00000000000E+00  0.00000000000E+00  0.96310477956E+02  0.96310477990E+02  0.25500000920E-02 0.  1.
        2   -1    0    0  501    0  0.00000000000E+00  0.00000000000E+00 -0.21439725415E+04  0.21439725415E+04  0.25500000920E-02 0. -1.
    10030    2    1    2    0    0  0.00000000000E+00  0.00000000000E+00 -0.20476620635E+04  0.22402830195E+04  0.90881685775E+03 0.  0.
        1    1    3    3  502    0  0.45134299786E+03 -0.42557527672E+02 -0.11004214798E+04  0.11901466624E+04  0.50400001928E-02 0. -1.
       -1    1    3    3    0  502 -0.45134299786E+03  0.42557527672E+02 -0.94724058375E+03  0.10501363571E+04  0.50400001928E-02 0.  1.
</event>
<event>
 5   0  0.2008770E-02  0.9037376E+03  0.7818609E-02  0.9420921E-01
       -2   -1    0    0    0  501  0.00000000000E+00  0.00000000000E+00  0.20705073576E+03  0.20705073578E+03  0.25500000920E-02 0. -1.
        2   -1    0    0  501    0  0.00000000000E+00  0.00000000000E+00 -0.98616123709E+03  0.98616123709E+03  0.25500000920E-02 0.  1.
    10030    2    1    2    0    0  0.00000000000E+00  0.00000000000E+00 -0.77911050132E+03  0.11932119729E+04  0.90373759406E+03 0.  0.
        1    1    3    3  502    0 -0.30144796382E+03  0.28214165637E+03 -0.14714073173E+03  0.43832086889E+03  0.50400001928E-02 0. -1.
       -1    1    3    3    0  502  0.30144796382E+03 -0.28214165637E+03 -0.63196976960E+03  0.75489110397E+03  0.50400001928E-02 0.  1.
</event>
<event>
 5   0  0.1162839E-02  0.8908922E+03  0.7818609E-02  0.9437039E-01
       -1   -1    0    0    0  501  0.00000000000E+00  0.00000000000E+00  0.11058198218E+04  0.11058198218E+04  0.50400001928E-02 0. -1.
        1   -1    0    0  501    0  0.00000000000E+00  0.00000000000E+00 -0.17943448746E+03  0.17943448753E+03  0.50400001928E-02 0.  1.
    10030    2    1    2    0    0  0.00000000000E+00  0.00000000000E+00  0.92638533436E+03  0.12852543094E+04  0.89089216632E+03 0.  0.
        2    1    3    3  502    0  0.79898366567E+02  0.16661485957E+03 -0.12153490004E+03  0.22116734014E+03  0.25500000920E-02 0.  1.
       -2    1    3    3    0  502 -0.79898366567E+02 -0.16661485957E+03  0.10479202344E+04  0.10640869692E+04  0.25500000920E-02 0. -1.
</event>
<event>
 5   0  0.2008770E-02  0.8886005E+03  0.7818609E-02  0.9439945E-01
       -2   -1    0    0    0  501  0.00000000000E+00  0.00000000000E+00  0.12389997378E+03  0.12389997381E+03  0.25500000920E-02 0. -1.
        2   -1    0    0  501    0  0.00000000000E+00  0.00000000000E+00 -0.15932427225E+04  0.15932427225E+04  0.25500000920E-02 0.  1.
    10030    2    1    2    0    0  0.00000000000E+00  0.00000000000E+00 -0.14693427488E+04  0.17171426963E+04  0.88860054371E+03 0.  0.
        1    1    3    3  502    0 -0.26041100428E+03  0.54527576465E+02 -0.47059459907E+02  0.27018834271E+03  0.50400001928E-02 0. -1.
       -1    1    3    3    0  502  0.26041100428E+03 -0.54527576465E+02 -0.14222832889E+04  0.14469543536E+04  0.50400001928E-02 0.  1.
</event>
<event>
 5   0  0.1175993E-02  0.9023258E+03  0.7818609E-02  0.9422679E-01
       -1   -1    0    0    0  501  0.00000000000E+00  0.00000000000E+00  0.26447498327E+03  0.26447498332E+03  0.50400001928E-02 0. -1.
        1   -1    0    0  501    0  0.00000000000E+00  0.00000000000E+00 -0.76963033235E+03  0.76963033237E+03  0.50400001928E-02 0.  1.
    10030    2    1    2    0    0  0.00000000000E+00  0.00000000000E+00 -0.50515534908E+03  0.10341053157E+04  0.90232581545E+03 0.  0.
        4    1    3    3  502    0  0.10330688153E+03 -0.22190963979E+03  0.18175670250E+03  0.30488245572E+03  0.12699999809E+01 0. -1.
       -4    1    3    3    0  502 -0.10330688153E+03  0.22190963979E+03 -0.68691205157E+03  0.72922285997E+03  0.12699999809E+01 0.  1.
</event>
<event>
 5   0  0.7893875E-03  0.8730617E+03  0.7818609E-02  0.9459897E-01
        4   -1    0    0  501    0  0.00000000000E+00  0.00000000000E+00  0.14027408879E+03  0.14027983777E+03  0.12699999809E+01 0. -1.
       -4   -1    0    0    0  501  0.00000000000E+00  0.00000000000E+00 -0.13584434542E+04  0.13584440478E+04  0.12699999809E+01 0.  1.
    10030    2    1    2    0    0  0.00000000000E+00  0.00000000000E+00 -0.12181693654E+04  0.14987238856E+04  0.87306167166E+03 0.  0.
        1    1    3    3  502    0  0.19198490586E+03 -0.22966239932E+03 -0.63649568226E+02  0.30602988302E+03  0.50400001928E-02 0. -1.
       -1    1    3    3    0  502 -0.19198490586E+03  0.22966239932E+03 -0.11545197972E+04  0.11926940026E+04  0.50400001928E-02 0.  1.
</event>
<event>
 5   0  0.1175993E-02  0.8976805E+03  0.7818609E-02  0.9428486E-01
        1   -1    0    0  501    0  0.00000000000E+00  0.00000000000E+00  0.28777712768E+03  0.28777712773E+03  0.50400001928E-02 0. -1.
       -1   -1    0    0    0  501  0.00000000000E+00  0.00000000000E+00 -0.70004719698E+03  0.70004719700E+03  0.50400001928E-02 0.  1.
    10030    2    1    2    0    0  0.00000000000E+00  0.00000000000E+00 -0.41227006929E+03  0.98782432472E+03  0.89768050356E+03 0.  0.
        4    1    3    3  502    0 -0.28772310509E+03  0.29300606141E+03 -0.67835776479E+01  0.41071251144E+03  0.12699999809E+01 0. -1.
       -4    1    3    3    0  502  0.28772310509E+03 -0.29300606141E+03 -0.40548649165E+03  0.57711181329E+03  0.12699999809E+01 0.  1.
</event>
<event>
 5   0  0.2008770E-02  0.9033946E+03  0.7818609E-02  0.9421348E-01
       -2   -1    0    0    0  501  0.00000000000E+00  0.00000000000E+00  0.13647455891E+03  0.13647455893E+03  0.25500000920E-02 0.  1.
        2   -1    0    0  501    0  0.00000000000E+00  0.00000000000E+00 -0.14950072824E+04  0.14950072824E+04  0.25500000920E-02 0. -1.
    10030    2    1    2    0    0  0.00000000000E+00  0.00000000000E+00 -0.13585327235E+04  0.16314818414E+04  0.90339461911E+03 0.  0.
        1    1    3    3  502    0  0.20707201527E+03  0.12493000249E+03 -0.13682391967E+04  0.13894476688E+04  0.50400001928E-02 0. -1.
       -1    1    3    3    0  502 -0.20707201527E+03 -0.12493000249E+03  0.97064731724E+01  0.24203417254E+03  0.50400001928E-02 0.  1.
</event>
<event>
 5   0  0.1226424E-02  0.8869764E+03  0.7818609E-02  0.9442010E-01
        1   -1    0    0  501    0  0.00000000000E+00  0.00000000000E+00  0.11721725375E+04  0.11721725375E+04  0.50400001928E-02 0. -1.
       -1   -1    0    0    0  501  0.00000000000E+00  0.00000000000E+00 -0.16779253363E+03  0.16779253370E+03  0.50400001928E-02 0.  1.
    10030    2    1    2    0    0  0.00000000000E+00  0.00000000000E+00  0.10043800039E+04  0.13399650712E+04  0.88697643706E+03 0.  0.
        1    1    3    3  502    0 -0.34538522792E+03  0.27597631224E+03  0.44925214938E+03  0.63030260536E+03  0.50400001928E-02 0.  1.
       -1    1    3    3    0  502  0.34538522792E+03 -0.27597631224E+03  0.55512785452E+03  0.70966246587E+03  0.50400001928E-02 0. -1.
</event>
<event>
 5   0  0.1162839E-02  0.9112648E+03  0.7818609E-02  0.9411608E-01
       -1   -1    0    0    0  501  0.00000000000E+00  0.00000000000E+00  0.58784368300E+03  0.58784368302E+03  0.50400001928E-02 0.  1.
        1   -1    0    0  501    0  0.00000000000E+00  0.00000000000E+00 -0.35315661545E+03  0.35315661548E+03  0.50400001928E-02 0. -1.
    10030    2    1    2    0    0  0.00000000000E+00  0.00000000000E+00  0.23468706755E+03  0.94100029851E+03  0.91126480351E+03 0.  0.
        2    1    3    3  502    0 -0.29253970582E+03  0.34026503295E+03  0.35764942563E+02  0.45015431049E+03  0.25500000920E-02 0.  1.
       -2    1    3    3    0  502  0.29253970582E+03 -0.34026503295E+03  0.19892212499E+03  0.49084598801E+03  0.25500000920E-02 0. -1.
</event>
<event>
 5   0  0.1968763E-02  0.9077551E+03  0.7818609E-02  0.9415939E-01
       -2   -1    0    0    0  501  0.00000000000E+00  0.00000000000E+00  0.25444751155E+03  0.25444751156E+03  0.25500000920E-02 0.  1.
        2   -1    0    0  501    0  0.00000000000E+00  0.00000000000E+00 -0.80961626643E+03  0.80961626643E+03  0.25500000920E-02 0. -1.
    10030    2    1    2    0    0  0.00000000000E+00  0.00000000000E+00 -0.55516875488E+03  0.10640637780E+04  0.90775513067E+03 0.  0.
        2    1    3    3  502    0  0.15779507906E+03 -0.36045492719E+03 -0.54276376639E+03  0.67038760999E+03  0.25500000920E-02 0. -1.
       -2    1    3    3    0  502 -0.15779507906E+03  0.36045492719E+03 -0.12404988485E+02  0.39367616801E+03  0.25500000920E-02 0.  1.
</event>
<event>
 5   0  0.1968763E-02  0.9027511E+03  0.7818609E-02  0.9422149E-01
        2   -1    0    0  501    0  0.00000000000E+00  0.00000000000E+00  0.34836863443E+03  0.34836863444E+03  0.25500000920E-02 0. -1.
       -2   -1    0    0    0  501  0.00000000000E+00  0.00000000000E+00 -0.58483999189E+03  0.58483999189E+03  0.25500000920E-02 0.  1.
    10030    2    1    2    0    0  0.00000000000E+00  0.00000000000E+00 -0.23647135746E+03  0.93320862633E+03  0.90275114919E+03 0.  0.
        2    1    3    3  502    0 -0.41602217436E+03 -0.14739121868E+03 -0.21598432397E+03  0.49137343143E+03  0.25500000920E-02 0.  1.
       -2    1    3    3    0  502  0.41602217436E+03  0.14739121868E+03 -0.20487033485E+02  0.44183519490E+03  0.25500000920E-02 0. -1.
</event>
<event>
 5   0  0.2041861E-02  0.9110040E+03  0.7818609E-02  0.9411930E-01
       -2   -1    0    0    0  501  0.00000000000E+00  0.00000000000E+00  0.40216154784E+03  0.40216154785E+03  0.25500000920E-02 0. -1.
        2   -1    0    0  501    0  0.00000000000E+00  0.00000000000E+00 -0.51591719443E+03  0.51591719444E+03  0.25500000920E-02 0.  1.
    10030    2    1    2    0    0  0.00000000000E+00  0.00000000000E+00 -0.11375564659E+03  0.91807874229E+03  0.91100396811E+03 0.  0.
        5    1    3    3  502    0  0.12496697189E+03 -0.14255650498E+03  0.36048921134E+03  0.40732500864E+03  0.46999998093E+01 0. -1.
       -5    1    3    3    0  502 -0.12496697189E+03  0.14255650498E+03 -0.47424485792E+03  0.51075373365E+03  0.46999998093E+01 0.  1.
</event>
<event>
 5   0  0.2008770E-02  0.8988617E+03  0.7818609E-02  0.9427005E-01
       -2   -1    0    0    0  501  0.00000000000E+00  0.00000000000E+00  0.59322778564E+03  0.59322778565E+03  0.25500000920E-02 0. -1.
        2   -1    0    0  501    0  0.00000000000E+00  0.00000000000E+00 -0.34048994006E+03  0.34048994007E+03  0.25500000920E-02 0.  1.
    10030    2    1    2    0    0  0.00000000000E+00  0.00000000000E+00  0.25273784558E+03  0.93371772572E+03  0.89886170946E+03 0.  0.
        1    1    3    3  502    0 -0.10589247292E+03  0.13557593102E+03  0.55767328660E+03  0.58360392691E+03  0.50400001928E-02 0. -1.
       -1    1    3    3    0  502  0.10589247292E+03 -0.13557593102E+03 -0.30493544102E+03  0.35011379880E+03  0.50400001928E-02 0.  1.
</event>
<event>
 5   0  0.1206541E-02  0.9014389E+03  0.7818609E-02  0.9423784E-01
       -1   -1    0    0    0  501  0.00000000000E+00  0.00000000000E+00  0.20337650995E+03  0.20337651002E+03  0.50400001928E-02 0.  1.
        1   -1    0    0  501    0  0.00000000000E+00  0.00000000000E+00 -0.99887661095E+03  0.99887661096E+03  0.50400001928E-02 0. -1.
    10030    2    1    2    0    0  0.00000000000E+00  0.00000000000E+00 -0.79550010099E+03  0.12022531210E+04  0.90143893649E+03 0.  0.
        3    1    3    3  502    0 -0.28020046136E+03  0.11086142994E+03  0.49280691232E+02  0.30533776694E+03  0.10100000352E+00 0.  1.
       -3    1    3    3    0  502  0.28020046136E+03 -0.11086142994E+03 -0.84478079223E+03  0.89691535404E+03  0.10100000352E+00 0. -1.
</event>
<event>
 5   0  0.1924218E-02  0.9003741E+03  0.7818609E-02  0.9425114E-01
       -2   -1    0    0    0  501  0.00000000000E+00  0.00000000000E+00  0.25501611218E+03  0.25501611219E+03  0.25500000920E-02 0. -1.
        2   -1    0    0  501    0  0.00000000000E+00  0.00000000000E+00 -0.79472768205E+03  0.79472768205E+03  0.25500000920E-02 0.  1.
    10030    2    1    2    0    0  0.00000000000E+00  0.00000000000E+00 -0.53971156987E+03  0.10497437942E+04  0.90037406388E+03 0.  0.
        4    1    3    3  502    0 -0.23516489794E+03 -0.18943000792E+03 -0.65913371415E+03  0.72501387790E+03  0.12699999809E+01 0.  1.
       -4    1    3    3    0  502  0.23516489794E+03  0.18943000792E+03  0.11942214428E+03  0.32472991634E+03  0.12699999809E+01 0. -1.
</event>
<event>
 5   0  0.2041861E-02  0.9023045E+03  0.7818609E-02  0.9422705E-01
        2   -1    0    0  501    0  0.00000000000E+00  0.00000000000E+00  0.74142312681E+03  0.74142312681E+03  0.25500000920E-02 0.  1.
       -2   -1    0    0    0  501  0.00000000000E+00  0.00000000000E+00 -0.27452388974E+03  0.27452388975E+03  0.25500000920E-02 0. -1.
    10030    2    1    2    0    0  0.00000000000E+00  0.00000000000E+00  0.46689923707E+03  0.10159470166E+04  0.90230451782E+03 0.  0.
        5    1    3    3  502    0 -0.17315436361E+03  0.40095359937E+03  0.36068684576E+03  0.56644797924E+03  0.46999998093E+01 0.  1.
       -5    1    3    3    0  502  0.17315436361E+03 -0.40095359937E+03  0.10621239131E+03  0.44949903732E+03  0.46999998093E+01 0. -1.
</event>
<event>
 5   0  0.2008770E-02  0.1051094E+04  0.7818609E-02  0.9254215E-01
        2   -1    0    0  501    0  0.00000000000E+00  0.00000000000E+00  0.12714212107E+04  0.12714212107E+04  0.25500000920E-02 0.  1.
       -2   -1    0    0    0  501  0.00000000000E+00  0.00000000000E+00 -0.21723685584E+03  0.21723685585E+03  0.25500000920E-02 0. -1.
    10030    2    1    2    0    0  0.00000000000E+00  0.00000000000E+00  0.10541843549E+04  0.14886580666E+04  0.10510938041E+04 0.  0.
        1    1    3    3  502    0 -0.48064013234E+03  0.21229874125E+03  0.54220436800E+03  0.75503064114E+03  0.50400001928E-02 0. -1.
       -1    1    3    3    0  502  0.48064013234E+03 -0.21229874125E+03  0.51197998685E+03  0.73362742541E+03  0.50400001928E-02 0.  1.
</event>
<event>
 5   0  0.1226424E-02  0.9037382E+03  0.7818609E-02  0.9420921E-01
        1   -1    0    0  501    0  0.00000000000E+00  0.00000000000E+00  0.32177891441E+03  0.32177891445E+03  0.50400001928E-02 0. -1.
       -1   -1    0    0    0  501  0.00000000000E+00  0.00000000000E+00 -0.63455268305E+03  0.63455268307E+03  0.50400001928E-02 0.  1.
    10030    2    1    2    0    0  0.00000000000E+00  0.00000000000E+00 -0.31277376864E+03  0.95633159752E+03  0.90373817783E+03 0.  0.
        1    1    3    3  502    0 -0.20680746621E+03 -0.29651252100E+03  0.13049274312E+03  0.38434016082E+03  0.50400001928E-02 0. -1.
       -1    1    3    3    0  502  0.20680746621E+03  0.29651252100E+03 -0.44326651176E+03  0.57199143670E+03  0.50400001928E-02 0.  1.
</event>
<event>
 5   0  0.7893875E-03  0.8927235E+03  0.7818609E-02  0.9434723E-01
       -4   -1    0    0    0  501  0.00000000000E+00  0.00000000000E+00  0.76957918164E+03  0.76958022955E+03  0.12699999809E+01 0.  1.
        4   -1    0    0  501    0  0.00000000000E+00  0.00000000000E+00 -0.25889043489E+03  0.25889354990E+03  0.12699999809E+01 0. -1.
    10030    2    1    2    0    0  0.00000000000E+00  0.00000000000E+00  0.51068874674E+03  0.10284737794E+04  0.89272354005E+03 0.  0.
        4    1    3    3  502    0 -0.10910232778E+03 -0.37002275816E+03 -0.33368965107E+01  0.38578868214E+03  0.12699999809E+01 0. -1.
       -4    1    3    3    0  502  0.10910232778E+03  0.37002275816E+03  0.51402564326E+03  0.64268509731E+03  0.12699999809E+01 0.  1.
</event>
<event>
 5   0  0.1162839E-02  0.9257349E+03  0.7818609E-02  0.9393971E-01
       -1   -1    0    0    0  501  0.00000000000E+00  0.00000000000E+00  0.34170414113E+03  0.34170414116E+03  0.50400001928E-02 0.  1.
        1   -1    0    0  501    0  0.00000000000E+00  0.00000000000E+00 -0.62699344571E+03  0.62699344573E+03  0.50400001928E-02 0. -1.
    10030    2    1    2    0    0  0.00000000000E+00  0.00000000000E+00 -0.28528930459E+03  0.96869758690E+03  0.92573485813E+03 0.  0.
        2    1    3    3  502    0  0.42635072011E+02 -0.51765937488E+02 -0.62188275283E+03  0.62548830518E+03  0.25500000920E-02 0. -1.
       -2    1    3    3    0  502 -0.42635072011E+02  0.51765937488E+02  0.33659344824E+03  0.34320928172E+03  0.25500000920E-02 0.  1.
</event>
<event>
 5   0  0.1968763E-02  0.8996353E+03  0.7818609E-02  0.9426037E-01
       -2   -1    0    0    0  501  0.00000000000E+00  0.00000000000E+00  0.31067070655E+03  0.31067070656E+03  0.25500000920E-02 0. -1.
        2   -1    0    0  501    0  0.00000000000E+00  0.00000000000E+00 -0.65128741488E+03  0.65128741489E+03  0.25500000920E-02 0.  1.
    10030    2    1    2    0    0  0.00000000000E+00  0.00000000000E+00 -0.34061670833E+03  0.96195812145E+03  0.89963530691E+03 0.  0.
        2    1    3    3  502    0  0.39707055979E+03 -0.17384856280E+03 -0.41783516343E+02  0.43547010745E+03  0.25500000920E-02 0. -1.
       -2    1    3    3    0  502 -0.39707055979E+03  0.17384856280E+03 -0.29883319199E+03  0.52648801400E+03  0.25500000920E-02 0.  1.
</event>
<event>
 5   0  0.1924218E-02  0.8931048E+03  0.7818609E-02  0.9434242E-01
       -2   -1    0    0    0  501  0.00000000000E+00  0.00000000000E+00  0.32323876469E+03  0.32323876470E+03  0.25500000920E-02 0.  1.
        2   -1    0    0  501    0  0.00000000000E+00  0.00000000000E+00 -0.61690938408E+03  0.61690938409E+03  0.25500000920E-02 0. -1.
    10030    2    1    2    0    0  0.00000000000E+00  0.00000000000E+00 -0.29367061939E+03  0.94014814879E+03  0.89310475813E+03 0.  0.
        4    1    3    3  502    0  0.55765971909E+02 -0.37165246545E+03  0.10705781950E+03  0.39076641144E+03  0.12699999809E+01 0.  1.
       -4    1    3    3    0  502 -0.55765971909E+02  0.37165246545E+03 -0.40072843889E+03  0.54938173735E+03  0.12699999809E+01 0. -1.
</event>
<event>
 5   0  0.2041861E-02  0.8964177E+03  0.7818609E-02  0.9430071E-01
        2   -1    0    0  501    0  0.00000000000E+00  0.00000000000E+00  0.11537576089E+04  0.11537576089E+04  0.25500000920E-02 0.  1.
       -2   -1    0    0    0  501  0.00000000000E+00  0.00000000000E+00 -0.17411906230E+03  0.17411906232E+03  0.25500000920E-02 0. -1.
    10030    2    1    2    0    0  0.00000000000E+00  0.00000000000E+00  0.97963854659E+03  0.13278766712E+04  0.89641774413E+03 0.  0.
        5    1    3    3  502    0 -0.30416181269E+02  0.93815289975E+02  0.11374479907E+04  0.11417252184E+04  0.46999998093E+01 0.  1.
       -5    1    3    3    0  502  0.30416181269E+02 -0.93815289975E+02 -0.15780944416E+03  0.18615145280E+03  0.46999998093E+01 0. -1.
</event>
<event>
 5   0  0.1175993E-02  0.8728617E+03  0.7818609E-02  0.9460156E-01
        1   -1    0    0  501    0  0.00000000000E+00  0.00000000000E+00  0.14548967110E+04  0.14548967111E+04  0.50400001928E-02 0.  1.
       -1   -1    0    0    0  501  0.00000000000E+00  0.00000000000E+00 -0.13091781437E+03  0.13091781447E+03  0.50400001928E-02 0. -1.
    10030    2    1    2    0    0  0.00000000000E+00  0.00000000000E+00  0.13239788967E+04  0.15858145255E+04  0.87286172475E+03 0.  0.
        4    1    3    3  502    0 -0.43545010643E+02 -0.25641670144E+03  0.12987110830E+04  0.13244990686E+04  0.12699999809E+01 0.  1.
       -4    1    3    3    0  502  0.43545010643E+02  0.25641670144E+03  0.25267813703E+02  0.26131545695E+03  0.12699999809E+01 0. -1.
</event>
<event>
 5   0  0.1175993E-02  0.8547253E+03  0.7818609E-02  0.9484017E-01
        1   -1    0    0  501    0  0.00000000000E+00  0.00000000000E+00  0.54450569540E+03  0.54450569542E+03  0.50400001928E-02 0. -1.
       -1   -1    0    0    0  501  0.00000000000E+00  0.00000000000E+00 -0.33542136848E+03  0.33542136852E+03  0.50400001928E-02 0.  1.
    10030    2    1    2    0    0  0.00000000000E+00  0.00000000000E+00  0.20908432692E+03  0.87992706394E+03  0.85472532552E+03 0.  0.
        4    1    3    3  502    0 -0.18338290366E+03 -0.49682008884E+02  0.49863420554E+03  0.53360591750E+03  0.12699999809E+01 0. -1.
       -4    1    3    3    0  502  0.18338290366E+03  0.49682008884E+02 -0.28954987862E+03  0.34632114643E+03  0.12699999809E+01 0.  1.
</event>
<event>
 5   0  0.1968763E-02  0.9339238E+03  0.7818609E-02  0.9384141E-01
       -2   -1    0    0    0  501  0.00000000000E+00  0.00000000000E+00  0.29373742154E+03  0.29373742155E+03  0.25500000920E-02 0.  1.
        2   -1    0    0  501    0  0.00000000000E+00  0.00000000000E+00 -0.74234134953E+03  0.74234134954E+03  0.25500000920E-02 0. -1.
    10030    2    1    2    0    0  0.00000000000E+00  0.00000000000E+00 -0.44860392799E+03  0.10360787711E+04  0.93392383827E+03 0.  0.
        2    1    3    3  502    0  0.46315439658E+03  0.53394146691E+02 -0.25345369822E+03  0.53066157494E+03  0.25500000920E-02 0. -1.
       -2    1    3    3    0  502 -0.46315439658E+03 -0.53394146691E+02 -0.19515022977E+03  0.50541719615E+03  0.25500000920E-02 0.  1.
</event>
<event>
 5   0  0.2008770E-02  0.8994198E+03  0.7818609E-02  0.9426307E-01
       -2   -1    0    0    0  501  0.00000000000E+00  0.00000000000E+00  0.81263175933E+03  0.81263175934E+03  0.25500000920E-02 0.  1.
        2   -1    0    0  501    0  0.00000000000E+00  0.00000000000E+00 -0.24886914910E+03  0.24886914912E+03  0.25500000920E-02 0. -1.
    10030    2    1    2    0    0  0.00000000000E+00  0.00000000000E+00  0.56376261023E+03  0.10615009085E+04  0.89941975626E+03 0.  0.
        1    1    3    3  502    0 -0.12487112835E+02  0.80942942407E+02 -0.23999319429E+03  0.25358316435E+03  0.50400001928E-02 0. -1.
       -1    1    3    3    0  502  0.12487112835E+02 -0.80942942407E+02  0.80375580452E+03  0.80791774410E+03  0.50400001928E-02 0.  1.
</event>
<event>
 5   0  0.1924218E-02  0.9226777E+03  0.7818609E-02  0.9397669E-01
        2   -1    0    0  501    0  0.00000000000E+00  0.00000000000E+00  0.18046368411E+04  0.18046368411E+04  0.25500000920E-02 0.  1.
       -2   -1    0    0    0  501  0.00000000000E+00  0.00000000000E+00 -0.11793704330E+03  0.11793704333E+03  0.25500000920E-02 0. -1.
    10030    2    1    2    0    0  0.00000000000E+00  0.00000000000E+00  0.16866997978E+04  0.19225738844E+04  0.92267769735E+03 0.  0.
        4    1    3    3  502    0  0.13410697263E+03  0.19297138111E+03  0.16705754054E+04  0.16870229494E+04  0.12699999809E+01 0.  1.
       -4    1    3    3    0  502 -0.13410697263E+03 -0.19297138111E+03  0.16124392422E+02  0.23555093497E+03  0.12699999809E+01 0. -1.
</event>
<event>
 5   0  0.7893875E-03  0.8988452E+03  0.7818609E-02  0.9427026E-01
        4   -1    0    0  501    0  0.00000000000E+00  0.00000000000E+00  0.25871909191E+03  0.25872220898E+03  0.12699999809E+01 0.  1.
       -4   -1    0    0    0  501  0.00000000000E+00  0.00000000000E+00 -0.78068657140E+03  0.78068760440E+03  0.12699999809E+01 0. -1.
    10030    2    1    2    0    0  0.00000000000E+00  0.00000000000E+00 -0.52196747949E+03  0.10394098134E+04  0.89884520942E+03 0.  0.
        5    1    3    3  502    0 -0.98669251734E+02 -0.14271036225E+03  0.21840205709E+03  0.27896848795E+03  0.46999998093E+01 0.  1.
       -5    1    3    3    0  502  0.98669251734E+02  0.14271036225E+03 -0.74036953657E+03  0.76044132543E+03  0.46999998093E+01 0. -1.
</event>
<event>
 5   0  0.2041861E-02  0.9027060E+03  0.7818609E-02  0.9422205E-01
        2   -1    0    0  501    0  0.00000000000E+00  0.00000000000E+00  0.49695197873E+03  0.49695197874E+03  0.25500000920E-02 0. -1.
       -2   -1    0    0    0  501  0.00000000000E+00  0.00000000000E+00 -0.40993803739E+03  0.40993803740E+03  0.25500000920E-02 0.  1.
    10030    2    1    2    0    0  0.00000000000E+00  0.00000000000E+00  0.87013941337E+02  0.90689001614E+03  0.90270597394E+03 0.  0.
        5    1    3    3  502    0 -0.16272695624E+03  0.19921736124E+03  0.41607597832E+03  0.48919211874E+03  0.46999998093E+01 0. -1.
       -5    1    3    3    0  502  0.16272695624E+03 -0.19921736124E+03 -0.32906203698E+03  0.41769789739E+03  0.46999998093E+01 0.  1.
</event>
<event>
 5   0  0.1175993E-02  0.7598359E+03  0.7818609E-02  0.9620044E-01
       -1   -1    0    0    0  501  0.00000000000E+00  0.00000000000E+00  0.26672347402E+03  0.26672347407E+03  0.50400001928E-02 0. -1.
        1   -1    0    0  501    0  0.00000000000E+00  0.00000000000E+00 -0.54115094082E+03  0.54115094085E+03  0.50400001928E-02 0.  1.
    10030    2    1    2    0    0  0.00000000000E+00  0.00000000000E+00 -0.27442746680E+03  0.80787441491E+03  0.75983592685E+03 0.  0.
        4    1    3    3  502    0  0.16801389607E+03  0.10891330104E+03 -0.48049666367E+03  0.52054724388E+03  0.12699999809E+01 0.  1.
       -4    1    3    3    0  502 -0.16801389607E+03 -0.10891330104E+03  0.20606919687E+03  0.28732717103E+03  0.12699999809E+01 0. -1.
</event>
<event>
 5   0  0.1226424E-02  0.6557529E+03  0.7818609E-02  0.9796044E-01
       -1   -1    0    0    0  501  0.00000000000E+00  0.00000000000E+00  0.18666486182E+03  0.18666486189E+03  0.50400001928E-02 0.  1.
        1   -1    0    0  501    0  0.00000000000E+00  0.00000000000E+00 -0.57591427133E+03  0.57591427135E+03  0.50400001928E-02 0. -1.
    10030    2    1    2    0    0  0.00000000000E+00  0.00000000000E+00 -0.38924940951E+03  0.76257913324E+03  0.65575287391E+03 0.  0.
        1    1    3    3  502    0 -0.17646937631E+03 -0.13619006789E+03  0.84990257520E+02  0.23856344914E+03  0.50400001928E-02 0.  1.
       -1    1    3    3    0  502  0.17646937631E+03  0.13619006789E+03 -0.47423966703E+03  0.52401568410E+03  0.50400001928E-02 0. -1.
</event>
<event>
 5   0  0.1226424E-02  0.9145023E+03  0.7818609E-02  0.9407632E-01
       -1   -1    0    0    0  501  0.00000000000E+00  0.00000000000E+00  0.14869418368E+03  0.14869418376E+03  0.50400001928E-02 0. -1.
        1   -1    0    0  501    0  0.00000000000E+00  0.00000000000E+00 -0.14060982007E+04  0.14060982007E+04  0.50400001928E-02 0.  1.
    10030    2    1    2    0    0  0.00000000000E+00  0.00000000000E+00 -0.12574040171E+04  0.15547923845E+04  0.91450232192E+03 0.  0.
        1    1    3    3  502    0  0.24780933759E+02  0.45468365371E+03 -0.55804226604E+03  0.72025168541E+03  0.50400001928E-02 0. -1.
       -1    1    3    3    0  502 -0.24780933759E+02 -0.45468365371E+03 -0.69936175102E+03  0.83454069909E+03  0.50400001928E-02 0.  1.
</event>
<event>
 5   0  0.7893875E-03  0.8727243E+03  0.7818609E-02  0.9460335E-01
       -4   -1    0    0    0  501  0.00000000000E+00  0.00000000000E+00  0.31815405835E+03  0.31815659311E+03  0.12699999809E+01 0. -1.
        4   -1    0    0  501    0  0.00000000000E+00  0.00000000000E+00 -0.59848414344E+03  0.59848549093E+03  0.12699999809E+01 0.  1.
    10030    2    1    2    0    0  0.00000000000E+00  0.00000000000E+00 -0.28033008510E+03  0.91664208405E+03  0.87272432854E+03 0.  0.
        3    1    3    3  502    0 -0.12952500488E+03 -0.19274110915E+03  0.24786635490E+03  0.33965217818E+03  0.10100000352E+00 0. -1.
       -3    1    3    3    0  502  0.12952500488E+03  0.19274110915E+03 -0.52819644000E+03  0.57698990587E+03  0.10100000352E+00 0.  1.
</event>
<event>
 5   0  0.7893875E-03  0.9324262E+03  0.7818609E-02  0.9385931E-01
        3   -1    0    0  501    0  0.00000000000E+00  0.00000000000E+00  0.43133654895E+03  0.43133656078E+03  0.10100000352E+00 0. -1.
       -3   -1    0    0    0  501  0.00000000000E+00  0.00000000000E+00 -0.50390958835E+03  0.50390959847E+03  0.10100000352E+00 0.  1.
    10030    2    1    2    0    0  0.00000000000E+00  0.00000000000E+00 -0.72573039396E+02  0.93524615925E+03  0.93242615383E+03 0.  0.
        1    1    3    3  502    0  0.22568971364E+03  0.77798941109E+02 -0.43795502981E+03  0.49879167018E+03  0.50400001928E-02 0.  1.
       -1    1    3    3    0  502 -0.22568971364E+03 -0.77798941109E+02  0.36538199042E+03  0.43645448907E+03  0.50400001928E-02 0. -1.
</event>
<event>
 5   0  0.1226424E-02  0.9030366E+03  0.7818609E-02  0.9421793E-01
        1   -1    0    0  501    0  0.00000000000E+00  0.00000000000E+00  0.27764670293E+03  0.27764670298E+03  0.50400001928E-02 0.  1.
       -1   -1    0    0    0  501  0.00000000000E+00  0.00000000000E+00 -0.73427403527E+03  0.73427403529E+03  0.50400001928E-02 0. -1.
    10030    2    1    2    0    0  0.00000000000E+00  0.00000000000E+00 -0.45662733234E+03  0.10119207383E+04  0.90303657727E+03 0.  0.
        1    1    3    3  502    0 -0.37417392422E+03 -0.25248348675E+03 -0.24031629671E+03  0.51137653362E+03  0.50400001928E-02 0. -1.
       -1    1    3    3    0  502  0.37417392422E+03  0.25248348675E+03 -0.21631103563E+03  0.50054420465E+03  0.50400001928E-02 0.  1.
</event>
<event>
 5   0  0.2008770E-02  0.9512631E+03  0.7818609E-02  0.9363675E-01
       -2   -1    0    0    0  501  0.00000000000E+00  0.00000000000E+00  0.52630829026E+03  0.52630829027E+03  0.25500000920E-02 0.  1.
        2   -1    0    0  501    0  0.00000000000E+00  0.00000000000E+00 -0.42983433112E+03  0.42983433113E+03  0.25500000920E-02 0. -1.
    10030    2    1    2    0    0  0.00000000000E+00  0.00000000000E+00  0.96473959141E+02  0.95614262139E+03  0.95126310117E+03 0.  0.
        1    1    3    3  502    0  0.22126603801E+03  0.33955432291E+03  0.29845079335E+03  0.50331766695E+03  0.50400001928E-02 0.  1.
       -1    1    3    3    0  502 -0.22126603801E+03 -0.33955432291E+03 -0.20197683421E+03  0.45282495444E+03  0.50400001928E-02 0. -1.
</event>
<event>
 5   0  0.1226424E-02  0.8947787E+03  0.7818609E-02  0.9432132E-01
        1   -1    0    0  501    0  0.00000000000E+00  0.00000000000E+00  0.71286119582E+03  0.71286119584E+03  0.50400001928E-02 0.  1.
       -1   -1    0    0    0  501  0.00000000000E+00  0.00000000000E+00 -0.28078008456E+03  0.28078008460E+03  0.50400001928E-02 0. -1.
    10030    2    1    2    0    0  0.00000000000E+00  0.00000000000E+00  0.43208111126E+03  0.99364128044E+03  0.89477869191E+03 0.  0.
        1    1    3    3  502    0  0.16135271324E+03  0.41236851422E+03  0.28692709871E+03  0.52764538242E+03  0.50400001928E-02 0.  1.
       -1    1    3    3    0  502 -0.16135271324E+03 -0.41236851422E+03  0.14515401255E+03  0.46599589802E+03  0.50400001928E-02 0. -1.
</event>
<event>
 5   0  0.1924218E-02  0.8949928E+03  0.7818609E-02  0.9431862E-01
       -2   -1    0    0    0  501  0.00000000000E+00  0.00000000000E+00  0.42810888933E+03  0.42810888934E+03  0.25500000920E-02 0.  1.
        2   -1    0    0  501    0  0.00000000000E+00  0.00000000000E+00 -0.46776186853E+03  0.46776186853E+03  0.25500000920E-02 0. -1.
    10030    2    1    2    0    0  0.00000000000E+00  0.00000000000E+00 -0.39652979197E+02  0.89587075787E+03  0.89499276871E+03 0.  0.
        4    1    3    3  502    0 -0.43700812348E+03 -0.92839664497E+02  0.58130446082E+01  0.44680052337E+03  0.12699999809E+01 0.  1.
       -4    1    3    3    0  502  0.43700812348E+03  0.92839664497E+02 -0.45466023806E+02  0.44907023450E+03  0.12699999809E+01 0. -1.
</event>
<event>
 5   0  0.2008643E-02  0.9106094E+03  0.7818609E-02  0.9412415E-01
       -2   -1    0    0    0  501  0.00000000000E+00  0.00000000000E+00  0.38841147766E+03  0.38841147767E+03  0.25500000920E-02 0.  1.
        2   -1    0    0  501    0  0.00000000000E+00  0.00000000000E+00 -0.53371844518E+03  0.53371844518E+03  0.25500000920E-02 0. -1.
    10030    2    1    2    0    0  0.00000000000E+00  0.00000000000E+00 -0.14530696751E+03  0.92212992285E+03  0.91060940025E+03 0.  0.
        3    1    3    3  502    0 -0.24030560647E+02  0.45466619587E+03 -0.74559379841E+02  0.46136528785E+03  0.10100000352E+00 0. -1.
       -3    1    3    3    0  502  0.24030560647E+02 -0.45466619587E+03 -0.70747587671E+02  0.46076463501E+03  0.10100000352E+00 0.  1.
</event>
<event>
 5   0  0.1968763E-02  0.8515793E+03  0.7818609E-02  0.9488220E-01
       -2   -1    0    0    0  501  0.00000000000E+00  0.00000000000E+00  0.14080309213E+03  0.14080309215E+03  0.25500000920E-02 0.  1.
        2   -1    0    0  501    0  0.00000000000E+00  0.00000000000E+00 -0.12875911885E+04  0.12875911885E+04  0.25500000920E-02 0. -1.
    10030    2    1    2    0    0  0.00000000000E+00  0.00000000000E+00 -0.11467880964E+04  0.14283942807E+04  0.85157928757E+03 0.  0.
        2    1    3    3  502    0  0.28751721862E+03 -0.28551721242E+03 -0.35398450160E+03  0.53804391732E+03  0.25500000920E-02 0.  1.
       -2    1    3    3    0  502 -0.28751721862E+03  0.28551721242E+03 -0.79280359477E+03  0.89035036333E+03  0.25500000920E-02 0. -1.
</event>
<event>
 5   0  0.1177712E-02  0.8960533E+03  0.7818609E-02  0.9430528E-01
       -1   -1    0    0    0  501  0.00000000000E+00  0.00000000000E+00  0.44370811455E+03  0.44370811458E+03  0.50400001928E-02 0. -1.
        1   -1    0    0  501    0  0.00000000000E+00  0.00000000000E+00 -0.45238723441E+03  0.45238723444E+03  0.50400001928E-02 0.  1.
    10030    2    1    2    0    0  0.00000000000E+00  0.00000000000E+00 -0.86791198635E+01  0.89609534902E+03  0.89605331728E+03 0.  0.
        5    1    3    3  502    0  0.22079866349E+03  0.37029985969E+03  0.11745187016E+03  0.44686806519E+03  0.46999998093E+01 0.  1.
       -5    1    3    3    0  502 -0.22079866349E+03 -0.37029985969E+03 -0.12613099002E+03  0.44922728382E+03  0.46999998093E+01 0. -1.
</event>
<event>
 5   0  0.1226424E-02  0.9036704E+03  0.7818609E-02  0.9421005E-01
        1   -1    0    0  501    0  0.00000000000E+00  0.00000000000E+00  0.89497191535E+03  0.89497191536E+03  0.50400001928E-02 0.  1.
       -1   -1    0    0    0  501  0.00000000000E+00  0.00000000000E+00 -0.22811338107E+03  0.22811338113E+03  0.50400001928E-02 0. -1.
    10030    2    1    2    0    0  0.00000000000E+00  0.00000000000E+00  0.66685853428E+03  0.11230852965E+04  0.90367044792E+03 0.  0.
        1    1    3    3  502    0  0.36910593152E+03  0.25997857763E+03  0.35590375839E+03  0.57488741052E+03  0.50400001928E-02 0. -1.
       -1    1    3    3    0  502 -0.36910593152E+03 -0.25997857763E+03  0.31095477589E+03  0.54819788597E+03  0.50400001928E-02 0.  1.
</event>
<event>
 5   0  0.1924218E-02  0.8987853E+03  0.7818609E-02  0.9427101E-01
       -2   -1    0    0    0  501  0.00000000000E+00  0.00000000000E+00  0.15010546129E+03  0.15010546132E+03  0.25500000920E-02 0.  1.
        2   -1    0    0  501    0  0.00000000000E+00  0.00000000000E+00 -0.13454123688E+04  0.13454123688E+04  0.25500000920E-02 0. -1.
    10030    2    1    2    0    0  0.00000000000E+00  0.00000000000E+00 -0.11953069075E+04  0.14955178301E+04  0.89878527863E+03 0.  0.
        4    1    3    3  502    0  0.12531111160E+03  0.41877698323E+03 -0.77117450675E+03  0.88644727374E+03  0.12699999809E+01 0. -1.
       -4    1    3    3    0  502 -0.12531111160E+03 -0.41877698323E+03 -0.42413240077E+03  0.60907055639E+03  0.12699999809E+01 0.  1.
</event>
<event>
 5   0  0.1924218E-02  0.9065349E+03  0.7818609E-02  0.9417449E-01
        2   -1    0    0  501    0  0.00000000000E+00  0.00000000000E+00  0.54594882055E+03  0.54594882056E+03  0.25500000920E-02 0.  1.
       -2   -1    0    0    0  501  0.00000000000E+00  0.00000000000E+00 -0.37631983019E+03  0.37631983019E+03  0.25500000920E-02 0. -1.
    10030    2    1    2    0    0  0.00000000000E+00  0.00000000000E+00  0.16962899037E+03  0.92226865076E+03  0.90653486960E+03 0.  0.
        4    1    3    3  502    0 -0.82862505548E+01  0.18637050671E+03  0.50507872098E+03  0.53843175520E+03  0.12699999809E+01 0.  1.
       -4    1    3    3    0  502  0.82862505548E+01 -0.18637050671E+03 -0.33544973061E+03  0.38383689555E+03  0.12699999809E+01 0. -1.
</event>
<event>
 5   0  0.2041861E-02  0.8897014E+03  0.7818609E-02  0.9438547E-01
       -2   -1    0    0    0  501  0.00000000000E+00  0.00000000000E+00  0.27015683553E+03  0.27015683555E+03  0.25500000920E-02 0.  1.
        2   -1    0    0  501    0  0.00000000000E+00  0.00000000000E+00 -0.73250842694E+03  0.73250842694E+03  0.25500000920E-02 0. -1.
    10030    2    1    2    0    0  0.00000000000E+00  0.00000000000E+00 -0.46235159140E+03  0.10026652625E+04  0.88970142999E+03 0.  0.
        5    1    3    3  502    0 -0.84956489846E+02 -0.42645203677E+03 -0.33684145774E+03  0.55005745380E+03  0.46999998093E+01 0. -1.
       -5    1    3    3    0  502  0.84956489846E+02  0.42645203677E+03 -0.12551013367E+03  0.45260780869E+03  0.46999998093E+01 0.  1.
</event>
<event>
 5   0  0.2008643E-02  0.8711688E+03  0.7818609E-02  0.9462357E-01
        2   -1    0    0  501    0  0.00000000000E+00  0.00000000000E+00  0.41931712732E+03  0.41931712733E+03  0.25500000920E-02 0. -1.
       -2   -1    0    0    0  501  0.00000000000E+00  0.00000000000E+00 -0.45248273114E+03  0.45248273115E+03  0.25500000920E-02 0.  1.
    10030    2    1    2    0    0  0.00000000000E+00  0.00000000000E+00 -0.33165603818E+02  0.87179985848E+03  0.87116877583E+03 0.  0.
        3    1    3    3  502    0  0.14377440164E+02  0.24315956396E+03 -0.37795443815E+03  0.44964747508E+03  0.10100000352E+00 0.  1.
       -3    1    3    3    0  502 -0.14377440164E+02 -0.24315956396E+03  0.34478883433E+03  0.42215238340E+03  0.10100000352E+00 0. -1.
</event>
<event>
 5   0  0.7893875E-03  0.8875781E+03  0.7818609E-02  0.9441244E-01
        3   -1    0    0  501    0  0.00000000000E+00  0.00000000000E+00  0.23194907942E+03  0.23194910141E+03  0.10100000352E+00 0.  1.
       -3   -1    0    0    0  501  0.00000000000E+00  0.00000000000E+00 -0.84910325095E+03  0.84910325695E+03  0.10100000352E+00 0. -1.
    10030    2    1    2    0    0  0.00000000000E+00  0.00000000000E+00 -0.61715417153E+03  0.10810523584E+04  0.88757812619E+03 0.  0.
        5    1    3    3  502    0  0.16666949933E+03  0.31164750733E+03 -0.63544930206E+03  0.72713189748E+03  0.46999998093E+01 0. -1.
       -5    1    3    3    0  502 -0.16666949933E+03 -0.31164750733E+03  0.18295130535E+02  0.35392046089E+03  0.46999998093E+01 0.  1.
</event>
<event>
 5   0  0.1924218E-02  0.9097644E+03  0.7818609E-02  0.9413457E-01
       -2   -1    0    0    0  501  0.00000000000E+00  0.00000000000E+00  0.41268542018E+03  0.41268542019E+03  0.25500000920E-02 0. -1.
        2   -1    0    0  501    0  0.00000000000E+00  0.00000000000E+00 -0.50139361823E+03  0.50139361824E+03  0.25500000920E-02 0.  1.
    10030    2    1    2    0    0  0.00000000000E+00  0.00000000000E+00 -0.88708198049E+02  0.91407903843E+03  0.90976444429E+03 0.  0.
        4    1    3    3  502    0 -0.34398955097E+03 -0.22448074758E+03  0.15201024415E+03  0.43798304126E+03  0.12699999809E+01 0. -1.
       -4    1    3    3    0  502  0.34398955097E+03  0.22448074758E+03 -0.24071844219E+03  0.47609599717E+03  0.12699999809E+01 0.  1.
</event>
<event>
 5   0  0.7893875E-03  0.9478905E+03  0.7818609E-02  0.9367620E-01
        3   -1    0    0  501    0  0.00000000000E+00  0.00000000000E+00  0.26557506449E+03  0.26557508370E+03  0.10100000352E+00 0.  1.
       -3   -1    0    0    0  501  0.00000000000E+00  0.00000000000E+00 -0.84580269665E+03  0.84580270268E+03  0.10100000352E+00 0. -1.
    10030    2    1    2    0    0  0.00000000000E+00  0.00000000000E+00 -0.58022763216E+03  0.11113777864E+04  0.94789054165E+03 0.  0.
        3    1    3    3  502    0 -0.72324829656E+02 -0.38508837822E+03 -0.60274971160E+03  0.71890970578E+03  0.10100000352E+00 0. -1.
       -3    1    3    3    0  502  0.72324829656E+02  0.38508837822E+03  0.22522079444E+02  0.39246808060E+03  0.10100000352E+00 0.  1.
</event>
<event>
 5   0  0.1177712E-02  0.7421106E+03  0.7818609E-02  0.9647810E-01
       -1   -1    0    0    0  501  0.00000000000E+00  0.00000000000E+00  0.31155383193E+03  0.31155383197E+03  0.50400001928E-02 0. -1.
        1   -1    0    0  501    0  0.00000000000E+00  0.00000000000E+00 -0.44192050785E+03  0.44192050788E+03  0.50400001928E-02 0.  1.
    10030    2    1    2    0    0  0.00000000000E+00  0.00000000000E+00 -0.13036667592E+03  0.75347433985E+03  0.74211057843E+03 0.  0.
        5    1    3    3  502    0  0.15721978609E+03 -0.18152816954E+03  0.22197145161E+03  0.32705344029E+03  0.46999998093E+01 0. -1.
       -5    1    3    3    0  502 -0.15721978609E+03  0.18152816954E+03 -0.35233812754E+03  0.42642089957E+03  0.46999998093E+01 0.  1.
</event>
<event>
 5   0  0.1162839E-02  0.9201402E+03  0.7818609E-02  0.9400750E-01
       -1   -1    0    0    0  501  0.00000000000E+00  0.00000000000E+00  0.27324609869E+03  0.27324609874E+03  0.50400001928E-02 0. -1.
        1   -1    0    0  501    0  0.00000000000E+00  0.00000000000E+00 -0.77462955714E+03  0.77462955715E+03  0.50400001928E-02 0.  1.
    10030    2    1    2    0    0  0.00000000000E+00  0.00000000000E+00 -0.50138345844E+03  0.10478756559E+04  0.92014021638E+03 0.  0.
        2    1    3    3  502    0  0.12748596609E+03 -0.12541031500E+03  0.23204522440E+03  0.29295973244E+03  0.25500000920E-02 0. -1.
       -2    1    3    3    0  502 -0.12748596609E+03  0.12541031500E+03 -0.73342868284E+03  0.75491592345E+03  0.25500000920E-02 0.  1.
</event>
<event>
 5   0  0.7893875E-03  0.9072459E+03  0.7818609E-02  0.9416569E-01
        3   -1    0    0  501    0  0.00000000000E+00  0.00000000000E+00  0.27449251439E+03  0.27449253297E+03  0.10100000352E+00 0.  1.
       -3   -1    0    0    0  501  0.00000000000E+00  0.00000000000E+00 -0.74965162883E+03  0.74965163563E+03  0.10100000352E+00 0. -1.
    10030    2    1    2    0    0  0.00000000000E+00  0.00000000000E+00 -0.47515911444E+03  0.10241441686E+04  0.90724588400E+03 0.  0.
        1    1    3    3  502    0 -0.62730688465E+02  0.27437084509E+03  0.16401061545E+03  0.32575141123E+03  0.50400001928E-02 0.  1.
       -1    1    3    3    0  502  0.62730688465E+02 -0.27437084509E+03 -0.63916972989E+03  0.69839275737E+03  0.50400001928E-02 0. -1.
</event>
<event>
 5   0  0.1924218E-02  0.9005359E+03  0.7818609E-02  0.9424912E-01
       -2   -1    0    0    0  501  0.00000000000E+00  0.00000000000E+00  0.69808689102E+03  0.69808689103E+03  0.25500000920E-02 0.  1.
        2   -1    0    0  501    0  0.00000000000E+00  0.00000000000E+00 -0.29042403389E+03  0.29042403390E+03  0.25500000920E-02 0. -1.
    10030    2    1    2    0    0  0.00000000000E+00  0.00000000000E+00  0.40766285714E+03  0.98851092492E+03  0.90053586470E+03 0.  0.
        4    1    3    3  502    0 -0.20687850592E+03 -0.20370663705E+03 -0.17394763600E+03  0.33845901252E+03  0.12699999809E+01 0. -1.
       -4    1    3    3    0  502  0.20687850592E+03  0.20370663705E+03  0.58161049313E+03  0.65005191240E+03  0.12699999809E+01 0.  1.
</event>
<event>
 5   0  0.2008643E-02  0.9337047E+03  0.7818609E-02  0.9384403E-01
        2   -1    0    0  501    0  0.00000000000E+00  0.00000000000E+00  0.33020936494E+03  0.33020936495E+03  0.25500000920E-02 0. -1.
       -2   -1    0    0    0  501  0.00000000000E+00  0.00000000000E+00 -0.66003921647E+03  0.66003921648E+03  0.25500000920E-02 0.  1.
    10030    2    1    2    0    0  0.00000000000E+00  0.00000000000E+00 -0.32982985153E+03  0.99024858143E+03  0.93370472959E+03 0.  0.
        3    1    3    3  502    0 -0.70149038617E+02  0.28372682381E+03 -0.55100679743E+03  0.62372293463E+03  0.10100000352E+00 0.  1.
       -3    1    3    3    0  502  0.70149038617E+02 -0.28372682381E+03  0.22117694590E+03  0.36652564680E+03  0.10100000352E+00 0. -1.
</event>
<event>
 5   0  0.1177712E-02  0.9207852E+03  0.7818609E-02  0.9399966E-01
       -1   -1    0    0    0  501  0.00000000000E+00  0.00000000000E+00  0.20020008966E+03  0.20020008972E+03  0.50400001928E-02 0.  1.
        1   -1    0    0  501    0  0.00000000000E+00  0.00000000000E+00 -0.10587474375E+04  0.10587474375E+04  0.50400001928E-02 0. -1.
    10030    2    1    2    0    0  0.00000000000E+00  0.00000000000E+00 -0.85854734787E+03  0.12589475273E+04  0.92078516922E+03 0.  0.
        5    1    3    3  502    0  0.18006316999E+03 -0.33575012365E+03 -0.75928084436E+02  0.38850747061E+03  0.46999998093E+01 0.  1.
       -5    1    3    3    0  502 -0.18006316999E+03  0.33575012365E+03 -0.78261926343E+03  0.87044005664E+03  0.46999998093E+01 0. -1.
</event>
<event>
 5   0  0.1968763E-02  0.8804240E+03  0.7818609E-02  0.9450389E-01
       -2   -1    0    0    0  501  0.00000000000E+00  0.00000000000E+00  0.24407452539E+03  0.24407452541E+03  0.25500000920E-02 0.  1.
        2   -1    0    0  501    0  0.00000000000E+00  0.00000000000E+00 -0.79396483420E+03  0.79396483420E+03  0.25500000920E-02 0. -1.
    10030    2    1    2    0    0  0.00000000000E+00  0.00000000000E+00 -0.54989030880E+03  0.10380393596E+04  0.88042396627E+03 0.  0.
        2    1    3    3  502    0  0.33536095530E+03 -0.26274481418E+03 -0.14426618566E+03  0.44979388618E+03  0.25500000920E-02 0.  1.
       -2    1    3    3    0  502 -0.33536095530E+03  0.26274481418E+03 -0.40562412315E+03  0.58824547342E+03  0.25500000920E-02 0. -1.
</event>
<event>
 5   0  0.7893875E-03  0.8961559E+03  0.7818609E-02  0.9430399E-01
       -3   -1    0    0    0  501  0.00000000000E+00  0.00000000000E+00  0.15916876134E+03  0.15916879339E+03  0.10100000352E+00 0. -1.
        3   -1    0    0  501    0  0.00000000000E+00  0.00000000000E+00 -0.12613897338E+04  0.12613897378E+04  0.10100000352E+00 0.  1.
    10030    2    1    2    0    0  0.00000000000E+00  0.00000000000E+00 -0.11022209725E+04  0.14205585312E+04  0.89615593985E+03 0.  0.
        5    1    3    3  502    0  0.30561279256E+03  0.45201996035E+02 -0.10655200902E+04  0.11094131566E+04  0.46999998093E+01 0.  1.
       -5    1    3    3    0  502 -0.30561279256E+03 -0.45201996035E+02 -0.36700882303E+02  0.31114537468E+03  0.46999998093E+01 0. -1.
</event>
<event>
 5   0  0.1924218E-02  0.9222730E+03  0.7818609E-02  0.9398159E-01
       -2   -1    0    0    0  501  0.00000000000E+00  0.00000000000E+00  0.90031148430E+02  0.90031148466E+02  0.25500000920E-02 0. -1.
        2   -1    0    0  501    0  0.00000000000E+00  0.00000000000E+00 -0.23619257546E+04  0.23619257546E+04  0.25500000920E-02 0.  1.
    10030    2    1    2    0    0  0.00000000000E+00  0.00000000000E+00 -0.22718946062E+04  0.24519569031E+04  0.92227303601E+03 0.  0.
        4    1    3    3  502    0 -0.32186889509E+03  0.27945483265E+03 -0.16036700183E+04  0.16593534071E+04  0.12699999809E+01 0. -1.
       -4    1    3    3    0  502  0.32186889509E+03 -0.27945483265E+03 -0.66822458791E+03  0.79260349602E+03  0.12699999809E+01 0.  1.
</event>
<event>
 5   0  0.1226424E-02  0.8896401E+03  0.7818609E-02  0.9438625E-01
       -1   -1    0    0    0  501  0.00000000000E+00  0.00000000000E+00  0.24441324547E+03  0.24441324553E+03  0.50400001928E-02 0. -1.
        1   -1    0    0  501    0  0.00000000000E+00  0.00000000000E+00 -0.80955055659E+03  0.80955055660E+03  0.50400001928E-02 0.  1.
    10030    2    1    2    0    0  0.00000000000E+00  0.00000000000E+00 -0.56513731111E+03  0.10539638021E+04  0.88964010464E+03 0.  0.
        1    1    3    3  502    0  0.40284637352E+03  0.18278712210E+03 -0.33773772878E+03  0.55656365865E+03  0.50400001928E-02 0. -1.
       -1    1    3    3    0  502 -0.40284637352E+03 -0.18278712210E+03 -0.22739958234E+03  0.49740014348E+03  0.50400001928E-02 0.  1.
</event>
<event>
 5   0  0.1968763E-02  0.8994889E+03  0.7818609E-02  0.9426221E-01
       -2   -1    0    0    0  501  0.00000000000E+00  0.00000000000E+00  0.12207066945E+03  0.12207066948E+03  0.25500000920E-02 0.  1.
        2   -1    0    0  501    0  0.00000000000E+00  0.00000000000E+00 -0.16569914794E+04  0.16569914795E+04  0.25500000920E-02 0. -1.
    10030    2    1    2    0    0  0.00000000000E+00  0.00000000000E+00 -0.15349208100E+04  0.17790621489E+04  0.89948887530E+03 0.  0.
        2    1    3    3  502    0  0.20111996182E+03  0.14233013998E+03 -0.15116269256E+04  0.15315753557E+04  0.25500000920E-02 0. -1.
       -2    1    3    3    0  502 -0.20111996182E+03 -0.14233013998E+03 -0.23293884382E+02  0.24748679328E+03  0.25500000920E-02 0.  1.
</event>
<event>
 5   0  0.1177712E-02  0.9141173E+03  0.7818609E-02  0.9408104E-01
        1   -1    0    0  501    0  0.00000000000E+00  0.00000000000E+00  0.13710499454E+03  0.13710499463E+03  0.50400001928E-02 0.  1.
       -1   -1    0    0    0  501  0.00000000000E+00  0.00000000000E+00 -0.15236689123E+04  0.15236689123E+04  0.50400001928E-02 0. -1.
    10030    2    1    2    0    0  0.00000000000E+00  0.00000000000E+00 -0.13865639178E+04  0.16607739069E+04  0.91411731848E+03 0.  0.
        5    1    3    3  502    0 -0.42420924843E+03 -0.16514731186E+03 -0.76715712171E+03  0.89206460554E+03  0.46999998093E+01 0.  1.
       -5    1    3    3    0  502  0.42420924843E+03  0.16514731186E+03 -0.61940679605E+03  0.76870930140E+03  0.46999998093E+01 0. -1.
</event>
<event>
 5   0  0.7893875E-03  0.9007557E+03  0.7818609E-02  0.9424637E-01
        3   -1    0    0  501    0  0.00000000000E+00  0.00000000000E+00  0.12584146528E+04  0.12584146569E+04  0.10100000352E+00 0. -1.
       -3   -1    0    0    0  501  0.00000000000E+00  0.00000000000E+00 -0.16118709624E+03  0.16118712789E+03  0.10100000352E+00 0.  1.
    10030    2    1    2    0    0  0.00000000000E+00  0.00000000000E+00  0.10972275566E+04  0.14196017848E+04  0.90075574736E+03 0.  0.
        4    1    3    3  502    0 -0.17034474516E+03 -0.18294177217E+03  0.11390476457E+04  0.11661544393E+04  0.12699999809E+01 0. -1.
       -4    1    3    3    0  502  0.17034474516E+03  0.18294177217E+03 -0.41820089056E+02  0.25344734553E+03  0.12699999809E+01 0.  1.
</event>
<event>
 5   0  0.1226424E-02  0.8904790E+03  0.7818609E-02  0.9437562E-01
        1   -1    0    0  501    0  0.00000000000E+00  0.00000000000E+00  0.53303247793E+03  0.53303247795E+03  0.50400001928E-02 0. -1.
       -1   -1    0    0    0  501  0.00000000000E+00  0.00000000000E+00 -0.37190646034E+03  0.37190646038E+03  0.50400001928E-02 0.  1.
    10030    2    1    2    0    0  0.00000000000E+00  0.00000000000E+00  0.16112601759E+03  0.90493893833E+03  0.89047902196E+03 0.  0.
        1    1    3    3  502    0  0.96586220634E+02 -0.27036784195E+03 -0.26527255593E+03  0.39089282026E+03  0.50400001928E-02 0.  1.
       -1    1    3    3    0  502 -0.96586220634E+02  0.27036784195E+03  0.42639857351E+03  0.51404611807E+03  0.50400001928E-02 0. -1.
</event>
<event>
 5   0  0.2041861E-02  0.9046218E+03  0.7818609E-02  0.9419822E-01
       -2   -1    0    0    0  501  0.00000000000E+00  0.00000000000E+00  0.26075556883E+03  0.26075556884E+03  0.25500000920E-02 0.  1.
        2   -1    0    0  501    0  0.00000000000E+00  0.00000000000E+00 -0.78458599696E+03  0.78458599696E+03  0.25500000920E-02 0. -1.
    10030    2    1    2    0    0  0.00000000000E+00  0.00000000000E+00 -0.52383042813E+03  0.10453415658E+04  0.90462183909E+03 0.  0.
        5    1    3    3  502    0 -0.23990341398E+03 -0.16000852211E+03  0.14072067534E+03  0.32090617578E+03  0.46999998093E+01 0.  1.
       -5    1    3    3    0  502  0.23990341398E+03  0.16000852211E+03 -0.66455110348E+03  0.72443539002E+03  0.46999998093E+01 0. -1.
</event>
<event>
 5   0  0.1177712E-02  0.8861336E+03  0.7818609E-02  0.9443083E-01
        1   -1    0    0  501    0  0.00000000000E+00  0.00000000000E+00  0.81988727266E+03  0.81988727268E+03  0.50400001928E-02 0.  1.
       -1   -1    0    0    0  501  0.00000000000E+00  0.00000000000E+00 -0.23943312193E+03  0.23943312199E+03  0.50400001928E-02 0. -1.
    10030    2    1    2    0    0  0.00000000000E+00  0.00000000000E+00  0.58045415073E+03  0.10593203947E+04  0.88613355509E+03 0.  0.
        5    1    3    3  502    0  0.22157479361E+03  0.21731507747E+03 -0.87738115559E+02  0.32255433492E+03  0.46999998093E+01 0. -1.
       -5    1    3    3    0  502 -0.22157479361E+03 -0.21731507747E+03  0.66819226629E+03  0.73676605974E+03  0.46999998093E+01 0.  1.
</event>
<event>
 5   0  0.2008643E-02  0.8965667E+03  0.7818609E-02  0.9429883E-01
        2   -1    0    0  501    0  0.00000000000E+00  0.00000000000E+00  0.90975633358E+03  0.90975633358E+03  0.25500000920E-02 0.  1.
       -2   -1    0    0    0  501  0.00000000000E+00  0.00000000000E+00 -0.22089204794E+03  0.22089204796E+03  0.25500000920E-02 0. -1.
    10030    2    1    2    0    0  0.00000000000E+00  0.00000000000E+00  0.68886428563E+03  0.11306483815E+04  0.89656665042E+03 0.  0.
        3    1    3    3  502    0 -0.30468381759E+03 -0.32820304160E+03  0.31894494989E+03  0.54979574069E+03  0.10100000352E+00 0.  1.
       -3    1    3    3    0  502  0.30468381759E+03  0.32820304160E+03  0.36991933574E+03  0.58085264084E+03  0.10100000352E+00 0. -1.
</event>
<event>
 5   0  0.1226424E-02  0.7287776E+03  0.7818609E-02  0.9669246E-01
        1   -1    0    0  501    0  0.00000000000E+00  0.00000000000E+00  0.23554379146E+03  0.23554379151E+03  0.50400001928E-02 0.  1.
       -1   -1    0    0    0  501  0.00000000000E+00  0.00000000000E+00 -0.56371342788E+03  0.56371342790E+03  0.50400001928E-02 0. -1.
    10030    2    1    2    0    0  0.00000000000E+00  0.00000000000E+00 -0.32816963642E+03  0.79925721941E+03  0.72877760154E+03 0.  0.
        1    1    3    3  502    0 -0.85810875898E+02 -0.19137097808E+03 -0.49088367293E+03  0.53381002056E+03  0.50400001928E-02 0. -1.
       -1    1    3    3    0  502  0.85810875898E+02  0.19137097808E+03  0.16271403651E+03  0.26544719885E+03  0.50400001928E-02 0.  1.
</event>
<event>
 5   0  0.1206541E-02  0.9068634E+03  0.7818609E-02  0.9417042E-01
       -1   -1    0    0    0  501  0.00000000000E+00  0.00000000000E+00  0.17235733122E+03  0.17235733130E+03  0.50400001928E-02 0.  1.
        1   -1    0    0  501    0  0.00000000000E+00  0.00000000000E+00 -0.11928724887E+04  0.11928724887E+04  0.50400001928E-02 0. -1.
    10030    2    1    2    0    0  0.00000000000E+00  0.00000000000E+00 -0.10205151575E+04  0.13652298200E+04  0.90686342676E+03 0.  0.
        3    1    3    3  502    0 -0.17847696640E+03 -0.40924682681E+03 -0.62939989250E+03  0.77167430155E+03  0.10100000352E+00 0. -1.
       -3    1    3    3    0  502  0.17847696640E+03  0.40924682681E+03 -0.39111526497E+03  0.59355551845E+03  0.10100000352E+00 0.  1.
</event>
<event>
 5   0  0.2008643E-02  0.9016412E+03  0.7818609E-02  0.9423532E-01
       -2   -1    0    0    0  501  0.00000000000E+00  0.00000000000E+00  0.33428256331E+03  0.33428256332E+03  0.25500000920E-02 0. -1.
        2   -1    0    0  501    0  0.00000000000E+00  0.00000000000E+00 -0.60798631295E+03  0.60798631296E+03  0.25500000920E-02 0.  1.
    10030    2    1    2    0    0  0.00000000000E+00  0.00000000000E+00 -0.27370374964E+03  0.94226887628E+03  0.90164122169E+03 0.  0.
        3    1    3    3  502    0 -0.25935549475E+03  0.36783094163E+03 -0.16399001760E+03  0.47901733826E+03  0.10100000352E+00 0. -1.
       -3    1    3    3    0  502  0.25935549475E+03 -0.36783094163E+03 -0.10971373204E+03  0.46325153802E+03  0.10100000352E+00 0.  1.
</event>
<event>
 5   0  0.2041861E-02  0.9023516E+03  0.7818609E-02  0.9422647E-01
        2   -1    0    0  501    0  0.00000000000E+00  0.00000000000E+00  0.73252631951E+03  0.73252631951E+03  0.25500000920E-02 0. -1.
       -2   -1    0    0    0  501  0.00000000000E+00  0.00000000000E+00 -0.27788708360E+03  0.27788708361E+03  0.25500000920E-02 0.  1.
    10030    2    1    2    0    0  0.00000000000E+00  0.00000000000E+00  0.45463923591E+03  0.10104134031E+04  0.90235160021E+03 0.  0.
        5    1    3    3  502    0 -0.18742597728E+03  0.85245812136E+02  0.67681776489E+03  0.70746004998E+03  0.46999998093E+01 0. -1.
       -5    1    3    3    0  502  0.18742597728E+03 -0.85245812136E+02 -0.22217852898E+03  0.30295335315E+03  0.46999998093E+01 0.  1.
</event>
<event>
 5   0  0.2041861E-02  0.8918458E+03  0.7818609E-02  0.9435832E-01
       -2   -1    0    0    0  501  0.00000000000E+00  0.00000000000E+00  0.14338403767E+04  0.14338403767E+04  0.25500000920E-02 0.  1.
        2   -1    0    0  501    0  0.00000000000E+00  0.00000000000E+00 -0.13868157273E+03  0.13868157275E+03  0.25500000920E-02 0. -1.
    10030    2    1    2    0    0  0.00000000000E+00  0.00000000000E+00  0.12951588040E+04  0.15725219494E+04  0.89184581291E+03 0.  0.
        5    1    3    3  502    0 -0.33762130713E+02 -0.41404977720E+03  0.93324336229E+03  0.10215392125E+04  0.46999998093E+01 0.  1.
       -5    1    3    3    0  502  0.33762130713E+02  0.41404977720E+03  0.36191544166E+03  0.55098273692E+03  0.46999998093E+01 0. -1.
</event>
<event>
 5   0  0.1175993E-02  0.8961621E+03  0.7818609E-02  0.9430392E-01
        1   -1    0    0  501    0  0.00000000000E+00  0.00000000000E+00  0.15969730791E+04  0.15969730791E+04  0.50400001928E-02 0. -1.
       -1   -1    0    0    0  501  0.00000000000E+00  0.00000000000E+00 -0.12572323353E+03  0.12572323363E+03  0.50400001928E-02 0.  1.
    10030    2    1    2    0    0  0.00000000000E+00  0.00000000000E+00  0.14712498456E+04  0.17226963128E+04  0.89616208235E+03 0.  0.
        4    1    3    3  502    0 -0.17563727233E+03 -0.38908951666E+01 -0.56754957051E+02  0.18462483188E+03  0.12699999809E+01 0.  1.
       -4    1    3    3    0  502  0.17563727233E+03  0.38908951666E+01  0.15280048026E+04  0.15380714809E+04  0.12699999809E+01 0. -1.
</event>
<event>
 5   0  0.1177712E-02  0.9052457E+03  0.7818609E-02  0.9419048E-01
       -1   -1    0    0    0  501  0.00000000000E+00  0.00000000000E+00  0.22005895622E+03  0.22005895628E+03  0.50400001928E-02 0.  1.
        1   -1    0    0  501    0  0.00000000000E+00  0.00000000000E+00 -0.93096618237E+03  0.93096618238E+03  0.50400001928E-02 0. -1.
    10030    2    1    2    0    0  0.00000000000E+00  0.00000000000E+00 -0.71090722615E+03  0.11510251387E+04  0.90524570457E+03 0.  0.
        5    1    3    3  502    0  0.21225814902E+03 -0.32728027681E+03 -0.64728968605E+03  0.75575917400E+03  0.46999998093E+01 0. -1.
       -5    1    3    3    0  502 -0.21225814902E+03  0.32728027681E+03 -0.63617540095E+02  0.39526596466E+03  0.46999998093E+01 0.  1.
</event>
<event>
 5   0  0.1162839E-02  0.9008561E+03  0.7818609E-02  0.9424512E-01
        1   -1    0    0  501    0  0.00000000000E+00  0.00000000000E+00  0.46570107237E+03  0.46570107240E+03  0.50400001928E-02 0. -1.
       -1   -1    0    0    0  501  0.00000000000E+00  0.00000000000E+00 -0.43565591491E+03  0.43565591494E+03  0.50400001928E-02 0.  1.
    10030    2    1    2    0    0  0.00000000000E+00  0.00000000000E+00  0.30045157458E+02  0.90135698734E+03  0.90085609680E+03 0.  0.
        2    1    3    3  502    0  0.40938221261E+03 -0.14275150805E+03  0.13721188588E+03  0.45475146035E+03  0.25500000920E-02 0. -1.
       -2    1    3    3    0  502 -0.40938221261E+03  0.14275150805E+03 -0.10716672843E+03  0.44660552699E+03  0.25500000920E-02 0.  1.
</event>
<event>
 5   0  0.1226424E-02  0.9057018E+03  0.7818609E-02  0.9418482E-01
       -1   -1    0    0    0  501  0.00000000000E+00  0.00000000000E+00  0.32820403748E+03  0.32820403752E+03  0.50400001928E-02 0.  1.
        1   -1    0    0  501    0  0.00000000000E+00  0.00000000000E+00 -0.62483667589E+03  0.62483667591E+03  0.50400001928E-02 0. -1.
    10030    2    1    2    0    0  0.00000000000E+00  0.00000000000E+00 -0.29663263841E+03  0.95304071343E+03  0.90570176068E+03 0.  0.
        1    1    3    3  502    0 -0.12442344584E+03  0.12006613312E+03 -0.58873385000E+03  0.61359971998E+03  0.50400001928E-02 0. -1.
       -1    1    3    3    0  502  0.12442344584E+03 -0.12006613312E+03  0.29210121159E+03  0.33944099345E+03  0.50400001928E-02 0.  1.
</event>
<event>
 5   0  0.7893875E-03  0.8474481E+03  0.7818609E-02  0.9493768E-01
        3   -1    0    0  501    0  0.00000000000E+00  0.00000000000E+00  0.71744775665E+03  0.71744776376E+03  0.10100000352E+00 0.  1.
       -3   -1    0    0    0  501  0.00000000000E+00  0.00000000000E+00 -0.25025104000E+03  0.25025106038E+03  0.10100000352E+00 0. -1.
    10030    2    1    2    0    0  0.00000000000E+00  0.00000000000E+00  0.46719671665E+03  0.96769882414E+03  0.84744807640E+03 0.  0.
        1    1    3    3  502    0  0.12355070715E+03 -0.35726389969E+03  0.45217492438E+03  0.58937630892E+03  0.50400001928E-02 0.  1.
       -1    1    3    3    0  502 -0.12355070715E+03  0.35726389969E+03  0.15021792275E+02  0.37832251522E+03  0.50400001928E-02 0. -1.
</event>
<event>
 5   0  0.1175993E-02  0.8723657E+03  0.7818609E-02  0.9460801E-01
        1   -1    0    0  501    0  0.00000000000E+00  0.00000000000E+00  0.58413534632E+03  0.58413534634E+03  0.50400001928E-02 0. -1.
       -1   -1    0    0    0  501  0.00000000000E+00  0.00000000000E+00 -0.32570446884E+03  0.32570446888E+03  0.50400001928E-02 0.  1.
    10030    2    1    2    0    0  0.00000000000E+00  0.00000000000E+00  0.25843087748E+03  0.90983981522E+03  0.87236573232E+03 0.  0.
        4    1    3    3  502    0 -0.92540947521E+02  0.24436945387E+02  0.57304583123E+03  0.58098548077E+03  0.12699999809E+01 0. -1.
       -4    1    3    3    0  502  0.92540947521E+02 -0.24436945387E+02 -0.31461495375E+03  0.32885433446E+03  0.12699999809E+01 0.  1.
</event>
<event>
 5   0  0.2008643E-02  0.8804591E+03  0.7818609E-02  0.9450344E-01
       -2   -1    0    0    0  501  0.00000000000E+00  0.00000000000E+00  0.75157449621E+03  0.75157449622E+03  0.25500000920E-02 0.  1.
        2   -1    0    0  501    0  0.00000000000E+00  0.00000000000E+00 -0.25786141725E+03  0.25786141726E+03  0.25500000920E-02 0. -1.
    10030    2    1    2    0    0  0.00000000000E+00  0.00000000000E+00  0.49371307897E+03  0.10094359135E+04  0.88045911834E+03 0.  0.
        3    1    3    3  502    0 -0.28100948955E+03  0.22690979611E+03  0.53541569926E+03  0.64585166254E+03  0.10100000352E+00 0.  1.
       -3    1    3    3    0  502  0.28100948955E+03 -0.22690979611E+03 -0.41702620299E+02  0.36358425093E+03  0.10100000352E+00 0. -1.
</event>
<event>
 5   0  0.2041861E-02  0.8943392E+03  0.7818609E-02  0.9432685E-01
       -2   -1    0    0    0  501  0.00000000000E+00  0.00000000000E+00  0.15344013004E+03  0.15344013006E+03  0.25500000920E-02 0. -1.
        2   -1    0    0  501    0  0.00000000000E+00  0.00000000000E+00 -0.13031835883E+04  0.13031835883E+04  0.25500000920E-02 0.  1.
    10030    2    1    2    0    0  0.00000000000E+00  0.00000000000E+00 -0.11497434582E+04  0.14566237183E+04  0.89433921813E+03 0.  0.
        5    1    3    3  502    0  0.28369944231E+02 -0.25651692013E+03 -0.11695931445E+04  0.11977378669E+04  0.46999998093E+01 0.  1.
       -5    1    3    3    0  502 -0.28369944231E+02  0.25651692013E+03  0.19849686279E+02  0.25888585147E+03  0.46999998093E+01 0. -1.
</event>
<event>
 5   0  0.2041861E-02  0.9025287E+03  0.7818609E-02  0.9422426E-01
        2   -1    0    0  501    0  0.00000000000E+00  0.00000000000E+00  0.85777317769E+03  0.85777317769E+03  0.25500000920E-02 0. -1.
       -2   -1    0    0    0  501  0.00000000000E+00  0.00000000000E+00 -0.23740486481E+03  0.23740486482E+03  0.25500000920E-02 0.  1.
    10030    2    1    2    0    0  0.00000000000E+00  0.00000000000E+00  0.62036831288E+03  0.10951780425E+04  0.90252872595E+03 0.  0.
        5    1    3    3  502    0  0.19858489651E+03  0.28607672592E+03 -0.38019474240E+02  0.35034757692E+03  0.46999998093E+01 0.  1.
       -5    1    3    3    0  502 -0.19858489651E+03 -0.28607672592E+03  0.65838778712E+03  0.74483046558E+03  0.46999998093E+01 0. -1.
</event>
<event>
 5   0  0.1226424E-02  0.9037108E+03  0.7818609E-02  0.9420955E-01
       -1   -1    0    0    0  501  0.00000000000E+00  0.00000000000E+00  0.23893522633E+03  0.23893522638E+03  0.50400001928E-02 0.  1.
        1   -1    0    0  501    0  0.00000000000E+00  0.00000000000E+00 -0.85451317554E+03  0.85451317555E+03  0.50400001928E-02 0. -1.
    10030    2    1    2    0    0  0.00000000000E+00  0.00000000000E+00 -0.61557794921E+03  0.10934484019E+04  0.90371079232E+03 0.  0.
        1    1    3    3  502    0  0.16198404048E+03  0.19003561964E+02  0.20207895996E+03  0.25968417515E+03  0.50400001928E-02 0.  1.
       -1    1    3    3    0  502 -0.16198404048E+03 -0.19003561964E+02 -0.81765690917E+03  0.83376422679E+03  0.50400001928E-02 0. -1.
</event>
<event>
 5   0  0.2008770E-02  0.8808911E+03  0.7818609E-02  0.9449789E-01
       -2   -1    0    0    0  501  0.00000000000E+00  0.00000000000E+00  0.44912479539E+03  0.44912479540E+03  0.25500000920E-02 0.  1.
        2   -1    0    0  501    0  0.00000000000E+00  0.00000000000E+00 -0.43193403687E+03  0.43193403688E+03  0.25500000920E-02 0. -1.
    10030    2    1    2    0    0  0.00000000000E+00  0.00000000000E+00  0.17190758518E+02  0.88105883228E+03  0.88089110778E+03 0.  0.
        1    1    3    3  502    0  0.30910333499E+03  0.31312532983E+03  0.28597737879E+02  0.44091969169E+03  0.50400001928E-02 0.  1.
       -1    1    3    3    0  502 -0.30910333499E+03 -0.31312532983E+03 -0.11406979361E+02  0.44013914059E+03  0.50400001928E-02 0. -1.
</event>
<event>
 5   0  0.2008770E-02  0.8831251E+03  0.7818609E-02  0.9446925E-01
       -2   -1    0    0    0  501  0.00000000000E+00  0.00000000000E+00  0.26021455054E+03  0.26021455055E+03  0.25500000920E-02 0.  1.
        2   -1    0    0  501    0  0.00000000000E+00  0.00000000000E+00 -0.74929505764E+03  0.74929505764E+03  0.25500000920E-02 0. -1.
    10030    2    1    2    0    0  0.00000000000E+00  0.00000000000E+00 -0.48908050710E+03  0.10095096082E+04  0.88312507982E+03 0.  0.
        1    1    3    3  502    0  0.41898876881E+03 -0.13762599748E+03 -0.21936655411E+03  0.49255881747E+03  0.50400001928E-02 0. -1.
       -1    1    3    3    0  502 -0.41898876881E+03  0.13762599748E+03 -0.26971395298E+03  0.51695079073E+03  0.50400001928E-02 0.  1.
</event>
<event>
 5   0  0.1226424E-02  0.8960195E+03  0.7818609E-02  0.9430571E-01
       -1   -1    0    0    0  501  0.00000000000E+00  0.00000000000E+00  0.25594255246E+03  0.25594255251E+03  0.50400001928E-02 0.  1.
        1   -1    0    0  501    0  0.00000000000E+00  0.00000000000E+00 -0.78421012824E+03  0.78421012825E+03  0.50400001928E-02 0. -1.
    10030    2    1    2    0    0  0.00000000000E+00  0.00000000000E+00 -0.52826757577E+03  0.10401526808E+04  0.89601951301E+03 0.  0.
        1    1    3    3  502    0  0.75120834648E+02  0.43589541968E+03 -0.34674902258E+03  0.56203455533E+03  0.50400001928E-02 0.  1.
       -1    1    3    3    0  502 -0.75120834648E+02 -0.43589541968E+03 -0.18151855319E+03  0.47811812544E+03  0.50400001928E-02 0. -1.
</event>
<event>
 5   0  0.1924218E-02  0.8963784E+03  0.7818609E-02  0.9430120E-01
        2   -1    0    0  501    0  0.00000000000E+00  0.00000000000E+00  0.49167719611E+03  0.49167719612E+03  0.25500000920E-02 0. -1.
       -2   -1    0    0    0  501  0.00000000000E+00  0.00000000000E+00 -0.40854766610E+03  0.40854766611E+03  0.25500000920E-02 0.  1.
    10030    2    1    2    0    0  0.00000000000E+00  0.00000000000E+00  0.83129530012E+02  0.90022486223E+03  0.89637842667E+03 0.  0.
        4    1    3    3  502    0 -0.12880285153E+03  0.22767704399E+03  0.40705628448E+03  0.48386304111E+03  0.12699999809E+01 0. -1.
       -4    1    3    3    0  502  0.12880285153E+03 -0.22767704399E+03 -0.32392675446E+03  0.41636182111E+03  0.12699999809E+01 0.  1.
</event>
<event>
 5   0  0.1162839E-02  0.9519477E+03  0.7818609E-02  0.9362877E-01
        1   -1    0    0  501    0  0.00000000000E+00  0.00000000000E+00  0.99284563640E+03  0.99284563642E+03  0.50400001928E-02 0. -1.
       -1   -1    0    0    0  501  0.00000000000E+00  0.00000000000E+00 -0.22818362439E+03  0.22818362445E+03  0.50400001928E-02 0.  1.
    10030    2    1    2    0    0  0.00000000000E+00  0.00000000000E+00  0.76466201201E+03  0.12210292609E+04  0.95194772087E+03 0.  0.
        2    1    3    3  502    0  0.36929090862E+03  0.20351123371E+02 -0.19573551744E+01  0.36985642439E+03  0.25500000920E-02 0.  1.
       -2    1    3    3    0  502 -0.36929090862E+03 -0.20351123371E+02  0.76661936719E+03  0.85117283648E+03  0.25500000920E-02 0. -1.
</event>
<event>
 5   0  0.1968763E-02  0.9063748E+03  0.7818609E-02  0.9417648E-01
       -2   -1    0    0    0  501  0.00000000000E+00  0.00000000000E+00  0.58002423366E+03  0.58002423367E+03  0.25500000920E-02 0.  1.
        2   -1    0    0  501    0  0.00000000000E+00  0.00000000000E+00 -0.35408658238E+03  0.35408658239E+03  0.25500000920E-02 0. -1.
    10030    2    1    2    0    0  0.00000000000E+00  0.00000000000E+00  0.22593765128E+03  0.93411081606E+03  0.90637475385E+03 0.  0.
        2    1    3    3  502    0  0.50822365407E+02  0.40920671971E+02  0.57515795369E+03  0.57884720429E+03  0.25500000920E-02 0.  1.
       -2    1    3    3    0  502 -0.50822365407E+02 -0.40920671971E+02 -0.34922030241E+03  0.35526361176E+03  0.25500000920E-02 0. -1.
</event>
<event>
 5   0  0.1226424E-02  0.8940617E+03  0.7818609E-02  0.9433035E-01
       -1   -1    0    0    0  501  0.00000000000E+00  0.00000000000E+00  0.11582841509E+04  0.11582841509E+04  0.50400001928E-02 0.  1.
        1   -1    0    0  501    0  0.00000000000E+00  0.00000000000E+00 -0.17252811347E+03  0.17252811354E+03  0.50400001928E-02 0. -1.
    10030    2    1    2    0    0  0.00000000000E+00  0.00000000000E+00  0.98575603738E+03  0.13308122644E+04  0.89406169689E+03 0.  0.
        1    1    3    3  502    0 -0.48037362469E+02 -0.98148127850E+02 -0.15234224585E+03  0.18748014052E+03  0.50400001928E-02 0. -1.
       -1    1    3    3    0  502  0.48037362469E+02  0.98148127850E+02  0.11380982832E+04  0.11433321239E+04  0.50400001928E-02 0.  1.
</event>
<event>
 5   0  0.1968763E-02  0.9083033E+03  0.7818609E-02  0.9415261E-01
       -2   -1    0    0    0  501  0.00000000000E+00  0.00000000000E+00  0.19412499219E+03  0.19412499220E+03  0.25500000920E-02 0.  1.
        2   -1    0    0  501    0  0.00000000000E+00  0.00000000000E+00 -0.10624790002E+04  0.10624790002E+04  0.25500000920E-02 0. -1.
    10030    2    1    2    0    0  0.00000000000E+00  0.00000000000E+00 -0.86835400803E+03  0.12566039924E+04  0.90830331416E+03 0.  0.
        2    1    3    3  502    0 -0.28477116754E+03 -0.18948590292E+01  0.55255197323E+02  0.29008851268E+03  0.25500000920E-02 0.  1.
       -2    1    3    3    0  502  0.28477116754E+03  0.18948590292E+01 -0.92360920536E+03  0.96651547974E+03  0.25500000920E-02 0. -1.
</event>
<event>
 5   0  0.2041861E-02  0.9068890E+03  0.7818609E-02  0.9417011E-01
       -2   -1    0    0    0  501  0.00000000000E+00  0.00000000000E+00  0.75229721553E+03  0.75229721554E+03  0.25500000920E-02 0.  1.
        2   -1    0    0  501    0  0.00000000000E+00  0.00000000000E+00 -0.27331205883E+03  0.27331205884E+03  0.25500000920E-02 0. -1.
    10030    2    1    2    0    0  0.00000000000E+00  0.00000000000E+00  0.47898515670E+03  0.10256092744E+04  0.90688896970E+03 0.  0.
        5    1    3    3  502    0 -0.17520196479E+03 -0.81858084820E+02 -0.22430898955E+03  0.29619771658E+03  0.46999998093E+01 0. -1.
       -5    1    3    3    0  502  0.17520196479E+03  0.81858084820E+02  0.70329414624E+03  0.72941155780E+03  0.46999998093E+01 0.  1.
</event>
<event>
 5   0  0.2041861E-02  0.1168020E+04  0.7818609E-02  0.9141318E-01
       -2   -1    0    0    0  501  0.00000000000E+00  0.00000000000E+00  0.54371292283E+03  0.54371292283E+03  0.25500000920E-02 0. -1.
        2   -1    0    0  501    0  0.00000000000E+00  0.00000000000E+00 -0.62729400200E+03  0.62729400200E+03  0.25500000920E-02 0.  1.
    10030    2    1    2    0    0  0.00000000000E+00  0.00000000000E+00 -0.83581079170E+02  0.11710069248E+04  0.11680203000E+04 0.  0.
        5    1    3    3  502    0  0.42395839484E+02 -0.40470777422E+03 -0.46174104164E+03  0.61547759444E+03  0.46999998093E+01 0.  1.
       -5    1    3    3    0  502 -0.42395839484E+02  0.40470777422E+03  0.37815996247E+03  0.55552933040E+03  0.46999998093E+01 0. -1.
</event>
<event>
 5   0  0.2041861E-02  0.9194764E+03  0.7818609E-02  0.9401557E-01
        2   -1    0    0  501    0  0.00000000000E+00  0.00000000000E+00  0.66474953345E+03  0.66474953345E+03  0.25500000920E-02 0.  1.
       -2   -1    0    0    0  501  0.00000000000E+00  0.00000000000E+00 -0.31795318126E+03  0.31795318127E+03  0.25500000920E-02 0. -1.
    10030    2    1    2    0    0  0.00000000000E+00  0.00000000000E+00  0.34679635218E+03  0.98270271472E+03  0.91947643561E+03 0.  0.
        5    1    3    3  502    0 -0.40161420023E+03 -0.22194264644E+03  0.20333566213E+03  0.50191631337E+03  0.46999998093E+01 0. -1.
       -5    1    3    3    0  502  0.40161420023E+03  0.22194264644E+03  0.14346069005E+03  0.48078640135E+03  0.46999998093E+01 0.  1.
</event>
<event>
 5   0  0.1226424E-02  0.9009577E+03  0.7818609E-02  0.9424385E-01
       -1   -1    0    0    0  501  0.00000000000E+00  0.00000000000E+00  0.92791638536E+02  0.92791638672E+02  0.50400001928E-02 0.  1.
        1   -1    0    0  501    0  0.00000000000E+00  0.00000000000E+00 -0.21869555408E+04  0.21869555408E+04  0.50400001928E-02 0. -1.
    10030    2    1    2    0    0  0.00000000000E+00  0.00000000000E+00 -0.20941639022E+04  0.22797471794E+04  0.90095768645E+03 0.  0.
        1    1    3    3  502    0 -0.15125400504E+03 -0.33761214675E+03 -0.16974949607E+04  0.17373395975E+04  0.50400001928E-02 0. -1.
       -1    1    3    3    0  502  0.15125400504E+03  0.33761214675E+03 -0.39666894156E+03  0.54240758190E+03  0.50400001928E-02 0.  1.
</event>
<event>
 5   0  0.1226424E-02  0.8709898E+03  0.7818609E-02  0.9462590E-01
       -1   -1    0    0    0  501  0.00000000000E+00  0.00000000000E+00  0.28611370434E+03  0.28611370439E+03  0.50400001928E-02 0. -1.
        1   -1    0    0  501    0  0.00000000000E+00  0.00000000000E+00 -0.66286868263E+03  0.66286868265E+03  0.50400001928E-02 0.  1.
    10030    2    1    2    0    0  0.00000000000E+00  0.00000000000E+00 -0.37675497829E+03  0.94898238704E+03  0.87098981466E+03 0.  0.
        1    1    3    3  502    0  0.20317173932E+03  0.34295377928E+03 -0.37946687935E+03  0.55035548778E+03  0.50400001928E-02 0.  1.
       -1    1    3    3    0  502 -0.20317173932E+03 -0.34295377928E+03  0.27119010619E+01  0.39862689926E+03  0.50400001928E-02 0. -1.
</event>
<event>
 5   0  0.1206541E-02  0.9101347E+03  0.7818609E-02  0.9413001E-01
       -1   -1    0    0    0  501  0.00000000000E+00  0.00000000000E+00  0.39330867195E+03  0.39330867198E+03  0.50400001928E-02 0. -1.
        1   -1    0    0  501    0  0.00000000000E+00  0.00000000000E+00 -0.52652357118E+03  0.52652357120E+03  0.50400001928E-02 0.  1.
    10030    2    1    2    0    0  0.00000000000E+00  0.00000000000E+00 -0.13321489922E+03  0.91983224318E+03  0.91013468576E+03 0.  0.
        3    1    3    3  502    0  0.26559904404E+02  0.22838203375E+03  0.33028864430E+03  0.40243556082E+03  0.10100000352E+00 0. -1.
       -3    1    3    3    0  502 -0.26559904404E+02 -0.22838203375E+03 -0.46350354352E+03  0.51739668236E+03  0.10100000352E+00 0.  1.
</event>
<event>
 5   0  0.2008770E-02  0.9074243E+03  0.7818609E-02  0.9416348E-01
        2   -1    0    0  501    0  0.00000000000E+00  0.00000000000E+00  0.72953070762E+03  0.72953070762E+03  0.25500000920E-02 0.  1.
       -2   -1    0    0    0  501  0.00000000000E+00  0.00000000000E+00 -0.28217414966E+03  0.28217414967E+03  0.25500000920E-02 0. -1.
    10030    2    1    2    0    0  0.00000000000E+00  0.00000000000E+00  0.44735655796E+03  0.10117048573E+04  0.90742428242E+03 0.  0.
        1    1    3    3  502    0  0.31148962292E+03 -0.20269476797E+03  0.51386535370E+03  0.63416760869E+03  0.50400001928E-02 0.  1.
       -1    1    3    3    0  502 -0.31148962292E+03  0.20269476797E+03 -0.66508795744E+02  0.37753724861E+03  0.50400001928E-02 0. -1.
</event>
<event>
 5   0  0.1177712E-02  0.9140958E+03  0.7818609E-02  0.9408131E-01
        1   -1    0    0  501    0  0.00000000000E+00  0.00000000000E+00  0.18374476622E+04  0.18374476622E+04  0.50400001928E-02 0.  1.
       -1   -1    0    0    0  501  0.00000000000E+00  0.00000000000E+00 -0.11368637869E+03  0.11368637880E+03  0.50400001928E-02 0. -1.
    10030    2    1    2    0    0  0.00000000000E+00  0.00000000000E+00  0.17237612835E+04  0.19511340410E+04  0.91409577367E+03 0.  0.
        5    1    3    3  502    0  0.42537155110E+03 -0.70948254749E+02  0.11848608221E+04  0.12609091439E+04  0.46999998093E+01 0.  1.
       -5    1    3    3    0  502 -0.42537155110E+03  0.70948254749E+02  0.53890046145E+03  0.69022489718E+03  0.46999998093E+01 0. -1.
</event>
<event>
 5   0  0.2008770E-02  0.9117050E+03  0.7818609E-02  0.9411067E-01
        2   -1    0    0  501    0  0.00000000000E+00  0.00000000000E+00  0.13673272546E+04  0.13673272546E+04  0.25500000920E-02 0.  1.
       -2   -1    0    0    0  501  0.00000000000E+00  0.00000000000E+00 -0.15197642138E+03  0.15197642140E+03  0.25500000920E-02 0. -1.
    10030    2    1    2    0    0  0.00000000000E+00  0.00000000000E+00  0.12153508332E+04  0.15193036760E+04  0.91170500278E+03 0.  0.
        1    1    3    3  502    0 -0.19233145663E+03 -0.48171778506E+02 -0.76357170755E+02  0.21246723749E+03  0.50400001928E-02 0. -1.
       -1    1    3    3    0  502  0.19233145663E+03  0.48171778506E+02  0.12917080040E+04  0.13068364385E+04  0.50400001928E-02 0.  1.
</event>
<event>
 5   0  0.2008643E-02  0.9303677E+03  0.7818609E-02  0.9388397E-01
        2   -1    0    0  501    0  0.00000000000E+00  0.00000000000E+00  0.55338787572E+03  0.55338787573E+03  0.25500000920E-02 0. -1.
       -2   -1    0    0    0  501  0.00000000000E+00  0.00000000000E+00 -0.39103860961E+03  0.39103860962E+03  0.25500000920E-02 0.  1.
    10030    2    1    2    0    0  0.00000000000E+00  0.00000000000E+00  0.16234926611E+03  0.94442648535E+03  0.93036772409E+03 0.  0.
        3    1    3    3  502    0 -0.41400446830E+03  0.76931939628E+02 -0.11949355620E+03  0.43771788093E+03  0.10100000352E+00 0.  1.
       -3    1    3    3    0  502  0.41400446830E+03 -0.76931939628E+02  0.28184282231E+03  0.50670860442E+03  0.10100000352E+00 0. -1.
</event>
<event>
 5   0  0.1968763E-02  0.9153002E+03  0.7818609E-02  0.9406655E-01
       -2   -1    0    0    0  501  0.00000000000E+00  0.00000000000E+00  0.26877770027E+03  0.26877770028E+03  0.25500000920E-02 0. -1.
        2   -1    0    0  501    0  0.00000000000E+00  0.00000000000E+00 -0.77924468154E+03  0.77924468154E+03  0.25500000920E-02 0.  1.
    10030    2    1    2    0    0  0.00000000000E+00  0.00000000000E+00 -0.51046698127E+03  0.10480223818E+04  0.91530015505E+03 0.  0.
        2    1    3    3  502    0  0.30874648616E+03  0.32042671931E+03 -0.37773243389E+03  0.58367753664E+03  0.25500000920E-02 0. -1.
       -2    1    3    3    0  502 -0.30874648616E+03 -0.32042671931E+03 -0.13273454738E+03  0.46434484518E+03  0.25500000920E-02 0.  1.
</event>
<event>
 5   0  0.1162839E-02  0.9287905E+03  0.7818609E-02  0.9390291E-01
        1   -1    0    0  501    0  0.00000000000E+00  0.00000000000E+00  0.45788311826E+03  0.45788311829E+03  0.50400001928E-02 0. -1.
       -1   -1    0    0    0  501  0.00000000000E+00  0.00000000000E+00 -0.47100001935E+03  0.47100001937E+03  0.50400001928E-02 0.  1.
    10030    2    1    2    0    0  0.00000000000E+00  0.00000000000E+00 -0.13116901089E+02  0.92888313766E+03  0.92879052016E+03 0.  0.
        2    1    3    3  502    0 -0.27024185801E+03 -0.37234787543E+03 -0.69726093219E+02  0.46533356879E+03  0.25500000920E-02 0. -1.
       -2    1    3    3    0  502  0.27024185801E+03  0.37234787543E+03  0.56609192130E+02  0.46354956887E+03  0.25500000920E-02 0.  1.
</event>
<event>
 5   0  0.2041861E-02  0.8656902E+03  0.7818609E-02  0.9469517E-01
        2   -1    0    0  501    0  0.00000000000E+00  0.00000000000E+00  0.36258061904E+03  0.36258061904E+03  0.25500000920E-02 0. -1.
       -2   -1    0    0    0  501  0.00000000000E+00  0.00000000000E+00 -0.51672608134E+03  0.51672608134E+03  0.25500000920E-02 0.  1.
    10030    2    1    2    0    0  0.00000000000E+00  0.00000000000E+00 -0.15414546230E+03  0.87930670039E+03  0.86569015808E+03 0.  0.
        5    1    3    3  502    0 -0.21473804837E+02  0.42814254123E+03 -0.16420752018E+02  0.42902085148E+03  0.46999998093E+01 0. -1.
       -5    1    3    3    0  502  0.21473804837E+02 -0.42814254123E+03 -0.13772471028E+03  0.45028584891E+03  0.46999998093E+01 0.  1.
</event>
<event>
 5   0  0.1177712E-02  0.8962568E+03  0.7818609E-02  0.9430273E-01
       -1   -1    0    0    0  501  0.00000000000E+00  0.00000000000E+00  0.21509939141E+03  0.21509939146E+03  0.50400001928E-02 0. -1.
        1   -1    0    0  501    0  0.00000000000E+00  0.00000000000E+00 -0.93361060049E+03  0.93361060051E+03  0.50400001928E-02 0.  1.
    10030    2    1    2    0    0  0.00000000000E+00  0.00000000000E+00 -0.71851120909E+03  0.11487099920E+04  0.89625682038E+03 0.  0.
        5    1    3    3  502    0  0.18181735767E+03  0.19154527581E+02 -0.88360409438E+03  0.90233183091E+03  0.46999998093E+01 0.  1.
       -5    1    3    3    0  502 -0.18181735767E+03 -0.19154527581E+02  0.16509288529E+03  0.24637816106E+03  0.46999998093E+01 0. -1.
</event>
<event>
 5   0  0.2041861E-02  0.8908978E+03  0.7818609E-02  0.9437032E-01
        2   -1    0    0  501    0  0.00000000000E+00  0.00000000000E+00  0.10903474767E+04  0.10903474767E+04  0.25500000920E-02 0. -1.
       -2   -1    0    0    0  501  0.00000000000E+00  0.00000000000E+00 -0.18198299599E+03  0.18198299601E+03  0.25500000920E-02 0.  1.
    10030    2    1    2    0    0  0.00000000000E+00  0.00000000000E+00  0.90836448075E+03  0.12723304727E+04  0.89089775058E+03 0.  0.
        5    1    3    3  502    0 -0.15896689838E+03 -0.41556875650E+03  0.48395979548E+03  0.65742455065E+03  0.46999998093E+01 0.  1.
       -5    1    3    3    0  502  0.15896689838E+03  0.41556875650E+03  0.42440468527E+03  0.61490592210E+03  0.46999998093E+01 0. -1.
</event>
<event>
 5   0  0.2008770E-02  0.8954981E+03  0.7818609E-02  0.9431227E-01
       -2   -1    0    0    0  501  0.00000000000E+00  0.00000000000E+00  0.17224010676E+03  0.17224010678E+03  0.25500000920E-02 0.  1.
        2   -1    0    0  501    0  0.00000000000E+00  0.00000000000E+00 -0.11639519812E+04  0.11639519812E+04  0.25500000920E-02 0. -1.
    10030    2    1    2    0    0  0.00000000000E+00  0.00000000000E+00 -0.99171187449E+03  0.13361920880E+04  0.89549810391E+03 0.  0.
        1    1    3    3  502    0 -0.29890594519E+03 -0.93267737939E+02 -0.18294074601E+02  0.31365316546E+03  0.50400001928E-02 0.  1.
       -1    1    3    3    0  502  0.29890594519E+03  0.93267737939E+02 -0.97341779989E+03  0.10225389226E+04  0.50400001928E-02 0. -1.
</event>
<event>
 5   0  0.1924218E-02  0.8892826E+03  0.7818609E-02  0.9439079E-01
       -2   -1    0    0    0  501  0.00000000000E+00  0.00000000000E+00  0.29244498609E+03  0.29244498610E+03  0.25500000920E-02 0.  1.
        2   -1    0    0  501    0  0.00000000000E+00  0.00000000000E+00 -0.67604471563E+03  0.67604471564E+03  0.25500000920E-02 0. -1.
    10030    2    1    2    0    0  0.00000000000E+00  0.00000000000E+00 -0.38359972954E+03  0.96848970174E+03  0.88928260405E+03 0.  0.
        4    1    3    3  502    0  0.29392145931E+03  0.29644794917E+03 -0.35851297250E+03  0.55027663512E+03  0.12699999809E+01 0. -1.
       -4    1    3    3    0  502 -0.29392145931E+03 -0.29644794917E+03 -0.25086757043E+02  0.41821306662E+03  0.12699999809E+01 0.  1.
</event>
<event>
 5   0  0.1162839E-02  0.9633116E+03  0.7818609E-02  0.9349725E-01
        1   -1    0    0  501    0  0.00000000000E+00  0.00000000000E+00  0.59090385452E+03  0.59090385454E+03  0.50400001928E-02 0.  1.
       -1   -1    0    0    0  501  0.00000000000E+00  0.00000000000E+00 -0.39260582200E+03  0.39260582203E+03  0.50400001928E-02 0. -1.
    10030    2    1    2    0    0  0.00000000000E+00  0.00000000000E+00  0.19829803252E+03  0.98350967657E+03  0.96331156653E+03 0.  0.
        2    1    3    3  502    0 -0.18742009259E+03  0.38108609865E+03 -0.13285868708E+03  0.44497678190E+03  0.25500000920E-02 0. -1.
       -2    1    3    3    0  502  0.18742009259E+03 -0.38108609865E+03  0.33115671960E+03  0.53853289467E+03  0.25500000920E-02 0.  1.
</event>
<event>
 5   0  0.1162839E-02  0.8918565E+03  0.7818609E-02  0.9435819E-01
        1   -1    0    0  501    0  0.00000000000E+00  0.00000000000E+00  0.11628302924E+04  0.11628302924E+04  0.50400001928E-02 0.  1.
       -1   -1    0    0    0  501  0.00000000000E+00  0.00000000000E+00 -0.17100691930E+03  0.17100691938E+03  0.50400001928E-02 0. -1.
    10030    2    1    2    0    0  0.00000000000E+00  0.00000000000E+00  0.99182337309E+03  0.13338372118E+04  0.89185654907E+03 0.  0.
        2    1    3    3  502    0  0.14596638425E+03 -0.14089895397E+03 -0.97989891762E+02  0.22530139692E+03  0.25500000920E-02 0. -1.
       -2    1    3    3    0  502 -0.14596638425E+03  0.14089895397E+03  0.10898132649E+04  0.11085358149E+04  0.25500000920E-02 0.  1.
</event>
<event>
 5   0  0.2041861E-02  0.9024981E+03  0.7818609E-02  0.9422464E-01
       -2   -1    0    0    0  501  0.00000000000E+00  0.00000000000E+00  0.42971122667E+03  0.42971122667E+03  0.25500000920E-02 0. -1.
        2   -1    0    0  501    0  0.00000000000E+00  0.00000000000E+00 -0.47386633511E+03  0.47386633511E+03  0.25500000920E-02 0.  1.
    10030    2    1    2    0    0  0.00000000000E+00  0.00000000000E+00 -0.44155108439E+02  0.90357756179E+03  0.90249805350E+03 0.  0.
        5    1    3    3  502    0  0.13086778235E+03  0.38123850245E+03 -0.22513637654E+03  0.46171165271E+03  0.46999998093E+01 0.  1.
       -5    1    3    3    0  502 -0.13086778235E+03 -0.38123850245E+03  0.18098126810E+03  0.44186590908E+03  0.46999998093E+01 0. -1.
</event>
<event>
 5   0  0.2008643E-02  0.8316978E+03  0.7818609E-02  0.9515236E-01
       -2   -1    0    0    0  501  0.00000000000E+00  0.00000000000E+00  0.19211842965E+03  0.19211842967E+03  0.25500000920E-02 0. -1.
        2   -1    0    0  501    0  0.00000000000E+00  0.00000000000E+00 -0.90012336657E+03  0.90012336657E+03  0.25500000920E-02 0.  1.
    10030    2    1    2    0    0  0.00000000000E+00  0.00000000000E+00 -0.70800493692E+03  0.10922417962E+04  0.83169775204E+03 0.  0.
        3    1    3    3  502    0 -0.30045510644E+03 -0.14243081699E+03 -0.26025937318E+02  0.33352236541E+03  0.10100000352E+00 0. -1.
       -3    1    3    3    0  502  0.30045510644E+03  0.14243081699E+03 -0.68197899960E+03  0.75871943083E+03  0.10100000352E+00 0.  1.
</event>
<event>
 5   0  0.1162839E-02  0.8968912E+03  0.7818609E-02  0.9429476E-01
        1   -1    0    0  501    0  0.00000000000E+00  0.00000000000E+00  0.50997713147E+03  0.50997713149E+03  0.50400001928E-02 0.  1.
       -1   -1    0    0    0  501  0.00000000000E+00  0.00000000000E+00 -0.39433821889E+03  0.39433821893E+03  0.50400001928E-02 0. -1.
    10030    2    1    2    0    0  0.00000000000E+00  0.00000000000E+00  0.11563891258E+03  0.90431535042E+03  0.89689123917E+03 0.  0.
        2    1    3    3  502    0 -0.13742087109E+03 -0.42571938986E+03  0.89415392121E+02  0.45619799108E+03  0.25500000920E-02 0.  1.
       -2    1    3    3    0  502  0.13742087109E+03  0.42571938986E+03  0.26223520454E+02  0.44811735934E+03  0.25500000920E-02 0. -1.
</event>
<event>
 5   0  0.1924218E-02  0.8754961E+03  0.7818609E-02  0.9456742E-01
       -2   -1    0    0    0  501  0.00000000000E+00  0.00000000000E+00  0.14260700959E+03  0.14260700961E+03  0.25500000920E-02 0. -1.
        2   -1    0    0  501    0  0.00000000000E+00  0.00000000000E+00 -0.13437160981E+04  0.13437160981E+04  0.25500000920E-02 0.  1.
    10030    2    1    2    0    0  0.00000000000E+00  0.00000000000E+00 -0.12011090885E+04  0.14863231077E+04  0.87549605253E+03 0.  0.
        4    1    3    3  502    0 -0.22065269203E+03 -0.20880535894E+03 -0.11356225047E+04  0.11755540713E+04  0.12699999809E+01 0.  1.
       -4    1    3    3    0  502  0.22065269203E+03  0.20880535894E+03 -0.65486583773E+02  0.31076903639E+03  0.12699999809E+01 0. -1.
</event>
<event>
 5   0  0.1162839E-02  0.8473003E+03  0.7818609E-02  0.9493968E-01
        1   -1    0    0  501    0  0.00000000000E+00  0.00000000000E+00  0.40259456733E+03  0.40259456736E+03  0.50400001928E-02 0.  1.
       -1   -1    0    0    0  501  0.00000000000E+00  0.00000000000E+00 -0.44580693107E+03  0.44580693109E+03  0.50400001928E-02 0. -1.
    10030    2    1    2    0    0  0.00000000000E+00  0.00000000000E+00 -0.43212363738E+02  0.84840149845E+03  0.84730029753E+03 0.  0.
        2    1    3    3  502    0 -0.99361242971E+02 -0.14551004319E+03 -0.40737774119E+03  0.44384958409E+03  0.25500000920E-02 0. -1.
       -2    1    3    3    0  502  0.99361242971E+02  0.14551004319E+03  0.36416537745E+03  0.40455191436E+03  0.25500000920E-02 0.  1.
</event>
<event>
 5   0  0.7893875E-03  0.9245498E+03  0.7818609E-02  0.9395403E-01
       -3   -1    0    0    0  501  0.00000000000E+00  0.00000000000E+00  0.51907395180E+03  0.51907396162E+03  0.10100000352E+00 0. -1.
        3   -1    0    0  501    0  0.00000000000E+00  0.00000000000E+00 -0.41169103116E+03  0.41169104355E+03  0.10100000352E+00 0.  1.
    10030    2    1    2    0    0  0.00000000000E+00  0.00000000000E+00  0.10738292064E+03  0.93076500517E+03  0.92454983814E+03 0.  0.
        5    1    3    3  502    0 -0.27725970676E+03 -0.36130450399E+03  0.13335699111E+03  0.47457356297E+03  0.46999998093E+01 0. -1.
       -5    1    3    3    0  502  0.27725970676E+03  0.36130450399E+03 -0.25974070475E+02  0.45619144219E+03  0.46999998093E+01 0.  1.
</event>
<event>
 5   0  0.1206541E-02  0.9104986E+03  0.7818609E-02  0.9412552E-01
        1   -1    0    0  501    0  0.00000000000E+00  0.00000000000E+00  0.39842317972E+03  0.39842317976E+03  0.50400001928E-02 0. -1.
       -1   -1    0    0    0  501  0.00000000000E+00  0.00000000000E+00 -0.52018034374E+03  0.52018034377E+03  0.50400001928E-02 0.  1.
    10030    2    1    2    0    0  0.00000000000E+00  0.00000000000E+00 -0.12175716402E+03  0.91860352352E+03  0.91049855927E+03 0.  0.
        3    1    3    3  502    0 -0.31423080363E+03 -0.26905246076E+03 -0.25262743082E+03  0.48471729244E+03  0.10100000352E+00 0. -1.
       -3    1    3    3    0  502  0.31423080363E+03  0.26905246076E+03  0.13087026680E+03  0.43388623108E+03  0.10100000352E+00 0.  1.
</event>
<event>
 5   0  0.2008770E-02  0.8883334E+03  0.7818609E-02  0.9440284E-01
       -2   -1    0    0    0  501  0.00000000000E+00  0.00000000000E+00  0.73117772045E+02  0.73117772089E+02  0.25500000920E-02 0. -1.
        2   -1    0    0  501    0  0.00000000000E+00  0.00000000000E+00 -0.26981684170E+04  0.26981684170E+04  0.25500000920E-02 0.  1.
    10030    2    1    2    0    0  0.00000000000E+00  0.00000000000E+00 -0.26250506449E+04  0.27712861891E+04  0.88833341334E+03 0.  0.
        1    1    3    3  502    0 -0.18211559438E+02  0.30587482587E+03 -0.23156408060E+04  0.23358260664E+04  0.50400001928E-02 0.  1.
       -1    1    3    3    0  502  0.18211559438E+02 -0.30587482587E+03 -0.30940983898E+03  0.43546012272E+03  0.50400001928E-02 0. -1.
</event>
<event>
 5   0  0.1162839E-02  0.8123401E+03  0.7818609E-02  0.9542325E-01
        1   -1    0    0  501    0  0.00000000000E+00  0.00000000000E+00  0.59723641018E+03  0.59723641020E+03  0.50400001928E-02 0.  1.
       -1   -1    0    0    0  501  0.00000000000E+00  0.00000000000E+00 -0.27622915776E+03  0.27622915781E+03  0.50400001928E-02 0. -1.
    10030    2    1    2    0    0  0.00000000000E+00  0.00000000000E+00  0.32100725242E+03  0.87346556800E+03  0.81234010266E+03 0.  0.
        2    1    3    3  502    0 -0.18449929398E+03  0.35377411033E+03  0.78770772245E+02  0.40669515019E+03  0.25500000920E-02 0. -1.
       -2    1    3    3    0  502  0.18449929398E+03 -0.35377411033E+03  0.24223648017E+03  0.46677041782E+03  0.25500000920E-02 0.  1.
</event>
<event>
 5   0  0.2008770E-02  0.8872007E+03  0.7818609E-02  0.9441724E-01
       -2   -1    0    0    0  501  0.00000000000E+00  0.00000000000E+00  0.22525565646E+03  0.22525565648E+03  0.25500000920E-02 0. -1.
        2   -1    0    0  501    0  0.00000000000E+00  0.00000000000E+00 -0.87359076998E+03  0.87359076998E+03  0.25500000920E-02 0.  1.
    10030    2    1    2    0    0  0.00000000000E+00  0.00000000000E+00 -0.64833511352E+03  0.10988464265E+04  0.88720068165E+03 0.  0.
        1    1    3    3  502    0 -0.25340997831E+03 -0.78347986040E+02  0.11621868384E+03  0.28958903039E+03  0.50400001928E-02 0. -1.
       -1    1    3    3    0  502  0.25340997831E+03  0.78347986040E+02 -0.76455379736E+03  0.80925739607E+03  0.50400001928E-02 0.  1.
</event>
<event>
 5   0  0.2008643E-02  0.9501137E+03  0.7818609E-02  0.9365018E-01
        2   -1    0    0  501    0  0.00000000000E+00  0.00000000000E+00  0.49810300294E+03  0.49810300295E+03  0.25500000920E-02 0. -1.
       -2   -1    0    0    0  501  0.00000000000E+00  0.00000000000E+00 -0.45307699873E+03  0.45307699873E+03  0.25500000920E-02 0.  1.
    10030    2    1    2    0    0  0.00000000000E+00  0.00000000000E+00  0.45026004218E+02  0.95118000168E+03  0.95011370611E+03 0.  0.
        3    1    3    3  502    0  0.48454618768E+02  0.21389624993E+02  0.49513777101E+03  0.49796263778E+03  0.10100000352E+00 0. -1.
       -3    1    3    3    0  502 -0.48454618768E+02 -0.21389624993E+02 -0.45011176679E+03  0.45321736391E+03  0.10100000352E+00 0.  1.
</event>
<event>
 5   0  0.1226424E-02  0.9122513E+03  0.7818609E-02  0.9410395E-01
        1   -1    0    0  501    0  0.00000000000E+00  0.00000000000E+00  0.12198426941E+04  0.12198426941E+04  0.50400001928E-02 0. -1.
       -1   -1    0    0    0  501  0.00000000000E+00  0.00000000000E+00 -0.17055526361E+03  0.17055526369E+03  0.50400001928E-02 0.  1.
    10030    2    1    2    0    0  0.00000000000E+00  0.00000000000E+00  0.10492874305E+04  0.13903979578E+04  0.91225126433E+03 0.  0.
        1    1    3    3  502    0 -0.14762735087E+03 -0.34264646924E+03  0.92456738364E+03  0.99700816673E+03  0.50400001928E-02 0. -1.
       -1    1    3    3    0  502  0.14762735087E+03  0.34264646924E+03  0.12472004685E+03  0.39338979107E+03  0.50400001928E-02 0.  1.
</event>
<event>
 5   0  0.1226424E-02  0.6475090E+03  0.7818609E-02  0.9811465E-01
       -1   -1    0    0    0  501  0.00000000000E+00  0.00000000000E+00  0.33723656974E+03  0.33723656978E+03  0.50400001928E-02 0. -1.
        1   -1    0    0  501    0  0.00000000000E+00  0.00000000000E+00 -0.31081145687E+03  0.31081145691E+03  0.50400001928E-02 0.  1.
    10030    2    1    2    0    0  0.00000000000E+00  0.00000000000E+00  0.26425112879E+02  0.64804802669E+03  0.64750904110E+03 0.  0.
        1    1    3    3  502    0  0.16528209053E+02 -0.20695368933E+03 -0.23541721318E+03  0.31388576825E+03  0.50400001928E-02 0.  1.
       -1    1    3    3    0  502 -0.16528209053E+02  0.20695368933E+03  0.26184232606E+03  0.33416225844E+03  0.50400001928E-02 0. -1.
</event>
<event>
 5   0  0.2008770E-02  0.8858100E+03  0.7818609E-02  0.9443496E-01
       -2   -1    0    0    0  501  0.00000000000E+00  0.00000000000E+00  0.46030939197E+03  0.46030939198E+03  0.25500000920E-02 0. -1.
        2   -1    0    0  501    0  0.00000000000E+00  0.00000000000E+00 -0.42615863586E+03  0.42615863587E+03  0.25500000920E-02 0.  1.
    10030    2    1    2    0    0  0.00000000000E+00  0.00000000000E+00  0.34150756115E+02  0.88646802785E+03  0.88580996283E+03 0.  0.
        1    1    3    3  502    0 -0.15938527491E+02  0.30946688813E+03 -0.29961038909E+03  0.43103384645E+03  0.50400001928E-02 0.  1.
       -1    1    3    3    0  502  0.15938527491E+02 -0.30946688813E+03  0.33376114520E+03  0.45543418140E+03  0.50400001928E-02 0. -1.
</event>
<event>
 5   0  0.7893875E-03  0.8860786E+03  0.7818609E-02  0.9443153E-01
        4   -1    0    0  501    0  0.00000000000E+00  0.00000000000E+00  0.56249211771E+03  0.56249355142E+03  0.12699999809E+01 0.  1.
       -4   -1    0    0    0  501  0.00000000000E+00  0.00000000000E+00 -0.34895087675E+03  0.34895318782E+03  0.12699999809E+01 0. -1.
    10030    2    1    2    0    0  0.00000000000E+00  0.00000000000E+00  0.21354124096E+03  0.91144673923E+03  0.88607860648E+03 0.  0.
        5    1    3    3  502    0  0.34094289826E+03  0.27385042659E+03  0.17969181775E+03  0.47280794767E+03  0.46999998093E+01 0.  1.
       -5    1    3    3    0  502 -0.34094289826E+03 -0.27385042659E+03  0.33849423207E+02  0.43863879156E+03  0.46999998093E+01 0. -1.
</event>
<event>
 5   0  0.1226424E-02  0.8531782E+03  0.7818609E-02  0.9486081E-01
       -1   -1    0    0    0  501  0.00000000000E+00  0.00000000000E+00  0.24881952514E+03  0.24881952519E+03  0.50400001928E-02 0. -1.
        1   -1    0    0  501    0  0.00000000000E+00  0.00000000000E+00 -0.73136648555E+03  0.73136648556E+03  0.50400001928E-02 0.  1.
    10030    2    1    2    0    0  0.00000000000E+00  0.00000000000E+00 -0.48254696041E+03  0.98018601076E+03  0.85317820336E+03 0.  0.
        1    1    3    3  502    0 -0.19206121258E+02  0.22303398776E+03 -0.65846348160E+03  0.69547623354E+03  0.50400001928E-02 0.  1.
       -1    1    3    3    0  502  0.19206121258E+02 -0.22303398776E+03  0.17591652119E+03  0.28470977722E+03  0.50400001928E-02 0. -1.
</event>
<event>
 5   0  0.2008643E-02  0.9092239E+03  0.7818609E-02  0.9414124E-01
        2   -1    0    0  501    0  0.00000000000E+00  0.00000000000E+00  0.98100984248E+03  0.98100984248E+03  0.25500000920E-02 0.  1.
       -2   -1    0    0    0  501  0.00000000000E+00  0.00000000000E+00 -0.21067274923E+03  0.21067274924E+03  0.25500000920E-02 0. -1.
    10030    2    1    2    0    0  0.00000000000E+00  0.00000000000E+00  0.77033709325E+03  0.11916825917E+04  0.90922393401E+03 0.  0.
        3    1    3    3  502    0 -0.43290318141E+02  0.27359642743E+03 -0.87292639808E+02  0.29042911685E+03  0.10100000352E+00 0. -1.
       -3    1    3    3    0  502  0.43290318141E+02 -0.27359642743E+03  0.85762973306E+03  0.90125347488E+03  0.10100000352E+00 0.  1.
</event>
<event>
 5   0  0.1175993E-02  0.9066990E+03  0.7818609E-02  0.9417246E-01
        1   -1    0    0  501    0  0.00000000000E+00  0.00000000000E+00  0.59464886613E+03  0.59464886615E+03  0.50400001928E-02 0. -1.
       -1   -1    0    0    0  501  0.00000000000E+00  0.00000000000E+00 -0.34562546337E+03  0.34562546341E+03  0.50400001928E-02 0.  1.
    10030    2    1    2    0    0  0.00000000000E+00  0.00000000000E+00  0.24902340276E+03  0.94027432956E+03  0.90669904583E+03 0.  0.
        4    1    3    3  502    0  0.84001851246E+02  0.15656796106E+03  0.55703454999E+03  0.58468704469E+03  0.12699999809E+01 0. -1.
       -4    1    3    3    0  502 -0.84001851246E+02 -0.15656796106E+03 -0.30801114723E+03  0.35558728487E+03  0.12699999809E+01 0.  1.
</event>
<event>
 5   0  0.1175993E-02  0.5866480E+03  0.7818609E-02  0.9933501E-01
        1   -1    0    0  501    0  0.00000000000E+00  0.00000000000E+00  0.43118869786E+03  0.43118869789E+03  0.50400001928E-02 0.  1.
       -1   -1    0    0    0  501  0.00000000000E+00  0.00000000000E+00 -0.19953899015E+03  0.19953899021E+03  0.50400001928E-02 0. -1.
    10030    2    1    2    0    0  0.00000000000E+00  0.00000000000E+00  0.23164970771E+03  0.63072768810E+03  0.58664796041E+03 0.  0.
        4    1    3    3  502    0 -0.25091299389E+02  0.29224198204E+03  0.11416096140E+03  0.31475274007E+03  0.12699999809E+01 0. -1.
       -4    1    3    3    0  502  0.25091299389E+02 -0.29224198204E+03  0.11748874632E+03  0.31597494803E+03  0.12699999809E+01 0.  1.
</event>
<event>
 5   0  0.1175993E-02  0.8748786E+03  0.7818609E-02  0.9457541E-01
       -1   -1    0    0    0  501  0.00000000000E+00  0.00000000000E+00  0.27457834694E+03  0.27457834699E+03  0.50400001928E-02 0.  1.
        1   -1    0    0  501    0  0.00000000000E+00  0.00000000000E+00 -0.69689812653E+03  0.69689812654E+03  0.50400001928E-02 0. -1.
    10030    2    1    2    0    0  0.00000000000E+00  0.00000000000E+00 -0.42231977959E+03  0.97147647353E+03  0.87487858723E+03 0.  0.
        4    1    3    3  502    0  0.32189414454E+03  0.15457519365E+03 -0.49172805696E+03  0.60770669379E+03  0.12699999809E+01 0. -1.
       -4    1    3    3    0  502 -0.32189414454E+03 -0.15457519365E+03  0.69408277370E+02  0.36376977974E+03  0.12699999809E+01 0.  1.
</event>
<event>
 5   0  0.1968763E-02  0.9099842E+03  0.7818609E-02  0.9413186E-01
        2   -1    0    0  501    0  0.00000000000E+00  0.00000000000E+00  0.52685135624E+03  0.52685135625E+03  0.25500000920E-02 0. -1.
       -2   -1    0    0    0  501  0.00000000000E+00  0.00000000000E+00 -0.39293396280E+03  0.39293396281E+03  0.25500000920E-02 0.  1.
    10030    2    1    2    0    0  0.00000000000E+00  0.00000000000E+00  0.13391739344E+03  0.91978531906E+03  0.90998415640E+03 0.  0.
        2    1    3    3  502    0 -0.36634213728E+03  0.52359313798E+02  0.33451665329E+03  0.49884812381E+03  0.25500000920E-02 0. -1.
       -2    1    3    3    0  502  0.36634213728E+03 -0.52359313798E+02 -0.20059925985E+03  0.42093719525E+03  0.25500000920E-02 0.  1.
</event>
<event>
 5   0  0.1924218E-02  0.9156663E+03  0.7818609E-02  0.9406207E-01
       -2   -1    0    0    0  501  0.00000000000E+00  0.00000000000E+00  0.93949982110E+03  0.93949982111E+03  0.25500000920E-02 0.  1.
        2   -1    0    0  501    0  0.00000000000E+00  0.00000000000E+00 -0.22310934778E+03  0.22310934780E+03  0.25500000920E-02 0. -1.
    10030    2    1    2    0    0  0.00000000000E+00  0.00000000000E+00  0.71639047332E+03  0.11626091689E+04  0.91566629803E+03 0.  0.
        4    1    3    3  502    0 -0.30891516680E+03 -0.66525297446E+02  0.77883413422E+03  0.84049890958E+03  0.12699999809E+01 0. -1.
       -4    1    3    3    0  502  0.30891516680E+03  0.66525297446E+02 -0.62443660894E+02  0.32211025933E+03  0.12699999809E+01 0.  1.
</event>
<event>
 5   0  0.2008643E-02  0.8975338E+03  0.7818609E-02  0.9428670E-01
       -2   -1    0    0    0  501  0.00000000000E+00  0.00000000000E+00  0.12247991823E+03  0.12247991825E+03  0.25500000920E-02 0. -1.
        2   -1    0    0  501    0  0.00000000000E+00  0.00000000000E+00 -0.16442835859E+04  0.16442835859E+04  0.25500000920E-02 0.  1.
    10030    2    1    2    0    0  0.00000000000E+00  0.00000000000E+00 -0.15218036677E+04  0.17667635042E+04  0.89753377467E+03 0.  0.
        3    1    3    3  502    0 -0.22556418382E+03  0.37164925711E+02 -0.72962798213E+00  0.22860659501E+03  0.10100000352E+00 0. -1.
       -3    1    3    3    0  502  0.22556418382E+03 -0.37164925711E+02 -0.15210740397E+04  0.15381569091E+04  0.10100000352E+00 0.  1.
</event>
<event>
 5   0  0.1206541E-02  0.8950453E+03  0.7818609E-02  0.9431796E-01
       -1   -1    0    0    0  501  0.00000000000E+00  0.00000000000E+00  0.17273041718E+03  0.17273041726E+03  0.50400001928E-02 0. -1.
        1   -1    0    0  501    0  0.00000000000E+00  0.00000000000E+00 -0.11594745909E+04  0.11594745909E+04  0.50400001928E-02 0.  1.
    10030    2    1    2    0    0  0.00000000000E+00  0.00000000000E+00 -0.98674417374E+03  0.13322050082E+04  0.89504531697E+03 0.  0.
        3    1    3    3  502    0  0.25562309078E+03 -0.32799124140E+03 -0.73954779517E+03  0.84844114146E+03  0.10100000352E+00 0.  1.
       -3    1    3    3    0  502 -0.25562309078E+03  0.32799124140E+03 -0.24719637857E+03  0.48376386673E+03  0.10100000352E+00 0. -1.
</event>
<event>
 5   0  0.2008643E-02  0.8986445E+03  0.7818609E-02  0.9427277E-01
        2   -1    0    0  501    0  0.00000000000E+00  0.00000000000E+00  0.46058250189E+03  0.46058250190E+03  0.25500000920E-02 0. -1.
       -2   -1    0    0    0  501  0.00000000000E+00  0.00000000000E+00 -0.43833725571E+03  0.43833725572E+03  0.25500000920E-02 0.  1.
    10030    2    1    2    0    0  0.00000000000E+00  0.00000000000E+00  0.22245246178E+02  0.89891975762E+03  0.89864446789E+03 0.  0.
        3    1    3    3  502    0  0.13855459609E+03  0.17965365917E+02  0.43830183677E+03  0.46003113024E+03  0.10100000352E+00 0. -1.
       -3    1    3    3    0  502 -0.13855459609E+03 -0.17965365917E+02 -0.41605659059E+03  0.43888862738E+03  0.10100000352E+00 0.  1.
</event>
<event>
 5   0  0.7893875E-03  0.6697460E+03  0.7818609E-02  0.9770417E-01
       -3   -1    0    0    0  501  0.00000000000E+00  0.00000000000E+00  0.37198215413E+03  0.37198216784E+03  0.10100000352E+00 0.  1.
        3   -1    0    0  501    0  0.00000000000E+00  0.00000000000E+00 -0.30146580691E+03  0.30146582383E+03  0.10100000352E+00 0. -1.
    10030    2    1    2    0    0  0.00000000000E+00  0.00000000000E+00  0.70516347214E+02  0.67344799167E+03  0.66974595352E+03 0.  0.
        1    1    3    3  502    0 -0.23439147123E+03  0.14927468202E+03 -0.15263727870E+03  0.31704957239E+03  0.50400001928E-02 0.  1.
       -1    1    3    3    0  502  0.23439147123E+03 -0.14927468202E+03  0.22315362592E+03  0.35639841928E+03  0.50400001928E-02 0. -1.
</event>
<event>
 5   0  0.1968763E-02  0.8956875E+03  0.7818609E-02  0.9430988E-01
        2   -1    0    0  501    0  0.00000000000E+00  0.00000000000E+00  0.79328974047E+03  0.79328974047E+03  0.25500000920E-02 0. -1.
       -2   -1    0    0    0  501  0.00000000000E+00  0.00000000000E+00 -0.25282570578E+03  0.25282570580E+03  0.25500000920E-02 0.  1.
    10030    2    1    2    0    0  0.00000000000E+00  0.00000000000E+00  0.54046403468E+03  0.10461154463E+04  0.89568753153E+03 0.  0.
        2    1    3    3  502    0 -0.74611923217E+02 -0.78513610345E+02 -0.23729796321E+03  0.26084794315E+03  0.25500000920E-02 0.  1.
       -2    1    3    3    0  502  0.74611923217E+02  0.78513610345E+02  0.77776199789E+03  0.78526750312E+03  0.25500000920E-02 0. -1.
</event>
<event>
 5   0  0.1206541E-02  0.8849211E+03  0.7818609E-02  0.9444630E-01
       -1   -1    0    0    0  501  0.00000000000E+00  0.00000000000E+00  0.42672892437E+03  0.42672892440E+03  0.50400001928E-02 0.  1.
        1   -1    0    0  501    0  0.00000000000E+00  0.00000000000E+00 -0.45877215460E+03  0.45877215462E+03  0.50400001928E-02 0. -1.
    10030    2    1    2    0    0  0.00000000000E+00  0.00000000000E+00 -0.32043230229E+02  0.88550107902E+03  0.88492112210E+03 0.  0.
        3    1    3    3  502    0 -0.36221613823E+03  0.23688055643E+03  0.76008269158E+02  0.43942029538E+03  0.10100000352E+00 0.  1.
       -3    1    3    3    0  502  0.36221613823E+03 -0.23688055643E+03 -0.10805149939E+03  0.44608078364E+03  0.10100000352E+00 0. -1.
</event>
<event>
 5   0  0.2041861E-02  0.9201986E+03  0.7818609E-02  0.9400679E-01
       -2   -1    0    0    0  501  0.00000000000E+00  0.00000000000E+00  0.58303546709E+03  0.58303546709E+03  0.25500000920E-02 0. -1.
        2   -1    0    0  501    0  0.00000000000E+00  0.00000000000E+00 -0.36308489457E+03  0.36308489457E+03  0.25500000920E-02 0.  1.
    10030    2    1    2    0    0  0.00000000000E+00  0.00000000000E+00  0.21995057252E+03  0.94612036167E+03  0.92019861139E+03 0.  0.
        5    1    3    3  502    0  0.32888728309E+03 -0.40758628271E+02 -0.21814003214E+03  0.39678114166E+03  0.46999998093E+01 0.  1.
       -5    1    3    3    0  502 -0.32888728309E+03  0.40758628271E+02  0.43809060466E+03  0.54933922001E+03  0.46999998093E+01 0. -1.
</event>
<event>
 5   0  0.1177712E-02  0.9085554E+03  0.7818609E-02  0.9414950E-01
       -1   -1    0    0    0  501  0.00000000000E+00  0.00000000000E+00  0.13671834634E+03  0.13671834644E+03  0.50400001928E-02 0. -1.
        1   -1    0    0  501    0  0.00000000000E+00  0.00000000000E+00 -0.15094404878E+04  0.15094404878E+04  0.50400001928E-02 0.  1.
    10030    2    1    2    0    0  0.00000000000E+00  0.00000000000E+00 -0.13727221414E+04  0.16461588342E+04  0.90855535324E+03 0.  0.
        5    1    3    3  502    0 -0.32461809514E+02 -0.17367074351E+00  0.13457000316E+03  0.13850983715E+03  0.46999998093E+01 0. -1.
       -5    1    3    3    0  502  0.32461809514E+02  0.17367074351E+00 -0.15072921446E+04  0.15076489971E+04  0.46999998093E+01 0.  1.
</event>
<event>
 5   0  0.2041861E-02  0.8979976E+03  0.7818609E-02  0.9428088E-01
       -2   -1    0    0    0  501  0.00000000000E+00  0.00000000000E+00  0.13149160052E+03  0.13149160055E+03  0.25500000920E-02 0. -1.
        2   -1    0    0  501    0  0.00000000000E+00  0.00000000000E+00 -0.15331770443E+04  0.15331770443E+04  0.25500000920E-02 0.  1.
    10030    2    1    2    0    0  0.00000000000E+00  0.00000000000E+00 -0.14016854438E+04  0.16646686449E+04  0.89799755783E+03 0.  0.
        5    1    3    3  502    0 -0.39733932077E+03  0.15992004455E+03 -0.95041131919E+03  0.10424762454E+04  0.46999998093E+01 0. -1.
       -5    1    3    3    0  502  0.39733932077E+03 -0.15992004455E+03 -0.45127412460E+03  0.62219239952E+03  0.46999998093E+01 0.  1.
</event>
<event>
 5   0  0.2008770E-02  0.9172414E+03  0.7818609E-02  0.9404282E-01
        2   -1    0    0  501    0  0.00000000000E+00  0.00000000000E+00  0.10596886129E+04  0.10596886129E+04  0.25500000920E-02 0. -1.
       -2   -1    0    0    0  501  0.00000000000E+00  0.00000000000E+00 -0.19848562242E+03  0.19848562244E+03  0.25500000920E-02 0.  1.
    10030    2    1    2    0    0  0.00000000000E+00  0.00000000000E+00  0.86120299044E+03  0.12581742353E+04  0.91724141622E+03 0.  0.
        1    1    3    3  502    0 -0.13489632613E+03  0.32310052571E+02 -0.16902163774E+03  0.21865331543E+03  0.50400001928E-02 0.  1.
       -1    1    3    3    0  502  0.13489632613E+03 -0.32310052571E+02  0.10302246282E+04  0.10395209199E+04  0.50400001928E-02 0. -1.
</event>
<event>
 5   0  0.1924218E-02  0.9089576E+03  0.7818609E-02  0.9414453E-01
       -2   -1    0    0    0  501  0.00000000000E+00  0.00000000000E+00  0.48715315622E+03  0.48715315623E+03  0.25500000920E-02 0. -1.
        2   -1    0    0  501    0  0.00000000000E+00  0.00000000000E+00 -0.42399596565E+03  0.42399596566E+03  0.25500000920E-02 0.  1.
    10030    2    1    2    0    0  0.00000000000E+00  0.00000000000E+00  0.63157190570E+02  0.91114912189E+03  0.90895758515E+03 0.  0.
        4    1    3    3  502    0 -0.32789444734E+03 -0.20375742489E+03  0.27198490141E+03  0.47223855867E+03  0.12699999809E+01 0. -1.
       -4    1    3    3    0  502  0.32789444734E+03  0.20375742489E+03 -0.20882771084E+03  0.43891056322E+03  0.12699999809E+01 0.  1.
</event>
<event>
 5   0  0.1206541E-02  0.8909447E+03  0.7818609E-02  0.9436972E-01
        1   -1    0    0  501    0  0.00000000000E+00  0.00000000000E+00  0.14229030504E+04  0.14229030504E+04  0.50400001928E-02 0.  1.
       -1   -1    0    0    0  501  0.00000000000E+00  0.00000000000E+00 -0.13946529532E+03  0.13946529541E+03  0.50400001928E-02 0. -1.
    10030    2    1    2    0    0  0.00000000000E+00  0.00000000000E+00  0.12834377550E+04  0.15623683458E+04  0.89094465418E+03 0.  0.
        3    1    3    3  502    0 -0.23044729249E+03 -0.11334661620E+03  0.12800232481E+04  0.13055316679E+04  0.10100000352E+00 0.  1.
       -3    1    3    3    0  502  0.23044729249E+03  0.11334661620E+03  0.34145069040E+01  0.25683667783E+03  0.10100000352E+00 0. -1.
</event>
<event>
 5   0  0.1175993E-02  0.9036221E+03  0.7818609E-02  0.9421065E-01
       -1   -1    0    0    0  501  0.00000000000E+00  0.00000000000E+00  0.28155159231E+03  0.28155159235E+03  0.50400001928E-02 0. -1.
        1   -1    0    0  501    0  0.00000000000E+00  0.00000000000E+00 -0.72502958808E+03  0.72502958809E+03  0.50400001928E-02 0.  1.
    10030    2    1    2    0    0  0.00000000000E+00  0.00000000000E+00 -0.44347799577E+03  0.10065811804E+04  0.90362212240E+03 0.  0.
        4    1    3    3  502    0 -0.23542986086E+03 -0.30116774646E+03  0.46538903738E+02  0.38509312296E+03  0.12699999809E+01 0. -1.
       -4    1    3    3    0  502  0.23542986086E+03  0.30116774646E+03 -0.49001689951E+03  0.62148805748E+03  0.12699999809E+01 0.  1.
</event>
<event>
 5   0  0.2008770E-02  0.8871972E+03  0.7818609E-02  0.9441729E-01
        2   -1    0    0  501    0  0.00000000000E+00  0.00000000000E+00  0.61066877673E+03  0.61066877674E+03  0.25500000920E-02 0.  1.
       -2   -1    0    0    0  501  0.00000000000E+00  0.00000000000E+00 -0.32223638436E+03  0.32223638437E+03  0.25500000920E-02 0. -1.
    10030    2    1    2    0    0  0.00000000000E+00  0.00000000000E+00  0.28843239237E+03  0.93290516111E+03  0.88719715659E+03 0.  0.
        1    1    3    3  502    0  0.30525354740E+03 -0.97300648323E+02 -0.17840082443E+03  0.36670696550E+03  0.50400001928E-02 0. -1.
       -1    1    3    3    0  502 -0.30525354740E+03  0.97300648323E+02  0.46683321681E+03  0.56619819560E+03  0.50400001928E-02 0.  1.
</event>
<event>
 5   0  0.1175993E-02  0.8793468E+03  0.7818609E-02  0.9451774E-01
       -1   -1    0    0    0  501  0.00000000000E+00  0.00000000000E+00  0.13285523336E+03  0.13285523346E+03  0.50400001928E-02 0.  1.
        1   -1    0    0  501    0  0.00000000000E+00  0.00000000000E+00 -0.14550626899E+04  0.14550626899E+04  0.50400001928E-02 0. -1.
    10030    2    1    2    0    0  0.00000000000E+00  0.00000000000E+00 -0.13222074566E+04  0.15879179234E+04  0.87934678780E+03 0.  0.
        4    1    3    3  502    0 -0.37216450105E+03 -0.92897272570E+02 -0.10491381019E+04  0.11170625269E+04  0.12699999809E+01 0.  1.
       -4    1    3    3    0  502  0.37216450105E+03  0.92897272570E+02 -0.27306935461E+03  0.47085539651E+03  0.12699999809E+01 0. -1.
</event>
<event>
 5   0  0.1924218E-02  0.8834245E+03  0.7818609E-02  0.9446542E-01
       -2   -1    0    0    0  501  0.00000000000E+00  0.00000000000E+00  0.17998638313E+03  0.17998638315E+03  0.25500000920E-02 0.  1.
        2   -1    0    0  501    0  0.00000000000E+00  0.00000000000E+00 -0.10840248256E+04  0.10840248256E+04  0.25500000920E-02 0. -1.
    10030    2    1    2    0    0  0.00000000000E+00  0.00000000000E+00 -0.90403844251E+03  0.12640112088E+04  0.88342449051E+03 0.  0.
        4    1    3    3  502    0 -0.36186072646E+03 -0.25318685818E+03 -0.46322384896E+03  0.64001931037E+03  0.12699999809E+01 0.  1.
       -4    1    3    3    0  502  0.36186072646E+03  0.25318685818E+03 -0.44081459355E+03  0.62399189843E+03  0.12699999809E+01 0. -1.
</event>
<event>
 5   0  0.2008643E-02  0.8667801E+03  0.7818609E-02  0.9468088E-01
        2   -1    0    0  501    0  0.00000000000E+00  0.00000000000E+00  0.71326150664E+03  0.71326150664E+03  0.25500000920E-02 0. -1.
       -2   -1    0    0    0  501  0.00000000000E+00  0.00000000000E+00 -0.26333529432E+03  0.26333529433E+03  0.25500000920E-02 0.  1.
    10030    2    1    2    0    0  0.00000000000E+00  0.00000000000E+00  0.44992621232E+03  0.97659680097E+03  0.86678008464E+03 0.  0.
        3    1    3    3  502    0 -0.27126917226E+03  0.13859818791E+03 -0.12236335666E+03  0.32828223035E+03  0.10100000352E+00 0.  1.
       -3    1    3    3    0  502  0.27126917226E+03 -0.13859818791E+03  0.57228956898E+03  0.64831457062E+03  0.10100000352E+00 0. -1.
</event>
<event>
 5   0  0.2041861E-02  0.9266767E+03  0.7818609E-02  0.9392835E-01
       -2   -1    0    0    0  501  0.00000000000E+00  0.00000000000E+00  0.14209404034E+04  0.14209404034E+04  0.25500000920E-02 0. -1.
        2   -1    0    0  501    0  0.00000000000E+00  0.00000000000E+00 -0.15108476385E+03  0.15108476387E+03  0.25500000920E-02 0.  1.
    10030    2    1    2    0    0  0.00000000000E+00  0.00000000000E+00  0.12698556396E+04  0.15720251673E+04  0.92667674043E+03 0.  0.
        5    1    3    3  502    0 -0.35491032663E+03  0.21558799493E+03  0.98350152659E+03  0.10675845945E+04  0.46999998093E+01 0. -1.
       -5    1    3    3    0  502  0.35491032663E+03 -0.21558799493E+03  0.28635411297E+03  0.50444057284E+03  0.46999998093E+01 0.  1.
</event>
<event>
 5   0  0.1162839E-02  0.6749327E+03  0.7818609E-02  0.9761088E-01
       -1   -1    0    0    0  501  0.00000000000E+00  0.00000000000E+00  0.83081562620E+02  0.83081562773E+02  0.50400001928E-02 0. -1.
        1   -1    0    0  501    0  0.00000000000E+00  0.00000000000E+00 -0.13707439466E+04  0.13707439466E+04  0.50400001928E-02 0.  1.
    10030    2    1    2    0    0  0.00000000000E+00  0.00000000000E+00 -0.12876623840E+04  0.14538255094E+04  0.67493273489E+03 0.  0.
        2    1    3    3  502    0 -0.29900221242E+03 -0.15598235272E+03 -0.67027683776E+03  0.75033582923E+03  0.25500000920E-02 0. -1.
       -2    1    3    3    0  502  0.29900221242E+03  0.15598235272E+03 -0.61738554625E+03  0.70348968018E+03  0.25500000920E-02 0.  1.
</event>
<event>
 5   0  0.1175993E-02  0.9161072E+03  0.7818609E-02  0.9405668E-01
        1   -1    0    0  501    0  0.00000000000E+00  0.00000000000E+00  0.82361213605E+03  0.82361213607E+03  0.50400001928E-02 0.  1.
       -1   -1    0    0    0  501  0.00000000000E+00  0.00000000000E+00 -0.25474744439E+03  0.25474744444E+03  0.50400001928E-02 0. -1.
    10030    2    1    2    0    0  0.00000000000E+00  0.00000000000E+00  0.56886469166E+03  0.10783595805E+04  0.91610717030E+03 0.  0.
        4    1    3    3  502    0  0.28998784806E+03 -0.14411738856E+03 -0.96901936891E+02  0.33801534281E+03  0.12699999809E+01 0. -1.
       -4    1    3    3    0  502 -0.28998784806E+03  0.14411738856E+03  0.66576662855E+03  0.74034423770E+03  0.12699999809E+01 0.  1.
</event>
<event>
 5   0  0.7893875E-03  0.9128622E+03  0.7818609E-02  0.9409644E-01
       -3   -1    0    0    0  501  0.00000000000E+00  0.00000000000E+00  0.41095725321E+03  0.41095726562E+03  0.10100000352E+00 0.  1.
        3   -1    0    0  501    0  0.00000000000E+00  0.00000000000E+00 -0.50693678301E+03  0.50693679307E+03  0.10100000352E+00 0. -1.
    10030    2    1    2    0    0  0.00000000000E+00  0.00000000000E+00 -0.95979529799E+02  0.91789405869E+03  0.91286222008E+03 0.  0.
        4    1    3    3  502    0 -0.37892859019E+03 -0.15641354707E+03  0.15380445307E+03  0.43784643067E+03  0.12699999809E+01 0.  1.
       -4    1    3    3    0  502  0.37892859019E+03  0.15641354707E+03 -0.24978398287E+03  0.48004762802E+03  0.12699999809E+01 0. -1.
</event>
<event>
 5   0  0.1226424E-02  0.9041452E+03  0.7818609E-02  0.9420415E-01
        1   -1    0    0  501    0  0.00000000000E+00  0.00000000000E+00  0.59449790913E+03  0.59449790915E+03  0.50400001928E-02 0.  1.
       -1   -1    0    0    0  501  0.00000000000E+00  0.00000000000E+00 -0.34376846351E+03  0.34376846355E+03  0.50400001928E-02 0. -1.
    10030    2    1    2    0    0  0.00000000000E+00  0.00000000000E+00  0.25072944562E+03  0.93826637271E+03  0.90414519368E+03 0.  0.
        1    1    3    3  502    0 -0.38501566410E+03 -0.22014062015E+03  0.21625237088E+03  0.49342075572E+03  0.50400001928E-02 0.  1.
       -1    1    3    3    0  502  0.38501566410E+03  0.22014062015E+03  0.34477074738E+02  0.44484561698E+03  0.50400001928E-02 0. -1.
</event>
<event>
 5   0  0.2041861E-02  0.9307831E+03  0.7818609E-02  0.9387899E-01
       -2   -1    0    0    0  501  0.00000000000E+00  0.00000000000E+00  0.12222516806E+03  0.12222516809E+03  0.25500000920E-02 0. -1.
        2   -1    0    0  501    0  0.00000000000E+00  0.00000000000E+00 -0.17720513767E+04  0.17720513767E+04  0.25500000920E-02 0.  1.
    10030    2    1    2    0    0  0.00000000000E+00  0.00000000000E+00 -0.16498262087E+04  0.18942765448E+04  0.93078306250E+03 0.  0.
        5    1    3    3  502    0 -0.33971819225E+03  0.14194245264E+03 -0.24566167526E+03  0.44263738963E+03  0.46999998093E+01 0. -1.
       -5    1    3    3    0  502  0.33971819225E+03 -0.14194245264E+03 -0.14041645334E+04  0.14516391552E+04  0.46999998093E+01 0.  1.
</event>
<event>
 5   0  0.1924218E-02  0.9082309E+03  0.7818609E-02  0.9415351E-01
        2   -1    0    0  501    0  0.00000000000E+00  0.00000000000E+00  0.10716724660E+04  0.10716724660E+04  0.25500000920E-02 0. -1.
       -2   -1    0    0    0  501  0.00000000000E+00  0.00000000000E+00 -0.19242896969E+03  0.19242896971E+03  0.25500000920E-02 0.  1.
    10030    2    1    2    0    0  0.00000000000E+00  0.00000000000E+00  0.87924349634E+03  0.12641014357E+04  0.90823087042E+03 0.  0.
        4    1    3    3  502    0 -0.48978573994E+01 -0.22886154378E+02  0.10708300043E+04  0.10710864933E+04  0.12699999809E+01 0. -1.
       -4    1    3    3    0  502  0.48978573994E+01  0.22886154378E+02 -0.19158650798E+03  0.19301494245E+03  0.12699999809E+01 0.  1.
</event>
<event>
 5   0  0.2008770E-02  0.8797708E+03  0.7818609E-02  0.9451228E-01
       -2   -1    0    0    0  501  0.00000000000E+00  0.00000000000E+00  0.99720354502E+02  0.99720354534E+02  0.25500000920E-02 0. -1.
        2   -1    0    0  501    0  0.00000000000E+00  0.00000000000E+00 -0.19404179118E+04  0.19404179118E+04  0.25500000920E-02 0.  1.
    10030    2    1    2    0    0  0.00000000000E+00  0.00000000000E+00 -0.18406975573E+04  0.20401382663E+04  0.87977079306E+03 0.  0.
        1    1    3    3  502    0 -0.31355889171E+03 -0.22175534552E+03 -0.42296632966E+03  0.57131001032E+03  0.50400001928E-02 0.  1.
       -1    1    3    3    0  502  0.31355889171E+03  0.22175534552E+03 -0.14177312276E+04  0.14688282560E+04  0.50400001928E-02 0. -1.
</event>
<event>
 5   0  0.2008770E-02  0.8876182E+03  0.7818609E-02  0.9441193E-01
        2   -1    0    0  501    0  0.00000000000E+00  0.00000000000E+00  0.11541434440E+04  0.11541434440E+04  0.25500000920E-02 0. -1.
       -2   -1    0    0    0  501  0.00000000000E+00  0.00000000000E+00 -0.17066033717E+03  0.17066033719E+03  0.25500000920E-02 0.  1.
    10030    2    1    2    0    0  0.00000000000E+00  0.00000000000E+00  0.98348310683E+03  0.13248037812E+04  0.88761818213E+03 0.  0.
        1    1    3    3  502    0 -0.20290170364E+03  0.25412166894E+03  0.40956595302E+02  0.32775656620E+03  0.50400001928E-02 0.  1.
       -1    1    3    3    0  502  0.20290170364E+03 -0.25412166894E+03  0.94252651152E+03  0.99704721499E+03  0.50400001928E-02 0. -1.
</event>
<event>
 5   0  0.1162839E-02  0.9259879E+03  0.7818609E-02  0.9393666E-01
       -1   -1    0    0    0  501  0.00000000000E+00  0.00000000000E+00  0.60545698753E+03  0.60545698755E+03  0.50400001928E-02 0.  1.
        1   -1    0    0  501    0  0.00000000000E+00  0.00000000000E+00 -0.35405225270E+03  0.35405225274E+03  0.50400001928E-02 0. -1.
    10030    2    1    2    0    0  0.00000000000E+00  0.00000000000E+00  0.25140473483E+03  0.95950924028E+03  0.92598792730E+03 0.  0.
        2    1    3    3  502    0 -0.38373695321E+03  0.25621063956E+03  0.16536962689E+03  0.49014799254E+03  0.25500000920E-02 0.  1.
       -2    1    3    3    0  502  0.38373695321E+03 -0.25621063956E+03  0.86035107940E+02  0.46936124775E+03  0.25500000920E-02 0. -1.
</event>
<event>
 5   0  0.1177712E-02  0.9242174E+03  0.7818609E-02  0.9395805E-01
        1   -1    0    0  501    0  0.00000000000E+00  0.00000000000E+00  0.88524307590E+03  0.88524307591E+03  0.50400001928E-02 0. -1.
       -1   -1    0    0    0  501  0.00000000000E+00  0.00000000000E+00 -0.24122690894E+03  0.24122690899E+03  0.50400001928E-02 0.  1.
    10030    2    1    2    0    0  0.00000000000E+00  0.00000000000E+00  0.64401616695E+03  0.11264699849E+04  0.92421740061E+03 0.  0.
        5    1    3    3  502    0 -0.27854392167E+03  0.32473741818E+03  0.10921284927E+03  0.44157744905E+03  0.46999998093E+01 0.  1.
       -5    1    3    3    0  502  0.27854392167E+03 -0.32473741818E+03  0.53480331769E+03  0.68489253586E+03  0.46999998093E+01 0. -1.
</event>
<event>
 5   0  0.2041861E-02  0.7490823E+03  0.7818609E-02  0.9636791E-01
       -2   -1    0    0    0  501  0.00000000000E+00  0.00000000000E+00  0.78743858504E+02  0.78743858545E+02  0.25500000920E-02 0.  1.
        2   -1    0    0  501    0  0.00000000000E+00  0.00000000000E+00 -0.17814858590E+04  0.17814858590E+04  0.25500000920E-02 0. -1.
    10030    2    1    2    0    0  0.00000000000E+00  0.00000000000E+00 -0.17027420005E+04  0.18602297175E+04  0.74908229306E+03 0.  0.
        5    1    3    3  502    0 -0.13737169219E+03  0.14983691820E+03 -0.16324881778E+04  0.16451023751E+04  0.46999998093E+01 0. -1.
       -5    1    3    3    0  502  0.13737169219E+03 -0.14983691820E+03 -0.70253822696E+02  0.21512734246E+03  0.46999998093E+01 0.  1.
</event>
<event>
 5   0  0.1175993E-02  0.8771024E+03  0.7818609E-02  0.9454666E-01
       -1   -1    0    0    0  501  0.00000000000E+00  0.00000000000E+00  0.63569912244E+03  0.63569912246E+03  0.50400001928E-02 0.  1.
        1   -1    0    0  501    0  0.00000000000E+00  0.00000000000E+00 -0.30254432832E+03  0.30254432836E+03  0.50400001928E-02 0. -1.
    10030    2    1    2    0    0  0.00000000000E+00  0.00000000000E+00  0.33315479412E+03  0.93824345083E+03  0.87710242057E+03 0.  0.
        4    1    3    3  502    0 -0.18629685996E+03  0.24597078015E+02 -0.25729432223E+03  0.31861186015E+03  0.12699999809E+01 0. -1.
       -4    1    3    3    0  502  0.18629685996E+03 -0.24597078015E+02  0.59044911634E+03  0.61963159068E+03  0.12699999809E+01 0.  1.
</event>
<event>
 5   0  0.1968763E-02  0.8897517E+03  0.7818609E-02  0.9438484E-01
       -2   -1    0    0    0  501  0.00000000000E+00  0.00000000000E+00  0.21874496341E+03  0.21874496342E+03  0.25500000920E-02 0. -1.
        2   -1    0    0  501    0  0.00000000000E+00  0.00000000000E+00 -0.90477294634E+03  0.90477294635E+03  0.25500000920E-02 0.  1.
    10030    2    1    2    0    0  0.00000000000E+00  0.00000000000E+00 -0.68602798294E+03  0.11235179098E+04  0.88975170705E+03 0.  0.
        2    1    3    3  502    0  0.35059882964E+03 -0.17938546575E+03 -0.81729636401E+02  0.40221687948E+03  0.25500000920E-02 0. -1.
       -2    1    3    3    0  502 -0.35059882964E+03  0.17938546575E+03 -0.60429834653E+03  0.72130103029E+03  0.25500000920E-02 0.  1.
</event>
<event>
 5   0  0.1226424E-02  0.9339466E+03  0.7818609E-02  0.9384114E-01
        1   -1    0    0  501    0  0.00000000000E+00  0.00000000000E+00  0.26041804269E+03  0.26041804274E+03  0.50400001928E-02 0.  1.
       -1   -1    0    0    0  501  0.00000000000E+00  0.00000000000E+00 -0.83736160894E+03  0.83736160896E+03  0.50400001928E-02 0. -1.
    10030    2    1    2    0    0  0.00000000000E+00  0.00000000000E+00 -0.57694356625E+03  0.10977796517E+04  0.93394661787E+03 0.  0.
        1    1    3    3  502    0  0.21804549732E+03 -0.35349938706E+03 -0.37585204396E+02  0.41703513421E+03  0.50400001928E-02 0.  1.
       -1    1    3    3    0  502 -0.21804549732E+03  0.35349938706E+03 -0.53935836186E+03  0.68074451748E+03  0.50400001928E-02 0. -1.
</event>
<event>
 5   0  0.2008643E-02  0.9224052E+03  0.7818609E-02  0.9397999E-01
        2   -1    0    0  501    0  0.00000000000E+00  0.00000000000E+00  0.25650902025E+04  0.25650902025E+04  0.25500000920E-02 0. -1.
       -2   -1    0    0    0  501  0.00000000000E+00  0.00000000000E+00 -0.82924108752E+02  0.82924108791E+02  0.25500000920E-02 0.  1.
    10030    2    1    2    0    0  0.00000000000E+00  0.00000000000E+00  0.24821660938E+04  0.26480143113E+04  0.92240515820E+03 0.  0.
        3    1    3    3  502    0 -0.45691059414E+03  0.44415812770E+02  0.13684286430E+04  0.14433769489E+04  0.10100000352E+00 0. -1.
       -3    1    3    3    0  502  0.45691059414E+03 -0.44415812770E+02  0.11137374508E+04  0.12046373624E+04  0.10100000352E+00 0.  1.
</event>
<event>
 5   0  0.2041861E-02  0.8916800E+03  0.7818609E-02  0.9436042E-01
       -2   -1    0    0    0  501  0.00000000000E+00  0.00000000000E+00  0.20203973698E+03  0.20203973699E+03  0.25500000920E-02 0. -1.
        2   -1    0    0  501    0  0.00000000000E+00  0.00000000000E+00 -0.98383270131E+03  0.98383270131E+03  0.25500000920E-02 0.  1.
    10030    2    1    2    0    0  0.00000000000E+00  0.00000000000E+00 -0.78179296433E+03  0.11858724383E+04  0.89167998792E+03 0.  0.
        5    1    3    3  502    0 -0.14176374572E+03  0.39017380377E+03 -0.60706094337E+03  0.73544383586E+03  0.46999998093E+01 0.  1.
       -5    1    3    3    0  502  0.14176374572E+03 -0.39017380377E+03 -0.17473202097E+03  0.45042860244E+03  0.46999998093E+01 0. -1.
</event>
<event>
 5   0  0.1226424E-02  0.8871373E+03  0.7818609E-02  0.9441805E-01
       -1   -1    0    0    0  501  0.00000000000E+00  0.00000000000E+00  0.76471468020E+03  0.76471468022E+03  0.50400001928E-02 0.  1.
        1   -1    0    0  501    0  0.00000000000E+00  0.00000000000E+00 -0.25728959017E+03  0.25728959022E+03  0.50400001928E-02 0. -1.
    10030    2    1    2    0    0  0.00000000000E+00  0.00000000000E+00  0.50742509003E+03  0.10220042704E+04  0.88713725364E+03 0.  0.
        1    1    3    3  502    0  0.36128908297E+03 -0.92447526248E+02  0.53038275331E+03  0.64836888545E+03  0.50400001928E-02 0.  1.
       -1    1    3    3    0  502 -0.36128908297E+03  0.92447526248E+02 -0.22957663279E+02  0.37363538499E+03  0.50400001928E-02 0. -1.
</event>
<event>
 5   0  0.1175993E-02  0.9330323E+03  0.7818609E-02  0.9385206E-01
        1   -1    0    0  501    0  0.00000000000E+00  0.00000000000E+00  0.32330556186E+03  0.32330556189E+03  0.50400001928E-02 0. -1.
       -1   -1    0    0    0  501  0.00000000000E+00  0.00000000000E+00 -0.67316291672E+03  0.67316291674E+03  0.50400001928E-02 0.  1.
    10030    2    1    2    0    0  0.00000000000E+00  0.00000000000E+00 -0.34985735486E+03  0.99646847863E+03  0.93303229320E+03 0.  0.
        4    1    3    3  502    0 -0.70339812211E+02  0.26641743920E+03 -0.57696637084E+03  0.63938857283E+03  0.12699999809E+01 0.  1.
       -4    1    3    3    0  502  0.70339812211E+02 -0.26641743920E+03  0.22710901597E+03  0.35707990580E+03  0.12699999809E+01 0. -1.
</event>
<event>
 5   0  0.1177712E-02  0.8935343E+03  0.7818609E-02  0.9433700E-01
       -1   -1    0    0    0  501  0.00000000000E+00  0.00000000000E+00  0.22214510230E+03  0.22214510235E+03  0.50400001928E-02 0.  1.
        1   -1    0    0  501    0  0.00000000000E+00  0.00000000000E+00 -0.89851582586E+03  0.89851582587E+03  0.50400001928E-02 0. -1.
    10030    2    1    2    0    0  0.00000000000E+00  0.00000000000E+00 -0.67637072356E+03  0.11206609282E+04  0.89353430844E+03 0.  0.
        5    1    3    3  502    0  0.38784243373E+03  0.96319358995E+02 -0.58864545973E+03  0.71149472210E+03  0.46999998093E+01 0. -1.
       -5    1    3    3    0  502 -0.38784243373E+03 -0.96319358995E+02 -0.87725263832E+02  0.40916620612E+03  0.46999998093E+01 0.  1.
</event>
<event>
 5   0  0.1177712E-02  0.6665056E+03  0.7818609E-02  0.9776291E-01
        1   -1    0    0  501    0  0.00000000000E+00  0.00000000000E+00  0.85950928463E+03  0.85950928465E+03  0.50400001928E-02 0. -1.
       -1   -1    0    0    0  501  0.00000000000E+00  0.00000000000E+00 -0.12921028394E+03  0.12921028404E+03  0.50400001928E-02 0.  1.
    10030    2    1    2    0    0  0.00000000000E+00  0.00000000000E+00  0.73029900069E+03  0.98871956869E+03  0.66650563020E+03 0.  0.
        5    1    3    3  502    0 -0.22493964537E+03 -0.17610747929E+03  0.61960840739E+03  0.68231104112E+03  0.46999998093E+01 0.  1.
       -5    1    3    3    0  502  0.22493964537E+03  0.17610747929E+03  0.11069059330E+03  0.30640852757E+03  0.46999998093E+01 0. -1.
</event>
<event>
 5   0  0.2041861E-02  0.9107116E+03  0.7818609E-02  0.9412290E-01
       -2   -1    0    0    0  501  0.00000000000E+00  0.00000000000E+00  0.45925824510E+03  0.45925824511E+03  0.25500000920E-02 0.  1.
        2   -1    0    0  501    0  0.00000000000E+00  0.00000000000E+00 -0.45148654269E+03  0.45148654269E+03  0.25500000920E-02 0. -1.
    10030    2    1    2    0    0  0.00000000000E+00  0.00000000000E+00  0.77717024138E+01  0.91074478780E+03  0.91071162787E+03 0.  0.
        5    1    3    3  502    0  0.26366573354E+03  0.16656215429E+03 -0.32788556446E+03  0.45254127288E+03  0.46999998093E+01 0. -1.
       -5    1    3    3    0  502 -0.26366573354E+03 -0.16656215429E+03  0.33565726687E+03  0.45820351492E+03  0.46999998093E+01 0.  1.
</event>
<event>
 5   0  0.2041861E-02  0.9055650E+03  0.7818609E-02  0.9418652E-01
        2   -1    0    0  501    0  0.00000000000E+00  0.00000000000E+00  0.17125887308E+04  0.17125887308E+04  0.25500000920E-02 0. -1.
       -2   -1    0    0    0  501  0.00000000000E+00  0.00000000000E+00 -0.11970882171E+03  0.11970882174E+03  0.25500000920E-02 0.  1.
    10030    2    1    2    0    0  0.00000000000E+00  0.00000000000E+00  0.15928799091E+04  0.18322975525E+04  0.90556497075E+03 0.  0.
        5    1    3    3  502    0  0.29015925883E+03  0.31061266804E+03  0.11119649302E+04  0.11904455977E+04  0.46999998093E+01 0. -1.
       -5    1    3    3    0  502 -0.29015925883E+03 -0.31061266804E+03  0.48091497884E+03  0.64185195482E+03  0.46999998093E+01 0.  1.
</event>
<event>
 5   0  0.2008643E-02  0.9026161E+03  0.7818609E-02  0.9422317E-01
       -2   -1    0    0    0  501  0.00000000000E+00  0.00000000000E+00  0.12358816215E+03  0.12358816218E+03  0.25500000920E-02 0.  1.
        2   -1    0    0  501    0  0.00000000000E+00  0.00000000000E+00 -0.16480457208E+04  0.16480457208E+04  0.25500000920E-02 0. -1.
    10030    2    1    2    0    0  0.00000000000E+00  0.00000000000E+00 -0.15244575587E+04  0.17716338830E+04  0.90261606855E+03 0.  0.
        3    1    3    3  502    0 -0.29858473244E+03  0.28937446438E+02 -0.10042446690E+03  0.31634680654E+03  0.10100000352E+00 0.  1.
       -3    1    3    3    0  502  0.29858473244E+03 -0.28937446438E+02 -0.14240330918E+04  0.14552870765E+04  0.10100000352E+00 0. -1.
</event>
<event>
 5   0  0.2041861E-02  0.8850842E+03  0.7818609E-02  0.9444421E-01
       -2   -1    0    0    0  501  0.00000000000E+00  0.00000000000E+00  0.19923463706E+03  0.19923463707E+03  0.25500000920E-02 0.  1.
        2   -1    0    0  501    0  0.00000000000E+00  0.00000000000E+00 -0.98297933774E+03  0.98297933775E+03  0.25500000920E-02 0. -1.
    10030    2    1    2    0    0  0.00000000000E+00  0.00000000000E+00 -0.78374470069E+03  0.11822139748E+04  0.88508424820E+03 0.  0.
        5    1    3    3  502    0 -0.25571785370E+03  0.17823471436E+03  0.27680707991E+02  0.31296572607E+03  0.46999998093E+01 0.  1.
       -5    1    3    3    0  502  0.25571785370E+03 -0.17823471436E+03 -0.81142540868E+03  0.86924824875E+03  0.46999998093E+01 0. -1.
</event>
<event>
 5   0  0.1162839E-02  0.9039348E+03  0.7818609E-02  0.9420676E-01
        1   -1    0    0  501    0  0.00000000000E+00  0.00000000000E+00  0.12103009018E+04  0.12103009018E+04  0.50400001928E-02 0.  1.
       -1   -1    0    0    0  501  0.00000000000E+00  0.00000000000E+00 -0.16877995732E+03  0.16877995739E+03  0.50400001928E-02 0. -1.
    10030    2    1    2    0    0  0.00000000000E+00  0.00000000000E+00  0.10415209445E+04  0.13790808592E+04  0.90393480873E+03 0.  0.
        2    1    3    3  502    0 -0.22876599086E+03 -0.25584727274E+03  0.96942069150E+03  0.10283813411E+04  0.25500000920E-02 0.  1.
       -2    1    3    3    0  502  0.22876599086E+03  0.25584727274E+03  0.72100252998E+02  0.35069951815E+03  0.25500000920E-02 0. -1.
</event>
<event>
 5   0  0.2008643E-02  0.9017442E+03  0.7818609E-02  0.9423404E-01
        2   -1    0    0  501    0  0.00000000000E+00  0.00000000000E+00  0.17049309638E+04  0.17049309638E+04  0.25500000920E-02 0. -1.
       -2   -1    0    0    0  501  0.00000000000E+00  0.00000000000E+00 -0.11923396049E+03  0.11923396051E+03  0.25500000920E-02 0.  1.
    10030    2    1    2    0    0  0.00000000000E+00  0.00000000000E+00  0.15856970033E+04  0.18241649243E+04  0.90174424578E+03 0.  0.
        3    1    3    3  502    0  0.25180581052E+03  0.16335683967E+03  0.14734493670E+04  0.15037103014E+04  0.10100000352E+00 0. -1.
       -3    1    3    3    0  502 -0.25180581052E+03 -0.16335683967E+03  0.11224763631E+03  0.32045462290E+03  0.10100000352E+00 0.  1.
</event>
<event>
 5   0  0.1968763E-02  0.9005454E+03  0.7818609E-02  0.9424900E-01
       -2   -1    0    0    0  501  0.00000000000E+00  0.00000000000E+00  0.23260188454E+03  0.23260188456E+03  0.25500000920E-02 0.  1.
        2   -1    0    0  501    0  0.00000000000E+00  0.00000000000E+00 -0.87164178267E+03  0.87164178268E+03  0.25500000920E-02 0. -1.
    10030    2    1    2    0    0  0.00000000000E+00  0.00000000000E+00 -0.63903989813E+03  0.11042436672E+04  0.90054543762E+03 0.  0.
        2    1    3    3  502    0  0.10307177128E+03 -0.38871101069E+03 -0.56788251041E+03  0.69585241647E+03  0.25500000920E-02 0. -1.
       -2    1    3    3    0  502 -0.10307177128E+03  0.38871101069E+03 -0.71157387724E+02  0.40839125077E+03  0.25500000920E-02 0.  1.
</event>
<event>
 5   0  0.2008643E-02  0.9112611E+03  0.7818609E-02  0.9411613E-01
        2   -1    0    0  501    0  0.00000000000E+00  0.00000000000E+00  0.39732471313E+03  0.39732471314E+03  0.25500000920E-02 0.  1.
       -2   -1    0    0    0  501  0.00000000000E+00  0.00000000000E+00 -0.52249254607E+03  0.52249254608E+03  0.25500000920E-02 0. -1.
    10030    2    1    2    0    0  0.00000000000E+00  0.00000000000E+00 -0.12516783294E+03  0.91981725922E+03  0.91126110635E+03 0.  0.
        3    1    3    3  502    0 -0.27971125729E+03 -0.23972082662E+02  0.29965348312E+03  0.41061571858E+03  0.10100000352E+00 0.  1.
       -3    1    3    3    0  502  0.27971125729E+03  0.23972082662E+02 -0.42482131606E+03  0.50920154063E+03  0.10100000352E+00 0. -1.
</event>
<event>
 5   0  0.7893875E-03  0.1060188E+04  0.7818609E-02  0.9244888E-01
       -4   -1    0    0    0  501  0.00000000000E+00  0.00000000000E+00  0.15143178146E+04  0.15143183471E+04  0.12699999809E+01 0. -1.
        4   -1    0    0  501    0  0.00000000000E+00  0.00000000000E+00 -0.18555908048E+03  0.18556342648E+03  0.12699999809E+01 0.  1.
    10030    2    1    2    0    0  0.00000000000E+00  0.00000000000E+00  0.13287587341E+04  0.16998817736E+04  0.10601878469E+04 0.  0.
        3    1    3    3  502    0  0.63462033889E+02  0.10298257693E+03 -0.16313563237E+03  0.20309132341E+03  0.10100000352E+00 0.  1.
       -3    1    3    3    0  502 -0.63462033889E+02 -0.10298257693E+03  0.14918943665E+04  0.14967904502E+04  0.10100000352E+00 0. -1.
</event>
<event>
 5   0  0.1968763E-02  0.8942216E+03  0.7818609E-02  0.9432834E-01
        2   -1    0    0  501    0  0.00000000000E+00  0.00000000000E+00  0.21822084087E+04  0.21822084087E+04  0.25500000920E-02 0.  1.
       -2   -1    0    0    0  501  0.00000000000E+00  0.00000000000E+00 -0.91608150317E+02  0.91608150353E+02  0.25500000920E-02 0. -1.
    10030    2    1    2    0    0  0.00000000000E+00  0.00000000000E+00  0.20906002584E+04  0.22738165591E+04  0.89422161900E+03 0.  0.
        2    1    3    3  502    0 -0.25687548991E+03 -0.34134085275E+03  0.13808083535E+04  0.14453824076E+04  0.25500000920E-02 0. -1.
       -2    1    3    3    0  502  0.25687548991E+03  0.34134085275E+03  0.70979190492E+03  0.82843415150E+03  0.25500000920E-02 0.  1.
</event>
<event>
 5   0  0.1162839E-02  0.8885439E+03  0.7818609E-02  0.9440016E-01
        1   -1    0    0  501    0  0.00000000000E+00  0.00000000000E+00  0.53004201729E+03  0.53004201731E+03  0.50400001928E-02 0. -1.
       -1   -1    0    0    0  501  0.00000000000E+00  0.00000000000E+00 -0.37238101420E+03  0.37238101424E+03  0.50400001928E-02 0.  1.
    10030    2    1    2    0    0  0.00000000000E+00  0.00000000000E+00  0.15766100308E+03  0.90242303154E+03  0.88854394150E+03 0.  0.
        2    1    3    3  502    0  0.27614469831E+03 -0.22381578330E+03 -0.19184354682E+03  0.40392245013E+03  0.25500000920E-02 0.  1.
       -2    1    3    3    0  502 -0.27614469831E+03  0.22381578330E+03  0.34950454991E+03  0.49850058141E+03  0.25500000920E-02 0. -1.
</event>
<event>
 5   0  0.1162839E-02  0.8857989E+03  0.7818609E-02  0.9443510E-01
       -1   -1    0    0    0  501  0.00000000000E+00  0.00000000000E+00  0.60158201409E+03  0.60158201411E+03  0.50400001928E-02 0.  1.
        1   -1    0    0  501    0  0.00000000000E+00  0.00000000000E+00 -0.32607341523E+03  0.32607341527E+03  0.50400001928E-02 0. -1.
    10030    2    1    2    0    0  0.00000000000E+00  0.00000000000E+00  0.27550859886E+03  0.92765542938E+03  0.88579885280E+03 0.  0.
        2    1    3    3  502    0  0.14707326908E+03 -0.23478878155E+03  0.49963069646E+03  0.57130302928E+03  0.25500000920E-02 0.  1.
       -2    1    3    3    0  502 -0.14707326908E+03  0.23478878155E+03 -0.22412209759E+03  0.35635240010E+03  0.25500000920E-02 0. -1.
</event>
<event>
 5   0  0.1924218E-02  0.8923306E+03  0.7818609E-02  0.9435220E-01
        2   -1    0    0  501    0  0.00000000000E+00  0.00000000000E+00  0.91286701995E+03  0.91286701995E+03  0.25500000920E-02 0. -1.
       -2   -1    0    0    0  501  0.00000000000E+00  0.00000000000E+00 -0.21806403385E+03  0.21806403386E+03  0.25500000920E-02 0.  1.
    10030    2    1    2    0    0  0.00000000000E+00  0.00000000000E+00  0.69480298610E+03  0.11309310538E+04  0.89233057719E+03 0.  0.
        4    1    3    3  502    0 -0.24371804565E+03  0.81271956971E+02 -0.11490632048E+03  0.28144038828E+03  0.12699999809E+01 0.  1.
       -4    1    3    3    0  502  0.24371804565E+03 -0.81271956971E+02  0.80970930658E+03  0.84949066554E+03  0.12699999809E+01 0. -1.
</event>
<event>
 5   0  0.1206541E-02  0.9145553E+03  0.7818609E-02  0.9407567E-01
        1   -1    0    0  501    0  0.00000000000E+00  0.00000000000E+00  0.74755083868E+03  0.74755083870E+03  0.50400001928E-02 0.  1.
       -1   -1    0    0    0  501  0.00000000000E+00  0.00000000000E+00 -0.27971720989E+03  0.27971720993E+03  0.50400001928E-02 0. -1.
    10030    2    1    2    0    0  0.00000000000E+00  0.00000000000E+00  0.46783362879E+03  0.10272680486E+04  0.91455526870E+03 0.  0.
        3    1    3    3  502    0  0.96431418826E+02  0.40072239273E+03  0.45637958889E+03  0.61494698465E+03  0.10100000352E+00 0.  1.
       -3    1    3    3    0  502 -0.96431418826E+02 -0.40072239273E+03  0.11454039908E+02  0.41232106399E+03  0.10100000352E+00 0. -1.
</event>
<event>
 5   0  0.7893875E-03  0.9172337E+03  0.7818609E-02  0.9404291E-01
       -4   -1    0    0    0  501  0.00000000000E+00  0.00000000000E+00  0.39744278483E+03  0.39744481392E+03  0.12699999809E+01 0.  1.
        4   -1    0    0  501    0  0.00000000000E+00  0.00000000000E+00 -0.52920268985E+03  0.52920421375E+03  0.12699999809E+01 0. -1.
    10030    2    1    2    0    0  0.00000000000E+00  0.00000000000E+00 -0.13175990502E+03  0.92664902767E+03  0.91723374770E+03 0.  0.
        4    1    3    3  502    0 -0.18940864198E+03  0.27967225585E+03  0.24752306437E+03  0.41876184717E+03  0.12699999809E+01 0.  1.
       -4    1    3    3    0  502  0.18940864198E+03 -0.27967225585E+03 -0.37928296939E+03  0.50788718050E+03  0.12699999809E+01 0. -1.
</event>
<event>
 5   0  0.2008770E-02  0.8912018E+03  0.7818609E-02  0.9436647E-01
        2   -1    0    0  501    0  0.00000000000E+00  0.00000000000E+00  0.44788782812E+03  0.44788782813E+03  0.25500000920E-02 0.  1.
       -2   -1    0    0    0  501  0.00000000000E+00  0.00000000000E+00 -0.44332564600E+03  0.44332564600E+03  0.25500000920E-02 0. -1.
    10030    2    1    2    0    0  0.00000000000E+00  0.00000000000E+00  0.45621821285E+01  0.89121347414E+03  0.89120179700E+03 0.  0.
        1    1    3    3  502    0  0.18093745671E+01  0.44026044277E+03 -0.66477568789E+02  0.44525475683E+03  0.50400001928E-02 0.  1.
       -1    1    3    3    0  502 -0.18093745671E+01 -0.44026044277E+03  0.71039750917E+02  0.44595871730E+03  0.50400001928E-02 0. -1.
</event>
<event>
 5   0  0.2008643E-02  0.7278132E+03  0.7818609E-02  0.9670816E-01
        2   -1    0    0  501    0  0.00000000000E+00  0.00000000000E+00  0.16722371047E+04  0.16722371047E+04  0.25500000920E-02 0.  1.
       -2   -1    0    0    0  501  0.00000000000E+00  0.00000000000E+00 -0.79192124625E+02  0.79192124666E+02  0.25500000920E-02 0. -1.
    10030    2    1    2    0    0  0.00000000000E+00  0.00000000000E+00  0.15930449801E+04  0.17514292294E+04  0.72781318821E+03 0.  0.
        3    1    3    3  502    0  0.82168715595E+02 -0.85562504197E+02  0.16244010511E+04  0.16287269338E+04  0.10100000352E+00 0.  1.
       -3    1    3    3    0  502 -0.82168715595E+02  0.85562504197E+02 -0.31356071005E+02  0.12270229556E+03  0.10100000352E+00 0. -1.
</event>
<event>
 5   0  0.1968763E-02  0.7735777E+03  0.7818609E-02  0.9599070E-01
       -2   -1    0    0    0  501  0.00000000000E+00  0.00000000000E+00  0.36585037412E+03  0.36585037413E+03  0.25500000920E-02 0.  1.
        2   -1    0    0  501    0  0.00000000000E+00  0.00000000000E+00 -0.40892568866E+03  0.40892568867E+03  0.25500000920E-02 0. -1.
    10030    2    1    2    0    0  0.00000000000E+00  0.00000000000E+00 -0.43075314538E+02  0.77477606279E+03  0.77357770441E+03 0.  0.
        2    1    3    3  502    0 -0.14535997844E+03 -0.35686924729E+03 -0.55062382941E+02  0.38925190946E+03  0.25500000920E-02 0.  1.
       -2    1    3    3    0  502  0.14535997844E+03  0.35686924729E+03  0.11987068403E+02  0.38552415334E+03  0.25500000920E-02 0. -1.
</event>
<event>
 5   0  0.1226424E-02  0.9484155E+03  0.7818609E-02  0.9367005E-01
       -1   -1    0    0    0  501  0.00000000000E+00  0.00000000000E+00  0.15578780101E+04  0.15578780101E+04  0.50400001928E-02 0. -1.
        1   -1    0    0  501    0  0.00000000000E+00  0.00000000000E+00 -0.14434569942E+03  0.14434569951E+03  0.50400001928E-02 0.  1.
    10030    2    1    2    0    0  0.00000000000E+00  0.00000000000E+00  0.14135323106E+04  0.17022237096E+04  0.94841550189E+03 0.  0.
        1    1    3    3  502    0 -0.20371352504E+03 -0.36561731866E+03  0.30664968460E+03  0.51885378777E+03  0.50400001928E-02 0.  1.
       -1    1    3    3    0  502  0.20371352504E+03  0.36561731866E+03  0.11068826260E+04  0.11833699218E+04  0.50400001928E-02 0. -1.
</event>
<event>
 5   0  0.1924218E-02  0.9166310E+03  0.7818609E-02  0.9405027E-01
       -2   -1    0    0    0  501  0.00000000000E+00  0.00000000000E+00  0.87914019175E+02  0.87914019212E+02  0.25500000920E-02 0.  1.
        2   -1    0    0  501    0  0.00000000000E+00  0.00000000000E+00 -0.23893016551E+04  0.23893016551E+04  0.25500000920E-02 0. -1.
    10030    2    1    2    0    0  0.00000000000E+00  0.00000000000E+00 -0.23013876359E+04  0.24772156743E+04  0.91663103060E+03 0.  0.
        4    1    3    3  502    0 -0.12291243298E+03 -0.34147048826E+03 -0.39426786724E+03  0.53587155604E+03  0.12699999809E+01 0.  1.
       -4    1    3    3    0  502  0.12291243298E+03  0.34147048826E+03 -0.19071197687E+04  0.19413441183E+04  0.12699999809E+01 0. -1.
</event>
<event>
 5   0  0.1226424E-02  0.8998422E+03  0.7818609E-02  0.9425779E-01
        1   -1    0    0  501    0  0.00000000000E+00  0.00000000000E+00  0.97059856709E+03  0.97059856710E+03  0.50400001928E-02 0. -1.
       -1   -1    0    0    0  501  0.00000000000E+00  0.00000000000E+00 -0.20856099180E+03  0.20856099186E+03  0.50400001928E-02 0.  1.
    10030    2    1    2    0    0  0.00000000000E+00  0.00000000000E+00  0.76203757529E+03  0.11791595590E+04  0.89984220802E+03 0.  0.
        1    1    3    3  502    0  0.25215882716E+03 -0.30632163201E+03  0.65903510796E+03  0.76924917283E+03  0.50400001928E-02 0. -1.
       -1    1    3    3    0  502 -0.25215882716E+03  0.30632163201E+03  0.10300246733E+03  0.40991038613E+03  0.50400001928E-02 0.  1.
</event>
<event>
 5   0  0.2008643E-02  0.9297614E+03  0.7818609E-02  0.9389124E-01
       -2   -1    0    0    0  501  0.00000000000E+00  0.00000000000E+00  0.86070588203E+02  0.86070588241E+02  0.25500000920E-02 0. -1.
        2   -1    0    0  501    0  0.00000000000E+00  0.00000000000E+00 -0.25108932024E+04  0.25108932024E+04  0.25500000920E-02 0.  1.
    10030    2    1    2    0    0  0.00000000000E+00  0.00000000000E+00 -0.24248226142E+04  0.25969637907E+04  0.92976137777E+03 0.  0.
        3    1    3    3  502    0 -0.10387329773E+02 -0.34395985985E+03 -0.33936616068E+03  0.48330702771E+03  0.10100000352E+00 0. -1.
       -3    1    3    3    0  502  0.10387329773E+02  0.34395985985E+03 -0.20854564535E+04  0.21136567629E+04  0.10100000352E+00 0.  1.
</event>
<event>
 5   0  0.2008643E-02  0.8245838E+03  0.7818609E-02  0.9525099E-01
        2   -1    0    0  501    0  0.00000000000E+00  0.00000000000E+00  0.82923020140E+03  0.82923020140E+03  0.25500000920E-02 0. -1.
       -2   -1    0    0    0  501  0.00000000000E+00  0.00000000000E+00 -0.20499083530E+03  0.20499083532E+03  0.25500000920E-02 0.  1.
    10030    2    1    2    0    0  0.00000000000E+00  0.00000000000E+00  0.62423936610E+03  0.10342210367E+04  0.82458375355E+03 0.  0.
        3    1    3    3  502    0 -0.27806238308E+03  0.19118683732E+03  0.60922622708E+03  0.69643930217E+03  0.10100000352E+00 0. -1.
       -3    1    3    3    0  502  0.27806238308E+03 -0.19118683732E+03  0.15013139017E+02  0.33778173455E+03  0.10100000352E+00 0.  1.
</event>
<event>
 5   0  0.1175993E-02  0.8665622E+03  0.7818609E-02  0.9468373E-01
       -1   -1    0    0    0  501  0.00000000000E+00  0.00000000000E+00  0.42389230907E+03  0.42389230910E+03  0.50400001928E-02 0.  1.
        1   -1    0    0  501    0  0.00000000000E+00  0.00000000000E+00 -0.44287783493E+03  0.44287783496E+03  0.50400001928E-02 0. -1.
    10030    2    1    2    0    0  0.00000000000E+00  0.00000000000E+00 -0.18985525861E+02  0.86677014406E+03  0.86656219190E+03 0.  0.
        4    1    3    3  502    0 -0.36185786627E+03  0.23800132844E+03 -0.21543371163E+02  0.43364902567E+03  0.12699999809E+01 0. -1.
       -4    1    3    3    0  502  0.36185786627E+03 -0.23800132844E+03  0.25578453019E+01  0.43312111839E+03  0.12699999809E+01 0.  1.
</event>
<event>
 5   0  0.1226424E-02  0.8603538E+03  0.7818609E-02  0.9476545E-01
        1   -1    0    0  501    0  0.00000000000E+00  0.00000000000E+00  0.30254308312E+03  0.30254308316E+03  0.50400001928E-02 0.  1.
       -1   -1    0    0    0  501  0.00000000000E+00  0.00000000000E+00 -0.61165564341E+03  0.61165564344E+03  0.50400001928E-02 0. -1.
    10030    2    1    2    0    0  0.00000000000E+00  0.00000000000E+00 -0.30911256030E+03  0.91419872659E+03  0.86035384393E+03 0.  0.
        1    1    3    3  502    0 -0.34996852578E+03 -0.20830036425E+03 -0.30173545807E+03  0.50686418049E+03  0.50400001928E-02 0. -1.
       -1    1    3    3    0  502  0.34996852578E+03  0.20830036425E+03 -0.73771022239E+01  0.40733454610E+03  0.50400001928E-02 0.  1.
</event>
<event>
 5   0  0.2008770E-02  0.9268820E+03  0.7818609E-02  0.9392588E-01
        2   -1    0    0  501    0  0.00000000000E+00  0.00000000000E+00  0.14221347025E+04  0.14221347025E+04  0.25500000920E-02 0.  1.
       -2   -1    0    0    0  501  0.00000000000E+00  0.00000000000E+00 -0.15102475232E+03  0.15102475234E+03  0.25500000920E-02 0. -1.
    10030    2    1    2    0    0  0.00000000000E+00  0.00000000000E+00  0.12711099502E+04  0.15731594548E+04  0.92688195847E+03 0.  0.
        1    1    3    3  502    0  0.32212459301E+03  0.16601428146E+03  0.14524795462E+03  0.39041255541E+03  0.50400001928E-02 0. -1.
       -1    1    3    3    0  502 -0.32212459301E+03 -0.16601428146E+03  0.11258619956E+04  0.11827468994E+04  0.50400001928E-02 0.  1.
</event>
<event>
 5   0  0.1162839E-02  0.9055501E+03  0.7818609E-02  0.9418670E-01
       -1   -1    0    0    0  501  0.00000000000E+00  0.00000000000E+00  0.18081461106E+03  0.18081461113E+03  0.50400001928E-02 0. -1.
        1   -1    0    0  501    0  0.00000000000E+00  0.00000000000E+00 -0.11337869451E+04  0.11337869451E+04  0.50400001928E-02 0.  1.
    10030    2    1    2    0    0  0.00000000000E+00  0.00000000000E+00 -0.95297233401E+03  0.13146015562E+04  0.90555009922E+03 0.  0.
        2    1    3    3  502    0  0.34876210028E+03 -0.17443552301E+03 -0.81051491550E+03  0.89944270664E+03  0.25500000920E-02 0.  1.
       -2    1    3    3    0  502 -0.34876210028E+03  0.17443552301E+03 -0.14245741851E+03  0.41515884956E+03  0.25500000920E-02 0. -1.
</event>
<event>
 5   0  0.2041861E-02  0.8986209E+03  0.7818609E-02  0.9427307E-01
       -2   -1    0    0    0  501  0.00000000000E+00  0.00000000000E+00  0.55745605920E+03  0.55745605920E+03  0.25500000920E-02 0. -1.
        2   -1    0    0  501    0  0.00000000000E+00  0.00000000000E+00 -0.36214493004E+03  0.36214493005E+03  0.25500000920E-02 0.  1.
    10030    2    1    2    0    0  0.00000000000E+00  0.00000000000E+00  0.19531112916E+03  0.91960098925E+03  0.89862091132E+03 0.  0.
        5    1    3    3  502    0 -0.16513346160E+03 -0.24100532317E+03  0.44695308882E+03  0.53398668480E+03  0.46999998093E+01 0. -1.
       -5    1    3    3    0  502  0.16513346160E+03  0.24100532317E+03 -0.25164195967E+03  0.38561430445E+03  0.46999998093E+01 0.  1.
</event>
<event>
 5   0  0.1162839E-02  0.7042777E+03  0.7818609E-02  0.9709945E-01
        1   -1    0    0  501    0  0.00000000000E+00  0.00000000000E+00  0.25403913167E+03  0.25403913172E+03  0.50400001928E-02 0.  1.
       -1   -1    0    0    0  501  0.00000000000E+00  0.00000000000E+00 -0.48812080304E+03  0.48812080307E+03  0.50400001928E-02 0. -1.
    10030    2    1    2    0    0  0.00000000000E+00  0.00000000000E+00 -0.23408167137E+03  0.74215993479E+03  0.70427774346E+03 0.  0.
        2    1    3    3  502    0 -0.22845481481E+03  0.57893935267E+02 -0.39276012541E+03  0.45804347639E+03  0.25500000920E-02 0.  1.
       -2    1    3    3    0  502  0.22845481481E+03 -0.57893935267E+02  0.15867845404E+03  0.28411645839E+03  0.25500000920E-02 0. -1.
</event>
<event>
 5   0  0.1177712E-02  0.8582593E+03  0.7818609E-02  0.9479318E-01
       -1   -1    0    0    0  501  0.00000000000E+00  0.00000000000E+00  0.46237046012E+03  0.46237046015E+03  0.50400001928E-02 0. -1.
        1   -1    0    0  501    0  0.00000000000E+00  0.00000000000E+00 -0.39827858138E+03  0.39827858141E+03  0.50400001928E-02 0.  1.
    10030    2    1    2    0    0  0.00000000000E+00  0.00000000000E+00  0.64091878743E+02  0.86064904156E+03  0.85825928706E+03 0.  0.
        5    1    3    3  502    0 -0.31544332368E+03 -0.17547517014E+03 -0.20062194895E+03  0.41299792032E+03  0.46999998093E+01 0.  1.
       -5    1    3    3    0  502  0.31544332368E+03  0.17547517014E+03  0.26471382769E+03  0.44765112125E+03  0.46999998093E+01 0. -1.
</event>
<event>
 5   0  0.1226424E-02  0.8834314E+03  0.7818609E-02  0.9446533E-01
        1   -1    0    0  501    0  0.00000000000E+00  0.00000000000E+00  0.21863101404E+04  0.21863101404E+04  0.50400001928E-02 0.  1.
       -1   -1    0    0    0  501  0.00000000000E+00  0.00000000000E+00 -0.89242938643E+02  0.89242938785E+02  0.50400001928E-02 0. -1.
    10030    2    1    2    0    0  0.00000000000E+00  0.00000000000E+00  0.20970672018E+04  0.22755530792E+04  0.88343135983E+03 0.  0.
        1    1    3    3  502    0  0.37309555416E+03  0.15450347976E+03  0.58746236402E+03  0.71287000706E+03  0.50400001928E-02 0. -1.
       -1    1    3    3    0  502 -0.37309555416E+03 -0.15450347976E+03  0.15096048377E+04  0.15626830721E+04  0.50400001928E-02 0.  1.
</event>
<event>
 5   0  0.2041861E-02  0.1007928E+04  0.7818609E-02  0.9299892E-01
       -2   -1    0    0    0  501  0.00000000000E+00  0.00000000000E+00  0.27865709911E+03  0.27865709912E+03  0.25500000920E-02 0. -1.
        2   -1    0    0  501    0  0.00000000000E+00  0.00000000000E+00 -0.91144155803E+03  0.91144155803E+03  0.25500000920E-02 0.  1.
    10030    2    1    2    0    0  0.00000000000E+00  0.00000000000E+00 -0.63278445892E+03  0.11900986572E+04  0.10079278954E+04 0.  0.
        5    1    3    3  502    0 -0.39884862677E+03 -0.30628976289E+03 -0.27787908866E+03  0.57457160027E+03  0.46999998093E+01 0. -1.
       -5    1    3    3    0  502  0.39884862677E+03  0.30628976289E+03 -0.35490537026E+03  0.61552705689E+03  0.46999998093E+01 0.  1.
</event>
<event>
 5   0  0.1162839E-02  0.8883474E+03  0.7818609E-02  0.9440266E-01
        1   -1    0    0  501    0  0.00000000000E+00  0.00000000000E+00  0.49395304613E+03  0.49395304616E+03  0.50400001928E-02 0. -1.
       -1   -1    0    0    0  501  0.00000000000E+00  0.00000000000E+00 -0.39941096434E+03  0.39941096437E+03  0.50400001928E-02 0.  1.
    10030    2    1    2    0    0  0.00000000000E+00  0.00000000000E+00  0.94542081794E+02  0.89336401052E+03  0.88834737016E+03 0.  0.
        2    1    3    3  502    0 -0.26292844881E+03 -0.79407064129E+02  0.39831740398E+03  0.48383220785E+03  0.25500000920E-02 0. -1.
       -2    1    3    3    0  502  0.26292844881E+03  0.79407064129E+02 -0.30377532219E+03  0.40953180268E+03  0.25500000920E-02 0.  1.
</event>
<event>
 5   0  0.1206541E-02  0.8889460E+03  0.7818609E-02  0.9439506E-01
       -1   -1    0    0    0  501  0.00000000000E+00  0.00000000000E+00  0.24613016614E+03  0.24613016619E+03  0.50400001928E-02 0. -1.
        1   -1    0    0  501    0  0.00000000000E+00  0.00000000000E+00 -0.80264943825E+03  0.80264943827E+03  0.50400001928E-02 0.  1.
    10030    2    1    2    0    0  0.00000000000E+00  0.00000000000E+00 -0.55651927211E+03  0.10487796045E+04  0.88894598176E+03 0.  0.
        3    1    3    3  502    0  0.50144854265E+02  0.18960435916E+03 -0.74883903407E+03  0.77409574897E+03  0.10100000352E+00 0.  1.
       -3    1    3    3    0  502 -0.50144854265E+02 -0.18960435916E+03  0.19231976196E+03  0.27468385548E+03  0.10100000352E+00 0. -1.
</event>
<event>
 5   0  0.2008643E-02  0.9274809E+03  0.7818609E-02  0.9391866E-01
        2   -1    0    0  501    0  0.00000000000E+00  0.00000000000E+00  0.12835638088E+04  0.12835638088E+04  0.25500000920E-02 0.  1.
       -2   -1    0    0    0  501  0.00000000000E+00  0.00000000000E+00 -0.16754541204E+03  0.16754541206E+03  0.25500000920E-02 0. -1.
    10030    2    1    2    0    0  0.00000000000E+00  0.00000000000E+00  0.11160183968E+04  0.14511092209E+04  0.92748094804E+03 0.  0.
        3    1    3    3  502    0 -0.39784582908E+03 -0.60658257790E+02  0.19749711344E+03  0.44829214578E+03  0.10100000352E+00 0. -1.
       -3    1    3    3    0  502  0.39784582908E+03  0.60658257790E+02  0.91852128337E+03  0.10028170751E+04  0.10100000352E+00 0.  1.
</event>
<event>
 5   0  0.2041861E-02  0.9050322E+03  0.7818609E-02  0.9419313E-01
       -2   -1    0    0    0  501  0.00000000000E+00  0.00000000000E+00  0.53229890979E+03  0.53229890979E+03  0.25500000920E-02 0.  1.
        2   -1    0    0  501    0  0.00000000000E+00  0.00000000000E+00 -0.38469141107E+03  0.38469141108E+03  0.25500000920E-02 0. -1.
    10030    2    1    2    0    0  0.00000000000E+00  0.00000000000E+00  0.14760749871E+03  0.91699032088E+03  0.90503219551E+03 0.  0.
        5    1    3    3  502    0 -0.17813469866E+03  0.31476173599E+03 -0.20171157120E+03  0.41414558946E+03  0.46999998093E+01 0. -1.
       -5    1    3    3    0  502  0.17813469866E+03 -0.31476173599E+03  0.34931906991E+03  0.50284473142E+03  0.46999998093E+01 0.  1.
</event>
<event>
 5   0  0.2008770E-02  0.8899426E+03  0.7818609E-02  0.9438242E-01
        2   -1    0    0  501    0  0.00000000000E+00  0.00000000000E+00  0.56276220492E+03  0.56276220493E+03  0.25500000920E-02 0. -1.
       -2   -1    0    0    0  501  0.00000000000E+00  0.00000000000E+00 -0.35183499830E+03  0.35183499830E+03  0.25500000920E-02 0.  1.
    10030    2    1    2    0    0  0.00000000000E+00  0.00000000000E+00  0.21092720663E+03  0.91459720323E+03  0.88994255863E+03 0.  0.
        1    1    3    3  502    0  0.27115169441E+03 -0.99392099278E+02 -0.24243708783E+03  0.37706467929E+03  0.50400001928E-02 0.  1.
       -1    1    3    3    0  502 -0.27115169441E+03  0.99392099278E+02  0.45336429446E+03  0.53753252395E+03  0.50400001928E-02 0. -1.
</event>
<event>
 5   0  0.1175993E-02  0.9028777E+03  0.7818609E-02  0.9421991E-01
       -1   -1    0    0    0  501  0.00000000000E+00  0.00000000000E+00  0.21772971109E+03  0.21772971115E+03  0.50400001928E-02 0.  1.
        1   -1    0    0  501    0  0.00000000000E+00  0.00000000000E+00 -0.93600923410E+03  0.93600923411E+03  0.50400001928E-02 0. -1.
    10030    2    1    2    0    0  0.00000000000E+00  0.00000000000E+00 -0.71827952301E+03  0.11537389453E+04  0.90287766648E+03 0.  0.
        4    1    3    3  502    0  0.97876651545E+02  0.23396064458E+03 -0.83637386908E+03  0.87397956721E+03  0.12699999809E+01 0. -1.
       -4    1    3    3    0  502 -0.97876651545E+02 -0.23396064458E+03  0.11809434607E+03  0.27975937804E+03  0.12699999809E+01 0.  1.
</event>
<event>
 5   0  0.1206541E-02  0.9349686E+03  0.7818609E-02  0.9382895E-01
        1   -1    0    0  501    0  0.00000000000E+00  0.00000000000E+00  0.14401269723E+04  0.14401269723E+04  0.50400001928E-02 0. -1.
       -1   -1    0    0    0  501  0.00000000000E+00  0.00000000000E+00 -0.15175158299E+03  0.15175158307E+03  0.50400001928E-02 0.  1.
    10030    2    1    2    0    0  0.00000000000E+00  0.00000000000E+00  0.12883753893E+04  0.15918785554E+04  0.93496855097E+03 0.  0.
        3    1    3    3  502    0 -0.39972674769E+03  0.18481348746E+03  0.91125217991E+03  0.10120859862E+04  0.10100000352E+00 0. -1.
       -3    1    3    3    0  502  0.39972674769E+03 -0.18481348746E+03  0.37712320943E+03  0.57979256916E+03  0.10100000352E+00 0.  1.
</event>
<event>
 5   0  0.1226424E-02  0.8853624E+03  0.7818609E-02  0.9444066E-01
       -1   -1    0    0    0  501  0.00000000000E+00  0.00000000000E+00  0.53466537102E+03  0.53466537104E+03  0.50400001928E-02 0.  1.
        1   -1    0    0  501    0  0.00000000000E+00  0.00000000000E+00 -0.36652208360E+03  0.36652208364E+03  0.50400001928E-02 0. -1.
    10030    2    1    2    0    0  0.00000000000E+00  0.00000000000E+00  0.16814328741E+03  0.90118745468E+03  0.88536244746E+03 0.  0.
        1    1    3    3  502    0 -0.39007897638E+02 -0.44079593049E+03  0.71857265303E+02  0.44831477225E+03  0.50400001928E-02 0. -1.
       -1    1    3    3    0  502  0.39007897638E+02  0.44079593049E+03  0.96286022109E+02  0.45287268243E+03  0.50400001928E-02 0.  1.
</event>
<event>
 5   0  0.1968763E-02  0.7826159E+03  0.7818609E-02  0.9585526E-01
       -2   -1    0    0    0  501  0.00000000000E+00  0.00000000000E+00  0.22996641505E+03  0.22996641506E+03  0.25500000920E-02 0.  1.
        2   -1    0    0  501    0  0.00000000000E+00  0.00000000000E+00 -0.66584465924E+03  0.66584465924E+03  0.25500000920E-02 0. -1.
    10030    2    1    2    0    0  0.00000000000E+00  0.00000000000E+00 -0.43587824419E+03  0.89581107431E+03  0.78261589371E+03 0.  0.
        2    1    3    3  502    0  0.27160650457E+03 -0.49693056394E+02 -0.53532037847E+03  0.60233495730E+03  0.25500000920E-02 0. -1.
       -2    1    3    3    0  502 -0.27160650457E+03  0.49693056394E+02  0.99442134279E+02  0.29347611701E+03  0.25500000920E-02 0.  1.
</event>
<event>
 5   0  0.1226424E-02  0.8790648E+03  0.7818609E-02  0.9452137E-01
       -1   -1    0    0    0  501  0.00000000000E+00  0.00000000000E+00  0.61313786685E+03  0.61313786687E+03  0.50400001928E-02 0.  1.
        1   -1    0    0  501    0  0.00000000000E+00  0.00000000000E+00 -0.31508204664E+03  0.31508204668E+03  0.50400001928E-02 0. -1.
    10030    2    1    2    0    0  0.00000000000E+00  0.00000000000E+00  0.29805582022E+03  0.92821991355E+03  0.87906480759E+03 0.  0.
        1    1    3    3  502    0  0.41469120600E+03  0.11509297021E+03  0.24331576058E+03  0.49438623312E+03  0.50400001928E-02 0. -1.
       -1    1    3    3    0  502 -0.41469120600E+03 -0.11509297021E+03  0.54740059633E+02  0.43383368043E+03  0.50400001928E-02 0.  1.
</event>
<event>
 5   0  0.7893875E-03  0.8796207E+03  0.7818609E-02  0.9451421E-01
        4   -1    0    0  501    0  0.00000000000E+00  0.00000000000E+00  0.62671834001E+03  0.62671962679E+03  0.12699999809E+01 0.  1.
       -4   -1    0    0    0  501  0.00000000000E+00  0.00000000000E+00 -0.30864153457E+03  0.30864414747E+03  0.12699999809E+01 0. -1.
    10030    2    1    2    0    0  0.00000000000E+00  0.00000000000E+00  0.31807680544E+03  0.93536377426E+03  0.87962067736E+03 0.  0.
        2    1    3    3  502    0 -0.11371385627E+03  0.42480767619E+03  0.16582494293E+03  0.46998969623E+03  0.25500000920E-02 0.  1.
       -2    1    3    3    0  502  0.11371385627E+03 -0.42480767619E+03  0.15225186251E+03  0.46537407803E+03  0.25500000920E-02 0. -1.
</event>
<event>
 5   0  0.1175993E-02  0.8988980E+03  0.7818609E-02  0.9426960E-01
        1   -1    0    0  501    0  0.00000000000E+00  0.00000000000E+00  0.17189109429E+04  0.17189109429E+04  0.50400001928E-02 0.  1.
       -1   -1    0    0    0  501  0.00000000000E+00  0.00000000000E+00 -0.11751882586E+03  0.11751882597E+03  0.50400001928E-02 0. -1.
    10030    2    1    2    0    0  0.00000000000E+00  0.00000000000E+00  0.16013921170E+04  0.18364297689E+04  0.89889798280E+03 0.  0.
        4    1    3    3  502    0 -0.29314313370E+03 -0.61277697774E+02  0.14853682098E+04  0.15152584547E+04  0.12699999809E+01 0.  1.
       -4    1    3    3    0  502  0.29314313370E+03  0.61277697774E+02  0.11602390726E+03  0.32117131415E+03  0.12699999809E+01 0. -1.
</event>
<event>
 5   0  0.2008770E-02  0.9024302E+03  0.7818609E-02  0.9422549E-01
        2   -1    0    0  501    0  0.00000000000E+00  0.00000000000E+00  0.11220141449E+04  0.11220141450E+04  0.25500000920E-02 0. -1.
       -2   -1    0    0    0  501  0.00000000000E+00  0.00000000000E+00 -0.18145499180E+03  0.18145499182E+03  0.25500000920E-02 0.  1.
    10030    2    1    2    0    0  0.00000000000E+00  0.00000000000E+00  0.94055915315E+03  0.13034691368E+04  0.90243020225E+03 0.  0.
        1    1    3    3  502    0  0.30266336432E+03 -0.31727600179E+03  0.62399709973E+03  0.76265428204E+03  0.50400001928E-02 0.  1.
       -1    1    3    3    0  502 -0.30266336432E+03  0.31727600179E+03  0.31656205342E+03  0.54081485473E+03  0.50400001928E-02 0. -1.
</event>
<event>
 5   0  0.2008643E-02  0.9005347E+03  0.7818609E-02  0.9424913E-01
       -2   -1    0    0    0  501  0.00000000000E+00  0.00000000000E+00  0.32030662666E+03  0.32030662667E+03  0.25500000920E-02 0. -1.
        2   -1    0    0  501    0  0.00000000000E+00  0.00000000000E+00 -0.63295809729E+03  0.63295809730E+03  0.25500000920E-02 0.  1.
    10030    2    1    2    0    0  0.00000000000E+00  0.00000000000E+00 -0.31265147063E+03  0.95326472397E+03  0.90053467000E+03 0.  0.
        3    1    3    3  502    0 -0.21819234173E+03  0.32140600266E+03  0.84669054380E+02  0.39759096507E+03  0.10100000352E+00 0. -1.
       -3    1    3    3    0  502  0.21819234173E+03 -0.32140600266E+03 -0.39732052501E+03  0.55567375890E+03  0.10100000352E+00 0.  1.
</event>
<event>
 5   0  0.7893875E-03  0.9199055E+03  0.7818609E-02  0.9401035E-01
        4   -1    0    0  501    0  0.00000000000E+00  0.00000000000E+00  0.25561889138E+03  0.25562204625E+03  0.12699999809E+01 0.  1.
       -4   -1    0    0    0  501  0.00000000000E+00  0.00000000000E+00 -0.82761610022E+03  0.82761707464E+03  0.12699999809E+01 0. -1.
    10030    2    1    2    0    0  0.00000000000E+00  0.00000000000E+00 -0.57199720884E+03  0.10832391209E+04  0.91990553108E+03 0.  0.
        5    1    3    3  502    0 -0.44456687564E+03 -0.78769172925E+02 -0.38926261581E+03  0.59614743444E+03  0.46999998093E+01 0.  1.
       -5    1    3    3    0  502  0.44456687564E+03  0.78769172925E+02 -0.18273459302E+03  0.48709168645E+03  0.46999998093E+01 0. -1.
</event>
<event>
 5   0  0.7893875E-03  0.8996912E+03  0.7818609E-02  0.9425967E-01
        3   -1    0    0  501    0  0.00000000000E+00  0.00000000000E+00  0.81615879239E+02  0.81615941733E+02  0.10100000352E+00 0. -1.
       -3   -1    0    0    0  501  0.00000000000E+00  0.00000000000E+00 -0.24794316972E+04  0.24794316993E+04  0.10100000352E+00 0.  1.
    10030    2    1    2    0    0  0.00000000000E+00  0.00000000000E+00 -0.23978158180E+04  0.25610476410E+04  0.89969123734E+03 0.  0.
        2    1    3    3  502    0 -0.80187575079E+01 -0.22864870811E+03 -0.23014463773E+04  0.23127905136E+04  0.25500000920E-02 0.  1.
       -2    1    3    3    0  502  0.80187575079E+01  0.22864870811E+03 -0.96369440636E+02  0.24825712737E+03  0.25500000920E-02 0. -1.
</event>
<event>
 5   0  0.1177712E-02  0.8575632E+03  0.7818609E-02  0.9480242E-01
       -1   -1    0    0    0  501  0.00000000000E+00  0.00000000000E+00  0.33426470695E+03  0.33426470699E+03  0.50400001928E-02 0.  1.
        1   -1    0    0  501    0  0.00000000000E+00  0.00000000000E+00 -0.55002410670E+03  0.55002410672E+03  0.50400001928E-02 0. -1.
    10030    2    1    2    0    0  0.00000000000E+00  0.00000000000E+00 -0.21575939974E+03  0.88428881371E+03  0.85756316822E+03 0.  0.
        5    1    3    3  502    0  0.27731428565E+03 -0.31557158741E+03 -0.19624104585E+03  0.46370386874E+03  0.46999998093E+01 0. -1.
       -5    1    3    3    0  502 -0.27731428565E+03  0.31557158741E+03 -0.19518353893E+02  0.42058494498E+03  0.46999998093E+01 0.  1.
</event>
<event>
 5   0  0.2041861E-02  0.8820463E+03  0.7818609E-02  0.9448307E-01
        2   -1    0    0  501    0  0.00000000000E+00  0.00000000000E+00  0.27493429670E+03  0.27493429671E+03  0.25500000920E-02 0.  1.
       -2   -1    0    0    0  501  0.00000000000E+00  0.00000000000E+00 -0.70744694624E+03  0.70744694625E+03  0.25500000920E-02 0. -1.
    10030    2    1    2    0    0  0.00000000000E+00  0.00000000000E+00 -0.43251264954E+03  0.98238124296E+03  0.88204632220E+03 0.  0.
        5    1    3    3  502    0  0.93987597486E+02 -0.87751807336E+02 -0.68607677575E+03  0.69803830869E+03  0.46999998093E+01 0. -1.
       -5    1    3    3    0  502 -0.93987597486E+02  0.87751807336E+02  0.25356412621E+03  0.28434293427E+03  0.46999998093E+01 0.  1.
</event>
<event>
 5   0  0.2008770E-02  0.9041262E+03  0.7818609E-02  0.9420438E-01
        2   -1    0    0  501    0  0.00000000000E+00  0.00000000000E+00  0.18822176200E+04  0.18822176200E+04  0.25500000920E-02 0.  1.
       -2   -1    0    0    0  501  0.00000000000E+00  0.00000000000E+00 -0.10857461057E+03  0.10857461060E+03  0.25500000920E-02 0. -1.
    10030    2    1    2    0    0  0.00000000000E+00  0.00000000000E+00  0.17736430094E+04  0.19907922306E+04  0.90412619725E+03 0.  0.
        1    1    3    3  502    0  0.16550567547E+03 -0.12544100121E+03  0.26744863672E+01  0.20768901343E+03  0.50400001928E-02 0. -1.
       -1    1    3    3    0  502 -0.16550567547E+03  0.12544100121E+03  0.17709685231E+04  0.17831032172E+04  0.50400001928E-02 0.  1.
</event>
<event>
 5   0  0.1177712E-02  0.8959978E+03  0.7818609E-02  0.9430598E-01
       -1   -1    0    0    0  501  0.00000000000E+00  0.00000000000E+00  0.31150515840E+03  0.31150515844E+03  0.50400001928E-02 0. -1.
        1   -1    0    0  501    0  0.00000000000E+00  0.00000000000E+00 -0.64430071105E+03  0.64430071107E+03  0.50400001928E-02 0.  1.
    10030    2    1    2    0    0  0.00000000000E+00  0.00000000000E+00 -0.33279555266E+03  0.95580586951E+03  0.89599775687E+03 0.  0.
        5    1    3    3  502    0 -0.12127691752E+03 -0.95474029604E+02  0.28221799884E+03  0.32170245557E+03  0.46999998093E+01 0. -1.
       -5    1    3    3    0  502  0.12127691752E+03  0.95474029604E+02 -0.61501355150E+03  0.63410341394E+03  0.46999998093E+01 0.  1.
</event>
<event>
 5   0  0.1162839E-02  0.8636319E+03  0.7818609E-02  0.9472221E-01
       -1   -1    0    0    0  501  0.00000000000E+00  0.00000000000E+00  0.33006044948E+03  0.33006044952E+03  0.50400001928E-02 0. -1.
        1   -1    0    0  501    0  0.00000000000E+00  0.00000000000E+00 -0.56494202272E+03  0.56494202275E+03  0.50400001928E-02 0.  1.
    10030    2    1    2    0    0  0.00000000000E+00  0.00000000000E+00 -0.23488157324E+03  0.89500247227E+03  0.86363190765E+03 0.  0.
        2    1    3    3  502    0 -0.10387265898E+03 -0.26724609419E+03 -0.45205472742E+03  0.53531624367E+03  0.25500000920E-02 0.  1.
       -2    1    3    3    0  502  0.10387265898E+03  0.26724609419E+03  0.21717315418E+03  0.35968622860E+03  0.25500000920E-02 0. -1.
</event>
<event>
 5   0  0.1924218E-02  0.9024796E+03  0.7818609E-02  0.9422487E-01
       -2   -1    0    0    0  501  0.00000000000E+00  0.00000000000E+00  0.18558999432E+03  0.18558999434E+03  0.25500000920E-02 0.  1.
        2   -1    0    0  501    0  0.00000000000E+00  0.00000000000E+00 -0.10971353695E+04  0.10971353695E+04  0.25500000920E-02 0. -1.
    10030    2    1    2    0    0  0.00000000000E+00  0.00000000000E+00 -0.91154537518E+03  0.12827253638E+04  0.90247957762E+03 0.  0.
        4    1    3    3  502    0 -0.95668027725E+02  0.35535946378E+03 -0.84635564327E+02  0.37762085705E+03  0.12699999809E+01 0.  1.
       -4    1    3    3    0  502  0.95668027725E+02 -0.35535946378E+03 -0.82690981085E+03  0.90510450679E+03  0.12699999809E+01 0. -1.
</event>
<event>
 5   0  0.2008770E-02  0.9075952E+03  0.7818609E-02  0.9416137E-01
       -2   -1    0    0    0  501  0.00000000000E+00  0.00000000000E+00  0.13947717636E+03  0.13947717638E+03  0.25500000920E-02 0. -1.
        2   -1    0    0  501    0  0.00000000000E+00  0.00000000000E+00 -0.14764583960E+04  0.14764583960E+04  0.25500000920E-02 0.  1.
    10030    2    1    2    0    0  0.00000000000E+00  0.00000000000E+00 -0.13369812196E+04  0.16159355723E+04  0.90759516988E+03 0.  0.
        1    1    3    3  502    0  0.44614113057E+03 -0.78345402155E+02 -0.71732640473E+03  0.84837319699E+03  0.50400001928E-02 0.  1.
       -1    1    3    3    0  502 -0.44614113057E+03  0.78345402155E+02 -0.61965481487E+03  0.76756237535E+03  0.50400001928E-02 0. -1.
</event>
<event>
 5   0  0.2041861E-02  0.9016090E+03  0.7818609E-02  0.9423572E-01
        2   -1    0    0  501    0  0.00000000000E+00  0.00000000000E+00  0.99634863414E+03  0.99634863414E+03  0.25500000920E-02 0. -1.
       -2   -1    0    0    0  501  0.00000000000E+00  0.00000000000E+00 -0.20396946500E+03  0.20396946502E+03  0.25500000920E-02 0.  1.
    10030    2    1    2    0    0  0.00000000000E+00  0.00000000000E+00  0.79237916914E+03  0.12003180992E+04  0.90160900144E+03 0.  0.
        5    1    3    3  502    0  0.61584767194E+02  0.44302529729E+03  0.32160657679E+03  0.55092374956E+03  0.46999998093E+01 0.  1.
       -5    1    3    3    0  502 -0.61584767194E+02 -0.44302529729E+03  0.47077259235E+03  0.64939434960E+03  0.46999998093E+01 0. -1.
</event>
<event>
 5   0  0.2041861E-02  0.9205699E+03  0.7818609E-02  0.9400227E-01
       -2   -1    0    0    0  501  0.00000000000E+00  0.00000000000E+00  0.11624401528E+03  0.11624401531E+03  0.25500000920E-02 0. -1.
        2   -1    0    0  501    0  0.00000000000E+00  0.00000000000E+00 -0.18225648129E+04  0.18225648129E+04  0.25500000920E-02 0.  1.
    10030    2    1    2    0    0  0.00000000000E+00  0.00000000000E+00 -0.17063207976E+04  0.19388088282E+04  0.92056993649E+03 0.  0.
        5    1    3    3  502    0  0.38129932258E+02 -0.40202813299E+03 -0.13182198694E+04  0.13786972930E+04  0.46999998093E+01 0.  1.
       -5    1    3    3    0  502 -0.38129932258E+02  0.40202813299E+03 -0.38810092812E+03  0.56011153519E+03  0.46999998093E+01 0. -1.
</event>
<event>
 5   0  0.2041861E-02  0.9144227E+03  0.7818609E-02  0.9407730E-01
       -2   -1    0    0    0  501  0.00000000000E+00  0.00000000000E+00  0.42617117627E+03  0.42617117628E+03  0.25500000920E-02 0. -1.
        2   -1    0    0  501    0  0.00000000000E+00  0.00000000000E+00 -0.49051229805E+03  0.49051229806E+03  0.25500000920E-02 0.  1.
    10030    2    1    2    0    0  0.00000000000E+00  0.00000000000E+00 -0.64341121784E+02  0.91668347433E+03  0.91442266604E+03 0.  0.
        5    1    3    3  502    0  0.26441811019E+03  0.34961758654E+02 -0.40441172523E+03  0.48446898257E+03  0.46999998093E+01 0.  1.
       -5    1    3    3    0  502 -0.26441811019E+03 -0.34961758654E+02  0.34007060345E+03  0.43221449177E+03  0.46999998093E+01 0. -1.
</event>
<event>
 5   0  0.1177712E-02  0.8669136E+03  0.7818609E-02  0.9467913E-01
       -1   -1    0    0    0  501  0.00000000000E+00  0.00000000000E+00  0.18139843967E+03  0.18139843974E+03  0.50400001928E-02 0.  1.
        1   -1    0    0  501    0  0.00000000000E+00  0.00000000000E+00 -0.10357574313E+04  0.10357574313E+04  0.50400001928E-02 0. -1.
    10030    2    1    2    0    0  0.00000000000E+00  0.00000000000E+00 -0.85435899162E+03  0.12171558710E+04  0.86691356424E+03 0.  0.
        5    1    3    3  502    0  0.11765981098E+03 -0.36932739242E+03 -0.15487331259E+03  0.41743788383E+03  0.46999998093E+01 0.  1.
       -5    1    3    3    0  502 -0.11765981098E+03  0.36932739242E+03 -0.69948567903E+03  0.79971798722E+03  0.46999998093E+01 0. -1.
</event>
<event>
 5   0  0.2008770E-02  0.8960845E+03  0.7818609E-02  0.9430489E-01
        2   -1    0    0  501    0  0.00000000000E+00  0.00000000000E+00  0.73070757021E+03  0.73070757021E+03  0.25500000920E-02 0. -1.
       -2   -1    0    0    0  501  0.00000000000E+00  0.00000000000E+00 -0.27472253595E+03  0.27472253596E+03  0.25500000920E-02 0.  1.
    10030    2    1    2    0    0  0.00000000000E+00  0.00000000000E+00  0.45598503426E+03  0.10054301062E+04  0.89608445302E+03 0.  0.
        1    1    3    3  502    0  0.37474828716E+03  0.66266302435E+02  0.49330917967E+03  0.62304209195E+03  0.50400001928E-02 0. -1.
       -1    1    3    3    0  502 -0.37474828716E+03 -0.66266302435E+02 -0.37324145418E+02  0.38238801422E+03  0.50400001928E-02 0.  1.
</event>
<event>
 5   0  0.1162839E-02  0.9002441E+03  0.7818609E-02  0.9425276E-01
       -1   -1    0    0    0  501  0.00000000000E+00  0.00000000000E+00  0.21266522915E+03  0.21266522921E+03  0.50400001928E-02 0. -1.
        1   -1    0    0  501    0  0.00000000000E+00  0.00000000000E+00 -0.95271744207E+03  0.95271744209E+03  0.50400001928E-02 0.  1.
    10030    2    1    2    0    0  0.00000000000E+00  0.00000000000E+00 -0.74005221293E+03  0.11653826713E+04  0.90024412950E+03 0.  0.
        2    1    3    3  502    0 -0.17185198414E+03  0.92715562261E+01 -0.90844435421E+03  0.92460273140E+03  0.25500000920E-02 0.  1.
       -2    1    3    3    0  502  0.17185198414E+03 -0.92715562261E+01  0.16839214128E+03  0.24077993990E+03  0.25500000920E-02 0. -1.
</event>
<event>
 5   0  0.1162839E-02  0.8935868E+03  0.7818609E-02  0.9433634E-01
        1   -1    0    0  501    0  0.00000000000E+00  0.00000000000E+00  0.41999413106E+03  0.41999413109E+03  0.50400001928E-02 0.  1.
       -1   -1    0    0    0  501  0.00000000000E+00  0.00000000000E+00 -0.47530272261E+03  0.47530272263E+03  0.50400001928E-02 0. -1.
    10030    2    1    2    0    0  0.00000000000E+00  0.00000000000E+00 -0.55308591544E+02  0.89529685373E+03  0.89358682622E+03 0.  0.
        2    1    3    3  502    0 -0.15672250290E+02 -0.36701207611E+03 -0.28246532909E+03  0.46338984191E+03  0.25500000920E-02 0. -1.
       -2    1    3    3    0  502  0.15672250290E+02  0.36701207611E+03  0.22715673755E+03  0.43190701182E+03  0.25500000920E-02 0.  1.
</event>
<event>
 5   0  0.1206541E-02  0.8881650E+03  0.7818609E-02  0.9440498E-01
        1   -1    0    0  501    0  0.00000000000E+00  0.00000000000E+00  0.15478935865E+04  0.15478935865E+04  0.50400001928E-02 0. -1.
       -1   -1    0    0    0  501  0.00000000000E+00  0.00000000000E+00 -0.12740492516E+03  0.12740492526E+03  0.50400001928E-02 0.  1.
    10030    2    1    2    0    0  0.00000000000E+00  0.00000000000E+00  0.14204886613E+04  0.16752985117E+04  0.88816499960E+03 0.  0.
        3    1    3    3  502    0  0.30721875905E+03  0.17233816006E+02  0.13142230926E+04  0.13497639489E+04  0.10100000352E+00 0. -1.
       -3    1    3    3    0  502 -0.30721875905E+03 -0.17233816006E+02  0.10626556871E+03  0.32553456287E+03  0.10100000352E+00 0.  1.
</event>
<event>
 5   0  0.2008770E-02  0.9193850E+03  0.7818609E-02  0.9401669E-01
        2   -1    0    0  501    0  0.00000000000E+00  0.00000000000E+00  0.14847172527E+04  0.14847172527E+04  0.25500000920E-02 0.  1.
       -2   -1    0    0    0  501  0.00000000000E+00  0.00000000000E+00 -0.14232822743E+03  0.14232822745E+03  0.25500000920E-02 0. -1.
    10030    2    1    2    0    0  0.00000000000E+00  0.00000000000E+00  0.13423890253E+04  0.16270454802E+04  0.91938495709E+03 0.  0.
        1    1    3    3  502    0 -0.12654751660E+03 -0.84099699575E+02 -0.96603322764E+02  0.18005342380E+03  0.50400001928E-02 0. -1.
       -1    1    3    3    0  502  0.12654751660E+03  0.84099699575E+02  0.14389923481E+04  0.14469920564E+04  0.50400001928E-02 0.  1.
</event>
<event>
 5   0  0.1175993E-02  0.8857536E+03  0.7818609E-02  0.9443567E-01
        1   -1    0    0  501    0  0.00000000000E+00  0.00000000000E+00  0.63341773336E+03  0.63341773338E+03  0.50400001928E-02 0.  1.
       -1   -1    0    0    0  501  0.00000000000E+00  0.00000000000E+00 -0.30965324524E+03  0.30965324529E+03  0.50400001928E-02 0. -1.
    10030    2    1    2    0    0  0.00000000000E+00  0.00000000000E+00  0.32376448811E+03  0.94307097866E+03  0.88575359273E+03 0.  0.
        4    1    3    3  502    0  0.76270505614E+02  0.37673719490E+03  0.39609465048E+03  0.55194265018E+03  0.12699999809E+01 0.  1.
       -4    1    3    3    0  502 -0.76270505614E+02 -0.37673719490E+03 -0.72330162374E+02  0.39112832848E+03  0.12699999809E+01 0. -1.
</event>
<event>
 5   0  0.1175993E-02  0.8920568E+03  0.7818609E-02  0.9435566E-01
       -1   -1    0    0    0  501  0.00000000000E+00  0.00000000000E+00  0.73987983475E+02  0.73987983647E+02  0.50400001928E-02 0.  1.
        1   -1    0    0  501    0  0.00000000000E+00  0.00000000000E+00 -0.26888327286E+04  0.26888327286E+04  0.50400001928E-02 0. -1.
    10030    2    1    2    0    0  0.00000000000E+00  0.00000000000E+00 -0.26148447451E+04  0.27628207122E+04  0.89205675096E+03 0.  0.
        4    1    3    3  502    0  0.26584314636E+03 -0.20988921122E+03 -0.40864643447E+03  0.53077262623E+03  0.12699999809E+01 0.  1.
       -4    1    3    3    0  502 -0.26584314636E+03  0.20988921122E+03 -0.22061983106E+04  0.22320480860E+04  0.12699999809E+01 0. -1.
</event>
<event>
 5   0  0.1177712E-02  0.9008730E+03  0.7818609E-02  0.9424491E-01
       -1   -1    0    0    0  501  0.00000000000E+00  0.00000000000E+00  0.51578781874E+03  0.51578781876E+03  0.50400001928E-02 0. -1.
        1   -1    0    0  501    0  0.00000000000E+00  0.00000000000E+00 -0.39336527965E+03  0.39336527969E+03  0.50400001928E-02 0.  1.
    10030    2    1    2    0    0  0.00000000000E+00  0.00000000000E+00  0.12242253909E+03  0.90915309845E+03  0.90087295350E+03 0.  0.
        5    1    3    3  502    0  0.22106404322E+02  0.37489687073E+02 -0.39121352183E+03  0.39365502589E+03  0.46999998093E+01 0.  1.
       -5    1    3    3    0  502 -0.22106404322E+02 -0.37489687073E+02  0.51363606091E+03  0.51549807256E+03  0.46999998093E+01 0. -1.
</event>
<event>
 5   0  0.1968763E-02  0.8963401E+03  0.7818609E-02  0.9430168E-01
        2   -1    0    0  501    0  0.00000000000E+00  0.00000000000E+00  0.21196680384E+04  0.21196680384E+04  0.25500000920E-02 0.  1.
       -2   -1    0    0    0  501  0.00000000000E+00  0.00000000000E+00 -0.94758412816E+02  0.94758412850E+02  0.25500000920E-02 0. -1.
    10030    2    1    2    0    0  0.00000000000E+00  0.00000000000E+00  0.20249096256E+04  0.22144264513E+04  0.89634006729E+03 0.  0.
        2    1    3    3  502    0 -0.21743070891E+03 -0.26669545997E+03  0.30305057031E+03  0.45852178761E+03  0.25500000920E-02 0. -1.
       -2    1    3    3    0  502  0.21743070891E+03  0.26669545997E+03  0.17218590553E+04  0.17559046637E+04  0.25500000920E-02 0.  1.
</event>
<event>
 5   0  0.1924218E-02  0.9053884E+03  0.7818609E-02  0.9418871E-01
       -2   -1    0    0    0  501  0.00000000000E+00  0.00000000000E+00  0.13514564244E+03  0.13514564246E+03  0.25500000920E-02 0.  1.
        2   -1    0    0  501    0  0.00000000000E+00  0.00000000000E+00 -0.15163792357E+04  0.15163792357E+04  0.25500000920E-02 0. -1.
    10030    2    1    2    0    0  0.00000000000E+00  0.00000000000E+00 -0.13812335933E+04  0.16515248782E+04  0.90538841613E+03 0.  0.
        4    1    3    3  502    0  0.30623185980E+01  0.44782091384E+03 -0.81130435263E+03  0.92669807066E+03  0.12699999809E+01 0. -1.
       -4    1    3    3    0  502 -0.30623185980E+01 -0.44782091384E+03 -0.56992924064E+03  0.72482680752E+03  0.12699999809E+01 0.  1.
</event>
<event>
 5   0  0.2041861E-02  0.8865177E+03  0.7818609E-02  0.9442594E-01
       -2   -1    0    0    0  501  0.00000000000E+00  0.00000000000E+00  0.43032973886E+03  0.43032973887E+03  0.25500000920E-02 0.  1.
        2   -1    0    0  501    0  0.00000000000E+00  0.00000000000E+00 -0.45657645549E+03  0.45657645550E+03  0.25500000920E-02 0. -1.
    10030    2    1    2    0    0  0.00000000000E+00  0.00000000000E+00 -0.26246716631E+02  0.88690619436E+03  0.88651774233E+03 0.  0.
        5    1    3    3  502    0 -0.57375875935E+02 -0.82980378918E+02 -0.44491252487E+03  0.45623127820E+03  0.46999998093E+01 0. -1.
       -5    1    3    3    0  502  0.57375875935E+02  0.82980378918E+02  0.41866580824E+03  0.43067491616E+03  0.46999998093E+01 0.  1.
</event>
<event>
 5   0  0.2008643E-02  0.8948366E+03  0.7818609E-02  0.9432059E-01
       -2   -1    0    0    0  501  0.00000000000E+00  0.00000000000E+00  0.39644856126E+03  0.39644856127E+03  0.25500000920E-02 0.  1.
        2   -1    0    0  501    0  0.00000000000E+00  0.00000000000E+00 -0.50494096933E+03  0.50494096934E+03  0.25500000920E-02 0. -1.
    10030    2    1    2    0    0  0.00000000000E+00  0.00000000000E+00 -0.10849240807E+03  0.90138953061E+03  0.89483656792E+03 0.  0.
        3    1    3    3  502    0 -0.33989180672E+03  0.28421144445E+03 -0.11699624873E+03  0.45824744173E+03  0.10100000352E+00 0. -1.
       -3    1    3    3    0  502  0.33989180672E+03 -0.28421144445E+03  0.85038406628E+01  0.44314208888E+03  0.10100000352E+00 0.  1.
</event>
<event>
 5   0  0.2041861E-02  0.8302399E+03  0.7818609E-02  0.9517249E-01
        2   -1    0    0  501    0  0.00000000000E+00  0.00000000000E+00  0.52284591421E+03  0.52284591422E+03  0.25500000920E-02 0.  1.
       -2   -1    0    0    0  501  0.00000000000E+00  0.00000000000E+00 -0.32958957953E+03  0.32958957954E+03  0.25500000920E-02 0. -1.
    10030    2    1    2    0    0  0.00000000000E+00  0.00000000000E+00  0.19325633468E+03  0.85243549376E+03  0.83023988108E+03 0.  0.
        5    1    3    3  502    0 -0.36795382595E+03 -0.14470131692E+03 -0.33138927392E+02  0.39679814472E+03  0.46999998093E+01 0. -1.
       -5    1    3    3    0  502  0.36795382595E+03  0.14470131692E+03  0.22639526208E+03  0.45563734904E+03  0.46999998093E+01 0.  1.
</event>
<event>
 5   0  0.1968763E-02  0.8952260E+03  0.7818609E-02  0.9431569E-01
        2   -1    0    0  501    0  0.00000000000E+00  0.00000000000E+00  0.15085287019E+04  0.15085287019E+04  0.25500000920E-02 0. -1.
       -2   -1    0    0    0  501  0.00000000000E+00  0.00000000000E+00 -0.13281641675E+03  0.13281641677E+03  0.25500000920E-02 0.  1.
    10030    2    1    2    0    0  0.00000000000E+00  0.00000000000E+00  0.13757122852E+04  0.16413451187E+04  0.89522595309E+03 0.  0.
        2    1    3    3  502    0 -0.29914362655E+03 -0.30703766150E+03  0.92406685891E+03  0.10186552874E+04  0.25500000920E-02 0.  1.
       -2    1    3    3    0  502  0.29914362655E+03  0.30703766150E+03  0.45164542627E+03  0.62268983126E+03  0.25500000920E-02 0. -1.
</event>
<event>
 5   0  0.1226424E-02  0.9361649E+03  0.7818609E-02  0.9381469E-01
        1   -1    0    0  501    0  0.00000000000E+00  0.00000000000E+00  0.69457031169E+03  0.69457031170E+03  0.50400001928E-02 0. -1.
       -1   -1    0    0    0  501  0.00000000000E+00  0.00000000000E+00 -0.31544854606E+03  0.31544854610E+03  0.50400001928E-02 0.  1.
    10030    2    1    2    0    0  0.00000000000E+00  0.00000000000E+00  0.37912176562E+03  0.10100188578E+04  0.93616493203E+03 0.  0.
        1    1    3    3  502    0 -0.10981271342E+03 -0.31709950676E+02 -0.30016105124E+03  0.32118687661E+03  0.50400001928E-02 0.  1.
       -1    1    3    3    0  502  0.10981271342E+03  0.31709950676E+02  0.67928281687E+03  0.68883198119E+03  0.50400001928E-02 0. -1.
</event>
<event>
 5   0  0.1175993E-02  0.9697007E+03  0.7818609E-02  0.9342415E-01
       -1   -1    0    0    0  501  0.00000000000E+00  0.00000000000E+00  0.38961606500E+03  0.38961606503E+03  0.50400001928E-02 0. -1.
        1   -1    0    0  501    0  0.00000000000E+00  0.00000000000E+00 -0.60336281032E+03  0.60336281035E+03  0.50400001928E-02 0.  1.
    10030    2    1    2    0    0  0.00000000000E+00  0.00000000000E+00 -0.21374674533E+03  0.99297887538E+03  0.96970066299E+03 0.  0.
        4    1    3    3  502    0 -0.23359997739E+03  0.40816618816E+03 -0.22764372448E+03  0.52248623407E+03  0.12699999809E+01 0.  1.
       -4    1    3    3    0  502  0.23359997739E+03 -0.40816618816E+03  0.13896979154E+02  0.47049264131E+03  0.12699999809E+01 0. -1.
</event>
<event>
 5   0  0.1924218E-02  0.9025248E+03  0.7818609E-02  0.9422431E-01
        2   -1    0    0  501    0  0.00000000000E+00  0.00000000000E+00  0.11308861691E+04  0.11308861691E+04  0.25500000920E-02 0.  1.
       -2   -1    0    0    0  501  0.00000000000E+00  0.00000000000E+00 -0.18006920621E+03  0.18006920623E+03  0.25500000920E-02 0. -1.
    10030    2    1    2    0    0  0.00000000000E+00  0.00000000000E+00  0.95081696286E+03  0.13109553753E+04  0.90252484684E+03 0.  0.
        4    1    3    3  502    0  0.31549551744E+03  0.14605693467E+03  0.57525177896E+02  0.35239297479E+03  0.12699999809E+01 0. -1.
       -4    1    3    3    0  502 -0.31549551744E+03 -0.14605693467E+03  0.89329178497E+03  0.95856240051E+03  0.12699999809E+01 0.  1.
</event>
<event>
 5   0  0.1924218E-02  0.9095511E+03  0.7818609E-02  0.9413720E-01
        2   -1    0    0  501    0  0.00000000000E+00  0.00000000000E+00  0.13955953029E+04  0.13955953029E+04  0.25500000920E-02 0.  1.
       -2   -1    0    0    0  501  0.00000000000E+00  0.00000000000E+00 -0.14819540177E+03  0.14819540179E+03  0.25500000920E-02 0. -1.
    10030    2    1    2    0    0  0.00000000000E+00  0.00000000000E+00  0.12473999011E+04  0.15437907047E+04  0.90955111267E+03 0.  0.
        4    1    3    3  502    0 -0.22282636805E+03  0.28711808040E+03  0.15970723663E+03  0.39698412654E+03  0.12699999809E+01 0.  1.
       -4    1    3    3    0  502  0.22282636805E+03 -0.28711808040E+03  0.10876926645E+04  0.11468065782E+04  0.12699999809E+01 0. -1.
</event>
<event>
 5   0  0.1162839E-02  0.8946212E+03  0.7818609E-02  0.9432330E-01
       -1   -1    0    0    0  501  0.00000000000E+00  0.00000000000E+00  0.34655362571E+03  0.34655362575E+03  0.50400001928E-02 0. -1.
        1   -1    0    0  501    0  0.00000000000E+00  0.00000000000E+00 -0.57736161434E+03  0.57736161437E+03  0.50400001928E-02 0.  1.
    10030    2    1    2    0    0  0.00000000000E+00  0.00000000000E+00 -0.23080798864E+03  0.92391524011E+03  0.89462117306E+03 0.  0.
        2    1    3    3  502    0 -0.32034501206E+03 -0.26497068285E+03 -0.28590501249E+03  0.50455135090E+03  0.25500000920E-02 0.  1.
       -2    1    3    3    0  502  0.32034501206E+03  0.26497068285E+03  0.55097023855E+02  0.41936388921E+03  0.25500000920E-02 0. -1.
</event>
<event>
 5   0  0.7893875E-03  0.8762212E+03  0.7818609E-02  0.9455804E-01
        4   -1    0    0  501    0  0.00000000000E+00  0.00000000000E+00  0.19209864607E+03  0.19210284413E+03  0.12699999809E+01 0.  1.
       -4   -1    0    0    0  501  0.00000000000E+00  0.00000000000E+00 -0.99916326010E+03  0.99916406723E+03  0.12699999809E+01 0. -1.
    10030    2    1    2    0    0  0.00000000000E+00  0.00000000000E+00 -0.80706461403E+03  0.11912669114E+04  0.87622118377E+03 0.  0.
        1    1    3    3  502    0  0.55996254007E+02 -0.43414580175E+03 -0.42795632180E+03  0.61218034192E+03  0.50400001928E-02 0. -1.
       -1    1    3    3    0  502 -0.55996254007E+02  0.43414580175E+03 -0.37910829223E+03  0.57908656944E+03  0.50400001928E-02 0.  1.
</event>
<event>
 5   0  0.1968763E-02  0.9307687E+03  0.7818609E-02  0.9387916E-01
        2   -1    0    0  501    0  0.00000000000E+00  0.00000000000E+00  0.14929209703E+04  0.14929209703E+04  0.25500000920E-02 0.  1.
       -2   -1    0    0    0  501  0.00000000000E+00  0.00000000000E+00 -0.14507305769E+03  0.14507305771E+03  0.25500000920E-02 0. -1.
    10030    2    1    2    0    0  0.00000000000E+00  0.00000000000E+00  0.13478479126E+04  0.16379940280E+04  0.93076873619E+03 0.  0.
        2    1    3    3  502    0 -0.20991035134E+03 -0.29539994847E+03  0.16006851210E+03  0.39616336748E+03  0.25500000920E-02 0. -1.
       -2    1    3    3    0  502  0.20991035134E+03  0.29539994847E+03  0.11877794005E+04  0.12418306605E+04  0.25500000920E-02 0.  1.
</event>
<event>
 5   0  0.2008643E-02  0.8894297E+03  0.7818609E-02  0.9438892E-01
        2   -1    0    0  501    0  0.00000000000E+00  0.00000000000E+00  0.23242148978E+03  0.23242148979E+03  0.25500000920E-02 0.  1.
       -2   -1    0    0    0  501  0.00000000000E+00  0.00000000000E+00 -0.85091665930E+03  0.85091665930E+03  0.25500000920E-02 0. -1.
    10030    2    1    2    0    0  0.00000000000E+00  0.00000000000E+00 -0.61849516952E+03  0.10833381491E+04  0.88942974459E+03 0.  0.
        3    1    3    3  502    0  0.74856798931E+02 -0.79855781096E+02 -0.83425388483E+03  0.84140361342E+03  0.10100000352E+00 0. -1.
       -3    1    3    3    0  502 -0.74856798931E+02  0.79855781096E+02  0.21575871531E+03  0.24193453567E+03  0.10100000352E+00 0.  1.
</event>
<event>
 5   0  0.7893875E-03  0.8768084E+03  0.7818609E-02  0.9455046E-01
        3   -1    0    0  501    0  0.00000000000E+00  0.00000000000E+00  0.82597319249E+03  0.82597319867E+03  0.10100000352E+00 0. -1.
       -3   -1    0    0    0  501  0.00000000000E+00  0.00000000000E+00 -0.23269303878E+03  0.23269306070E+03  0.10100000352E+00 0.  1.
    10030    2    1    2    0    0  0.00000000000E+00  0.00000000000E+00  0.59328015371E+03  0.10586662594E+04  0.87680836443E+03 0.  0.
        1    1    3    3  502    0  0.22301433585E+03 -0.33795973758E+03  0.49956399527E+03  0.64305238015E+03  0.50400001928E-02 0.  1.
       -1    1    3    3    0  502 -0.22301433585E+03  0.33795973758E+03  0.93716158445E+02  0.41561387922E+03  0.50400001928E-02 0. -1.
</event>
<event>
 5   0  0.1968763E-02  0.8950748E+03  0.7818609E-02  0.9431759E-01
        2   -1    0    0  501    0  0.00000000000E+00  0.00000000000E+00  0.83516518801E+03  0.83516518801E+03  0.25500000920E-02 0. -1.
       -2   -1    0    0    0  501  0.00000000000E+00  0.00000000000E+00 -0.23982049496E+03  0.23982049497E+03  0.25500000920E-02 0.  1.
    10030    2    1    2    0    0  0.00000000000E+00  0.00000000000E+00  0.59534469304E+03  0.10749856830E+04  0.89507480977E+03 0.  0.
        2    1    3    3  502    0  0.40801734618E+03 -0.10882124990E+03  0.47568608718E+03  0.63607976917E+03  0.25500000920E-02 0. -1.
       -2    1    3    3    0  502 -0.40801734618E+03  0.10882124990E+03  0.11965860587E+03  0.43890591381E+03  0.25500000920E-02 0.  1.
</event>
<event>
 5   0  0.2008770E-02  0.8947842E+03  0.7818609E-02  0.9432125E-01
       -2   -1    0    0    0  501  0.00000000000E+00  0.00000000000E+00  0.14815631921E+03  0.14815631924E+03  0.25500000920E-02 0. -1.
        2   -1    0    0  501    0  0.00000000000E+00  0.00000000000E+00 -0.13510034318E+04  0.13510034318E+04  0.25500000920E-02 0.  1.
    10030    2    1    2    0    0  0.00000000000E+00  0.00000000000E+00 -0.12028471126E+04  0.14991597510E+04  0.89478421023E+03 0.  0.
        1    1    3    3  502    0  0.32635058740E+03  0.10486746184E+03 -0.11972922334E+03  0.36309362071E+03  0.50400001928E-02 0. -1.
       -1    1    3    3    0  502 -0.32635058740E+03 -0.10486746184E+03 -0.10831178892E+04  0.11360661303E+04  0.50400001928E-02 0.  1.
</event>
<event>
 5   0  0.1206541E-02  0.8690656E+03  0.7818609E-02  0.9465099E-01
        1   -1    0    0  501    0  0.00000000000E+00  0.00000000000E+00  0.45253253674E+03  0.45253253677E+03  0.50400001928E-02 0.  1.
       -1   -1    0    0    0  501  0.00000000000E+00  0.00000000000E+00 -0.41724900461E+03  0.41724900464E+03  0.50400001928E-02 0. -1.
    10030    2    1    2    0    0  0.00000000000E+00  0.00000000000E+00  0.35283532131E+02  0.86978154141E+03  0.86906559139E+03 0.  0.
        3    1    3    3  502    0 -0.40628630901E+03 -0.10611420896E+03  0.12949227978E+03  0.43942809531E+03  0.10100000352E+00 0.  1.
       -3    1    3    3    0  502  0.40628630901E+03  0.10611420896E+03 -0.94208747648E+02  0.43035344609E+03  0.10100000352E+00 0. -1.
</event>
<event>
 5   0  0.2041861E-02  0.8899132E+03  0.7818609E-02  0.9438279E-01
       -2   -1    0    0    0  501  0.00000000000E+00  0.00000000000E+00  0.17069604577E+03  0.17069604579E+03  0.25500000920E-02 0. -1.
        2   -1    0    0  501    0  0.00000000000E+00  0.00000000000E+00 -0.11598766612E+04  0.11598766612E+04  0.25500000920E-02 0.  1.
    10030    2    1    2    0    0  0.00000000000E+00  0.00000000000E+00 -0.98918061545E+03  0.13305727070E+04  0.88991316355E+03 0.  0.
        5    1    3    3  502    0  0.20614043855E+03  0.25132990244E+03 -0.94884608879E+03  0.10029913212E+04  0.46999998093E+01 0.  1.
       -5    1    3    3    0  502 -0.20614043855E+03 -0.25132990244E+03 -0.40334526654E+02  0.32758138577E+03  0.46999998093E+01 0. -1.
</event>
<event>
 5   0  0.1924218E-02  0.9223677E+03  0.7818609E-02  0.9398045E-01
        2   -1    0    0  501    0  0.00000000000E+00  0.00000000000E+00  0.35709394539E+03  0.35709394540E+03  0.25500000920E-02 0.  1.
       -2   -1    0    0    0  501  0.00000000000E+00  0.00000000000E+00 -0.59561504534E+03  0.59561504535E+03  0.25500000920E-02 0. -1.
    10030    2    1    2    0    0  0.00000000000E+00  0.00000000000E+00 -0.23852109995E+03  0.95270899075E+03  0.92236766310E+03 0.  0.
        4    1    3    3  502    0 -0.66241419353E+02 -0.26018366839E+03  0.26804816297E+03  0.37938752946E+03  0.12699999809E+01 0.  1.
       -4    1    3    3    0  502  0.66241419353E+02  0.26018366839E+03 -0.50656926292E+03  0.57332146129E+03  0.12699999809E+01 0. -1.
</event>
<event>
 5   0  0.1968763E-02  0.8999636E+03  0.7818609E-02  0.9425627E-01
        2   -1    0    0  501    0  0.00000000000E+00  0.00000000000E+00  0.58535163865E+03  0.58535163865E+03  0.25500000920E-02 0. -1.
       -2   -1    0    0    0  501  0.00000000000E+00  0.00000000000E+00 -0.34591791231E+03  0.34591791232E+03  0.25500000920E-02 0.  1.
    10030    2    1    2    0    0  0.00000000000E+00  0.00000000000E+00  0.23943372634E+03  0.93126955097E+03  0.89996359218E+03 0.  0.
        2    1    3    3  502    0 -0.25972972055E+03  0.28616444388E+03 -0.11880968267E+03  0.40430849284E+03  0.25500000920E-02 0.  1.
       -2    1    3    3    0  502  0.25972972055E+03 -0.28616444388E+03  0.35824340901E+03  0.52696105813E+03  0.25500000920E-02 0. -1.
</event>
<event>
 5   0  0.1206541E-02  0.8557894E+03  0.7818609E-02  0.9482599E-01
       -1   -1    0    0    0  501  0.00000000000E+00  0.00000000000E+00  0.24546390257E+03  0.24546390262E+03  0.50400001928E-02 0.  1.
        1   -1    0    0  501    0  0.00000000000E+00  0.00000000000E+00 -0.74590956075E+03  0.74590956077E+03  0.50400001928E-02 0. -1.
    10030    2    1    2    0    0  0.00000000000E+00  0.00000000000E+00 -0.50044565819E+03  0.99137346339E+03  0.85578939413E+03 0.  0.
        3    1    3    3  502    0 -0.73926182571E+02  0.31583022329E+03  0.73060644541E+02  0.33249312533E+03  0.10100000352E+00 0.  1.
       -3    1    3    3    0  502  0.73926182571E+02 -0.31583022329E+03 -0.57350630273E+03  0.65888033806E+03  0.10100000352E+00 0. -1.
</event>
<event>
 5   0  0.1177712E-02  0.9194528E+03  0.7818609E-02  0.9401586E-01
       -1   -1    0    0    0  501  0.00000000000E+00  0.00000000000E+00  0.21204568796E+03  0.21204568802E+03  0.50400001928E-02 0.  1.
        1   -1    0    0  501    0  0.00000000000E+00  0.00000000000E+00 -0.99671153210E+03  0.99671153212E+03  0.50400001928E-02 0. -1.
    10030    2    1    2    0    0  0.00000000000E+00  0.00000000000E+00 -0.78466584414E+03  0.12087572201E+04  0.91945284288E+03 0.  0.
        5    1    3    3  502    0  0.14703625440E+03 -0.16015349007E+03 -0.92481826186E+03  0.95004195063E+03  0.46999998093E+01 0. -1.
       -5    1    3    3    0  502 -0.14703625440E+03  0.16015349007E+03  0.14015241771E+03  0.25871526951E+03  0.46999998093E+01 0.  1.
</event>
<event>
 5   0  0.2008770E-02  0.8436723E+03  0.7818609E-02  0.9498869E-01
        2   -1    0    0  501    0  0.00000000000E+00  0.00000000000E+00  0.20469651332E+04  0.20469651332E+04  0.25500000920E-02 0.  1.
       -2   -1    0    0    0  501  0.00000000000E+00  0.00000000000E+00 -0.86931490061E+02  0.86931490098E+02  0.25500000920E-02 0. -1.
    10030    2    1    2    0    0  0.00000000000E+00  0.00000000000E+00  0.19600336431E+04  0.21338966233E+04  0.84367228038E+03 0.  0.
        1    1    3    3  502    0 -0.29269876804E+03  0.22341121979E+03  0.45944508908E+03  0.58879107657E+03  0.50400001928E-02 0. -1.
       -1    1    3    3    0  502  0.29269876804E+03 -0.22341121979E+03  0.15005885540E+04  0.15451055467E+04  0.50400001928E-02 0.  1.
</event>
<event>
 5   0  0.2041861E-02  0.9015086E+03  0.7818609E-02  0.9423698E-01
       -2   -1    0    0    0  501  0.00000000000E+00  0.00000000000E+00  0.27016131088E+03  0.27016131089E+03  0.25500000920E-02 0. -1.
        2   -1    0    0  501    0  0.00000000000E+00  0.00000000000E+00 -0.75206716091E+03  0.75206716092E+03  0.25500000920E-02 0.  1.
    10030    2    1    2    0    0  0.00000000000E+00  0.00000000000E+00 -0.48190585003E+03  0.10222284718E+04  0.90150862463E+03 0.  0.
        5    1    3    3  502    0  0.42294851667E+03 -0.10168476170E+03 -0.37479316747E+03  0.57421010692E+03  0.46999998093E+01 0.  1.
       -5    1    3    3    0  502 -0.42294851667E+03  0.10168476170E+03 -0.10711268256E+03  0.44801836489E+03  0.46999998093E+01 0. -1.
</event>
<event>
 5   0  0.2041861E-02  0.8035207E+03  0.7818609E-02  0.9554935E-01
        2   -1    0    0  501    0  0.00000000000E+00  0.00000000000E+00  0.19712920930E+03  0.19712920932E+03  0.25500000920E-02 0. -1.
       -2   -1    0    0    0  501  0.00000000000E+00  0.00000000000E+00 -0.81880998225E+03  0.81880998225E+03  0.25500000920E-02 0.  1.
    10030    2    1    2    0    0  0.00000000000E+00  0.00000000000E+00 -0.62168077294E+03  0.10159391916E+04  0.80352066402E+03 0.  0.
        5    1    3    3  502    0  0.32997683120E+03  0.11359001265E+03 -0.56245075550E+03  0.66193681154E+03  0.46999998093E+01 0.  1.
       -5    1    3    3    0  502 -0.32997683120E+03 -0.11359001265E+03 -0.59230017441E+02  0.35400238003E+03  0.46999998093E+01 0. -1.
</event>
<event>
 5   0  0.1175993E-02  0.8998033E+03  0.7818609E-02  0.9425827E-01
        1   -1    0    0  501    0  0.00000000000E+00  0.00000000000E+00  0.49765422629E+03  0.49765422631E+03  0.50400001928E-02 0. -1.
       -1   -1    0    0    0  501  0.00000000000E+00  0.00000000000E+00 -0.40673114540E+03  0.40673114543E+03  0.50400001928E-02 0.  1.
    10030    2    1    2    0    0  0.00000000000E+00  0.00000000000E+00  0.90923080883E+02  0.90438537174E+03  0.89980325293E+03 0.  0.
        4    1    3    3  502    0  0.17117291662E+03 -0.29818542710E+03  0.33710315440E+03  0.48151310047E+03  0.12699999809E+01 0. -1.
       -4    1    3    3    0  502 -0.17117291662E+03  0.29818542710E+03 -0.24618007352E+03  0.42287227128E+03  0.12699999809E+01 0.  1.
</event>
<event>
 5   0  0.1175993E-02  0.9123695E+03  0.7818609E-02  0.9410250E-01
        1   -1    0    0  501    0  0.00000000000E+00  0.00000000000E+00  0.67033246422E+03  0.67033246424E+03  0.50400001928E-02 0. -1.
       -1   -1    0    0    0  501  0.00000000000E+00  0.00000000000E+00 -0.31044973615E+03  0.31044973619E+03  0.50400001928E-02 0.  1.
    10030    2    1    2    0    0  0.00000000000E+00  0.00000000000E+00  0.35988272807E+03  0.98078220042E+03  0.91236952311E+03 0.  0.
        4    1    3    3  502    0 -0.35572797752E+03 -0.24338440182E+03  0.19323706971E+02  0.43145495662E+03  0.12699999809E+01 0.  1.
       -4    1    3    3    0  502  0.35572797752E+03  0.24338440182E+03  0.34055902110E+03  0.54932724381E+03  0.12699999809E+01 0. -1.
</event>
<event>
 5   0  0.1162839E-02  0.9182065E+03  0.7818609E-02  0.9403104E-01
        1   -1    0    0  501    0  0.00000000000E+00  0.00000000000E+00  0.55341105148E+03  0.55341105151E+03  0.50400001928E-02 0.  1.
       -1   -1    0    0    0  501  0.00000000000E+00  0.00000000000E+00 -0.38086660322E+03  0.38086660325E+03  0.50400001928E-02 0. -1.
    10030    2    1    2    0    0  0.00000000000E+00  0.00000000000E+00  0.17254444827E+03  0.93427765476E+03  0.91820648525E+03 0.  0.
        2    1    3    3  502    0 -0.38614779226E+03 -0.24488547628E+03  0.12818510685E+03  0.47487939057E+03  0.25500000920E-02 0.  1.
       -2    1    3    3    0  502  0.38614779226E+03  0.24488547628E+03  0.44359341419E+02  0.45939826419E+03  0.25500000920E-02 0. -1.
</event>
<event>
 5   0  0.2008770E-02  0.9356839E+03  0.7818609E-02  0.9382042E-01
        2   -1    0    0  501    0  0.00000000000E+00  0.00000000000E+00  0.57508086568E+03  0.57508086568E+03  0.25500000920E-02 0.  1.
       -2   -1    0    0    0  501  0.00000000000E+00  0.00000000000E+00 -0.38060051398E+03  0.38060051399E+03  0.25500000920E-02 0. -1.
    10030    2    1    2    0    0  0.00000000000E+00  0.00000000000E+00  0.19448035170E+03  0.95568137967E+03  0.93568386342E+03 0.  0.
        1    1    3    3  502    0 -0.10815620287E+03  0.18064917201E+03 -0.32947361361E+03  0.39100479493E+03  0.50400001928E-02 0. -1.
       -1    1    3    3    0  502  0.10815620287E+03 -0.18064917201E+03  0.52395396531E+03  0.56467658474E+03  0.50400001928E-02 0.  1.
</event>
<event>
 5   0  0.2041861E-02  0.8798265E+03  0.7818609E-02  0.9451157E-01
        2   -1    0    0  501    0  0.00000000000E+00  0.00000000000E+00  0.22989999350E+04  0.22989999350E+04  0.25500000920E-02 0.  1.
       -2   -1    0    0    0  501  0.00000000000E+00  0.00000000000E+00 -0.84177320155E+02  0.84177320193E+02  0.25500000920E-02 0. -1.
    10030    2    1    2    0    0  0.00000000000E+00  0.00000000000E+00  0.22148226148E+04  0.23831772552E+04  0.87982646837E+03 0.  0.
        5    1    3    3  502    0  0.36847856063E+03 -0.38055124513E+02  0.17499872892E+04  0.17887711548E+04  0.46999998093E+01 0.  1.
       -5    1    3    3    0  502 -0.36847856063E+03  0.38055124513E+02  0.46483532569E+03  0.59440610037E+03  0.46999998093E+01 0. -1.
</event>
<event>
 5   0  0.2008643E-02  0.8440888E+03  0.7818609E-02  0.9498305E-01
        2   -1    0    0  501    0  0.00000000000E+00  0.00000000000E+00  0.32771979439E+03  0.32771979440E+03  0.25500000920E-02 0.  1.
       -2   -1    0    0    0  501  0.00000000000E+00  0.00000000000E+00 -0.54351765304E+03  0.54351765304E+03  0.25500000920E-02 0. -1.
    10030    2    1    2    0    0  0.00000000000E+00  0.00000000000E+00 -0.21579785865E+03  0.87123744744E+03  0.84408884250E+03 0.  0.
        3    1    3    3  502    0 -0.97237190434E+02  0.38806184632E+03 -0.24666411003E+03  0.46998963941E+03  0.10100000352E+00 0. -1.
       -3    1    3    3    0  502  0.97237190434E+02 -0.38806184632E+03  0.30866251386E+02  0.40124780803E+03  0.10100000352E+00 0.  1.
</event>
<event>
 5   0  0.1175993E-02  0.9136567E+03  0.7818609E-02  0.9408669E-01
        1   -1    0    0  501    0  0.00000000000E+00  0.00000000000E+00  0.66918012861E+03  0.66918012863E+03  0.50400001928E-02 0. -1.
       -1   -1    0    0    0  501  0.00000000000E+00  0.00000000000E+00 -0.31186240499E+03  0.31186240503E+03  0.50400001928E-02 0.  1.
    10030    2    1    2    0    0  0.00000000000E+00  0.00000000000E+00  0.35731772363E+03  0.98104253366E+03  0.91365666267E+03 0.  0.
        4    1    3    3  502    0  0.40408793557E+03 -0.21151312341E+03  0.20636193164E+03  0.50061134703E+03  0.12699999809E+01 0. -1.
       -4    1    3    3    0  502 -0.40408793557E+03  0.21151312341E+03  0.15095579199E+03  0.48043118663E+03  0.12699999809E+01 0.  1.
</event>
<event>
 5   0  0.2008770E-02  0.9596575E+03  0.7818609E-02  0.9353933E-01
       -2   -1    0    0    0  501  0.00000000000E+00  0.00000000000E+00  0.99961614141E+03  0.99961614141E+03  0.25500000920E-02 0.  1.
        2   -1    0    0  501    0  0.00000000000E+00  0.00000000000E+00 -0.23032403429E+03  0.23032403430E+03  0.25500000920E-02 0. -1.
    10030    2    1    2    0    0  0.00000000000E+00  0.00000000000E+00  0.76929210712E+03  0.12299401757E+04  0.95965748565E+03 0.  0.
        1    1    3    3  502    0  0.25330151902E+03  0.35971819841E+03  0.63009622304E+03  0.76849208982E+03  0.50400001928E-02 0.  1.
       -1    1    3    3    0  502 -0.25330151902E+03 -0.35971819841E+03  0.13919588408E+03  0.46144808589E+03  0.50400001928E-02 0. -1.
</event>
<event>
 5   0  0.1175993E-02  0.9028624E+03  0.7818609E-02  0.9422010E-01
        1   -1    0    0  501    0  0.00000000000E+00  0.00000000000E+00  0.19124989111E+04  0.19124989111E+04  0.50400001928E-02 0. -1.
       -1   -1    0    0    0  501  0.00000000000E+00  0.00000000000E+00 -0.10655699051E+03  0.10655699063E+03  0.50400001928E-02 0.  1.
    10030    2    1    2    0    0  0.00000000000E+00  0.00000000000E+00  0.18059419206E+04  0.20190559017E+04  0.90286240024E+03 0.  0.
        4    1    3    3  502    0  0.11409676525E+03 -0.15504012624E+03  0.18161113701E+04  0.18262852007E+04  0.12699999809E+01 0. -1.
       -4    1    3    3    0  502 -0.11409676525E+03  0.15504012624E+03 -0.10169449531E+02  0.19277070106E+03  0.12699999809E+01 0.  1.
</event>
<event>
 5   0  0.2008643E-02  0.8962711E+03  0.7818609E-02  0.9430255E-01
       -2   -1    0    0    0  501  0.00000000000E+00  0.00000000000E+00  0.26351788511E+03  0.26351788513E+03  0.25500000920E-02 0.  1.
        2   -1    0    0  501    0  0.00000000000E+00  0.00000000000E+00 -0.76209428830E+03  0.76209428831E+03  0.25500000920E-02 0. -1.
    10030    2    1    2    0    0  0.00000000000E+00  0.00000000000E+00 -0.49857640319E+03  0.10256121734E+04  0.89627110880E+03 0.  0.
        3    1    3    3  502    0  0.32148763168E+03 -0.30984536881E+03 -0.20545925325E+03  0.49149970991E+03  0.10100000352E+00 0.  1.
       -3    1    3    3    0  502 -0.32148763168E+03  0.30984536881E+03 -0.29311714994E+03  0.53411246352E+03  0.10100000352E+00 0. -1.
</event>
<event>
 5   0  0.1924218E-02  0.8874670E+03  0.7818609E-02  0.9441385E-01
        2   -1    0    0  501    0  0.00000000000E+00  0.00000000000E+00  0.16402617613E+04  0.16402617613E+04  0.25500000920E-02 0.  1.
       -2   -1    0    0    0  501  0.00000000000E+00  0.00000000000E+00 -0.12004146362E+03  0.12004146365E+03  0.25500000920E-02 0. -1.
    10030    2    1    2    0    0  0.00000000000E+00  0.00000000000E+00  0.15202202977E+04  0.17603032250E+04  0.88746700801E+03 0.  0.
        4    1    3    3  502    0  0.10384510933E+03 -0.43094154475E+03  0.72027222206E+03  0.84574707123E+03  0.12699999809E+01 0. -1.
       -4    1    3    3    0  502 -0.10384510933E+03  0.43094154475E+03  0.79994807564E+03  0.91455615374E+03  0.12699999809E+01 0.  1.
</event>
<event>
 5   0  0.1226424E-02  0.6806031E+03  0.7818609E-02  0.9750991E-01
       -1   -1    0    0    0  501  0.00000000000E+00  0.00000000000E+00  0.21673927243E+03  0.21673927249E+03  0.50400001928E-02 0. -1.
        1   -1    0    0  501    0  0.00000000000E+00  0.00000000000E+00 -0.53430616232E+03  0.53430616234E+03  0.50400001928E-02 0.  1.
    10030    2    1    2    0    0  0.00000000000E+00  0.00000000000E+00 -0.31756688988E+03  0.75104543483E+03  0.68060305291E+03 0.  0.
        1    1    3    3  502    0  0.20712202487E+03 -0.26957545381E+03 -0.14187897824E+03  0.36837494889E+03  0.50400001928E-02 0.  1.
       -1    1    3    3    0  502 -0.20712202487E+03  0.26957545381E+03 -0.17568791165E+03  0.38267048594E+03  0.50400001928E-02 0. -1.
</event>
<event>
 5   0  0.2008770E-02  0.8567978E+03  0.7818609E-02  0.9481258E-01
       -2   -1    0    0    0  501  0.00000000000E+00  0.00000000000E+00  0.82000701325E+03  0.82000701325E+03  0.25500000920E-02 0.  1.
        2   -1    0    0  501    0  0.00000000000E+00  0.00000000000E+00 -0.22380983619E+03  0.22380983620E+03  0.25500000920E-02 0. -1.
    10030    2    1    2    0    0  0.00000000000E+00  0.00000000000E+00  0.59619717706E+03  0.10438168495E+04  0.85679784154E+03 0.  0.
        1    1    3    3  502    0 -0.27956489804E+03 -0.33403998251E+01  0.69353766616E+03  0.74777147906E+03  0.50400001928E-02 0.  1.
       -1    1    3    3    0  502  0.27956489804E+03  0.33403998251E+01 -0.97340489099E+02  0.29604537039E+03  0.50400001928E-02 0. -1.
</event>
<event>
 5   0  0.1206541E-02  0.8966970E+03  0.7818609E-02  0.9429720E-01
        1   -1    0    0  501    0  0.00000000000E+00  0.00000000000E+00  0.51521343714E+03  0.51521343716E+03  0.50400001928E-02 0. -1.
       -1   -1    0    0    0  501  0.00000000000E+00  0.00000000000E+00 -0.39016134973E+03  0.39016134977E+03  0.50400001928E-02 0.  1.
    10030    2    1    2    0    0  0.00000000000E+00  0.00000000000E+00  0.12505208740E+03  0.90537478693E+03  0.89669698352E+03 0.  0.
        3    1    3    3  502    0  0.19211756030E+03 -0.38263850459E+03 -0.71783754605E+02  0.43413626869E+03  0.10100000352E+00 0.  1.
       -3    1    3    3    0  502 -0.19211756030E+03  0.38263850459E+03  0.19683584201E+03  0.47123851824E+03  0.10100000352E+00 0. -1.
</event>
<event>
 5   0  0.1177712E-02  0.8472558E+03  0.7818609E-02  0.9494027E-01
        1   -1    0    0  501    0  0.00000000000E+00  0.00000000000E+00  0.19480973722E+03  0.19480973728E+03  0.50400001928E-02 0.  1.
       -1   -1    0    0    0  501  0.00000000000E+00  0.00000000000E+00 -0.92120969446E+03  0.92120969447E+03  0.50400001928E-02 0. -1.
    10030    2    1    2    0    0  0.00000000000E+00  0.00000000000E+00 -0.72639995724E+03  0.11160194318E+04  0.84725584930E+03 0.  0.
        5    1    3    3  502    0  0.41934077028E+03 -0.58714395147E+02 -0.37903217266E+03  0.56831464852E+03  0.46999998093E+01 0. -1.
       -5    1    3    3    0  502 -0.41934077028E+03  0.58714395147E+02 -0.34736778458E+03  0.54770478323E+03  0.46999998093E+01 0.  1.
</event>
<event>
 5   0  0.1175993E-02  0.9285968E+03  0.7818609E-02  0.9390524E-01
       -1   -1    0    0    0  501  0.00000000000E+00  0.00000000000E+00  0.88144326450E+03  0.88144326451E+03  0.50400001928E-02 0. -1.
        1   -1    0    0  501    0  0.00000000000E+00  0.00000000000E+00 -0.24456819213E+03  0.24456819218E+03  0.50400001928E-02 0.  1.
    10030    2    1    2    0    0  0.00000000000E+00  0.00000000000E+00  0.63687507237E+03  0.11260114567E+04  0.92859676007E+03 0.  0.
        4    1    3    3  502    0  0.14285614601E+03  0.38904706990E+03  0.57223180400E+03  0.70655244070E+03  0.12699999809E+01 0. -1.
       -4    1    3    3    0  502 -0.14285614601E+03 -0.38904706990E+03  0.64643268361E+02  0.41945901599E+03  0.12699999809E+01 0.  1.
</event>
<event>
 5   0  0.1206541E-02  0.8794654E+03  0.7818609E-02  0.9451621E-01
       -1   -1    0    0    0  501  0.00000000000E+00  0.00000000000E+00  0.19152581932E+03  0.19152581939E+03  0.50400001928E-02 0. -1.
        1   -1    0    0  501    0  0.00000000000E+00  0.00000000000E+00 -0.10096019311E+04  0.10096019312E+04  0.50400001928E-02 0.  1.
    10030    2    1    2    0    0  0.00000000000E+00  0.00000000000E+00 -0.81807611181E+03  0.12011277505E+04  0.87946537647E+03 0.  0.
        3    1    3    3  502    0 -0.38894574326E+03 -0.20354781257E+03 -0.37410257077E+03  0.57676966535E+03  0.10100000352E+00 0.  1.
       -3    1    3    3    0  502  0.38894574326E+03  0.20354781257E+03 -0.44397354104E+03  0.62435808520E+03  0.10100000352E+00 0. -1.
</event>
<event>
 5   0  0.1206541E-02  0.9038099E+03  0.7818609E-02  0.9420831E-01
        1   -1    0    0  501    0  0.00000000000E+00  0.00000000000E+00  0.14726264243E+03  0.14726264252E+03  0.50400001928E-02 0.  1.
       -1   -1    0    0    0  501  0.00000000000E+00  0.00000000000E+00 -0.13867609274E+04  0.13867609274E+04  0.50400001928E-02 0. -1.
    10030    2    1    2    0    0  0.00000000000E+00  0.00000000000E+00 -0.12394982850E+04  0.15340235699E+04  0.90380988856E+03 0.  0.
        3    1    3    3  502    0  0.13708284795E+03 -0.20045634380E+03  0.27100689119E+02  0.24435406795E+03  0.10100000352E+00 0.  1.
       -3    1    3    3    0  502 -0.13708284795E+03  0.20045634380E+03 -0.12665989741E+04  0.12896695020E+04  0.10100000352E+00 0. -1.
</event>
<event>
 5   0  0.1175993E-02  0.8982474E+03  0.7818609E-02  0.9427775E-01
       -1   -1    0    0    0  501  0.00000000000E+00  0.00000000000E+00  0.25874542940E+03  0.25874542945E+03  0.50400001928E-02 0.  1.
        1   -1    0    0  501    0  0.00000000000E+00  0.00000000000E+00 -0.77957742266E+03  0.77957742267E+03  0.50400001928E-02 0. -1.
    10030    2    1    2    0    0  0.00000000000E+00  0.00000000000E+00 -0.52083199325E+03  0.10383228521E+04  0.89824739356E+03 0.  0.
        4    1    3    3  502    0  0.67721940605E+02  0.16154940217E+03 -0.73845962114E+03  0.75895236710E+03  0.12699999809E+01 0. -1.
       -4    1    3    3    0  502 -0.67721940605E+02 -0.16154940217E+03  0.21762762788E+03  0.27937048502E+03  0.12699999809E+01 0.  1.
</event>
<event>
 5   0  0.1206541E-02  0.9490263E+03  0.7818609E-02  0.9366289E-01
        1   -1    0    0  501    0  0.00000000000E+00  0.00000000000E+00  0.63713520295E+03  0.63713520297E+03  0.50400001928E-02 0.  1.
       -1   -1    0    0    0  501  0.00000000000E+00  0.00000000000E+00 -0.35339864313E+03  0.35339864316E+03  0.50400001928E-02 0. -1.
    10030    2    1    2    0    0  0.00000000000E+00  0.00000000000E+00  0.28373655982E+03  0.99053384613E+03  0.94902627200E+03 0.  0.
        3    1    3    3  502    0 -0.32078348898E+03 -0.89462327014E+02 -0.21093513525E+03  0.39420704742E+03  0.10100000352E+00 0. -1.
       -3    1    3    3    0  502  0.32078348898E+03  0.89462327014E+02  0.49467169507E+03  0.59632679871E+03  0.10100000352E+00 0.  1.
</event>
<event>
 5   0  0.1226424E-02  0.9037738E+03  0.7818609E-02  0.9420876E-01
        1   -1    0    0  501    0  0.00000000000E+00  0.00000000000E+00  0.55195344929E+03  0.55195344931E+03  0.50400001928E-02 0. -1.
       -1   -1    0    0    0  501  0.00000000000E+00  0.00000000000E+00 -0.36996192139E+03  0.36996192143E+03  0.50400001928E-02 0.  1.
    10030    2    1    2    0    0  0.00000000000E+00  0.00000000000E+00  0.18199152790E+03  0.92191537074E+03  0.90377377401E+03 0.  0.
        1    1    3    3  502    0 -0.44270490237E+03  0.79211760669E+02  0.13592098352E+03  0.46982618850E+03  0.50400001928E-02 0. -1.
       -1    1    3    3    0  502  0.44270490237E+03 -0.79211760669E+02  0.46070544371E+02  0.45208918224E+03  0.50400001928E-02 0.  1.
</event>
<event>
 5   0  0.1177712E-02  0.7722571E+03  0.7818609E-02  0.9601065E-01
        1   -1    0    0  501    0  0.00000000000E+00  0.00000000000E+00  0.75923628893E+03  0.75923628895E+03  0.50400001928E-02 0. -1.
       -1   -1    0    0    0  501  0.00000000000E+00  0.00000000000E+00 -0.19637532634E+03  0.19637532641E+03  0.50400001928E-02 0.  1.
    10030    2    1    2    0    0  0.00000000000E+00  0.00000000000E+00  0.56286096259E+03  0.95561161535E+03  0.77225714383E+03 0.  0.
        5    1    3    3  502    0 -0.20796463180E+03 -0.32452481859E+03  0.30930798003E+03  0.49422582133E+03  0.46999998093E+01 0. -1.
       -5    1    3    3    0  502  0.20796463180E+03  0.32452481859E+03  0.25355298256E+03  0.46138579402E+03  0.46999998093E+01 0.  1.
</event>
<event>
 5   0  0.2008643E-02  0.8991625E+03  0.7818609E-02  0.9426629E-01
        2   -1    0    0  501    0  0.00000000000E+00  0.00000000000E+00  0.88919821792E+03  0.88919821792E+03  0.25500000920E-02 0. -1.
       -2   -1    0    0    0  501  0.00000000000E+00  0.00000000000E+00 -0.22730961377E+03  0.22730961378E+03  0.25500000920E-02 0.  1.
    10030    2    1    2    0    0  0.00000000000E+00  0.00000000000E+00  0.66188860415E+03  0.11165078317E+04  0.89916250698E+03 0.  0.
        3    1    3    3  502    0 -0.17531713261E+03 -0.25592057735E-01 -0.18311446533E+03  0.25350939876E+03  0.10100000352E+00 0.  1.
       -3    1    3    3    0  502  0.17531713261E+03  0.25592057735E-01  0.84500306948E+03  0.86299843295E+03  0.10100000352E+00 0. -1.
</event>
<event>
 5   0  0.1968763E-02  0.8976683E+03  0.7818609E-02  0.9428501E-01
       -2   -1    0    0    0  501  0.00000000000E+00  0.00000000000E+00  0.67548970335E+02  0.67548970383E+02  0.25500000920E-02 0. -1.
        2   -1    0    0  501    0  0.00000000000E+00  0.00000000000E+00 -0.29823120589E+04  0.29823120589E+04  0.25500000920E-02 0.  1.
    10030    2    1    2    0    0  0.00000000000E+00  0.00000000000E+00 -0.29147630886E+04  0.30498610293E+04  0.89766833267E+03 0.  0.
        2    1    3    3  502    0  0.24677103372E+03 -0.32529458379E+03 -0.20906335147E+04  0.21301316866E+04  0.25500000920E-02 0.  1.
       -2    1    3    3    0  502 -0.24677103372E+03  0.32529458379E+03 -0.82412957387E+03  0.91972934272E+03  0.25500000920E-02 0. -1.
</event>
<event>
 5   0  0.1177712E-02  0.8991739E+03  0.7818609E-02  0.9426615E-01
       -1   -1    0    0    0  501  0.00000000000E+00  0.00000000000E+00  0.20500180509E+03  0.20500180515E+03  0.50400001928E-02 0. -1.
        1   -1    0    0  501    0  0.00000000000E+00  0.00000000000E+00 -0.98598362811E+03  0.98598362813E+03  0.50400001928E-02 0.  1.
    10030    2    1    2    0    0  0.00000000000E+00  0.00000000000E+00 -0.78098182302E+03  0.11909854333E+04  0.89917389552E+03 0.  0.
        5    1    3    3  502    0  0.36945000047E+03 -0.97024946614E+02 -0.76492255256E+02  0.38958991033E+03  0.46999998093E+01 0. -1.
       -5    1    3    3    0  502 -0.36945000047E+03  0.97024946614E+02 -0.70448956777E+03  0.80139552295E+03  0.46999998093E+01 0.  1.
</event>
<event>
 5   0  0.2008643E-02  0.9017368E+03  0.7818609E-02  0.9423413E-01
        2   -1    0    0  501    0  0.00000000000E+00  0.00000000000E+00  0.93952732391E+03  0.93952732391E+03  0.25500000920E-02 0. -1.
       -2   -1    0    0    0  501  0.00000000000E+00  0.00000000000E+00 -0.21636660104E+03  0.21636660105E+03  0.25500000920E-02 0.  1.
    10030    2    1    2    0    0  0.00000000000E+00  0.00000000000E+00  0.72316072287E+03  0.11558939250E+04  0.90173684336E+03 0.  0.
        3    1    3    3  502    0  0.30044475659E+03 -0.31602611592E+03  0.21462631448E+03  0.48600825381E+03  0.10100000352E+00 0. -1.
       -3    1    3    3    0  502 -0.30044475659E+03  0.31602611592E+03  0.50853440838E+03  0.66988567115E+03  0.10100000352E+00 0.  1.
</event>
<event>
 5   0  0.2008770E-02  0.9151117E+03  0.7818609E-02  0.9406886E-01
        2   -1    0    0  501    0  0.00000000000E+00  0.00000000000E+00  0.16603159516E+04  0.16603159516E+04  0.25500000920E-02 0.  1.
       -2   -1    0    0    0  501  0.00000000000E+00  0.00000000000E+00 -0.12609488619E+03  0.12609488621E+03  0.25500000920E-02 0. -1.
    10030    2    1    2    0    0  0.00000000000E+00  0.00000000000E+00  0.15342210654E+04  0.17864108378E+04  0.91511168931E+03 0.  0.
        1    1    3    3  502    0 -0.77834455204E+02 -0.25823197834E+03  0.45576099733E+02  0.27353087201E+03  0.50400001928E-02 0. -1.
       -1    1    3    3    0  502  0.77834455204E+02  0.25823197834E+03  0.14886449657E+04  0.15128799658E+04  0.50400001928E-02 0.  1.
</event>
<event>
 5   0  0.1924218E-02  0.9010614E+03  0.7818609E-02  0.9424256E-01
        2   -1    0    0  501    0  0.00000000000E+00  0.00000000000E+00  0.12684393857E+04  0.12684393857E+04  0.25500000920E-02 0. -1.
       -2   -1    0    0    0  501  0.00000000000E+00  0.00000000000E+00 -0.16002175425E+03  0.16002175427E+03  0.25500000920E-02 0.  1.
    10030    2    1    2    0    0  0.00000000000E+00  0.00000000000E+00  0.11084176315E+04  0.14284611400E+04  0.90106136457E+03 0.  0.
        4    1    3    3  502    0  0.77962160691E+02  0.55843728981E+02  0.12520685794E+04  0.12557364217E+04  0.12699999809E+01 0. -1.
       -4    1    3    3    0  502 -0.77962160691E+02 -0.55843728981E+02 -0.14365094789E+03  0.17272471825E+03  0.12699999809E+01 0.  1.
</event>
<event>
 5   0  0.1968763E-02  0.8966203E+03  0.7818609E-02  0.9429816E-01
       -2   -1    0    0    0  501  0.00000000000E+00  0.00000000000E+00  0.28963477423E+03  0.28963477424E+03  0.25500000920E-02 0. -1.
        2   -1    0    0  501    0  0.00000000000E+00  0.00000000000E+00 -0.69391521733E+03  0.69391521734E+03  0.25500000920E-02 0.  1.
    10030    2    1    2    0    0  0.00000000000E+00  0.00000000000E+00 -0.40428044310E+03  0.98354999158E+03  0.89662027039E+03 0.  0.
        2    1    3    3  502    0  0.39247333957E+03  0.14973803752E+03 -0.37392866511E+03  0.56238727648E+03  0.25500000920E-02 0. -1.
       -2    1    3    3    0  502 -0.39247333957E+03 -0.14973803752E+03 -0.30351777995E+02  0.42116271510E+03  0.25500000920E-02 0.  1.
</event>
<event>
 5   0  0.1177712E-02  0.8508007E+03  0.7818609E-02  0.9489263E-01
        1   -1    0    0  501    0  0.00000000000E+00  0.00000000000E+00  0.41045176117E+03  0.41045176120E+03  0.50400001928E-02 0. -1.
       -1   -1    0    0    0  501  0.00000000000E+00  0.00000000000E+00 -0.44089337762E+03  0.44089337765E+03  0.50400001928E-02 0.  1.
    10030    2    1    2    0    0  0.00000000000E+00  0.00000000000E+00 -0.30441616445E+02  0.85134513885E+03  0.85080071311E+03 0.  0.
        5    1    3    3  502    0 -0.24180970633E+03 -0.29552594460E+03 -0.20278636068E+03  0.43237936593E+03  0.46999998093E+01 0.  1.
       -5    1    3    3    0  502  0.24180970633E+03  0.29552594460E+03  0.17234474424E+03  0.41896577291E+03  0.46999998093E+01 0. -1.
</event>
<event>
 5   0  0.1968763E-02  0.9109024E+03  0.7818609E-02  0.9412055E-01
        2   -1    0    0  501    0  0.00000000000E+00  0.00000000000E+00  0.53515841702E+03  0.53515841703E+03  0.25500000920E-02 0.  1.
       -2   -1    0    0    0  501  0.00000000000E+00  0.00000000000E+00 -0.38761570098E+03  0.38761570099E+03  0.25500000920E-02 0. -1.
    10030    2    1    2    0    0  0.00000000000E+00  0.00000000000E+00  0.14754271604E+03  0.92277411802E+03  0.91090242059E+03 0.  0.
        2    1    3    3  502    0 -0.12175394421E+03 -0.21433040703E+02 -0.37029355859E+03  0.39038534514E+03  0.25500000920E-02 0. -1.
       -2    1    3    3    0  502  0.12175394421E+03  0.21433040703E+02  0.51783627463E+03  0.53238877288E+03  0.25500000920E-02 0.  1.
</event>
<event>
 5   0  0.1177712E-02  0.9003284E+03  0.7818609E-02  0.9425171E-01
       -1   -1    0    0    0  501  0.00000000000E+00  0.00000000000E+00  0.23845530967E+03  0.23845530972E+03  0.50400001928E-02 0.  1.
        1   -1    0    0  501    0  0.00000000000E+00  0.00000000000E+00 -0.84983555269E+03  0.84983555271E+03  0.50400001928E-02 0. -1.
    10030    2    1    2    0    0  0.00000000000E+00  0.00000000000E+00 -0.61138024302E+03  0.10882908624E+04  0.90032838436E+03 0.  0.
        5    1    3    3  502    0 -0.27178765341E+03  0.26121711585E+03 -0.60306449877E+03  0.71120446416E+03  0.46999998093E+01 0. -1.
       -5    1    3    3    0  502  0.27178765341E+03 -0.26121711585E+03 -0.83157442522E+01  0.37708639827E+03  0.46999998093E+01 0.  1.
</event>
<event>
 5   0  0.1162839E-02  0.8797165E+03  0.7818609E-02  0.9451298E-01
        1   -1    0    0  501    0  0.00000000000E+00  0.00000000000E+00  0.73027870212E+03  0.73027870214E+03  0.50400001928E-02 0.  1.
       -1   -1    0    0    0  501  0.00000000000E+00  0.00000000000E+00 -0.26493347364E+03  0.26493347369E+03  0.50400001928E-02 0. -1.
    10030    2    1    2    0    0  0.00000000000E+00  0.00000000000E+00  0.46534522848E+03  0.99521217583E+03  0.87971648459E+03 0.  0.
        2    1    3    3  502    0 -0.62645322306E+02  0.40408273121E+03  0.49320333790E+02  0.41187350655E+03  0.25500000920E-02 0. -1.
       -2    1    3    3    0  502  0.62645322306E+02 -0.40408273121E+03  0.41602489469E+03  0.58333866928E+03  0.25500000920E-02 0.  1.
</event>
<event>
 5   0  0.1162839E-02  0.9219511E+03  0.7818609E-02  0.9398550E-01
        1   -1    0    0  501    0  0.00000000000E+00  0.00000000000E+00  0.12356236802E+04  0.12356236802E+04  0.50400001928E-02 0. -1.
       -1   -1    0    0    0  501  0.00000000000E+00  0.00000000000E+00 -0.17197666426E+03  0.17197666433E+03  0.50400001928E-02 0.  1.
    10030    2    1    2    0    0  0.00000000000E+00  0.00000000000E+00  0.10636470159E+04  0.14076003445E+04  0.92195105911E+03 0.  0.
        2    1    3    3  502    0 -0.15828214330E+03 -0.12502275685E+03 -0.10102741621E+03  0.22558915189E+03  0.25500000920E-02 0.  1.
       -2    1    3    3    0  502  0.15828214330E+03  0.12502275685E+03  0.11646744321E+04  0.11820111926E+04  0.25500000920E-02 0. -1.
</event>
<event>
 5   0  0.1162839E-02  0.9001990E+03  0.7818609E-02  0.9425333E-01
       -1   -1    0    0    0  501  0.00000000000E+00  0.00000000000E+00  0.22379185628E+03  0.22379185634E+03  0.50400001928E-02 0. -1.
        1   -1    0    0  501    0  0.00000000000E+00  0.00000000000E+00 -0.90525882553E+03  0.90525882555E+03  0.50400001928E-02 0.  1.
    10030    2    1    2    0    0  0.00000000000E+00  0.00000000000E+00 -0.68146696925E+03  0.11290506819E+04  0.90019898472E+03 0.  0.
        2    1    3    3  502    0  0.36902923739E+03 -0.16346875403E+03 -0.90878630983E+02  0.41371915253E+03  0.25500000920E-02 0.  1.
       -2    1    3    3    0  502 -0.36902923739E+03  0.16346875403E+03 -0.59058833827E+03  0.71533152936E+03  0.25500000920E-02 0. -1.
</event>
<event>
 5   0  0.2008770E-02  0.8958231E+03  0.7818609E-02  0.9430818E-01
       -2   -1    0    0    0  501  0.00000000000E+00  0.00000000000E+00  0.23737150661E+03  0.23737150662E+03  0.25500000920E-02 0. -1.
        2   -1    0    0  501    0  0.00000000000E+00  0.00000000000E+00 -0.84519308205E+03  0.84519308205E+03  0.25500000920E-02 0.  1.
    10030    2    1    2    0    0  0.00000000000E+00  0.00000000000E+00 -0.60782157544E+03  0.10825645887E+04  0.89582309697E+03 0.  0.
        1    1    3    3  502    0 -0.41264588563E+02  0.66554597069E+02  0.22903491203E+03  0.24205220845E+03  0.50400001928E-02 0. -1.
       -1    1    3    3    0  502  0.41264588563E+02 -0.66554597069E+02 -0.83685648747E+03  0.84051238022E+03  0.50400001928E-02 0.  1.
</event>
<event>
 5   0  0.1924218E-02  0.8895014E+03  0.7818609E-02  0.9438801E-01
        2   -1    0    0  501    0  0.00000000000E+00  0.00000000000E+00  0.32476458427E+03  0.32476458428E+03  0.25500000920E-02 0. -1.
       -2   -1    0    0    0  501  0.00000000000E+00  0.00000000000E+00 -0.60906639381E+03  0.60906639381E+03  0.25500000920E-02 0.  1.
    10030    2    1    2    0    0  0.00000000000E+00  0.00000000000E+00 -0.28430180954E+03  0.93383097809E+03  0.88950142031E+03 0.  0.
        4    1    3    3  502    0  0.36032868224E+02  0.68826248727E+00  0.32322718870E+03  0.32523263937E+03  0.12699999809E+01 0. -1.
       -4    1    3    3    0  502 -0.36032868224E+02 -0.68826248727E+00 -0.60752899824E+03  0.60859833872E+03  0.12699999809E+01 0.  1.
</event>
<event>
 5   0  0.1206541E-02  0.9839053E+03  0.7818609E-02  0.9326375E-01
       -1   -1    0    0    0  501  0.00000000000E+00  0.00000000000E+00  0.90985155096E+03  0.90985155098E+03  0.50400001928E-02 0. -1.
        1   -1    0    0  501    0  0.00000000000E+00  0.00000000000E+00 -0.26599659936E+03  0.26599659941E+03  0.50400001928E-02 0.  1.
    10030    2    1    2    0    0  0.00000000000E+00  0.00000000000E+00  0.64385495160E+03  0.11758481504E+04  0.98390531763E+03 0.  0.
        3    1    3    3  502    0 -0.63066611871E+01 -0.24602809941E+03  0.83099312936E+03  0.86667132808E+03  0.10100000352E+00 0. -1.
       -3    1    3    3    0  502  0.63066611871E+01  0.24602809941E+03 -0.18713817776E+03  0.30917682230E+03  0.10100000352E+00 0.  1.
</event>
<event>
 5   0  0.2008643E-02  0.9337757E+03  0.7818609E-02  0.9384318E-01
       -2   -1    0    0    0  501  0.00000000000E+00  0.00000000000E+00  0.17546976740E+03  0.17546976742E+03  0.25500000920E-02 0.  1.
        2   -1    0    0  501    0  0.00000000000E+00  0.00000000000E+00 -0.12422896872E+04  0.12422896872E+04  0.25500000920E-02 0. -1.
    10030    2    1    2    0    0  0.00000000000E+00  0.00000000000E+00 -0.10668199198E+04  0.14177594547E+04  0.93377573855E+03 0.  0.
        3    1    3    3  502    0 -0.31581528718E+03  0.34369644803E+03 -0.51693591140E+03  0.69648351790E+03  0.10100000352E+00 0.  1.
       -3    1    3    3    0  502  0.31581528718E+03 -0.34369644803E+03 -0.54988400844E+03  0.72127593676E+03  0.10100000352E+00 0. -1.
</event>
<event>
 5   0  0.1206541E-02  0.1002235E+04  0.7818609E-02  0.9306097E-01
       -1   -1    0    0    0  501  0.00000000000E+00  0.00000000000E+00  0.14534180778E+03  0.14534180786E+03  0.50400001928E-02 0. -1.
        1   -1    0    0  501    0  0.00000000000E+00  0.00000000000E+00 -0.17277815792E+04  0.17277815792E+04  0.50400001928E-02 0.  1.
    10030    2    1    2    0    0  0.00000000000E+00  0.00000000000E+00 -0.15824397714E+04  0.18731233871E+04  0.10022352982E+04 0.  0.
        3    1    3    3  502    0  0.37401061226E+03 -0.26796493199E+03 -0.42010474137E+03  0.62303863988E+03  0.10100000352E+00 0.  1.
       -3    1    3    3    0  502 -0.37401061226E+03  0.26796493199E+03 -0.11623350300E+04  0.12500847472E+04  0.10100000352E+00 0. -1.
</event>
<event>
 5   0  0.1162839E-02  0.8483426E+03  0.7818609E-02  0.9492564E-01
       -1   -1    0    0    0  501  0.00000000000E+00  0.00000000000E+00  0.29981622139E+03  0.29981622143E+03  0.50400001928E-02 0.  1.
        1   -1    0    0  501    0  0.00000000000E+00  0.00000000000E+00 -0.60010519760E+03  0.60010519762E+03  0.50400001928E-02 0. -1.
    10030    2    1    2    0    0  0.00000000000E+00  0.00000000000E+00 -0.30028897622E+03  0.89992141905E+03  0.84834255536E+03 0.  0.
        2    1    3    3  502    0 -0.24699162887E+03 -0.25953261140E+03  0.90727642466E+02  0.36958564126E+03  0.25500000920E-02 0.  1.
       -2    1    3    3    0  502  0.24699162887E+03  0.25953261140E+03 -0.39101661868E+03  0.53033577779E+03  0.25500000920E-02 0. -1.
</event>
<event>
 5   0  0.1968763E-02  0.9309639E+03  0.7818609E-02  0.9387682E-01
       -2   -1    0    0    0  501  0.00000000000E+00  0.00000000000E+00  0.18584145203E+03  0.18584145205E+03  0.25500000920E-02 0. -1.
        2   -1    0    0  501    0  0.00000000000E+00  0.00000000000E+00 -0.11659049022E+04  0.11659049022E+04  0.25500000920E-02 0.  1.
    10030    2    1    2    0    0  0.00000000000E+00  0.00000000000E+00 -0.98006345020E+03  0.13517463543E+04  0.93096393051E+03 0.  0.
        2    1    3    3  502    0 -0.80583191073E+02  0.36056973135E+03 -0.78913870293E+02  0.37779833348E+03  0.25500000920E-02 0. -1.
       -2    1    3    3    0  502  0.80583191073E+02 -0.36056973135E+03 -0.90114957991E+03  0.97394802080E+03  0.25500000920E-02 0.  1.
</event>
<event>
 5   0  0.1177712E-02  0.9093539E+03  0.7818609E-02  0.9413964E-01
        1   -1    0    0  501    0  0.00000000000E+00  0.00000000000E+00  0.56950749886E+03  0.56950749888E+03  0.50400001928E-02 0. -1.
       -1   -1    0    0    0  501  0.00000000000E+00  0.00000000000E+00 -0.36299983835E+03  0.36299983838E+03  0.50400001928E-02 0.  1.
    10030    2    1    2    0    0  0.00000000000E+00  0.00000000000E+00  0.20650766051E+03  0.93250733726E+03  0.90935390262E+03 0.  0.
        5    1    3    3  502    0  0.33123354162E+03  0.45710894804E+02  0.41916235196E+03  0.53621293559E+03  0.46999998093E+01 0. -1.
       -5    1    3    3    0  502 -0.33123354162E+03 -0.45710894804E+02 -0.21265469145E+03  0.39629440167E+03  0.46999998093E+01 0.  1.
</event>
<event>
 5   0  0.1175993E-02  0.9018686E+03  0.7818609E-02  0.9423249E-01
        1   -1    0    0  501    0  0.00000000000E+00  0.00000000000E+00  0.77760310838E+03  0.77760310839E+03  0.50400001928E-02 0.  1.
       -1   -1    0    0    0  501  0.00000000000E+00  0.00000000000E+00 -0.26149809267E+03  0.26149809272E+03  0.50400001928E-02 0. -1.
    10030    2    1    2    0    0  0.00000000000E+00  0.00000000000E+00  0.51610501570E+03  0.10391012011E+04  0.90186857076E+03 0.  0.
        4    1    3    3  502    0  0.37388411899E+03  0.66220065188E+01 -0.32299717356E+02  0.37533727505E+03  0.12699999809E+01 0. -1.
       -4    1    3    3    0  502 -0.37388411899E+03 -0.66220065188E+01  0.54840473306E+03  0.66376392606E+03  0.12699999809E+01 0.  1.
</event>
<event>
 5   0  0.1924218E-02  0.9021447E+03  0.7818609E-02  0.9422904E-01
        2   -1    0    0  501    0  0.00000000000E+00  0.00000000000E+00  0.14485707409E+04  0.14485707409E+04  0.25500000920E-02 0.  1.
       -2   -1    0    0    0  501  0.00000000000E+00  0.00000000000E+00 -0.14046000493E+03  0.14046000496E+03  0.25500000920E-02 0. -1.
    10030    2    1    2    0    0  0.00000000000E+00  0.00000000000E+00  0.13081107359E+04  0.15890307458E+04  0.90214467449E+03 0.  0.
        4    1    3    3  502    0  0.33845143467E+03  0.99830154514E+02  0.11489696618E+04  0.12019352437E+04  0.12699999809E+01 0.  1.
       -4    1    3    3    0  502 -0.33845143467E+03 -0.99830154514E+02  0.15914107410E+03  0.38709550210E+03  0.12699999809E+01 0. -1.
</event>
<event>
 5   0  0.1226424E-02  0.8917454E+03  0.7818609E-02  0.9435959E-01
        1   -1    0    0  501    0  0.00000000000E+00  0.00000000000E+00  0.57436049839E+03  0.57436049841E+03  0.50400001928E-02 0.  1.
       -1   -1    0    0    0  501  0.00000000000E+00  0.00000000000E+00 -0.34612837980E+03  0.34612837983E+03  0.50400001928E-02 0. -1.
    10030    2    1    2    0    0  0.00000000000E+00  0.00000000000E+00  0.22823211859E+03  0.92048887824E+03  0.89174540930E+03 0.  0.
        1    1    3    3  502    0 -0.17576550246E+03 -0.16104089598E+03  0.50305665559E+03  0.55668095063E+03  0.50400001928E-02 0.  1.
       -1    1    3    3    0  502  0.17576550246E+03  0.16104089598E+03 -0.27482453700E+03  0.36380792761E+03  0.50400001928E-02 0. -1.
</event>
<event>
 5   0  0.1924218E-02  0.8734423E+03  0.7818609E-02  0.9459403E-01
        2   -1    0    0  501    0  0.00000000000E+00  0.00000000000E+00  0.21845678936E+04  0.21845678937E+04  0.25500000920E-02 0. -1.
       -2   -1    0    0    0  501  0.00000000000E+00  0.00000000000E+00 -0.87305764766E+02  0.87305764803E+02  0.25500000920E-02 0.  1.
    10030    2    1    2    0    0  0.00000000000E+00  0.00000000000E+00  0.20972621289E+04  0.22718736585E+04  0.87344231792E+03 0.  0.
        4    1    3    3  502    0 -0.32068305222E+03  0.83600221518E+02  0.17884348218E+04  0.18188807937E+04  0.12699999809E+01 0. -1.
       -4    1    3    3    0  502  0.32068305222E+03 -0.83600221518E+02  0.30882730713E+03  0.45299286478E+03  0.12699999809E+01 0.  1.
</event>
<event>
 5   0  0.2041861E-02  0.9141301E+03  0.7818609E-02  0.9408088E-01
        2   -1    0    0  501    0  0.00000000000E+00  0.00000000000E+00  0.10038397282E+04  0.10038397282E+04  0.25500000920E-02 0. -1.
       -2   -1    0    0    0  501  0.00000000000E+00  0.00000000000E+00 -0.20810937410E+03  0.20810937412E+03  0.25500000920E-02 0.  1.
    10030    2    1    2    0    0  0.00000000000E+00  0.00000000000E+00  0.79573035406E+03  0.12119491023E+04  0.91413009476E+03 0.  0.
        5    1    3    3  502    0 -0.14620752876E+03  0.32311111208E+03  0.78007358253E+03  0.85692141786E+03  0.46999998093E+01 0. -1.
       -5    1    3    3    0  502  0.14620752876E+03 -0.32311111208E+03  0.15656771529E+02  0.35502768443E+03  0.46999998093E+01 0.  1.
</event>
<event>
 5   0  0.1175993E-02  0.8180532E+03  0.7818609E-02  0.9534247E-01
       -1   -1    0    0    0  501  0.00000000000E+00  0.00000000000E+00  0.13186815219E+03  0.13186815228E+03  0.50400001928E-02 0.  1.
        1   -1    0    0  501    0  0.00000000000E+00  0.00000000000E+00 -0.12687122458E+04  0.12687122459E+04  0.50400001928E-02 0. -1.
    10030    2    1    2    0    0  0.00000000000E+00  0.00000000000E+00 -0.11368440937E+04  0.14005803981E+04  0.81805315131E+03 0.  0.
        4    1    3    3  502    0 -0.79082049904E+02 -0.54764192253E+02  0.11222361081E+03  0.14781352812E+03  0.12699999809E+01 0.  1.
       -4    1    3    3    0  502  0.79082049904E+02  0.54764192253E+02 -0.12490677045E+04  0.12527668700E+04  0.12699999809E+01 0. -1.
</event>
<event>
 5   0  0.2041861E-02  0.9032941E+03  0.7818609E-02  0.9421473E-01
       -2   -1    0    0    0  501  0.00000000000E+00  0.00000000000E+00  0.21237525703E+03  0.21237525705E+03  0.25500000920E-02 0. -1.
        2   -1    0    0  501    0  0.00000000000E+00  0.00000000000E+00 -0.96049345357E+03  0.96049345357E+03  0.25500000920E-02 0.  1.
    10030    2    1    2    0    0  0.00000000000E+00  0.00000000000E+00 -0.74811819654E+03  0.11728687106E+04  0.90329406970E+03 0.  0.
        5    1    3    3  502    0  0.26947623886E+03 -0.62929227400E+02  0.89366595166E+02  0.29083673994E+03  0.46999998093E+01 0. -1.
       -5    1    3    3    0  502 -0.26947623886E+03  0.62929227400E+02 -0.83748479170E+03  0.88203197068E+03  0.46999998093E+01 0.  1.
</event>
<event>
 5   0  0.7893875E-03  0.8458181E+03  0.7818609E-02  0.9495967E-01
        4   -1    0    0  501    0  0.00000000000E+00  0.00000000000E+00  0.24000471718E+03  0.24000807729E+03  0.12699999809E+01 0.  1.
       -4   -1    0    0    0  501  0.00000000000E+00  0.00000000000E+00 -0.74519319784E+03  0.74519428005E+03  0.12699999809E+01 0. -1.
    10030    2    1    2    0    0  0.00000000000E+00  0.00000000000E+00 -0.50518848067E+03  0.98520235734E+03  0.84581811515E+03 0.  0.
        4    1    3    3  502    0 -0.88557865119E+02 -0.36286917501E+03 -0.21583538499E+02  0.37414435139E+03  0.12699999809E+01 0.  1.
       -4    1    3    3    0  502  0.88557865119E+02  0.36286917501E+03 -0.48360494217E+03  0.61105800595E+03  0.12699999809E+01 0. -1.
</event>
<event>
 5   0  0.1968763E-02  0.8981903E+03  0.7818609E-02  0.9427846E-01
        2   -1    0    0  501    0  0.00000000000E+00  0.00000000000E+00  0.50935492592E+03  0.50935492592E+03  0.25500000920E-02 0. -1.
       -2   -1    0    0    0  501  0.00000000000E+00  0.00000000000E+00 -0.39596445993E+03  0.39596445994E+03  0.25500000920E-02 0.  1.
    10030    2    1    2    0    0  0.00000000000E+00  0.00000000000E+00  0.11339046599E+03  0.90531938586E+03  0.89819028754E+03 0.  0.
        2    1    3    3  502    0 -0.16704121245E+03  0.33550132549E+03  0.30609103840E+03  0.48389630073E+03  0.25500000920E-02 0. -1.
       -2    1    3    3    0  502  0.16704121245E+03 -0.33550132549E+03 -0.19270057241E+03  0.42142308513E+03  0.25500000920E-02 0.  1.
</event>
<event>
 5   0  0.1206541E-02  0.8998101E+03  0.7818609E-02  0.9425819E-01
       -1   -1    0    0    0  501  0.00000000000E+00  0.00000000000E+00  0.19949100345E+03  0.19949100352E+03  0.50400001928E-02 0.  1.
        1   -1    0    0  501    0  0.00000000000E+00  0.00000000000E+00 -0.10146551258E+04  0.10146551259E+04  0.50400001928E-02 0. -1.
    10030    2    1    2    0    0  0.00000000000E+00  0.00000000000E+00 -0.81516412239E+03  0.12141461294E+04  0.89981013389E+03 0.  0.
        3    1    3    3  502    0  0.23999086907E+03  0.35562435639E+03 -0.59036732442E+03  0.72979304466E+03  0.10100000352E+00 0. -1.
       -3    1    3    3    0  502 -0.23999086907E+03 -0.35562435639E+03 -0.22479679797E+03  0.48435308472E+03  0.10100000352E+00 0.  1.
</event>
</LesHouchesEvents>
